default_name
184090
  47.7696015  54.0999422  65.7978906  48.2631979  54.8687919  66.2283947
  47.3909487  53.5096419  66.5247111  47.1634999  54.4659365  65.0776208
  48.7431236  53.2722725  65.0979165  48.7275533  52.2603989  65.5028468
  48.4135548  53.2067600  63.6065660  47.4101167  52.7967864  63.4919674
  48.4429534  54.2149448  63.1932873  49.3837543  52.3369192  62.8314350
  50.0936747  52.8143254  61.9469175  49.4139374  51.0499495  63.1577354
  50.0416843  50.4240051  62.6737650  48.8090072  50.7030466  63.8883643
  50.1552667  53.8114770  65.3035946  50.6169968  54.6748137  64.5586053
  50.8350269  53.2937347  66.3227325  50.4108860  52.6058634  66.9285683
  52.1908126  53.7315050  66.6188593  52.2172190  54.8147727  66.7368975
  52.6736814  53.0867943  67.9177002  51.8291863  53.2089143  68.5959435
  52.8361636  52.0258034  67.7279689  53.9269273  53.6881774  68.5519194
  54.7044859  53.7695812  67.7923953  53.6279429  55.0638027  69.1187300
  52.8507477  54.9831383  69.8787034  54.5317039  55.4771386  69.5664691
  53.2863235  55.7205866  68.3187103  54.4686566  52.7692366  69.6309005
  54.7218604  51.8036785  69.1930822  55.3612054  53.2127803  70.0721791
  53.7126319  52.6301505  70.4036752  53.1282644  53.3734041  65.4718415
  53.0804497  52.2650757  64.9329732  53.9865371  54.3196363  65.0989359
  54.0115062  55.2137851  65.5679494  54.8864667  54.1038610  63.9798015
  54.3303097  53.7054502  63.1312395  55.5434057  55.4142482  63.5598758
  56.0374013  55.2652538  62.5997361  54.7698113  56.1750346  63.4556853
  56.4946525  55.8373066  64.5189301  56.8930767  56.6622849  64.2321046
  55.9586266  53.0831664  64.3493684  56.2475354  52.8689921  65.5288488
  56.5640390  52.4335757  63.3516743  56.3055486  52.4172645  61.9475939
  56.8176209  53.2647413  61.4918908  55.2311989  52.5164016  61.7925344
  56.8379189  51.0875301  61.4621102  57.1017562  51.1379371  60.4057258
  56.1032065  50.2970583  61.6152552  58.0761331  50.8613133  62.3384336
  58.9729579  51.3797778  61.9993189  58.2932499  49.7995989  62.4555759
  57.6116102  51.4449019  63.6630342  57.1413980  50.6367850  64.2233429
  58.7651202  52.0152045  64.4700531  59.2440938  51.3681832  65.4129369
  59.2181803  53.2253125  64.1347411  58.8361357  53.7330092  63.3496391
  60.3302183  53.8188851  64.8663375  61.1681714  53.1225506  64.8987739
  60.7887020  55.1023717  64.1775850  61.0093672  54.7957417  63.1551447
  59.9636317  55.8146462  64.1726934  62.0256543  55.7599838  64.7903144
  61.8344478  55.9597693  65.8446515  63.2339990  54.8506453  64.6590155
  63.4261213  54.6507707  63.6048628  64.1043034  55.3359558  65.1007674
  63.0404753  53.9113157  65.1770010  62.2939679  57.1029358  64.1406154
  61.4356517  57.7577812  64.2908497  63.1780835  57.5546292  64.5905196
  62.4613856  56.9634831  63.0726158  59.9472363  54.0971197  66.3133514
  60.7407455  53.8523685  67.2286093  58.7398478  54.6176251  66.5417986
  58.1388839  54.9159161  65.7868389  58.2871510  54.8312959  67.9114991
  59.0026008  55.4556437  68.4466820  56.9293977  55.5320820  67.9146304
  56.2800294  54.9825716  67.2331186  56.5326092  55.4643676  68.9275833
  56.9896284  56.9879753  67.4916907  57.3587895  57.5679293  68.3375478
  57.6930942  57.0671470  66.6628560  55.6410042  57.5255792  67.0617178
  55.0636633  56.9817073  66.0970552  55.1569047  58.4917323  67.6875779
  58.2145363  53.5179267  68.6820816  58.6015677  53.4592330  69.8521973
  57.7074743  52.4565920  68.0505289  57.3352467  52.5275589  67.1143080
  57.6291227  51.1661323  68.7310990  57.0634864  51.2656775  69.6575144
  56.9259941  50.1469640  67.8371251  55.9111549  50.4934032  67.6417263
  57.4709880  50.0712148  66.8961980  56.8789027  48.8754811  68.4586301
  56.4335618  48.2525856  67.8796029  59.0135993  50.6658799  69.1180781
  59.2245315  50.1815306  70.2418972  59.9827184  50.8086122  68.2119839
  59.8025833  51.1748150  67.2881082  61.3350268  50.3687992  68.5290969
  61.3206937  49.3380060  68.8831578  62.2106431  50.4437154  67.2809921
  61.7734748  49.7121542  66.6014325  62.1032553  51.4421790  66.8571544
  63.6912318  50.1321889  67.4791776  64.1426963  50.9243388  68.0764876
  63.8657307  48.8039779  68.1875946  63.4148921  48.0112170  67.5906242
  64.9280728  48.5990121  68.3199537  63.3799181  48.8449895  69.1624815
  64.3981458  50.1179698  66.1399497  64.2966113  51.0935642  65.6645491
  65.4546931  49.8949882  66.2885710  63.9526568  49.3551087  65.5014504
  61.9235421  51.2050619  69.6559191  62.5607820  50.6665680  70.5701218
  61.7259634  52.5241658  69.6116297  61.2483631  52.9683122  68.8404415
  62.2566853  53.3682514  70.6734696  63.3308785  53.2086769  70.7669796
  62.0084409  54.8390920  70.3495840  60.9365526  55.0164576  70.2618516
  62.4150038  55.4609330  71.1471557  62.4962421  55.0917039  69.4081296
  61.6266243  52.9994798  72.0079315  62.2967388  53.0079043  73.0456836
  60.3288745  52.6967827  71.9989371  59.7896123  52.7643092  71.1476230
  59.6385722  52.3213224  73.2259735  59.7535503  53.1049209  73.9748744
  58.1489240  52.1273554  72.9470149  57.7086464  53.0414822  72.5487347
  58.0046111  51.3149274  72.2348108  57.3661614  51.7721223  74.1627842
  57.0841527  50.5203675  74.6149977  57.4667133  49.6864966  74.0264347
  56.3440285  50.5900377  75.7688388  56.0037639  49.8001069  76.2982998
  56.1372695  51.9061939  76.0832234  55.4491692  52.4760037  77.1469154
  54.9820660  51.8168766  77.8786699  55.4020530  53.8395128  77.2074793
  54.8727657  54.3220694  78.0291204  56.0187038  54.6361834  76.2372764
  55.9725997  55.7236940  76.2946762  56.7022829  54.0720650  75.1808759
  57.1645468  54.7359647  74.4503624  56.7681652  52.6795138  75.0922158
  60.2456152  51.0604661  73.8232016  60.5073020  50.9917986  75.0314519
  60.4723108  50.0438158  72.9874575  60.1910001  50.0649803  72.0176556
  61.0946010  48.8279983  73.5008344  60.5121492  48.4425038  74.3376397
  61.1598211  47.7545115  72.4158167  61.6543855  48.2010654  71.5532074
  61.7734632  46.9423810  72.8056725  59.8096323  47.2106624  71.9976367
  59.3593034  46.6847689  72.8395041  59.1718686  48.0460001  71.7085512
  59.9129661  46.2546707  70.8298649  60.9945761  45.7578250  70.5137365
  58.7859058  45.9852195  70.1847190  58.7972228  45.3531378  69.3970350
  57.9215075  46.4133495  70.4840877  62.4875534  49.1183943  74.0406443
  62.8719788  48.6012489  75.0971322  63.2544566  49.9509140  73.3336637
  62.9441034  50.3234888  72.4476795  64.6041719  50.2767408  73.7873272
  65.1975527  49.3730318  73.9262823  65.3137235  51.1778213  72.7629208
  64.6909088  52.0503814  72.5658421  66.6565793  51.6270916  73.2954996
  67.2801621  50.7550375  73.4923935  67.1457345  52.2639561  72.5584574
  66.5127323  52.1864364  74.2199146  65.5047579  50.4380317  71.4551233
  64.5330919  50.1447237  71.0577096  66.0082065  51.0880953  70.7395421
  66.1106466  49.5481285  71.6256287  64.5565679  50.9243460  75.1649513
  65.2894529  50.5350920  76.0814903  63.6817246  51.9175284  75.3336401
  63.1053993  52.2399933  74.5694642  63.5804072  52.6073302  76.6153980
  64.5532848  53.0086563  76.8992039  62.5846649  53.7637539  76.5166944
  62.9837626  54.4733025  75.7918765  61.6469857  53.3522507  76.1431668
  62.3341540  54.4781154  77.8431190  61.8717212  53.7649527  78.5255087
  63.2990140  54.7897663  78.2431451  61.4287834  55.6973534  77.6917625
  61.3638984  56.1897122  78.6620572  61.8925182  56.3725204  76.9725970
  60.0302724  55.3308214  77.2145179  59.4701775  56.2535450  77.0629418
  60.1225819  54.8023948  76.2656536  59.3121595  54.4701329  78.1934470
  59.2261383  54.9597693  79.0726264  58.3922356  54.2516651  77.8383248
  59.8307730  53.6148770  78.3337199  63.1731022  51.6441713  77.7224805
  63.7889627  51.6148941  78.7960668  62.1226835  50.8535080  77.4853407
  61.6259655  50.8771775  76.6062444  61.6282350  49.9695262  78.5356958
  61.3820005  50.5513785  79.4239051  60.3733199  49.2391051  78.0680912
  60.5556302  48.7373377  77.1177798  60.0593294  48.5059856  78.8110891
  58.9602984  50.3133511  77.8007135  58.1232890  49.3508953  77.4238949
  62.6976229  48.9740834  78.9551493  62.9516504  48.7910449  80.1506876
  63.3445717  48.3201826  77.9889060  63.1189062  48.4371054  77.0114074
  64.3700625  47.3495383  78.3499892  63.9594650  46.6222441  79.0503834
  64.8650498  46.6079442  77.1109702  64.0461118  45.9467184  76.8277384
  65.0328575  47.3375412  76.3187399  66.1361177  45.7833505  77.3218864
  66.9566957  46.4596255  77.5614791  65.9557720  44.7875276  78.4517395
  65.1356097  44.1105741  78.2126441  66.8735964  44.2139993  78.5812171
  65.7283269  45.3213870  79.3744330  66.5024170  45.0601581  76.0512477
  66.6753692  45.7858077  75.2565028  67.4086160  44.4764581  76.2131083
  65.6885450  44.3944618  75.7639156  65.5265951  48.0304986  79.0677068
  66.0485838  47.5062398  80.0584244  65.9424388  49.2029932  78.5868573
  65.4949858  49.6155958  77.7808521  67.0768030  49.8968236  79.1764151
  67.9342742  49.2281283  79.2518398  67.4573214  51.0791318  78.2924157
  66.5059416  51.4744561  77.9364742  67.9637315  51.8363795  78.8909345
  68.3320769  50.7062621  77.0977526  67.9470896  49.7952400  76.6395774
  68.3179619  51.8268751  76.0807112  68.7032725  52.7381787  76.5380517
  68.9438646  51.5547962  75.2308172  67.2965670  51.9959071  75.7397112
  69.7524607  50.3872684  77.5372193  69.7382497  49.5487839  78.2335248
  70.3527138  50.1252076  76.6659435  70.1859955  51.2588341  78.0276475
  66.7856884  50.3799653  80.5883369  67.7235201  50.5851794  81.3659749
  65.5103134  50.5636607  80.9349445  64.7578891  50.3927259  80.2832251
  65.1753681  51.0780445  82.2589584  65.5922084  52.0769411  82.3876014
  63.6583247  51.1573665  82.4219835  63.2741738  51.7758662  81.6108205
  63.2655440  50.1453400  82.3238733  63.2226083  51.7421456  83.7539166
  63.4994046  51.0428355  84.5428717  63.7489393  52.6848419  83.9035876
  61.7259346  51.9865369  83.7974337  61.5049989  52.6322440  84.6473447
  61.4296752  52.4864971  82.8752788  60.9561167  50.6855974  83.9371539
  60.9700131  50.1767583  82.9733125  61.4618530  50.0690410  84.6802475
  59.5484148  50.9123586  84.3570819  59.0794878  51.4832963  83.6684331
  59.0739720  50.0243856  84.4377539  59.5353136  51.3834686  85.2503807
  65.7772925  50.2218324  83.3666216  66.1871844  50.7455828  84.4077365
  65.8433685  48.9081269  83.1664793  65.5681706  48.5192623  82.2758897
  66.2483636  47.9918789  84.2249534  66.0586383  48.4423441  85.1992144
  65.4549353  46.6859130  84.1268432  65.5885160  46.2902355  83.1200191
  65.8852789  45.9923806  84.8492816  63.9851410  46.8555604  84.4082990
  63.5040443  46.8520906  85.7083909  64.2099874  46.7224748  86.5287223
  62.1612042  47.0085028  85.9734320  61.7948112  46.9943633  86.9999105
  61.2797669  47.1757912  84.9308118  59.9386367  47.3385826  85.1891908
  59.7321399  47.3190125  86.1265145  61.7326859  47.1888009  83.6317220
  61.0341900  47.3261935  82.8062965  63.0779191  47.0268717  83.3767227
  63.4424427  47.0324369  82.3494975  67.7372406  47.6769338  84.2127473
  68.1961864  46.9069759  85.0612941  68.5018131  48.2422415  83.2847275
  68.0936973  48.8271293  82.5695721  69.9384137  48.0083354  83.2484409
  70.1499846  46.9656811  83.4855254  70.4912029  48.3143468  81.8604697
  70.3558240  49.3763101  81.6555169  71.5544291  48.0746842  81.8459120
  69.8238921  47.5553115  80.8723313  70.1876185  47.7639265  80.0087442
  70.6133189  48.8834710  84.2968624  70.4787353  50.1112671  84.2656689
  71.3341370  48.2588041  85.2271557  71.3951421  47.2511621  85.2593311
  72.0135159  49.0252058  86.2629712  71.3514311  49.7908838  86.6672978
  72.4479194  48.1028402  87.4032910  73.2097833  48.6081359  87.9968733
  71.2614036  47.7556875  88.2908103  70.4992668  47.2499147  87.6979858
  71.5895111  47.0988822  89.0964475  70.8443998  48.6692709  88.7145720
  73.0061502  46.8983366  86.8639327  73.2776395  46.3219366  87.5820252
  73.2244189  49.7794858  85.7349259  73.7738385  50.6160948  86.4596731
  73.6548218  49.5053043  84.5030023  73.2133352  48.7625667  83.9800015
  74.7773640  50.2037935  83.8955544  75.4023433  50.6593302  84.6636602
  75.6312255  49.2207443  83.0893375  76.3102454  49.7823007  82.4477094
  76.4348266  48.3323673  84.0210266  75.7564263  47.7701103  84.6626960
  77.0366693  47.6390498  83.4334932  77.0893920  48.9489571  84.6370312
  74.7805905  48.4077842  82.2736009  75.3156938  47.7915070  81.7681633
  74.3495549  51.3526631  82.9927266  75.2087541  52.1141524  82.5365251
  73.0544080  51.4965818  82.7269765  72.3906360  50.8273694  83.0898274
  72.5562360  52.5791910  81.8924467  73.2311783  52.7442849  81.0526276
  71.1741452  52.2247456  81.3457306  71.1922205  51.1947958  80.9893936
  70.4167545  52.3265159  82.1229706  70.7223391  53.0685844  80.1941993
  69.6809328  53.9478891  80.1822762  69.1203824  54.0584669  81.1105303
  69.5638209  54.5271258  78.9431351  68.8760533  55.2178493  78.6786049
  70.5366151  54.0186808  78.1235491  70.8208365  54.2955000  76.7933028
  70.2030434  55.0253492  76.2700911  71.8666048  53.6289042  76.2201738
  72.1173231  53.8188578  75.1765465  72.6269947  52.7045997  76.9424565
  73.4600962  52.1796984  76.4749951  72.3479225  52.4287329  78.2647293
  72.9702384  51.6996203  78.7835920  71.2839846  53.0953539  78.8785505
  72.4961977  53.8575247  82.7168249  71.9227602  53.8700607  83.8107057
  73.0870775  54.9318119  82.1970693  73.5263076  54.8568027  81.2906754
  73.1701835  56.2098982  82.9045429  72.5449183  56.1744735  83.7966684
  74.6083048  56.5088688  83.3275614  75.2270085  56.4470048  82.4323085
  74.6259425  57.5290499  83.7109924  75.1508537  55.5618002  84.3840223
  74.5265748  55.6421835  85.2739185  75.0997427  54.5446190  83.9956511
  76.5892110  55.8948165  84.7430343  77.2005489  55.8021451  83.8453835
  76.6271067  56.9228708  85.1032672  77.1224907  54.9625851  85.8167271
  76.5011931  55.0751394  86.7052211  77.0467645  53.9395475  85.4482725
  78.5374194  55.2615135  86.1608019  78.6077383  56.2092984  86.5026479
  78.8524562  54.6214736  86.8757850  79.1133614  55.1568600  85.3377359
  72.6337701  57.3122224  82.0025230  73.4024135  58.0276996  81.3490311
  71.3165767  57.4771806  81.9433941  70.2536922  56.7663301  82.5777333
  70.5215646  56.6366646  83.6263187  70.1764663  55.7898593  82.0995700
  69.0032974  57.5978532  82.3961703  68.8950001  58.3174422  83.2076888
  68.1185242  56.9626347  82.3540367  69.2377392  58.2997785  81.0528204
  68.7244626  59.2585868  80.9797944  68.9751894  57.6813934  80.1944690
  70.7411355  58.5202719  81.0926215  71.1141434  58.3840715  80.0775290
  71.1139479  59.9084480  81.5865924  71.4089263  60.1242151  82.7635275
  71.0969881  60.8601814  80.6592873  70.9168464  60.6432512  79.6894473
  71.3928661  62.2395247  81.0139776  72.3507913  62.2920961  81.5313891
  71.4684044  63.1062221  79.7569984  72.0044661  63.9939109  80.0927747
  72.0731235  62.5730125  79.0234438  70.1415525  63.5231983  79.1177388
  69.3736634  62.8037758  79.4021302  69.7315405  64.9068898  79.5773169
  70.4987750  65.6269809  79.2928543  68.7858817  65.1803844  79.1093094
  69.6144699  64.9105304  80.6610058  70.2344836  63.4790170  77.6030455
  70.4748726  62.4652740  77.2826744  69.2798621  63.7792856  77.1710295
  71.0155324  64.1607254  77.2663922  70.3327772  62.7709317  81.9724426
  69.1552571  62.4122804  81.8941954  70.7628890  63.6323045  82.8857167
  71.7230847  63.9451947  82.8707697  69.8932112  64.1219870  83.9473647
  69.5721708  63.2967978  84.5830494  70.6518183  65.1317080  84.8048025
  71.5030680  64.6271163  85.2618148  71.0091013  65.9379456  84.1641545
  69.7955463  65.7296628  85.9042181  68.6158639  65.4091309  86.0369383
  70.3898558  66.6109314  86.7006619  69.8680349  67.0416908  87.4504946
  71.3608667  66.8462487  86.5527955  68.6419455  64.7635702  83.3531432
  68.7611547  65.6897233  82.5395643  67.4373479  64.3315194  83.7401404
  67.0737727  63.2515060  84.5937475  67.0700917  63.6095264  85.6232659
  67.8160981  62.4604728  84.4873592  65.7023259  62.8221588  84.1233428
  65.1493048  62.3403333  84.9296373  65.7794935  62.1389682  83.2775312
  65.0431683  64.1421947  83.7026985  64.6096307  64.7231017  84.5167570
  64.2880132  63.9737505  82.9349309  66.2283666  64.8877365  83.1098542
  66.2724126  64.6315178  82.0513126  66.0826664  66.3907894  83.2601216
  65.2759427  66.9880112  82.5375782  66.8208731  67.0235404  84.1698507
  67.4050246  66.4896320  84.7973922  66.7693118  68.4701882  84.3368017
  65.8052838  68.8487899  83.9970812  66.9485832  68.8412388  85.8113539
  67.4400382  68.0151892  86.3253706  67.5742755  69.7315317  85.8745013
  65.6317931  69.1255335  86.5015390  64.8104361  69.8907881  85.9991816
  65.4219083  68.5090911  87.6577536  64.5592520  68.6638206  88.1597324
  66.1257825  67.8880096  88.0304729  67.8056898  69.2079974  83.5008201
  67.8987040  70.4353118  83.6041332  68.5809208  68.5057194  82.6784877
  68.5163665  67.4989824  82.6293699  69.5788790  69.1733661  81.8582265
  70.2511285  69.7528228  82.4910058  70.4021768  68.1471355  81.0826729
  70.8349630  67.4389183  81.7892305  69.7433881  67.6168735  80.3949813
  71.4376638  68.7766655  80.3523266  71.9406189  68.1135230  79.8739145
  68.8997293  70.1447427  80.8995580  67.7559120  69.9441390  80.4829514
  69.6192585  71.2140543  80.5509560  70.5806340  71.3166338  80.8430758
  69.0073546  72.2996880  79.7907021  68.1850640  72.7354683  80.3581815
  70.0394597  73.3899516  79.5117660  69.5525749  74.2208761  79.0012691
  70.4839350  73.7455552  80.4413292  71.1693496  72.9540220  78.6371215
  72.2240023  72.1676882  78.9906407  72.2465744  71.8101440  80.0200835
  73.0648391  71.9918032  77.9197537  73.9143567  71.4455261  77.9206556
  72.5611468  72.6765589  76.8466467  73.0514033  72.7985643  75.5528321
  73.9813834  72.2899562  75.2987584  72.3295360  73.5554496  74.6735214
  72.6836701  73.6739003  73.6494811  71.1409078  74.1853960  75.0572094
  70.5731372  74.7873804  74.3477372  70.6512613  74.0647203  76.3425470
  69.7189489  74.5719389  76.5907879  71.3678612  73.2967563  77.2630343
  68.3931039  71.8102417  78.4865156  67.4134666  72.3939673  78.0098802
  68.9495926  70.7531762  77.8906508  69.7631557  70.2973729  78.2785396
  68.4212918  70.2632758  76.6215985  68.5471768  71.0221130  75.8493173
  69.1656928  68.9994685  76.1906179  69.0211480  68.3118651  77.0239291
  68.6654635  68.6068737  75.3053270  70.6588987  69.1484523  75.9071552
  71.1333689  69.6495396  76.7508911  71.2944601  67.7880062  75.7057478
  70.8207920  67.2864669  74.8618309  72.3587899  67.9098169  75.5045888
  71.1617073  67.1875582  76.6057142  70.8806524  70.0230767  74.6904902
  70.4533187  71.0098082  74.8689456  71.9498375  70.1194793  74.5016758
  70.3986010  69.5702168  73.8240934  66.9290164  69.9879951  76.7225229
  66.1699482  70.2705378  75.7892474  66.4901450  69.4380657  77.8539347
  67.1335852  69.1988449  78.5947838  65.0845772  69.1027268  78.0258789
  64.7128173  68.5859929  77.1410739  64.9102062  68.1867475  79.2352199
  65.6737769  68.4654223  79.9614426  63.9226641  68.3691349  79.6590070
  65.0493728  66.7213547  78.8959815  66.2972684  66.1550218  78.6850844
  67.1817459  66.7860492  78.7722815  66.4315598  64.8199370  78.3703009
  67.4186667  64.3862007  78.2103183  65.3089124  64.0337060  78.2593649
  65.4390488  62.7009728  77.9460669  66.3526670  62.4308943  77.8279185
  64.0575605  64.5725661  78.4589796  63.1680434  63.9490279  78.3692022
  63.9336741  65.9084911  78.7739359  62.9460691  66.3419795  78.9314929
  64.2099105  70.3400611  78.1714194  62.9876941  70.2385775  78.0235373
  64.8013767  71.4971721  78.4633300  65.8052577  71.5224557  78.5714181
  64.0516130  72.7286522  78.6800532  63.0122037  72.4957578  78.9113275
  64.6496854  73.5112239  79.8512820  65.7264305  73.6167713  79.7186968
  64.1935837  74.4990689  79.9163489  64.4444120  72.8569573  81.1799062
  63.2119902  72.7874650  81.7916459  63.3318370  72.1572791  82.9460775
  62.4626921  72.0002279  83.5848428  64.5967459  71.8147099  83.1051146
  64.9843381  71.3202714  83.8959388  65.3135960  72.2404587  82.0141014
  66.3853407  72.0498873  81.9580028  64.0203265  73.6206281  77.4477812
  62.9754657  74.1965621  77.1342752  65.1379483  73.7438905  76.7394820
  65.9879632  73.3059850  77.0647707  65.1960885  74.5496836  75.5241918
  64.7116090  75.5042170  75.7297271  66.6529130  74.8132038  75.1441277
  67.1489820  73.8673381  74.9265187  66.6888935  75.4530289  74.2624081
  67.1612470  75.3074349  75.9720356  64.4688368  73.9043959  74.3572977
  64.5298306  74.4349781  73.2436679  63.7924710  72.7793757  74.5768745
  63.8775946  72.3423314  75.4834315  62.9979351  72.1053291  73.5561063
  62.5269775  71.2208534  73.9850595  61.9027876  73.0293500  73.0154202
  62.3898199  73.7664071  72.3769488  61.2316528  72.4157129  72.4144813
  61.1068077  73.7418441  74.0940846  61.7745916  74.4225132  74.6221520
  60.3114981  74.3128189  73.6149474  60.5009925  72.7611731  75.0809130
  59.9213926  72.0240461  74.5252090  61.3100790  72.2605481  75.6127523
  59.6003083  73.4648028  76.0779843  59.4269578  72.7917396  76.9176485
  60.1126876  74.3600086  76.4303665  58.2966286  73.8463685  75.4714071
  57.8214922  73.0169488  75.1452046  57.7263358  74.3108116  76.1636200
  58.4570109  74.4703831  74.6936010  63.8491001  71.5808591  72.4068620
  63.3492901  71.4061869  71.2920577  65.1333744  71.3204555  72.6495461
  65.5632977  71.5835646  73.5247825  65.9674315  70.7015904  71.6294796
  65.6949319  71.0808209  70.6445799  67.4393158  71.0246611  71.8873034
  67.6579798  70.5401175  72.8388826  68.0449888  70.5721648  71.1021236
  67.7662715  72.5153871  71.9876671  67.2772636  72.9256999  72.8711915
  69.2641935  72.7279501  72.0947225  69.7538806  72.3182800  71.2112771
  69.4761813  73.7948159  72.1651456  69.6405469  72.2237313  72.9847909
  67.2024026  73.2729483  70.7986112  66.1194483  73.1524017  70.7707177
  67.4474087  74.3309558  70.8918488  67.6350093  72.8800647  69.8785063
  65.7767751  69.1928085  71.5579166  66.1506376  68.5835593  70.5508301
  65.2020555  68.5812328  72.5927313  65.0459988  69.1074425  73.4405810
  64.8167410  67.1745450  72.5710686  64.8679589  66.8023009  71.5478823
  65.7423313  66.3271192  73.4465913  65.5968823  66.7292453  74.4492071
  65.3747685  65.3016100  73.4101414  67.2305620  66.3469450  73.1012217
  67.5985711  67.3712251  73.1605552  68.0020959  65.4760998  74.0729897
  67.6349378  64.4515018  74.0138912  69.0616746  65.4970830  73.8181301
  67.8652290  65.8526492  75.0866851  67.4612001  65.8767067  71.6801295
  66.9324511  66.5333720  70.9892500  68.5280578  65.8996910  71.4578960
  67.0893154  64.8581491  71.5690388  63.3811658  67.0695696  73.0591651
  63.0964417  67.3751360  74.2207348  62.4862655  66.6394830  72.1846961
  62.7585166  66.3716848  71.2496759  61.0747485  66.5787709  72.5367229
  60.7466027  67.5443763  72.9214641  60.2376107  66.2330346  71.3099366
  60.3519093  67.0389717  70.5850226  60.6322171  65.3080954  70.8893734
  58.7693761  66.0527274  71.6367616  58.3287656  66.5445839  72.6968354
  58.0539629  65.4221801  70.8310594  60.8688604  65.5408127  73.6328834
  61.2085317  64.3684510  73.4296584  60.3251247  65.9103188  74.7961056
  60.2355686  67.2065192  75.3319088  59.6112760  67.7991197  74.6631909
  61.2414606  67.6257027  75.3556925  59.6367328  67.0662680  76.7130769
  58.5481605  67.1003065  76.6689096  59.9978753  67.8545658  77.3735797
  60.1355452  65.6926469  77.1766516  59.4985363  65.1877226  77.9028542
  61.1501462  65.7604307  77.5691942  60.1368290  64.9217356  75.8660055
  61.0203220  64.2833562  75.8691885  58.8929872  64.0629019  75.7147861
  58.7879287  63.0375332  76.4018697  57.9521648  64.4377112  74.8487288
  58.0684031  65.2610325  74.2753790  56.6984236  63.6986900  74.7514533
  56.3468420  63.4253802  75.7463359  55.6327520  64.5660343  74.0773021
  55.5913005  65.5278492  74.5884705  55.9161253  64.7204046  73.0361635
  54.3603401  63.9469894  74.1330464  53.7115439  64.5099799  73.7044382
  56.8842380  62.3913336  73.9889060  56.6561231  61.3055188  74.5324891
  57.2951007  62.4765489  72.7298491  57.4793060  63.3697808  72.2959084
  57.4527279  61.2742626  71.9267829  56.5564410  60.6582797  71.9998169
  57.6820950  61.6302189  70.4591965  58.7114104  61.9655895  70.3321671
  57.4306532  60.4215496  69.5735478  56.4013311  60.0858674  69.6996945
  57.5986315  60.6929144  68.5313177  58.1113548  59.6175283  69.8533616
  56.7930148  62.6869306  70.0768405  56.9384350  62.9094041  69.1543663
  58.6247020  60.4464273  72.4547021  59.6793497  61.0003632  72.7781681
  58.4779257  59.1208081  72.5538756  57.3913095  58.2883761  72.2284233
  57.0304451  58.5858022  71.2438346  56.6097488  58.4603488  72.9684823
  57.9061226  56.8663882  72.2532160  58.3063377  56.5820169  71.2800460
  57.1144184  56.1728696  72.5366553  59.0058998  56.9072277  73.3206051
  59.7967767  56.1675814  73.1959613  58.5830754  56.8211132  74.3215564
  59.5678145  58.3044319  73.1134285  59.7979981  58.7084922  74.0992526
  60.8301744  58.2873048  72.2661198  61.8673134  57.8201770  72.7526795
  60.7808919  58.7722257  71.0240252  59.9551074  59.2505763  70.6933290
  61.8792516  58.5619480  70.0883718  62.1496069  57.5105538  69.9905078
  61.4880863  59.1014678  68.6982329  60.5418468  58.6517417  68.3974398
  61.3411517  60.6123381  68.7343848  62.2871899  61.0628277  69.0346710
  61.0647898  60.9748243  67.7442695  60.5658481  60.8854814  69.4502051
  62.5163346  58.6854963  67.6605036  62.5695893  57.5976769  67.6167442
  62.2259309  59.0740893  66.6844090  63.4924084  59.0857944  67.9346245
  63.1804357  59.1977388  70.5564945  64.2501287  58.8488447  70.0475468
  63.1251966  60.1220492  71.5171427  62.2621077  60.3403101  71.9941532
  64.3195177  60.8863646  71.8632544  64.7441168  61.3354555  70.9654058
  63.9730176  62.0001766  72.8489468  64.7834401  62.7279653  72.8894219
  63.0526169  62.4986142  72.5447718  63.7577562  61.5216524  74.2484218
  62.5243245  61.1337172  74.7218967  62.6365221  60.7638140  75.9855000
  61.7646892  60.4236883  76.5443569  63.8998729  60.8940994  76.3462399
  64.2819485  60.6830001  77.2570391  64.6233046  61.3667963  75.2787545
  65.6943884  61.5413848  75.3807332  65.4221568  60.0187172  72.4541391
  66.5878275  60.4275959  72.4345406  65.0917059  58.8384150  72.9815516
  64.1279786  58.5484797  73.0667958  66.1278778  57.9672207  73.5294652
  66.7284818  58.4942300  74.2708391  65.5021215  56.7164551  74.1717934
  64.8463554  56.2327787  73.4478263  66.5905903  55.7454819  74.5964585
  67.2465291  56.2283261  75.3208248  66.1358243  54.8645570  75.0495148
  67.1715008  55.4459038  73.7241655  64.6297921  57.1028659  75.3686373
  63.9064257  57.8361345  75.0120438  64.1060622  56.2009684  75.6854771
  65.3981272  57.6805113  76.5434487  65.9217809  58.5827569  76.2274748
  64.7036875  57.9265651  77.3467607  66.1214194  56.9475911  76.9009067
  67.1297750  57.5938974  72.4474556  68.3419877  57.5537294  72.6885941
  66.6425663  57.3037326  71.2397068  65.6494000  57.2207618  71.0758896
  67.5509323  57.0323328  70.1319183  68.2418316  56.2339734  70.4028051
  66.7586311  56.5955217  68.8993807  65.8021691  57.1088002  68.9985008
  67.2743890  56.9578591  68.0101083  66.5184574  55.0914910  68.7713247
  67.4799900  54.5913686  68.6554218  65.8132894  54.5506208  69.9964707
  64.8514064  55.0499726  70.1127785  65.6539034  53.4785441  69.8809351
  66.4259964  54.7332746  70.8792663  65.7167199  54.7912912  67.5236761
  66.2633342  55.1396343  66.6473375  65.5535462  53.7163836  67.4458986
  64.7549136  55.3012947  67.5777495  68.4067002  58.2538496  69.8211262
  69.6258389  58.1438469  69.6435271  67.7856636  59.4350680  69.7591774
  66.7860234  59.5185590  69.8768558  68.5480137  60.6386713  69.4429809
  69.0501342  60.5184964  68.4830163  67.6187681  61.8468189  69.3595361
  66.9853922  61.8359979  70.2465633  68.2413844  62.7414450  69.3691899
  66.7484919  61.8503228  68.1173186  67.3724448  61.5925879  67.2615404
  65.9723595  61.0950609  68.2410120  66.1056232  63.2002514  67.8840859
  65.3522396  63.1098504  67.1015645  65.6323288  63.5377433  68.8061439
  67.0886101  64.1940020  67.4731095  67.9426427  63.8474669  67.0600222
  66.9375416  65.5036472  67.6082228  65.8409208  66.0230035  68.1341867
  65.0957862  65.4151033  68.4429452  65.7536132  67.0251448  68.2246841
  67.9099941  66.3127931  67.2015041  68.7494720  65.9243515  66.7959304
  67.8051719  67.3125159  67.2998171  69.6454198  60.8657701  70.4707610
  70.7649328  61.2526759  70.1198685  69.3444484  60.6288461  71.7475488
  68.3933252  60.4575016  72.0409856  70.3858058  60.6652448  72.7662714
  70.8401111  61.6556035  72.7961981  69.7950617  60.3566974  74.1429736
  69.2698849  59.4052358  74.0592515  70.6320249  60.2496451  74.8329970
  68.8422489  61.4156233  74.6647184  69.4014695  62.3447122  74.7750224
  68.0525093  61.5530075  73.9261142  68.2265215  61.0350020  75.9981171
  68.3965299  59.8724454  76.4202939  67.5723157  61.8968766  76.6215656
  71.4848968  59.6723293  72.4152261  72.6613845  60.0318200  72.3027792
  71.1046384  58.4062592  72.2329019  70.1297321  58.1531159  72.3075715
  72.0767363  57.3477984  71.9885410  72.8036172  57.2920904  72.7988744
  71.3497700  55.9988947  71.8588690  70.4966537  56.1170885  71.1907948
  72.2846491  54.9492640  71.3011939  73.1378425  54.8301706  71.9690101
  71.7559936  53.9999405  71.2151189  72.6349401  55.2600220  70.3169049
  70.8121912  55.5544188  73.2184285  71.6161722  55.0255573  73.7303082
  70.5557680  56.4539840  73.7780079  69.5996075  54.6573924  73.1242201
  69.8553996  53.7573412  72.5651332  69.2726004  54.3811636  74.1266488
  68.7949958  55.1857676  72.6128304  72.8917610  57.6601776  70.7457216
  74.0577621  57.2646515  70.6365316  72.2903665  58.3616920  69.7854705
  71.3130492  58.6079283  69.8511820  73.0316491  58.7920917  68.6127172
  73.4380442  57.9071886  68.1229329  72.3391060  59.2946633  67.9375097
  74.1695171  59.7379297  68.9464356  75.2604199  59.6357573  68.3795689
  73.9338440  60.6697723  69.8670857  73.0384342  60.6798271  70.3342469
  74.9016837  61.7023963  70.2078436  75.5692362  61.8886896  69.3665543
  74.1632590  63.0000273  70.5427552  73.4086144  62.6956000  71.2679688
  74.8692347  63.6811068  71.0179700  73.4867376  63.7054339  69.3709130
  73.1381708  62.9591941  68.6569604  72.3079920  64.5226317  69.8634873
  72.6558608  65.2694430  70.5771813  71.8328341  65.0215795  69.0188709
  71.5868604  63.8650630  70.3489490  74.4816570  64.5758283  68.6446417
  75.2974708  63.9591249  68.2675155  73.9881176  65.0743700  67.8103897
  74.8794096  65.3238970  69.3304150  75.7978802  61.3323327  71.3825107
  76.6109559  62.1604317  71.8053273  75.6772955  60.1221939  71.9181052
  75.0217338  59.4657654  71.5188061  76.3949006  59.7340189  73.1301630
  76.0329473  58.7602661  73.4601547  77.9018994  59.6426005  72.9016415
  78.2305325  60.6103118  72.5226503  78.3649299  59.4561875  73.8706374
  78.3084555  58.5597308  71.9339725  77.6027349  57.7328066  72.0130646
  78.2825562  58.9632570  70.9217483  79.7076063  58.0614541  72.2437521
  80.4204948  58.8655918  72.0614020  79.7559871  57.7643325  73.2913577
  80.0719318  56.9180003  71.4167783  79.4683057  56.7071911  70.6349251
  81.1357157  56.1519188  71.6197138  81.9655572  56.3727497  72.6259568
  81.7931960  57.1401746  73.2595580  82.7676723  55.7729114  72.7559759
  81.3680167  55.1346754  70.7965486  80.7363273  54.9556804  70.0290661
  82.1751725  54.5452961  70.9422550  76.0874286  60.6795722  74.2853807
  76.9596486  61.0123940  75.0888132  74.8369073  61.1230816  74.3662875
  74.1841908  60.9843029  73.6081312  74.3908996  61.8683130  75.5318982
  75.2150896  62.4617414  75.9276921  73.2425390  62.8119820  75.1599821
  72.5122132  62.1607564  74.6797440  72.8243884  63.2047101  76.0868125
  73.5851862  63.9746499  74.2213382  73.9177862  63.5721288  73.2645442
  72.3712898  64.8554824  74.0038942  72.0383665  65.2587690  74.9602522
  72.6320851  65.6758331  73.3352304  71.5690895  64.2662773  73.5595830
  74.7342713  64.8120670  74.7540265  75.6209386  64.1871607  74.8608570
  74.9448666  65.6249089  74.0590165  74.4630868  65.2261503  75.7251562
  73.9602339  60.9104585  76.6251552  74.0806098  61.2247268  77.8134696
  73.4664877  59.7419029  76.2281837  73.3005171  59.6192658  75.2394910
  73.1311476  58.6460691  77.1252246  73.3444911  58.9445561  78.1516208
  71.6534169  58.2655819  77.0240697  71.3736948  58.2263770  75.9713030
  71.5139426  57.2823433  77.4733901  70.8388064  59.2096503  77.6934588
  69.9179373  58.9496414  77.6160304  74.0209550  57.4818687  76.7251704
  74.1154720  57.1536224  75.5413994  74.6663416  56.8556416  77.7027571
  74.5273231  57.1017866  78.6723889  75.6384482  55.8236978  77.3868222
  75.3712147  55.3423435  76.4460865  77.0396232  56.4256297  77.2477699
  77.7225564  55.7138025  76.7840852  76.9925148  57.3305868  76.6420195
  77.6522209  56.8171063  78.5549899  78.6987033  56.1255411  79.1247455
  79.0296751  56.6974935  80.2680132  79.8484654  56.3019353  80.8690251
  78.2272668  57.7263052  80.4677943  78.2428362  58.3469996  81.2644096
  77.3561670  57.8233693  79.4104195  76.6093290  58.6170590  79.3906491
  75.6449539  54.7397743  78.4463487  75.1210029  54.9095493  79.5515875
  76.2589250  53.6147759  78.0817844  76.5760826  53.5295594  77.1266670
  76.4507860  52.4832404  78.9757769  75.7633120  52.5167083  79.8209747
  76.2203466  51.1758808  78.2081627  76.6177791  51.2722886  77.1977901
  75.1518315  50.9661579  78.1592562  76.9251250  49.6650565  78.8928307
  77.8597104  52.5643281  79.5543285  78.8380681  52.6267218  78.8066400
  77.9518189  52.5597471  80.8875952  77.1268137  52.4958079  81.4667132
  79.2485269  52.7113192  81.5435642  79.7738250  53.5734878  81.1326792
  79.0611718  52.9235532  83.0424340  80.0295056  53.1555953  83.4858135
  78.3822980  53.7627642  83.1939443  78.5260500  51.7675516  83.6576663
  78.4180041  51.9265640  84.5982198  80.1607161  51.5183273  81.3015103
  81.3854228  51.6793426  81.2530592  79.5917868  50.3255935  81.1451878
  78.5918283  50.2049183  81.2201532  80.4161287  49.1433120  80.9265678
  81.1613016  49.0515530  81.7167556  79.5343011  47.8940842  80.9390530
  79.0578014  47.7819046  81.9129437  78.7685375  47.9712784  80.1672065
  80.2784583  46.6233521  80.6779018  80.6697577  45.7671840  81.6844161
  81.3054424  44.7357506  81.1604400  81.6961309  43.9426594  81.7979884
  81.3412786  44.8902942  79.8486987  81.7644157  44.2562835  79.1860636
  80.7049388  46.0633167  79.5212982  80.6285887  46.3690789  78.4778514
  81.1915975  49.2528690  79.6201837  82.3764736  48.9069265  79.5627159
  80.5366956  49.7283497  78.5597538  79.5533461  49.9519146  78.6158118
  81.2103833  49.8871677  77.2744162  81.8855913  49.0441499  77.1277359
  80.1783876  49.8879995  76.1475444  80.6902062  49.9110756  75.1854585
  79.5395894  50.7663616  76.2398314  79.1217749  48.4177741  76.0983914
  82.0457486  51.1654181  77.2159532  83.1362254  51.1666059  76.6350704
  81.5616569  52.2531046  77.8116867  80.6670955  52.2012261  78.2776993
  82.2506201  53.5441498  77.7738321  83.2462505  53.4468046  77.3410006
  81.4602566  54.5778180  76.9588446  80.6006345  54.9097969  77.5410294
  82.3399243  55.7712940  76.6300382  83.1995788  55.4401492  76.0474250
  81.7676217  56.4968519  76.0519933  82.6848462  56.2347063  77.5543648
  80.9211736  53.9594343  75.6906853  80.2601741  53.1301727  75.9426910
  80.3645323  54.7091468  75.1283853  81.7492197  53.5920728  75.0844790
  82.4671707  54.0332866  79.2014067  81.6503025  54.8029166  79.7266010
  83.5473596  53.6147942  79.8626670  84.4887825  52.6543998  79.4896865
  84.8953740  52.9466978  78.5215204  83.9697247  51.7008834  79.3922979
  85.5382858  52.6306510  80.5765921  86.3252262  53.3562841  80.3709699
  85.9763797  51.6369128  80.6696482  84.7501993  53.0017986  81.8386829
  85.3164263  53.4751431  82.6408244  84.2399299  52.1200100  82.2262054
  83.7346553  53.9827037  81.2744279  82.7845898  53.7830101  81.7700046
  84.1499858  55.4265371  81.5359995  83.9157714  55.9050646  82.6518942
  84.7421832  56.1473452  80.5784428  84.8242130  55.7830179  79.6400207
  85.3238118  57.4626415  80.8670912  85.0510037  57.7806804  81.8733348
  86.8476885  57.3876821  80.7748423  87.0938911  57.2332000  79.7243097
  87.2322857  58.3546133  81.0992330  87.4794512  56.2844874  81.6110386
  86.9925814  55.3453267  81.3482917  88.5363640  56.2306905  81.3499963
  87.3389337  56.5266346  83.1013385  87.7992484  57.4829786  83.3495628
  86.2797185  56.5566366  83.3568037  88.0196443  55.4161922  83.8900209
  87.5029395  54.4821806  83.6692515  89.0531630  55.3481090  83.5504581
  87.9951856  55.6612335  85.3570405  87.0375874  55.7239247  85.6719613
  88.4570657  54.8996940  85.8333011  88.4742972  56.5264488  85.5618663
  84.8030014  58.5362159  79.9061222  85.5769178  59.2280329  79.2469389
  83.4829952  58.6802960  79.8169733  82.8605084  58.0327836  80.2788578
  82.8981644  59.7406144  79.0022017  83.5310305  59.9428325  78.1380908
  81.5190335  59.3103546  78.5070357  81.6791233  58.3101296  78.1045180
  80.8748544  59.2496288  79.3842162  80.8536354  60.1846771  77.4469552
  80.7697664  61.2008118  77.8323603  81.6657568  60.1955093  76.1671229
  81.7496739  59.1797116  75.7808433  81.1710556  60.8251793  75.4276047
  82.6613657  60.5894369  76.3712904  79.4566729  59.6661884  77.1755473
  78.8716231  59.6984973  78.0946623  78.9783392  60.2881491  76.4189344
  79.5132820  58.6382500  76.8174454  82.8082679  61.0455101  79.7939156
  82.3146876  61.0598285  80.9259101  83.2820123  62.1411318  79.1981789
  83.7545103  62.0759162  78.3079026  83.1665222  63.4561024  79.8269559
  83.6000538  63.4243298  80.8265258  83.9047355  64.5146216  79.0077921
  83.6863971  64.3085900  77.9599474  83.4782355  65.4787974  79.2844918
  85.4125062  64.5490730  79.2143122  85.7786355  65.5185871  78.8765364
  85.5931138  64.4457337  80.2842660  86.1402982  63.4480439  78.4711132
  85.4864712  62.7003195  77.7155177  87.3732819  63.3399275  78.6369085
  81.7016074  63.8644344  79.9791644  80.9548755  63.8363660  78.9917999
  81.2486217  64.2459026  81.1753312  81.8931957  64.3529712  82.4378789
  82.8307047  64.8876767  82.2853430  82.1046111  63.3423774  82.7873107
  80.9452770  65.0929151  83.3537271  81.0964068  66.1698439  83.2796778
  81.0814578  64.7777167  84.3882348  79.5609224  64.6846352  82.8347368
  78.7913376  65.4345500  83.0176739  79.2312474  63.7230129  83.2280515
  79.8270962  64.5708511  81.3425911  79.2397010  63.7299505  80.9738755
  79.4368488  65.8314370  80.5860971  80.2525937  66.7253355  80.3548057
  78.1686144  65.8925076  80.2022923  77.5642489  65.0929602  80.3270544
  77.6206645  67.0818015  79.5430010  78.3814647  67.5614090  78.9271611
  76.4232477  66.7130510  78.6751387  76.0022273  67.6188013  78.2387229
  76.8583430  65.7753641  77.5689148  77.2790753  64.8691211  78.0045851
  75.9977115  65.5158208  76.9524317  77.6119279  66.2651180  76.9521894
  75.3178704  66.0624078  79.5093289  75.0084977  65.1544143  78.9917024
  75.7483289  65.8003059  80.4758214  74.1174431  66.9564316  79.7186584
  73.6861376  67.2185954  78.7525603  73.3732219  66.4319170  80.3179232
  74.4259696  67.8644885  80.2366776  77.2342333  68.1072856  80.6079885
  76.5574165  67.7442814  81.5817266  77.6370153  69.3746858  80.4809473
  78.2616214  70.0642020  79.4023762  77.8222911  69.6927396  78.4765766
  79.3230280  69.8172097  79.4249593  78.0085444  71.5394582  79.6140484
  77.0684598  71.8417717  79.1525870  78.8230484  72.1352224  79.2020417
  77.9511022  71.6723490  81.1414365  77.3262405  72.5011864  81.4741157
  78.9363851  71.7537809  81.6004422  77.3061541  70.3511388  81.5285585
  77.7691447  70.0274970  82.4607569  75.8018214  70.4720076  81.7253222
  75.0256770  70.4232829  80.7691701  75.3928487  70.6329801  82.9870362
  76.0513005  70.6614312  83.7523670  73.9685225  70.7207497  83.2957259
  73.4442780  69.8622209  82.8759698  73.7538054  70.7320712  84.8092401
  74.3091397  71.5839369  85.2017038  72.6877687  70.8855398  84.9769101
  74.2003681  69.4668101  85.5192719  73.5713180  69.3390774  86.4002266
  74.0437454  68.6310222  84.8373429  75.6561705  69.5092136  85.9401213
  76.3331297  70.5214402  85.6604258  76.1255955  68.5281095  86.5537522
  73.3353263  71.9588301  82.6768814  72.2216746  71.8952207  82.1446175
  74.0273983  73.0965243  82.7403570  74.9705657  73.0723493  83.1008428
  73.4767639  74.3795736  82.3364668  72.6279909  74.2226669  81.6708364
  72.9998415  75.1730347  83.5607390  72.4715728  74.4998993  84.2359576
  73.8547510  75.6085077  84.0780331  72.0645547  76.2971501  83.2601858
  72.3801691  77.6172594  83.1660467  73.4257990  77.8844138  83.3189723
  71.2589590  78.3533417  82.8863239  71.2279948  79.3557281  82.7664811
  70.1857756  77.5078487  82.7934806  68.8511312  77.7820735  82.5246846
  68.5558312  78.8170304  82.3521712  67.9872007  76.7271760  82.4936795
  66.9316303  76.9036245  82.2869503  68.4237294  75.4187779  82.7215262
  67.7240199  74.5834837  82.6934261  69.7483001  75.1448141  82.9879866
  70.0378821  74.1078334  83.1580279  70.6565049  76.2034532  83.0258321
  74.5517489  75.1576720  81.5898009  75.7298292  75.0941909  81.9682728
  74.1939181  75.8937477  80.5351238  72.9168695  76.1488601  79.9352818
  72.2186067  76.3996457  80.7338029  72.5913802  75.2323034  79.4432659
  73.1168640  77.2873545  78.9596939  72.9861883  78.2495795  79.4548160
  72.4185202  77.2103325  78.1263362  74.5616915  77.0945807  78.4827698
  75.0290998  78.0335735  78.1862549  74.6648620  76.3676590  77.6771394
  75.2211042  76.5654805  79.7463908  75.9659771  75.8317211  79.4383977
  75.8925340  77.6560101  80.5585616  75.2659875  78.2647152  81.4420335
  77.1650295  77.9427625  80.2966334  78.2083819  77.1913164  79.6161192
  78.1590383  77.4173661  78.5509587  78.0256541  76.1278415  79.7701668
  79.5027838  77.6512971  80.2479881  80.3389574  77.5136726  79.5624428
  79.6975401  77.1065091  81.1717724  79.2498709  79.1370877  80.5316326
  79.3881676  79.7487297  79.6400794  79.8454155  79.5457776  81.3479651
  77.7799933  79.1164824  80.9214944  77.7349287  79.0115413  82.0054939
  77.0393449  80.3750289  80.5042143  76.6296501  80.5180119  79.3513522
  76.8677467  81.2952459  81.4541946  77.2902840  81.2051195  82.3671233
  75.9932712  82.4348879  81.2069321  75.0098603  82.0847992  80.8931806
  75.8319763  83.2710192  82.4777183  75.3206863  84.1640658  82.1183445
  75.1713682  82.7190196  83.1462940  77.0969946  83.6778517  83.2333809
  77.7549312  82.8113531  83.2997160  77.8223666  84.8111783  82.5284842
  77.1651767  85.6782445  82.4621784  78.7171894  85.0763648  83.0915732
  78.1059715  84.4933123  81.5251748  76.7394054  84.0716718  84.6552908
  76.2731992  83.2259470  85.1607616  77.6434989  84.3610712  85.1909811
  76.0444113  84.9111529  84.6364805  76.4986573  83.3097468  80.0689920
  75.7331262  84.1271408  79.5453288  77.7629390  83.1580534  79.6676229
  78.4015042  82.5411024  80.1489807  78.2699554  83.9391568  78.5460001
  78.0964558  84.9963071  78.7470730  79.7720980  83.7126590  78.3871274
  79.9610566  82.6600714  78.1762863  80.1466261  84.3205730  77.5635562
  80.2821061  83.9954666  79.3080024  77.5436346  83.5951011  77.2528981
  77.3976698  84.4545550  76.3767416  77.0809944  82.3528269  77.1121433
  77.1809964  81.6935398  77.8707207  76.4769444  81.8906117  75.8714739
  76.7683466  82.5434708  75.0486988  76.9472566  80.4659500  75.5565587
  78.0303639  80.4806324  75.4350592  76.6851651  79.8238223  76.3974392
  76.3460604  79.9647433  74.3741518  76.6619422  79.0736456  74.2075282
  74.9562064  81.9231864  75.9056307  74.3280712  81.7161126  74.8628595
  74.3538886  82.1597565  77.0703259  74.9029347  82.2160733  77.9161841
  72.9034917  82.2870380  77.1768964  72.4772325  82.4750765  76.1914808
  72.2883260  81.0013215  77.7392416  71.2028907  81.0886839  77.7871715
  72.5564742  80.1477668  77.1166336  72.8311545  80.5922273  79.4090740
  72.1122022  79.4788201  79.5201159  72.4544790  83.4562361  78.0359060
  71.3219294  83.9193652  77.8623668  73.2828301  83.9507082  78.9528448
  74.1656011  83.4917831  79.1266333  72.9627525  85.1357583  79.7199280
  73.8889840  85.4887563  80.1733447  72.5927594  85.8851093  79.0201583
  71.9346820  84.9260526  80.8034407  71.4893023  85.9030331  81.4120801
  71.5471886  83.6842218  81.0660638  71.9508202  82.9344598  80.5228899
  70.5457051  83.3489314  82.0679700  70.2015393  84.2386530  82.5952692
  69.3279065  82.6420285  81.4501847  69.6647047  81.7490155  80.9236924
  68.3398945  82.2485789  82.5313501  68.0022710  83.1411798  83.0580142
  67.4837119  81.7493793  82.0776415  68.8225654  81.5719862  83.2365825
  68.6662637  83.5368501  80.4173013  69.3801312  83.7702405  79.6273494
  67.8058127  83.0231239  79.9885716  68.3371837  84.4604906  80.8934267
  71.2092691  82.4570836  83.1095979  71.7485175  81.4028214  82.7626666
  71.2060135  82.8198618  84.3882841  70.9771147  84.1009033  84.9911904
  69.9987478  84.4515076  84.6625948  71.7472879  84.7808703  84.6270788
  71.0484583  83.8973989  86.4877000  70.0718540  83.6262814  86.8887467
  71.4069410  84.7991326  86.9841552  72.0547680  82.7510734  86.6417150
  71.8723274  82.1602700  87.5393596  73.0959754  83.0730945  86.6247145
  71.7483288  81.9206927  85.4052915  72.6937350  81.5116345  85.0489535
  70.7799830  80.7859813  85.6838493  69.6029495  80.8605355  85.3042406
  71.2333558  79.7164000  86.3401313  72.5212763  79.4498074  86.8909426
  72.5892778  79.9333327  87.8654576  73.2770437  79.8669431  86.2254258
  72.6031229  77.9424995  86.9834953  73.3030281  77.6394269  87.7621985
  72.9118239  77.5123048  86.0307426  71.1679160  77.5312556  87.3300275
  70.9090620  77.6085783  88.3860175  70.9534734  76.5226154  86.9768152
  70.3672719  78.5435574  86.5261661  70.1973303  78.1099789  85.5406572
  69.0298759  78.8562287  87.1790931  68.9675144  79.2170126  88.3575420
  67.9522721  78.7118873  86.4082587  68.0805056  78.5854673  85.4144411
  66.5868709  78.8055133  86.9250097  65.8806601  78.8282222  86.0950400
  66.2609452  77.6037698  87.8107151  66.9761823  77.5434901  88.6310208
  65.2524379  77.6930129  88.2145081  66.3205426  76.2889190  87.0920549
  65.3557818  75.9486855  86.1620078  64.5466576  76.6485022  85.9530233
  65.4091296  74.7407286  85.5023698  64.6442312  74.4843355  84.7693666
  66.4313764  73.8556334  85.7701158  66.4749268  72.8989473  85.2495824
  67.3973770  74.1803413  86.6952215  68.2072726  73.4828236  86.9088526
  67.3390183  75.3902700  87.3518590  68.1016029  75.6490354  88.0864372
  66.3559973  80.1080388  87.6869775  65.6701039  80.1388362  88.7100404
  66.9308169  81.1975520  87.1863853  67.5257530  81.1336126  86.3727133
  66.7517270  82.5003309  87.8093804  65.7958852  82.5191482  88.3329371
  67.8662356  82.8047572  88.8144238  68.8125647  82.6049667  88.3117866
  67.7993335  83.8661382  89.0533684  67.7925992  81.9949775  90.0909674
  66.9336787  82.3305379  90.6721350  67.6696739  80.9422041  89.8366849
  69.0371098  82.1456965  90.9368645  69.9194016  82.9450707  90.6246369
  69.1178849  81.3759226  92.0151542  69.9279387  81.4362178  92.6153864
  68.3689230  80.7334279  92.2304632  66.7256147  83.5702130  86.7313765
  67.4841240  83.5014967  85.7620918  65.8553818  84.5554119  86.9101156
  65.2091161  84.5555236  87.6862857  65.7860024  85.6488613  85.9558515
  65.6499502  85.2516684  84.9499555  64.6116330  86.5715746  86.2794958
  64.6884402  86.8417036  87.3326958  64.7200947  87.4663835  85.6665903
  63.2560532  85.9399014  86.0169045  63.1837577  85.7123663  84.9533717
  63.1912485  85.0155528  86.5909099  62.1192788  86.8626139  86.4147420
  62.2007906  87.0773573  87.4802653  62.2089494  87.7904264  85.8497441
  60.7721466  86.2250754  86.1291890  60.6997119  86.0485705  85.0560163
  60.7274915  85.2726336  86.6573554  59.6418391  87.0880597  86.5669605
  59.6827858  87.9705016  86.0773491  58.7670032  86.6280458  86.3592361
  59.7085324  87.2513831  87.5614335  67.0966994  86.4299041  85.9782923
  67.7023532  86.5953577  87.0435878  67.5654786  86.9199191  84.8362133
  67.0394699  86.8839553  83.5133715  65.9878062  87.1653612  83.5673570
  67.1227206  85.8591971  83.1513784  67.8589550  87.8541635  82.6917481
  67.4376324  88.8581306  82.7430949  67.9089020  87.5344506  81.6508878
  69.2421795  87.7932261  83.3498634  69.8126958  88.7153687  83.2391244
  69.8401786  86.9522361  82.9988184  68.8671505  87.5896938  84.8089353
  69.6073946  86.9164184  85.2411821  68.8506121  88.8915770  85.5904745
  67.8365641  89.5890088  85.6662998  70.0023672  89.2114217  86.1818369
  70.7804695  88.5677003  86.1985422  70.1494195  90.4917690  86.8646578
  69.2659667  90.6957303  87.4696455  71.3717930  90.4594406  87.7808728
  72.1030699  89.8881820  87.2090365  71.7185340  91.4871228  87.8892239
  71.2032205  89.8314575  89.1617963  70.5678811  90.4807616  89.7641656
  70.5729770  88.4561008  89.0658428  71.2080197  87.8060537  88.4639638
  70.4658252  88.0344396  90.0652531  69.5912742  88.5374738  88.5992181
  72.5564032  89.7529262  89.8451889  72.9705452  90.7558673  89.9486053
  72.4401916  89.3048480  90.8320131  73.2315139  89.1415938  89.2463591
  70.2762619  91.6329373  85.8653501  69.6605459  92.6908221  86.0364132
  71.0689005  91.4340717  84.8165271  71.5337762  90.5465823  84.6886502
  71.3226538  92.4903776  83.8507901  71.6292839  93.4022608  84.3631829
  72.4336093  92.0732126  82.8907853  72.0686867  91.2678140  82.2533962
  72.8551226  93.2438085  82.0316102  73.2206229  94.0494845  82.6683169
  73.6478996  92.9299265  81.3525801  72.0011442  93.5970973  81.4536755
  73.5630764  91.6064738  83.6376782  74.2607767  91.3445426  83.0325281
  70.0536832  92.8169940  83.0708150  69.2321218  91.9448419  82.7828625
  69.8990052  94.0933499  82.7288174  70.5919468  94.7857175  82.9749033
  68.7084236  94.5316583  82.0269770  67.8204787  94.1259126  82.5117693
  68.6188534  96.0542895  82.0413801  68.9356076  96.4119718  83.0210889
  69.2882181  96.4492117  81.2771240  67.2973474  96.4932139  81.7835581
  67.2702088  97.4527129  81.7985581  68.7244149  94.0180001  80.5878726
  69.7869415  93.7366927  80.0313257  67.5495143  93.8823793  79.9619288
  66.2123152  94.0603643  80.4246965  65.9547304  95.1162137  80.3414356
  66.1643534  93.7565761  81.4704074  65.3653242  93.1839145  79.5304883
  64.3413692  93.5544340  79.4822138  65.3621194  92.1543475  79.8883749
  66.0631514  93.2879462  78.1691656  65.8080018  94.1754503  77.5900853
  65.8862310  92.3976930  77.5656360  67.5232302  93.3475741  78.5901935
  67.8871211  92.3211467  78.6363274  68.3658398  94.1389294  77.6047475
  68.9962267  93.5417919  76.7231306  68.3839365  95.4691985  77.7138645
  67.8750152  95.9451430  78.4450110  69.0967618  96.2764590  76.7286510
  68.7382601  96.0449102  75.7256750  68.8604503  97.7613225  77.0009584
  69.2009069  97.9897303  78.0109180  69.4374411  98.3442449  76.2830564
  67.4882662  98.0890803  76.8803615  67.3662308  99.0250125  77.0556841
  70.5879441  95.9664618  76.7271782  71.2049484  95.8439926  75.6625995
  71.1882483  95.8465504  77.9108256  70.6946867  96.0279081  78.7731513
  72.6075990  95.5196683  77.9822234  73.1837498  96.2106297  77.3668196
  73.0910009  95.6324868  79.4250611  72.5564536  94.8869242  80.0136991
  74.1574492  95.4074205  79.4366104  72.8584476  97.0079274  80.0204528
  73.1747014  97.7515607  79.2889517  71.7910329  97.1181895  80.2116862
  73.6254355  97.2109475  81.3099292  73.3713986  96.4176976  82.0130074
  74.6955999  97.1847758  81.1045937  73.2974971  98.4954068  81.9165070
  73.8527411  99.2901627  81.6333698  72.3350631  98.6817760  82.8104159
  71.5763094  97.6832763  83.2320665  71.7255237  96.7520976  82.8704848
  70.8513820  97.8568332  83.9135780  72.1225126  99.9040965  83.2874391
  72.6920705 100.6741007  82.9668188  71.3924271 100.0572534  83.9683332
  72.8855998  94.1328965  77.4194681  73.8964510  93.9234887  76.7371791
  72.0030853  93.1701861  77.6887166  71.2524085  93.3070617  78.3504180
  72.1427025  91.8594791  77.0621089  73.0990299  91.4155229  77.3385869
  71.0210304  90.9301661  77.5244098  70.1236832  91.5377026  77.4070788
  70.9829677  90.0892715  76.8319160  71.0971157  90.4059497  78.9582111
  71.1579609  91.2499372  79.6452946  69.8630106  89.5806239  79.2786795
  69.8017318  88.7361311  78.5922572  69.9275265  89.2120874  80.3024564
  68.9728542  90.2005140  79.1716359  72.3595067  89.5853124  79.1688875
  73.2339307  90.2069174  78.9763017  72.3908961  89.2233387  80.1965504
  72.3600404  88.7364964  78.4850673  72.1384176  91.9841324  75.5454338
  73.0051182  91.4274101  74.8616361  71.1681927  92.7175804  75.0008307
  70.4486509  93.1464762  75.5651068  71.0909913  92.8657154  73.5533712
  71.0005645  91.8867394  73.0827035  69.8709528  93.7031683  73.1760320
  68.9845203  93.2478062  73.6175996  70.0000187  94.7086983  73.5764708
  69.7154080  93.7716913  71.7694288  68.9436675  94.3022034  71.5583047
  72.3645036  93.4937649  73.0057837  72.8702123  93.0803323  71.9558550
  72.9006435  94.4955194  73.7039297  72.4517417  94.8745080  74.5254857
  74.1451863  95.1067789  73.2520128  74.0557739  95.3857174  72.2021090
  74.4617542  96.3595490  74.0642128  73.5476541  96.9486250  74.1384406
  74.7706349  96.0420259  75.0601404  75.5604737  97.2056264  73.4385656
  76.4479630  96.5817446  73.3325698  75.2212182  97.5243586  72.4529605
  75.8965816  98.4233392  74.2747486  76.7211494  98.9620941  73.8079187
  75.0230761  99.0730787  74.3288440  76.2876292  98.0534646  75.6282608
  76.1276728  97.0961683  75.9077192  76.8310594  98.8864377  76.5055986
  77.0588407 100.1548426  76.2052145  76.8165091 100.5051261  75.2894215
  77.4739822 100.7668450  76.8931173  77.1568204  98.4350638  77.7132805
  76.9883730  97.4677213  77.9498687  77.5711893  99.0616546  78.3883960
  75.3127405  94.1355969  73.3428299  76.2696018  94.2483081  72.5684569
  75.2660661  93.1870960  74.2782130  74.5059016  93.1325495  74.9409904
  76.3572260  92.2288314  74.3981172  77.3135837  92.7397961  74.2867880
  76.3212144  91.5525379  75.7692059  76.3930444  92.3293346  76.5304724
  75.3640163  91.0396931  75.8633437  77.4490629  90.5557280  75.9564837
  78.4154242  90.5893566  75.1682656  77.3697703  89.7376624  76.8964142
  76.3035366  91.1761155  73.3003682  77.3532703  90.7028536  72.8503379
  75.1024636  90.8015160  72.8603684  74.2649949  91.2155965  73.2441431
  74.9582988  89.7529476  71.8604510  75.6429350  88.9324880  72.0754361
  73.5288083  89.2135244  71.8785698  72.8153971  90.0376075  71.8730269
  73.3561309  88.5783056  71.0097892  73.2159719  88.3850944  73.0830677
  71.9270964  88.0787473  73.4601250  71.9554973  87.3410116  74.5559504
  71.0299296  86.9958256  75.0166783  73.2159653  87.1556514  74.9007067
  73.5428725  86.6283869  75.6977159  74.0249670  87.7990932  73.9961628
  75.1082160  87.7631731  74.1118452  75.3087555  90.2333991  70.4590936
  75.5298841  89.4021217  69.5721646  75.3644234  91.5480510  70.2395747
  75.1471912  92.1980201  70.9814977  75.6825535  92.0840685  68.9230549
  75.0447371  91.5858207  68.1929599  75.3891909  93.5822442  68.8854527
  76.0268059  94.0960274  69.6048787  75.5877375  93.9668862  67.8850877
  74.3433370  93.7547015  69.1395145  77.1292946  91.8401659  68.5216503
  77.4743428  92.0627769  67.3571495  77.9798511  91.3973915  69.4474637
  77.6757310  91.2633717  70.4012190  79.3773169  91.1414990  69.1258036
  79.7303615  91.8441877  68.3710273  80.2429593  91.2923857  70.3765708
  81.2857587  91.1250696  70.1069880  80.0900835  92.6838988  70.9687753
  79.0475550  92.8517842  71.2390500  80.7140890  92.7713787  71.8581928
  80.3988206  93.4278181  70.2343599  79.8562241  90.3172529  71.3507792
  80.4015170  90.4145572  72.1348633  79.6002859  89.7590561  68.5281519
  80.5975176  89.5564005  67.8287188  78.7072595  88.8103626  68.7835070
  77.9271449  88.9864300  69.4003707  78.8542344  87.4785208  68.2217081
  79.8842444  87.1405253  68.3354520  77.9344252  86.4923659  68.9407704
  76.9318668  86.7977841  68.6412778  78.1363287  85.4899987  68.5631531
  78.0320706  86.4910095  70.4688779  78.1070293  87.5201614  70.8200591
  76.8068378  85.8364424  71.0797180  76.7314602  84.8070480  70.7293407
  76.8936007  85.8444481  72.1662303  75.9141263  86.3869925  70.7829672
  79.2934335  85.7903233  70.9277410  80.1640102  86.3050965  70.5212878
  79.3406018  85.8020944  72.0166570  79.2850244  84.7586440  70.5760792
  78.5462039  87.5004723  66.7268712  77.9486304  88.4433144  66.2031235
  78.9623368  86.4425743  66.0332437  79.4898003  85.7036761  66.4758620
  78.7318669  86.3617435  64.5982914  79.0398416  87.2923772  64.1216660
  79.5348852  85.2148931  63.9926366  79.3836504  85.2092800  62.9131942
  80.5897346  85.3822184  64.2103402  79.1361148  83.8641918  64.5434924
  77.9949150  83.6517715  64.9466196  80.0826564  82.9360962  64.5557982
  79.8766507  82.0137434  64.9120662  81.0054381  83.1556413  64.2088475
  77.2390550  86.2066374  64.3034952  76.3952091  86.1627084  65.2009557
  76.9163342  86.1212177  63.0115909  77.6278274  86.0632484  62.2970867
  75.5221231  86.1094798  62.5986870  75.0546892  87.0119179  62.9926540
  75.5013926  86.1361414  61.5092106  74.7421402  84.9003229  63.0776601
  73.5498645  85.0081264  63.3729263  75.3890680  83.7387930  63.1573011
  76.3743881  83.6846832  62.9420900  74.6867951  82.5065683  63.4963350
  73.6596239  82.5813373  63.1393643  75.3603720  81.3204844  62.8027787
  76.3870437  81.2271081  63.1567931  74.8129880  80.4061879  63.0319793
  75.3615727  81.4820798  61.7248247  74.6332983  82.2747950  65.0027828
  73.5557164  82.0280739  65.5614132  75.7898066  82.3214319  65.6642877
  76.6724601  82.4106686  65.1815260  75.8067948  82.1795814  67.1131182
  75.3843386  81.2160435  67.3981179  77.2415861  82.2561445  67.6318331
  77.7345811  81.4017795  67.1680276  77.6869472  83.1784640  67.2588987
  77.4165910  82.1832046  69.1496783  76.9523105  83.0614189  69.5983253
  76.7742410  80.9310211  69.7101369  77.2383496  80.0523179  69.2622722
  76.9129177  80.9034613  70.7909283  75.7085908  80.9349861  69.4810640
  78.8877676  82.2307081  69.5112097  79.3220310  83.1618176  69.1471358
  78.9981613  82.1780004  70.5943239  79.4026025  81.3865172  69.0525316
  74.9421075  83.2395632  67.7746728  74.3830667  83.0010243  68.8464837
  74.8136627  84.4112067  67.1494101  75.3461227  84.6171361  66.3162362
  73.9415265  85.4506836  67.6879482  74.2262093  85.6871081  68.7132084
  74.0671910  86.7178224  66.8413823  75.1102389  87.0294206  66.8966710
  73.8268461  86.4350471  65.8165055  73.1741579  87.8646316  67.2713888
  72.1328775  87.5468999  67.2176995  73.4195819  88.1312693  68.2993837
  73.3524055  89.0909639  66.3968433  74.0476581  89.0471238  65.3829070
  72.7187278  90.1902120  66.7827283  72.8028070  91.0358608  66.2369167
  72.1549731  90.1766594  67.6206414  72.4955378  84.9760008  67.7365051
  71.8210922  85.1042785  68.7651844  72.0021743  84.4134804  66.6323398
  72.5425843  84.3589603  65.7808212  70.6338863  83.9099019  66.6161308
  69.9459668  84.6927765  66.9354632  70.2504355  83.4690451  65.2060599
  70.3567383  84.3033618  64.5127241  70.8854220  82.6446070  64.8817237
  68.8345273  82.9916337  65.0886057  67.7900354  83.7587764  65.5647053
  68.0046025  84.7206978  66.0302889  66.4878482  83.3207877  65.4565470
  65.6722524  83.9369850  65.8349716  66.2176183  82.1068175  64.8714160
  65.1884246  81.7583673  64.7851445  67.2476552  81.3319487  64.3947156
  67.0363223  80.3691080  63.9295529  68.5483062  81.7730241  64.5051351
  69.3661069  81.1579591  64.1296395  70.4613195  82.7563372  67.5933340
  69.4460867  82.6719869  68.2955237  71.4412267  81.8535244  67.6495204
  72.2426678  81.8998278  67.0366196  71.3393756  80.7256370  68.5724930
  70.4181843  80.1798107  68.3685830  72.5210570  79.7791259  68.3756406
  73.4503649  80.3088649  68.5850768  72.4255277  78.9317560  69.0545652
  72.5321157  79.4200548  67.3465416  71.2708030  81.2070511  70.0185626
  70.4411271  80.7351748  70.8070902  72.1388595  82.1504622  70.3836796
  72.8389667  82.4880366  69.7387047  72.1398457  82.6766639  71.7406839
  72.2001294  81.8656704  72.4664626  73.3392058  83.5982487  71.9387722
  73.3215801  84.3707363  71.1699728  73.2949526  84.2468056  73.3067596
  73.3130173  83.4749067  74.0761395  74.1590687  84.9000585  73.4278510
  72.3808770  84.8328602  73.4021864  74.5488346  82.8413047  71.8108274
  75.3037887  83.4210582  71.9354490  70.8448839  83.4134672  72.0468944
  70.3157630  83.3106177  73.1572434  70.3202492  84.1689649  71.0805815
  70.7917332  84.3188935  70.2000569  69.0575799  84.8587299  71.3146144
  69.1307090  85.4775684  72.2089243  68.7230155  85.7567521  70.1258740
  69.6328680  86.2974600  69.8652926  68.4394638  85.1044490  69.2999205
  67.6032980  86.7494877  70.3945997  66.6880305  86.1901231  70.5882423
  67.8660276  87.3322268  71.2774873  67.3848812  87.6866807  69.2149364
  67.2606703  87.0836578  68.3154732  66.4757969  88.2602942  69.3955816
  68.5565110  88.6391630  69.0287105  68.7613826  89.1178926  69.9862836
  69.4243034  88.0552538  68.7219768  68.2726893  89.6806810  68.0045062
  67.4688666  90.2221353  68.2887525  69.0733268  90.2894798  67.9126171
  68.0832441  89.2373058  67.1170221  67.9448988  83.8532620  71.5712078
  67.1306166  84.0326038  72.4847038  67.8994299  82.7826422  70.7772463
  68.5320849  82.6919116  69.9951882  66.9023184  81.7377803  70.9852520
  65.8981629  82.1524241  70.8967011  67.0743165  80.6460582  69.9308931
  67.0204265  81.1352063  68.9583042  68.0702962  80.2259584  70.0710380
  66.0447564  79.5362521  69.9954333  66.2077248  78.9043614  70.8685062
  65.0681620  80.0144523  70.0708651  66.0624289  78.6651844  68.7579044
  66.3857888  79.1284352  67.6654530  65.7647327  77.3853804  68.9312610
  65.7615754  76.7589837  68.1389740  65.5424024  77.0423909  69.8548567
  67.0221013  81.1538101  72.3874620  66.0327635  81.0531328  73.1259955
  68.2385900  80.7506341  72.7648390  69.0379479  80.8492381  72.1554101
  68.4307809  80.1052863  74.0581138  67.7871171  79.2289857  74.1348812
  69.8827763  79.6596656  74.2169272  70.4497645  80.5350540  73.9001958
  70.0494469  79.4845074  75.2797727  70.3438444  78.4399016  73.4218688
  70.3641441  78.6844455  72.3598485  71.7327919  78.0375509  73.8737191
  71.7131932  77.7923965  74.9356109  72.0620460  77.1670114  73.3063977
  72.4238662  78.8633541  73.7047053  69.3829414  77.2773790  73.5727350
  68.3975347  77.5704724  73.2105621  69.7449499  76.4284739  72.9927253
  69.3143640  76.9960236  74.6235610  68.0412721  81.0386526  75.1950167
  67.4076847  80.6131458  76.1671340  68.4242251  82.3130880  75.1050474
  68.9703473  82.6468007  74.3237115  68.1080508  83.2480911  76.1758793
  68.3799319  82.8167263  77.1392610  68.8863482  84.5471539  75.9861034
  69.8863436  84.3061903  75.6254858  68.3710389  85.1585014  75.2452859
  68.9838704  85.2634440  77.2031604  69.4764466  86.0746315  77.0584422
  66.6138560  83.5316719  76.2383447  66.0685331  83.7312383  77.3281980
  65.9385953  83.5587754  75.0888908  66.4106475  83.4795258  74.1995171
  64.4960919  83.7588699  75.0894851  64.2374743  84.6013916  75.7308690
  64.0047275  84.0545597  73.6731146  64.5844043  84.8986625  73.2995311
  64.2154340  83.1732421  73.0673241  62.5239756  84.3821589  73.5917479
  61.9590586  83.4565923  73.7026351  62.2748522  85.0593576  74.4087189
  62.1699270  85.0351484  72.2678508  61.0918761  85.1901088  72.2243495
  62.6778386  85.9970624  72.1982325  62.5695384  84.2130424  71.1332027
  63.4066829  84.4865641  70.6387593  61.9096536  83.1411601  70.7156101
  60.8060377  82.7280703  71.3187003  60.4503804  83.2348128  72.1167103
  60.3247540  81.9080548  70.9780537  62.3675411  82.4653954  69.6657977
  63.2087056  82.7729039  69.1989135  61.8720379  81.6477505  69.3401720
  63.7610895  82.5507023  75.6502982  62.6486188  82.6929189  76.1695173
  64.3552074  81.3613609  75.5555613  65.2594957  81.2629859  75.1166032
  63.6770739  80.1533183  76.0248162  62.5957178  80.2847779  75.9862579
  64.0569509  78.9636392  75.1401592  65.1268887  78.7782166  75.2347733
  63.2904411  77.7246305  75.5606829  62.2203625  77.9091451  75.4658901
  63.5723672  76.8879531  74.9214743  63.5268417  77.4849285  76.5973884
  63.7542086  79.2660866  73.7741674  63.9929872  78.5190478  73.2205266
  63.9810146  79.8324254  77.4893338  63.0640485  79.7456074  78.3107483
  65.2582242  79.6503387  77.8286125  66.0044040  79.8203368  77.1695103
  65.6068006  79.1456913  79.1541519  65.1612906  78.1625654  79.3060845
  67.1218526  79.0210264  79.2909368  67.4903803  79.9987826  78.9806474
  67.3508207  78.8647992  80.3451031  67.7970157  77.9356201  78.4579261
  67.5473122  78.0810254  77.4069236  69.3016911  78.0097561  78.6347049
  69.5522153  77.8639699  79.6854583  69.7770186  77.2319268  78.0370878
  69.6586384  78.9867228  78.3087830  67.2778028  76.5640331  78.8395885
  66.2023818  76.5211475  78.6671652  67.7730252  75.8057797  78.2330345
  67.4840143  76.3772245  79.8934758  65.0682004  80.0284827  80.2725093
  64.7103955  79.5208009  81.3402943  64.9982750  81.3425407  80.0547113
  65.2021152  81.7360359  79.1471266  64.6830820  82.2545875  81.1491450
  65.3984269  82.1245195  81.9612184  64.7547764  83.7019128  80.6621025
  64.4492213  84.3604759  81.4751399  65.7837069  83.9261086  80.3807872
  63.9063081  83.9042635  79.5471380  63.9680768  84.8181438  79.2597233
  63.3161738  81.9875726  81.7626889  63.0582009  82.4390840  82.8838426
  62.4350119  81.2700244  81.0653022  62.6533550  81.0028072  80.1160811
  61.1263579  80.9144158  81.5996590  60.9332503  81.4757713  82.5138191
  60.0325893  81.2444559  80.5833313  59.0902186  81.2770330  81.1301179
  60.2561323  82.2346740  80.1863469  59.9186960  80.2534038  79.4370120
  60.9159995  80.0674446  79.0383820  59.5027778  79.3226296  79.8227237
  59.0236153  80.7881051  78.3320170  58.7746937  79.9744008  77.6508251
  58.1092855  81.1831844  78.7747502  59.6725189  81.8512820  77.5727456
  60.6505903  81.7201466  77.3576196  59.0749301  82.9607067  77.1541656
  57.7921559  83.1896476  77.3848892  57.2440826  82.5093070  77.8916953
  57.3670938  84.0436653  77.0531127  59.7841518  83.8643488  76.4842720
  60.7636586  83.6989424  76.3017691  59.3400569  84.7119393  76.1610557
  61.0467300  79.4466957  82.0038939  59.9499095  78.8841746  82.0681658
  62.1834196  78.8165618  82.2830658  63.0701665  79.2953957  82.2160040
  62.1856805  77.4109795  82.6510364  61.4470675  76.8813052  82.0493760
  63.5587663  76.7912108  82.3955856  64.3077333  77.3051590  82.9980852
  63.5375012  75.7355400  82.6661541  63.8119609  76.8901877  81.3400311
  61.8052564  77.2322207  84.1177350  61.8699731  78.1628810  84.9252189
  61.4013764  76.0083441  84.4521852  61.3090269  75.3107279  83.7276836
  61.0499674  75.6375945  85.8172440  61.4981192  76.3375647  86.5224397
  59.5327039  75.6511497  86.0124044  59.2991183  75.2549871  87.0006317
  58.9923400  77.0672747  85.8937832  59.2251526  77.4639646  84.9055853
  57.9116243  77.0573887  86.0353985  59.4522865  77.6971906  86.6552001
  58.9107352  74.8225897  85.0221674  57.9590386  74.8335117  85.1476849
  61.6100065  74.2519591  86.1190134  61.2840237  73.2923217  85.4088605
  62.4436589  74.0939619  87.1465579  62.8563947  74.9807113  88.1898478
  61.9778288  75.5363267  88.5177405  63.5856451  75.6716658  87.7669119
  63.4440898  74.1230251  89.2876441  62.6694724  73.7985958  89.9824913
  64.2156446  74.6669391  89.8325864  64.0458545  72.9357983  88.5256284
  64.0689669  72.0243184  89.1229299  65.0407323  73.1333649  88.1265230
  63.0510689  72.7819144  87.3862481  63.6167912  72.4902727  86.5013744
  61.9872236  71.7353165  87.6742324  61.0430507  71.9765380  88.4287148
  62.1458293  70.5658000  87.0637076  62.9047456  70.4327757  86.4106762
  61.1991030  69.4713094  87.2569373  60.2223046  69.8634670  87.5400918
  61.0593166  68.6170981  85.9858296  60.9307381  69.2805457  85.1306072
  62.2892288  67.7511941  85.7740678  62.4182077  67.0871058  86.6287325
  62.1645413  67.1572408  84.8686545  63.1687595  68.3869913  85.6726445
  59.8099662  67.7387274  86.0702666  59.9056877  66.9651278  85.3083730
  59.8047085  67.2769054  87.0575823  58.5155082  68.4956729  85.8606214
  58.5198337  68.9574175  84.8732648  57.6746394  67.8061018  85.9349894
  58.4188557  69.2691971  86.6224733  61.6611780  68.6376462  88.4466655
  62.7986182  68.1702937  88.4736160  60.8163758  68.4197365  89.4606841
  59.4881821  68.8734428  89.7013376  58.9108406  68.7004575  88.7931234
  59.5362819  69.9436664  89.9023521  58.9625618  68.0879843  90.8821629
  58.4967595  67.1590586  90.5531884  58.2395016  68.6761580  91.4472621
  60.2213920  67.8185296  91.7169717  60.1547834  66.9073611  92.3114751
  60.4900005  68.6543926  92.3629454  61.2671495  67.6488092  90.6265277
  62.1918685  68.0925443  90.9954345  61.5104172  66.1914158  90.2763358
  60.5707409  65.4570376  89.9548982  62.7673238  65.7670936  90.3310206
  63.4998368  66.4136830  90.5868451  63.1424117  64.4034450  89.9729343
  62.9252988  64.2202361  88.9206056  64.6409630  64.1941446  90.2069692
  64.8751692  63.1779989  89.8896451  65.1664465  64.9039497  89.5681078
  65.0818852  64.3887892  91.6512099  64.2606511  64.0789606  92.2974929
  65.9448392  63.7468236  91.8280990  65.4506949  65.8258255  91.9576770
  64.6383768  66.7235433  91.6499237  66.5490632  66.0590046  92.5045880
  62.3408902  63.3592228  90.7499120  61.9235652  63.6462805  91.8378107
  62.1062322  62.2352920  90.3048580  62.0933445  62.1028160  89.3036670
  61.7641867  61.0923469  91.1634729  60.9169276  61.3613819  91.7942432
  61.3909485  59.8546963  90.3452013  62.1859639  59.7109709  89.6134960
  61.3497508  58.9921457  91.0103398  60.0665994  60.0020078  89.6281944
  58.8549268  59.9177892  90.3179188  58.8849538  59.7563037  91.3954717
  57.6402933  60.0334246  89.6704900  56.7010640  59.9751226  90.2205363
  57.6289836  60.2357833  88.2972671  56.4267624  60.3434915  87.6412305
  55.6709438  60.2640720  88.2277716  58.8072213  60.3214808  87.5823651
  58.7912829  60.4836356  86.5046117  60.0238126  60.1987582  88.2505288
  60.9593790  60.2564575  87.6942139  62.9205181  60.7802361  92.1217622
  64.0970450  61.1303873  91.8787980  62.5929293  60.1101361  93.2363157
  61.6466747  59.7939981  93.3936636  63.5811785  59.8665333  94.2717027
  63.9491699  60.8155706  94.6615870  62.9617542  59.0668072  95.4295009
  62.5265060  58.2271947  94.8875516  63.7939011  58.7134176  96.0383912
  61.8943921  59.6985374  96.3380626  61.0807839  60.0829897  95.7229700
  61.3511477  58.6568683  97.3029563  62.1641515  58.2722621  97.9187499
  60.5956147  59.1126484  97.9429056  60.9036280  57.8377750  96.7400062
  62.4212044  60.9224253  97.1021157  62.7485248  61.6816184  96.3917731
  61.6274969  61.3297138  97.7284110  63.2619751  60.6257094  97.7291430
  64.8069835  59.1215162  93.7426406  65.9126989  59.2901427  94.2305263
  64.6155289  58.2764562  92.7198103  63.6623982  58.0747909  92.4534041
  65.7145194  57.5332507  92.0344479  65.3086301  57.0292410  91.1573348
  66.8598648  58.4737357  91.5796141  67.1357931  59.1179020  92.4144869
  67.7176252  57.8661205  91.2912554  66.4258271  59.3322270  90.3980397
  66.1760907  58.7247174  89.5281749  65.5779961  59.9686007  90.6516400
  67.6375835  60.2031472  90.0788684  67.5690380  61.1406966  90.6305944
  68.5495073  59.6793552  90.3654630  67.6675328  60.4857225  88.6321337
  67.6417394  59.5682398  88.0442045  66.8420563  61.1316441  88.3330134
  68.9774031  61.1998355  88.3933376  69.7424561  60.6013143  88.6700430
  69.0640061  61.4252992  87.4126409  69.0013292  62.0502409  88.9377064
  66.2838892  56.3763844  92.8665820  67.5052820  56.2245682  93.0226827
  65.4054115  55.5475953  93.4104024  64.4113257  55.6984353  93.3147988
  65.8674815  54.3902730  94.2184634  66.9255730  54.5135080  94.4494497
  65.0880164  54.2718931  95.5363881  64.0312303  54.1793379  95.2859168
  65.4234219  53.3630439  96.0359844  65.2893241  55.4766227  96.4738447
  64.9855075  56.3916519  95.9653982  64.6650060  55.3265683  97.3546470
  66.7443732  55.6279248  96.9255246  67.3363259  54.6788283  97.4535490
  67.3353836  56.8043293  96.7056240  68.2946797  56.9448111  96.9886740
  66.8205960  57.5486377  96.2571821  65.6902942  53.1328944  93.3577680
  64.6229248  52.8949155  92.7442686  66.7391102  52.3058234  93.3003245
  67.5614771  52.5192370  93.8464624  66.7864762  51.1707227  92.4036017
  65.8400937  51.0704098  91.8721916  67.9446880  51.3236832  91.3754080
  68.8866267  51.4120254  91.9167468  68.0046068  50.1215116  90.4483053
  67.0631216  50.0327816  89.9062415  68.8214327  50.2500756  89.7381170
  68.1723131  49.2179790  91.0344815  67.7662341  52.6033361  90.5510321
  66.8808037  52.4594998  89.9318190  67.5865219  53.4126937  91.2586642
  68.9612159  52.9609204  89.6585626  69.1412603  52.1521799  88.9503094
  68.7458705  53.8796981  89.1130600  69.8469795  53.1053716  90.2771550
  66.8875008  49.8297777  93.1710303  67.9339999  49.4954517  93.7502296
  65.7993988  49.0409836  93.1856891  64.4107810  49.2495947  92.7822725
  64.3163503  48.9938446  91.7269171  64.1650014  50.3020300  92.9239460
  63.5947043  48.3414883  93.6753434  62.6492419  48.0789206  93.2007296
  63.3985013  48.8177697  94.6359482  64.4951544  47.1122238  93.8476583
  64.4255044  46.4534805  92.9820341  64.3228510  46.5361295  94.7567933
  65.8704213  47.7584154  93.8959423  66.1097854  47.9306754  94.9452895
  66.9701387  46.8923594  93.2549447  67.0626498  46.7815144  92.0317575
  67.8169222  46.2682211  94.0688704  67.8083977  46.4395182  95.0642015
  68.8584968  45.4013176  93.5244166  69.3785012  45.9176442  92.7175080
  69.8826694  45.0255681  94.6076026  69.3508310  44.6983404  95.5010057
  70.4940961  44.2065051  94.2289296  70.7951988  46.1792748  94.9816585
  70.9056654  47.1565787  94.2316263  71.4360882  46.0807217  96.1292273
  72.0554494  46.8222539  96.4235426  71.3048419  45.2641293  96.7089273
  68.2726348  44.1518307  92.8524873  69.0151026  43.2747803  92.3296247
  66.9459126  44.0343379  92.8482827  66.3862241  44.6738405  93.3940707
  66.2613683  42.9162175  92.1555303  66.7408834  41.9766830  92.4301923
  64.7752218  42.8383828  92.5359517  64.3504015  41.9510141  92.0666928
  64.7064023  42.7439022  93.6196663  64.0553017  43.9862158  92.1149466
  63.1343149  43.8980465  92.3710896  66.4442377  43.0019875  90.6523593
  65.9955663  42.1284947  89.8854295  67.1161467  44.0726906  90.1898961
  67.4790470  44.7326751  90.8628174  67.3415593  44.3392652  88.7584936
  66.7576558  43.6600050  88.1373966  66.8943156  45.7728261  88.4688208
  67.4879180  46.4770974  89.0516909  67.0067929  45.9947830  87.4076026
  65.1642768  46.1192514  88.8734692  65.1851276  47.3936492  88.4935039
  68.8242912  44.1851898  88.3283531  69.3054272  44.8638889  87.4169506
  69.5594990  43.2818210  88.9894676  69.1156935  42.7084916  89.6926243
  71.0074081  43.1475359  88.7947962  71.4731479  44.1242870  88.6638654
  71.6928180  42.4278712  89.9810849  71.2165875  41.4574375  90.1209502
  73.1746972  42.2310591  89.7232519  73.6517283  43.2011507  89.5837363
  73.6278039  41.7230151  90.5745369  73.3108660  41.6273926  88.8259523
  71.4902923  43.2168934  91.2784373  70.4242405  43.3059113  91.4875099
  71.9791342  42.6955561  92.1014445  71.9231904  44.2114341  91.1707858
  71.3183420  42.4153117  87.4643738  70.8410552  41.2766652  87.2155459
  72.1080230  43.0362539  86.5999729  72.4255411  43.9816914  86.7594394
  72.4387553  42.4002819  85.3280702  72.4184582  41.3172003  85.4489894
  71.4366999  42.7905959  84.2311837  71.4365229  43.8769159  84.1416960
  71.7712187  42.3492680  83.2923403  70.1231899  42.3401766  84.5237051
  69.5297457  42.6033613  83.8164869  73.8553844  42.6793647  84.8910487
  74.7831970  42.5695460  85.6916864  74.0767366  43.0150042  83.7327809
  73.1605443  43.2396778  83.3719308  75.2174362  43.1531250  82.8473951
  76.1040930  43.3342882  83.4549466  75.3395814  42.2206956  82.2962551
  75.0549822  44.2905043  81.8614728  74.6213724  45.3826280  82.2258388
  75.4055981  44.0345202  80.6057815  75.8603019  43.1574769  80.3956877
  75.2010174  44.9832647  79.5205858  74.7803425  45.9145733  79.8997916
  76.5301188  45.2922542  78.8324579  77.0844886  44.3663269  78.6793800
  77.1154632  45.9664467  79.4577069  76.3696618  46.0956325  77.2384285
  74.2008577  44.4074618  78.5285064  74.3601580  43.2735536  78.0675361
  73.1772133  45.1925685  78.2003836  73.0987068  46.0958147  78.6454481
  72.1233516  44.7807936  77.2831367  72.1025235  43.6938527  77.2042396
  70.7623634  45.2602863  77.7931405  70.7774459  46.3353977  77.9720460
  69.9785219  45.0231476  77.0737951  70.2582021  44.5003022  79.3518078
  69.0966180  45.1406896  79.4494027  72.3440042  45.2705598  75.8573834
  71.4418299  45.1349157  75.0249224  73.5091125  45.8461957  75.5527081
  74.2753884  45.8784631  76.2098838  73.6760688  46.5079059  74.2613049
  72.9181316  47.2840723  74.1554902  75.0585497  47.1601361  74.1815284
  75.2269041  47.5336492  73.1714567  75.8231747  46.4234848  74.4280918
  75.2986377  48.5949472  75.2934114  73.4769274  45.5217087  73.1145665
  72.8537068  45.8571699  72.1005133  74.0318585  44.3137260  73.2419960
  74.4889006  44.0344253  74.0982687  73.9904537  43.3632624  72.1399372
  74.6171861  43.7468381  71.3348438  74.3936235  42.4140063  72.4927349
  72.5884380  43.1369166  71.6086967  72.3370849  43.2388061  70.4036883
  71.6530914  42.8213962  72.5078116  71.8821250  42.7327150  73.4874945
  70.2845578  42.5347216  72.0883091  70.2874386  41.7757415  71.3059792
  69.4675473  42.0159956  73.2678273  69.9780397  41.1684342  73.7251419
  69.3085644  42.7912548  74.0173589  68.1194516  41.5328611  72.8623892
  67.8007860  40.3032432  72.3705274  68.6158954  39.5873843  72.2644964
  66.4548998  40.2365334  72.1044185  65.9653494  39.4316530  71.7402653
  65.8831501  41.4410637  72.4160770  64.5598465  41.8570431  72.3201510
  63.8177802  41.1539320  71.9419036  64.2726855  43.1344307  72.7106704
  63.2464500  43.4967843  72.6503343  65.2668058  43.9920860  73.1878405
  65.0252086  45.0090228  73.4969843  66.5790231  43.5815426  73.2825237
  67.3153757  44.2886086  73.6645488  66.9043138  42.2816746  72.8928735
  69.6250718  43.7662578  71.4870722  68.8380728  43.6559136  70.5408810
  69.9130546  44.9453779  72.0349834  70.4918489  45.0150374  72.8597525
  69.3565062  46.1718870  71.4751662  68.2675586  46.1245945  71.4677044
  69.7873974  47.3617553  72.3297281  70.8755486  47.3011004  72.3483613
  69.4835981  48.2736001  71.8155831  69.2543578  47.3829994  73.7611370
  69.5008891  46.4396670  74.2484226  69.8778756  48.5296552  74.5348985
  69.6313772  49.4734236  74.0484432  69.4902408  48.5344725  75.5536315
  70.9605605  48.4059598  74.5592544  67.7438599  47.5008964  73.7649417
  67.3111290  46.6495461  73.2395408  67.3825517  47.5144711  74.7932284
  67.4496618  48.4236104  73.2647966  69.8155119  46.3504292  70.0347331
  69.0151057  46.6571679  69.1407352  71.1146238  46.1657487  69.7971465
  71.7536076  45.9495253  70.5488422  71.6561652  46.3211152  68.4532730
  71.3959986  47.2974369  68.0443616  73.1773868  46.1967789  68.4889845
  73.4419722  45.2040697  68.8531592  73.7639633  46.4001941  67.1048100
  73.5001709  47.3929317  66.7401386  74.8489842  46.3075629  67.1522259
  73.3647921  45.6464512  66.4261093  73.7173890  47.1771446  69.3825906
  74.6738785  47.0980270  69.4042365  71.0644841  45.2908588  67.5055356
  70.7683794  45.5987701  66.3440165  70.8552430  44.0661282  67.9932959
  71.1607395  43.8035573  68.9194858  70.2283948  43.0484350  67.1575381
  70.7598517  42.9677329  66.2093083  70.2687813  41.6904464  67.8570585
  70.0233209  41.8579472  68.9057682  69.5007137  41.0666660  67.3998165
  71.6150720  40.9907770  67.7574889  71.7811267  40.7168199  66.7156279
  72.3877340  41.6904120  68.0762464  71.6725614  39.7436195  68.6242634
  72.7063580  39.4001104  68.6612116  71.3424755  40.0094926  69.6284816
  70.7904761  38.6349290  68.0789717  69.7798715  39.0264011  67.9626592
  71.1780117  38.3358076  67.1050920  70.7637831  37.4557551  68.9850342
  70.4043102  37.7326212  69.8873779  70.1688383  36.7413463  68.5903688
  71.7000752  37.0925961  69.0926062  68.7949937  43.4274072  66.8108891
  68.3696214  43.2619742  65.6654960  68.0369846  43.9372861  67.7806394
  68.3716841  44.0124534  68.7306002  66.6684096  44.3569049  67.4937521
  66.0936138  43.5372878  67.0625481  65.9810195  44.8113646  68.7804056
  66.4950291  45.6941223  69.1607124  64.5178640  45.1476820  68.5230720
  64.0030581  44.2652192  68.1431590  64.0492515  45.4686958  69.4533684
  64.4527646  45.9501403  67.7882772  66.0674380  43.7734729  69.7637217
  65.6350608  44.0609057  70.5712071  66.6489333  45.4758843  66.4602610
  65.8727522  45.4372207  65.4921185  67.5524575  46.4459450  66.6030206
  68.2016906  46.4545697  67.3766622  67.5682048  47.5714113  65.6739433
  66.5836975  48.0280569  65.5723590  68.5625398  48.6465546  66.1453729
  69.5215102  48.1750990  66.3603255  68.7477237  49.7024570  65.0685861
  67.7891949  50.1747091  64.8534082  69.4538420  50.4565955  65.4161097
  69.1331680  49.2346167  64.1626834  68.0849523  49.2815407  67.4395826
  67.9997101  48.5159135  68.2107187  68.8002324  50.0396662  67.7585180
  67.1116365  49.7454482  67.2797480  67.8983747  47.0820620  64.2727059
  67.2214737  47.4338675  63.2980516  68.9478980  46.2695630  64.1423367
  69.5146290  45.9809562  64.9269521  69.3454773  45.8398296  62.8076794
  69.4173588  46.7031013  62.1460948  70.7048417  45.1487833  62.8569174
  70.6514970  44.3614312  63.6088020  70.8885431  44.7044532  61.8786922
  71.8354304  46.0994633  63.2003087  71.9941246  46.7600294  62.3479183
  71.5318563  46.6895479  64.0650313  73.1205756  45.3669515  63.5162190
  73.8334459  46.0755519  63.9378827  72.9088009  44.5868058  64.2473987
  73.7087643  44.7419495  62.2671612  74.5386551  44.0980944  62.5584214
  72.9379055  44.1431417  61.7820785  74.1963021  45.7814507  61.3222193
  74.9109106  46.3361565  61.7713694  74.5817497  45.3362985  60.5016283
  73.4273727  46.3779071  61.0518742  68.2877457  44.9293748  62.1930765
  68.0047944  45.0239593  60.9933776  67.6854676  44.0440842  62.9950507
  67.9899696  43.9195951  63.9499749  66.6119103  43.1972486  62.4973456
  66.9294542  42.6953578  61.5833595  66.2463457  42.1359582  63.5358865
  66.0660567  42.6558759  64.4767801  65.3236264  41.6625519  63.2003634
  67.3146498  41.0743278  63.7406796  67.4553754  40.5503814  62.7952817
  68.2399173  41.5803042  64.0163011  66.9433599  40.0765547  64.8208591
  65.7339339  39.8939024  65.0728669  67.8612089  39.4729712  65.4166284
  65.3779258  44.0015269  62.1314937  64.4863168  43.4696964  61.4609545
  65.3063242  45.2627957  62.5546985  65.9799080  45.6341563  63.2092789
  64.2173537  46.1266521  62.1198002  63.3409652  45.5306886  61.8651044
  63.8353464  47.1084268  63.2293288  64.7351721  47.6118811  63.5828083
  62.8469689  48.1426914  62.7084299  61.9466340  47.6399890  62.3551778
  62.5860480  48.8329717  63.5106347  63.2995993  48.6966369  61.8860123
  63.2440532  46.3937693  64.3223970  63.0053259  47.0118838  65.0170509
  64.5820026  46.8980681  60.8562950  63.7452205  47.1158155  59.9812271
  65.8406254  47.3297295  60.7307631  66.5111773  47.2166498  61.4775378
  66.2618478  48.0342152  59.5227625  65.4822727  48.7231807  59.1976651
  67.5375670  48.8349831  59.8018850  68.3092456  48.1450191  60.1432970
  68.0289121  49.5719404  58.5481087  67.2578941  50.2624727  58.2063548
  68.9354549  50.1287797  58.7851935  68.2427661  48.8485954  57.7612547
  67.2789978  49.8017430  60.8260462  68.0782577  50.3038151  61.0012819
  66.4866383  47.0726900  58.3601506  66.1811584  47.4074858  57.2099598
  67.0075231  45.8792042  58.6326203  67.2943771  45.6555205  59.5748409
  67.2274918  44.8841577  57.5876777  67.2404251  45.3711720  56.6126141
  68.5662036  44.1698282  57.7957501  68.5277176  43.7079697  58.7823122
  68.6314711  43.3931038  57.0338187  69.7896093  45.0731027  57.7056847
  69.6730498  45.8752099  58.4344773  70.6684797  44.4793853  57.9570577
  69.9621628  45.6713892  56.3162605  69.0571165  46.2176580  56.0505905
  70.8094398  46.3570116  56.3282181  70.2036799  44.6475872  55.3057532
  69.4097666  44.3490199  54.7574298  71.3840615  44.0914101  55.0656377
  72.4648750  44.4357732  55.7469286  72.4000057  45.1383831  56.4695843
  73.3497282  43.9944239  55.5411488  71.4833137  43.1649440  54.1157227
  70.6642294  42.8955660  53.5897603  72.3772782  42.7353425  53.9250167
  66.0947046  43.8665073  57.5575581  64.9827676  43.8943303  57.1081808
  66.9121100  42.7649668  58.3301064  67.9004826  42.8459149  58.5215908
  66.2244391  41.5428787  58.7417353  65.9493625  41.7173789  59.7819188
  64.9355009  41.3648535  57.9144279  64.3951157  42.3113569  57.8997527
  65.2598502  40.9402939  56.4791695  65.7998684  39.9935688  56.4930125
  64.3337303  40.8215297  55.9167674  65.8771323  41.7031808  56.0047572
  64.1930515  40.2544398  58.4309383  63.3895290  40.1404714  57.9181391
  67.1416656  40.3348359  58.5820288  66.7636105  39.2904751  58.0454715
  68.3734807  40.4801413  59.0556310  68.6543587  41.3807187  59.4164178
  69.3707701  39.4290931  58.9770394  68.9238946  38.5094915  59.3548414
  69.8944481  39.1724129  57.5528517  70.5508637  38.3043228  57.6131617
  69.0264872  38.9290811  56.9400438  70.6528565  40.3421805  56.9210485
  69.9928972  41.2096700  56.9251362  71.5172453  40.5409194  57.5546366
  71.1198142  40.0665415  55.4974725  72.3497620  40.0782846  55.2401857
  70.2538150  39.8258510  54.6295488  70.4661377  39.8159667  59.9582487
  70.2915262  40.7079360  60.7930466  71.6233053  39.1551637  59.8827799
  70.8421263  38.0689183  60.3395416  70.7623588  37.3519965  59.5223755
  69.8515502  38.4528816  60.5833247  71.5517447  37.4975832  61.5458861
  72.2773651  36.7412408  61.2466868  70.8379827  37.0596604  62.2436459
  72.2404480  38.7213496  62.1631426  73.1438638  38.4917880  62.7281563
  71.5573547  39.2958072  62.7888275  72.5978524  39.5179421  60.9182830
  72.4487528  40.5712111  61.1559638  74.0482034  39.2934048  60.4889149
  74.4070838  39.3901527  59.3119180  74.8994387  38.9876455  61.4656440
  74.5527947  38.9428204  62.4132346  76.3164148  38.7297424  61.2347270
  76.5225580  37.6668441  61.1088241  76.8018919  39.5027739  59.9794632
  76.0901138  39.3406875  59.1700188  76.9098730  40.9943486  60.2691080
  77.6218717  41.1572729  61.0781903  77.2518400  41.5148828  59.3745671
  75.9332858  41.3797299  60.5621232  78.1357183  38.9627685  59.4663877
  78.3285610  39.4364812  58.5038344  78.9032434  39.2640608  60.1792886
  78.1625797  37.4618977  59.3027194  77.3955801  37.1598741  58.5895621
  79.1413136  37.1534190  58.9352688  77.9702601  36.9874536  60.2650165
  77.1160302  39.1751494  62.4653645  76.8315754  40.2112292  63.0677240
  78.1235494  38.4069978  62.8602218  78.2723411  37.4845065  62.4768551
  79.0131783  38.8666625  63.9255738  79.7553097  38.0958960  64.1335619
  79.7438463  40.1566476  63.5287519  80.2140416  40.5844051  64.4142118
  80.5106819  39.9075728  62.7952501  78.8129495  41.1936436  62.9246514
  78.1247151  40.9266553  61.9378744  78.7832518  42.3857495  63.5220445
  78.1817054  43.1127893  63.1619684  79.3624445  42.5559881  64.3317699
  78.2216991  39.0743014  65.2148561  77.8639805  40.1868721  65.5975646
  77.9295363  37.8966579  65.9353669  78.3374057  36.9745826  65.9946874
  76.7167001  38.1664073  66.6983464  76.1027722  38.9052735  66.1833043
  75.8821354  36.8869421  66.8996515  75.0129721  37.1253160  67.5127038
  75.4204160  36.3297483  65.5598354  76.2890968  36.0906888  64.9463666
  74.8328300  35.4265558  65.7244109  74.8083480  37.0725887  65.0483068
  76.6615020  35.9013280  67.5876119  76.1367403  35.1068428  67.7101625
  77.0393307  38.7725777  68.0616699  76.1589995  38.9170432  68.9089076
  78.3057790  39.1208088  68.2698447  79.0018673  38.8587514  67.5865540
  78.7420552  39.8370541  69.4597232  77.9565402  39.8117288  70.2149874
  80.0072511  39.2108151  70.0490967  80.8156951  39.2967882  69.3230613
  80.4048509  39.9181743  71.3367206  79.5970315  39.8322243  72.0634529
  81.3068191  39.4585220  71.7407901  80.5958557  40.9710906  71.1293920
  79.7729443  37.8245607  70.3259237  80.5678116  37.4332901  70.6956447
  78.9972286  41.2912042  69.0893507  79.7447233  41.5735196  68.1468526
  78.3771100  42.2072324  69.8274397  77.8064102  41.9078587  70.6051134
  78.4553730  43.6303356  69.5371410  79.2413087  43.8088058  68.8032794
  77.1301643  44.1532466  68.9724208  76.3680297  43.9161278  69.7147312
  77.2164132  45.2353515  68.8738812  76.7388739  43.5564160  67.6412468
  77.4766420  43.8175239  66.4964207  78.3538890  44.4603934  66.5689183
  77.1154231  43.2773127  65.2782155  77.7056968  43.4849781  64.3857168
  76.0011945  42.4727980  65.1948627  75.6366420  41.9328628  63.9850725
  76.2270798  42.1815452  63.2701320  75.2502609  42.2046374  66.3160472
  74.3682909  41.5675982  66.2496360  75.6189336  42.7466624  67.5279954
  75.0264853  42.5414373  68.4196162  78.8176860  44.3837652  70.8099878
  78.9658392  43.7998388  71.8868901  78.9623293  45.6988329  70.6764469
  78.9250779  46.1029508  69.7515683  79.2504059  46.5759718  71.8016253
  78.8482631  46.1439598  72.7180018  80.7647114  46.7588761  71.9691450
  80.9435954  47.4170777  72.8193629  81.2132832  45.7847107  72.1637860
  81.3451117  47.3215959  70.8067496  82.2903686  47.4246957  70.9388844
  78.5210164  47.8955510  71.5669602  77.6670428  48.0065906  70.6834714
  78.8597330  48.9058789  72.3691474  79.5714649  48.7953474  73.0771868
  78.1752967  50.1905297  72.2710847  77.1029344  50.0546937  72.4113946
  78.6914021  51.1386999  73.3480822  78.7142376  50.5675594  74.2761858
  79.7065284  51.4253559  73.0734062  77.8535418  52.3792875  73.5416091
  76.4689787  52.3152295  73.5428036  75.9866847  51.3485655  73.3977079
  75.7053025  53.4444730  73.7229056  74.6171691  53.3808391  73.7272038
  76.3233586  54.6611338  73.8892303  75.5626326  55.7922138  74.0679453
  74.6191747  55.6149879  74.0591143  77.6961709  54.7519244  73.8869009
  78.1869568  55.7153364  74.0249842  78.4498093  53.6156907  73.7086369
  79.5378721  53.6796260  73.6971576  78.3666177  50.8174985  70.8968299
  77.4182214  51.3571625  70.3100692  79.5964367  50.7779523  70.3817537
  80.3554799  50.3508492  70.8931593  79.8918351  51.3974353  69.0963913
  79.7586881  52.4779619  69.1496217  81.3400986  51.1022201  68.7023825
  81.4189661  50.0547497  68.4113741  81.7742184  51.9830816  67.5440937
  81.6960591  53.0307642  67.8345278  82.8072865  51.7555503  67.2812271
  81.1313564  51.7961023  66.6839380  82.1987920  51.3384423  69.8235327
  83.1074136  51.1529303  69.5753544  78.9313099  50.9044178  68.0235362
  78.3705561  51.6987020  67.2610148  78.7332057  49.5884061  67.9491178
  79.2338773  48.9565544  68.5575508  77.8412501  49.0214648  66.9494645
  78.0044802  49.5049059  65.9862720  78.1099419  47.5263946  66.7966785
  78.3191400  47.1199264  67.7861829  77.2087587  47.0616930  66.3966517
  79.2777730  47.2383394  65.8755299  79.3114432  47.8023403  64.7631705
  80.1635049  46.4470344  66.2625910  76.3753333  49.2531531  67.2802144
  75.5177204  48.9544318  66.4441356  76.0657234  49.7655243  68.4716083
  76.7499237  49.8208701  69.2124903  74.7060224  50.2109103  68.7517467
  73.9894391  49.5625259  68.2475590  74.4371180  50.1593017  70.2577417
  74.6333191  49.1548319  70.6327682  75.0783884  50.8719249  70.7764328
  73.0179193  50.4948102  70.6443554  71.9891077  50.4404274  69.7215087
  72.2104359  50.1483404  68.6949616  70.6975093  50.7498829  70.0862045
  69.8971813  50.6998102  69.3479169  70.4174043  51.1212793  71.3786409
  69.3957560  51.3681332  71.6674276  71.4262616  51.1812575  72.3068276
  71.2057230  51.4748120  73.3331261  72.7184710  50.8703219  71.9414717
  73.5198983  50.9187045  72.6786781  74.4775570  51.6181166  68.2176982
  73.4741907  51.8830392  67.5431851  75.4047197  52.5341048  68.5020783
  76.1959229  52.3361007  69.0978058  75.2373464  53.8949985  68.0042084
  74.2360485  54.2531502  68.2434340  76.2599536  54.8360059  68.6465569
  75.7656289  55.8011800  68.7569259  76.4806564  54.4265790  69.6323358
  77.5546779  55.0160782  67.8717943  78.0299484  54.0420307  67.7558195
  77.3292413  55.4291467  66.8886082  78.5197328  55.9440809  68.5763813
  78.4540158  56.1175021  69.7916127  79.4199872  56.5528825  67.8142943
  80.0885608  57.1833005  68.2334411  79.4322850  56.3829051  66.8187754
  75.3413062  53.9328854  66.4853697  74.6131950  54.6853434  65.8298768
  76.2345150  53.1274995  65.9065039  76.8539630  52.5487782  66.4555623
  76.3775559  53.1103412  64.4548642  76.5326325  54.1223268  64.0807844
  77.5817680  52.2555765  64.0640453  78.4563794  52.7032895  64.5359639
  77.4145474  51.2615994  64.4789513  77.8144392  52.1465339  62.5696425
  76.9633297  51.6360776  62.1189233  77.8970643  53.1506934  62.1537833
  79.0858706  51.3695538  62.2726592  79.9347781  51.9407953  62.6483429
  79.0343158  50.4124844  62.7917543  79.2575858  51.1287000  60.7840997
  78.3900491  50.5743611  60.4260648  79.3009784  52.0966615  60.2848334
  80.4957413  50.3599036  60.4834102  80.4555412  49.4627608  60.9455989
  80.5722137  50.2215961  59.4858516  81.2997699  50.8735930  60.8147111
  75.1188184  52.5942617  63.7712270  74.8079949  53.0139616  62.6514293
  74.3844024  51.6893817  64.4190589  74.6962774  51.2853602  65.2906093
  73.1297595  51.2150781  63.8470237  73.2639511  51.0725651  62.7747449
  72.7419423  49.8777256  64.4720134  72.5951678  50.0062072  65.5444171
  71.8173197  49.5192008  64.0196494  73.5359838  49.1513329  64.2989494
  72.0102246  52.2300037  64.0373749  71.1992417  52.4464892  63.1253909
  71.9479703  52.8617014  65.2113785  72.5637289  52.6289851  65.9773967
  70.9086776  53.8596942  65.4382329  69.9240441  53.4696421  65.1804433
  70.8923271  54.3005750  66.9114300  71.8888219  54.6398976  67.1941975
  69.8990262  55.4302220  67.1083361  68.9021532  55.0914879  66.8261938
  69.8962512  55.7339520  68.1551602  70.1839841  56.2780197  66.4853275
  70.5375946  53.1293132  67.8036187  71.2764517  52.3381157  67.6763442
  70.5292223  53.4539554  68.8441171  69.5514404  52.7516938  67.5334256
  71.0986704  55.0444814  64.5041051  70.1205715  55.6621555  64.0648746
  72.3492124  55.3859067  64.1871231  73.1413727  54.9286167  64.6154539
  72.6026703  56.4765152  63.2517546  72.1655173  57.4011190  63.6287217
  74.1074423  56.6812992  63.0826315  74.6020308  55.7170678  63.1998456
  74.3011669  57.0692385  62.0825945  74.6846436  57.6484993  64.0977649
  75.8456985  58.0436525  64.0061990  73.8750362  58.0301270  65.0770678
  74.2073994  58.6735123  65.7811203  72.9300585  57.6755125  65.1140334
  71.9448109  56.2023366  61.9062387  71.2318774  57.0560123  61.3665716
  72.1721557  55.0112741  61.3470628  72.7921373  54.3360604  61.7711013
  71.5692459  54.6837168  60.0600042  71.7866899  55.4716727  59.3389336
  72.1298927  53.3658577  59.5271031  72.0230576  52.6252465  60.3196815
  71.5167731  53.0753206  58.6740072  73.5827418  53.4440091  59.1015132
  73.6921658  54.2623356  58.3898469  74.1919259  53.6455635  59.9826333
  74.0402333  52.1473556  58.4558677  73.8516448  51.3280185  59.1495680
  73.4639317  51.9906659  57.5440430  75.5190360  52.1931931  58.1176748
  76.0779669  52.3192133  59.0449373  75.7933117  51.2452953  57.6546825
  75.8417843  53.3112443  57.1879410  75.5881074  54.1897106  57.6169454
  76.8317878  53.3076787  56.9879903  75.3242937  53.1944293  56.3284895
  70.0538279  54.6090058  60.1624140  69.3431124  55.0522657  59.2513416
  69.5335636  54.0465879  61.2555737  70.1064419  53.6339701  61.9778315
  68.0842983  53.9645672  61.3916791  67.6634591  53.4233247  60.5443008
  67.7098732  53.2278169  62.6759621  68.0590266  52.2069592  62.5209114
  68.2484327  53.6722825  63.5129233  66.2097669  53.2125946  62.9848657
  65.8702892  54.2382905  63.1291003  65.4290609  52.5761105  61.8457049
  65.7676834  51.5501757  61.7011668  64.3663356  52.5766800  62.0880175
  65.5927502  53.1445885  60.9302056  65.9375078  52.4821953  64.2843397
  66.4595314  52.9831634  65.0995831  64.8660816  52.4831802  64.4847044
  66.2907932  51.4541096  64.2047897  67.4640054  55.3553986  61.3709230
  66.4781300  55.6002630  60.6666822  68.0418102  56.2894051  62.1292708
  68.8057851  56.0634954  62.7500820  67.5430101  57.6605554  62.1166483
  66.4814673  57.6738019  62.3637326  68.2947309  58.5008937  63.1475626
  69.3443351  58.2850719  62.9479347  68.0918154  59.5491711  62.9283826
  67.9886489  58.2203057  64.6144907  68.0362751  57.1461023  64.7931518
  69.0013077  58.9245393  65.4967917  68.9539477  59.9989004  65.3190165
  68.7766245  58.7197423  66.5435374  70.0022296  58.5618591  65.2628710
  66.5785004  58.6659647  64.9563947  65.8650531  58.1240069  64.3356096
  66.3760681  58.4585614  66.0071593  66.4803175  59.7358068  64.7722836
  67.6802977  58.2770208  60.7310768  66.7481057  58.9114020  60.2241600
  68.8443473  58.1009140  60.1007808  69.5971339  57.5788771  60.5260914
  69.0765985  58.7110033  58.7977215  68.9848643  59.7955496  58.8564004
  70.4827105  58.3653873  58.3050061  70.5701450  57.2819280  58.2239418
  70.7517043  58.9977835  56.9495791  70.6649015  60.0813442  57.0299600
  71.7576374  58.7378448  56.6199890  70.0257823  58.6283941  56.2252247
  71.4538380  58.8346447  59.2485552  72.3349581  58.6161517  58.9363237
  68.0340942  58.2600526  57.7864360  67.5726879  59.0566693  56.9621843
  67.6490416  56.9872272  57.8329773  68.0460992  56.3641935  58.5216525
  66.7053777  56.4392004  56.8687853  66.7869445  57.0416161  55.9640526
  67.0858142  54.9944774  56.5308067  67.0002192  54.3769991  57.4249511
  66.4158041  54.6124719  55.7605740  68.1125288  54.9644112  56.1660432
  65.2538355  56.4799322  57.3319927  64.3711994  56.0896142  56.5614951
  64.9710298  56.9386603  58.5533524  65.7084455  57.2763551  59.1552490
  63.6113978  56.9004697  59.0801582  62.9567402  56.3597491  58.3966790
  63.6058162  56.1829529  60.4339941  64.1442912  56.7943599  61.1580973
  62.5736583  56.0576721  60.7611866  64.2258979  54.9147641  60.3340656
  64.2116608  54.4831697  61.1914590  62.9829166  58.2816528  59.2173795
  61.9187901  58.5283900  58.6440518  63.5996536  59.1885994  59.9679142
  64.4813312  58.9769035  60.4128061  62.9918587  60.4947177  60.2198932
  62.0546686  60.3625277  60.7605406  63.9185570  61.3789691  61.0567700
  64.9157280  61.0094949  60.8175254  63.8257928  62.4133279  60.7257159
  63.6971055  61.3059852  62.5697871  62.6280889  61.3692849  62.7730047
  64.2422753  60.0047855  63.1305170  65.3114086  59.9409763  62.9280787
  64.0743726  59.9738447  64.2070634  63.7330249  59.1639652  62.6595757
  64.3235631  62.5032662  63.2675916  63.8718574  63.4211132  62.8912697
  64.1529405  62.4287677  64.3415745  65.3955268  62.5192580  63.0707745
  62.6405328  61.1984628  58.9134734  61.7653928  61.6727088  58.8169453
  63.2899479  61.1832259  58.1535268  76.9458895  48.3304325  76.9342290
  22.8333710  52.1026095  71.0325205  23.5614568  51.6659203  70.4854423
  21.9580906  51.6376747  70.8380464  23.1549239  52.1957111  71.9854294
  22.6558527  53.5030423  70.5365839  21.6470212  53.6591494  70.1544991
  22.9295363  54.5525857  71.6784517  22.8290274  55.5611204  71.2773832
  21.9223733  54.3514917  72.8057530  22.0226044  53.3432640  73.2076611
  22.1113560  55.0776756  73.5963488  20.9122602  54.4895965  72.4201376
  24.2544698  54.3712372  72.1849717  24.4212980  55.0109995  72.8810125
  23.6138718  53.6928048  69.3526516  24.5715288  52.9404803  69.2356093
  23.3433712  54.6510658  68.4577872  22.4259446  55.0697883  68.4021159
  24.3581561  55.0652973  67.4805463  24.6289733  54.2193776  66.8487416
  23.8773966  56.2184682  66.5796550  23.0051862  55.8964125  66.0107716
  23.6111828  57.0761192  67.1974454  24.9657710  56.6414002  65.6034092
  26.0582878  56.0785099  65.6050811  24.6644958  57.6374131  64.7670986
  25.3511956  57.9568295  64.0988799  23.7512429  58.0669746  64.8064303
  25.6252402  55.4473755  68.2784813  26.7137791  54.9916337  67.9644628
  25.4754853  56.2238659  69.3528220  24.5649681  56.5843956  69.5999580
  26.6449185  56.6919848  70.1204207  27.4487899  56.9412785  69.4277862
  26.3182640  57.9399157  70.9661407  25.3362252  57.7797173  71.4111526
  27.0684129  58.0003525  71.7546354  26.3098177  59.2528806  70.1653598
  27.2288884  59.2906798  69.5805684  25.4517440  59.2551841  69.4931945
  26.2419833  60.4895227  71.0426817  25.8183117  60.4220141  72.1941217
  26.6434189  61.6293686  70.4944493  26.6187743  62.4823093  71.0348067
  26.9717532  61.6387269  69.5393522  27.2757401  55.5973419  70.9774732
  28.4952647  55.4387833  70.9606229  26.4653823  54.8320558  71.7055572
  25.4857599  55.0593164  71.7993232  27.0004229  53.7346248  72.5044356
  27.8696058  54.0849996  73.0610841  25.9577485  53.2029593  73.5040695
  25.0419382  53.2378963  72.9140101  26.1922822  52.1670380  73.7489387
  25.7612630  54.0067516  74.8057072  25.6420087  55.0603432  74.5530732
  24.5123646  53.5167387  75.5725436  24.6310917  52.4632725  75.8259437
  24.3950530  54.0987906  76.4866302  23.6287563  53.6420190  74.9467308
  27.0217785  53.9493408  75.6710688  27.8614580  54.3719728  75.1193261
  26.8624915  54.5224756  76.5844392  27.2406499  52.9126167  75.9267977
  27.5899325  52.6125600  71.6137391  28.6549893  52.0729924  71.9174162
  26.9199529  52.2622879  70.5230798  25.9767892  52.5855833  70.3617673
  27.4906127  51.2877277  69.5871605  27.7234042  50.3742994  70.1344776
  26.5347150  50.9388637  68.4316716  26.1300496  51.8811909  68.0623958
  27.1388399  50.4734347  67.6528847  25.3739642  49.9956317  68.8147759
  25.7778735  49.0528552  69.1837348  24.7690810  50.4606111  69.5932439
  24.4837163  49.7068224  67.6145540  24.7331877  50.2043409  66.5187990
  23.4415769  48.8991399  67.8238811  22.8190220  48.6749929  67.0608051
  23.2804667  48.5159257  68.7443657  28.8554593  51.8022216  69.0863724
  29.8035003  51.0320098  68.9929643  28.9622752  53.1059319  68.8205700
  28.1393547  53.6894389  68.8697713  30.2218159  53.7157172  68.3812978
  30.6262976  53.1638423  67.5328121  29.9838264  55.1755381  67.9507239
  29.2913054  55.1625227  67.1090919  29.5031918  55.6453889  68.8088210
  31.2334471  55.9687861  67.5695985  31.6358681  56.0879170  66.2372786
  31.0444801  55.5933701  65.4667054  32.7709872  56.8225170  65.8831859
  33.0751990  56.9017490  64.8395005  33.5085036  57.4488200  66.8658187
  34.6262367  58.1694651  66.5269244  34.8001180  58.1701357  65.5828034
  33.1293521  57.3570722  68.1916043  33.7159351  57.8501675  68.9667674
  31.9899195  56.6291017  68.5359275  31.6759514  56.5688271  69.5779885
  31.3063777  53.6411793  69.4675960  32.4861904  53.4604832  69.1545720
  30.9206276  53.7622509  70.7402937  29.9599826  53.9661508  70.9762710
  31.9012469  53.6506599  71.8361844  32.7347000  54.3258992  71.6425172
  31.2833686  54.0129377  73.1818007  30.4191183  53.3598606  73.3028829
  32.0325362  53.7665738  73.9342319  30.8405351  55.4987075  73.3563388
  30.0580914  55.6611923  72.6150687  30.4116541  55.5620104  74.3564168
  32.1143645  56.7802489  73.1706934  33.3223051  56.1893341  74.3504930
  33.6530293  55.1911235  74.0636200  34.1776599  56.8648082  74.3647565
  32.8732780  56.1515099  75.3429874  32.4755437  52.2206376  71.8946690
  33.6367928  52.0460891  72.2005962  31.6431295  51.2138154  71.5956630
  30.6862113  51.4372022  71.3621993  32.0502237  49.7938388  71.5980371
  32.6516825  49.5526126  72.4744825  30.7553888  48.9506533  71.6402468
  30.1885073  49.3920609  72.4599443  30.2666183  49.1837195  70.6942639
  30.8166103  47.4243077  71.8230556  31.3732101  46.9421856  71.0194041
  31.3098980  47.2274275  72.7748998  29.3997831  46.8233889  71.8695985
  28.9733299  46.2688070  72.8835617  28.6530307  46.9851043  70.7823584
  27.7150919  46.6112694  70.7574663  29.0268347  47.4811085  69.9858964
  32.8551860  49.5213523  70.3272748  33.9938361  49.0536415  70.4046277
  32.2862270  49.8742906  69.1727644  31.3891768  50.3381139  69.1891410
  32.8500429  49.4890910  67.8663762  33.3103864  48.5034966  67.9355623
  31.7444712  49.4394278  66.8088646  31.2557575  50.4116788  66.7457279
  32.1946345  49.1964493  65.8463603  30.7043722  48.3976724  67.1306965
  30.9782255  47.4369982  67.8643997  29.5059139  48.5777274  66.6022403
  28.7710194  47.9095390  66.7854182  29.3308124  49.3826337  66.0178037
  34.0195318  50.2892228  67.3289770  34.8007475  49.7510298  66.5578237
  34.1404884  51.5560067  67.7105172  33.4139911  51.9808660  68.2689038
  35.2329561  52.4022571  67.2347362  35.8822749  51.8624361  66.5454775
  34.6823583  53.6797553  66.5085198  33.9273108  54.1394738  67.1462200
  35.7847193  54.6823478  66.2276113  36.5399645  54.2234681  65.5895399
  35.3648838  55.5532053  65.7241771  36.2428542  54.9920931  67.1669046
  33.9811061  53.2928428  65.1817154  33.1493782  52.6205603  65.3923501
  33.6060359  54.1919252  64.6927647  34.6939989  52.7935288  64.5255369
  36.1933628  52.7232559  68.4220402  37.3952686  52.4788498  68.3268715
  35.6537187  53.2195500  69.5441033  34.6553331  53.3530094  69.6183603
  36.5003289  53.7273292  70.6162662  37.3491100  54.2763291  70.2085053
  35.7488456  54.6408285  71.5914077  34.8870022  54.1092300  71.9948037
  36.6773297  55.0460924  72.7344245  37.5392408  55.5781849  72.3318233
  36.1407899  55.6954195  73.4262336  37.0155189  54.1543001  73.2620951
  35.1983334  55.8956024  70.8374496  34.5163561  55.5763590  70.0493553
  34.6663478  56.5375838  71.5395543  36.0280727  56.4486210  70.3972181
  37.2243295  52.5776875  71.3268885  38.4575685  52.5441345  71.2999633
  36.4792059  51.6158535  71.8895172  35.4757422  51.7136346  71.9495071
  37.1055741  50.4446709  72.5247345  37.8337541  50.7625764  73.2709176
  36.0679177  49.4903111  73.2118732  35.2729657  49.2671567  72.5002886
  36.7331699  48.1871946  73.6577879  37.5279824  48.4095199  74.3697890
  35.9916793  47.5435356  74.1310693  37.1546037  47.6785667  72.7907280
  35.3826223  50.1576713  74.4366399  34.8559583  51.0558722  74.1142082
  34.6723221  49.4603479  74.8808394  36.1382408  50.4255473  75.1751411
  37.9590505  49.6830527  71.4867394  39.1027062  49.3628361  71.7606461
  37.4348830  49.4128116  70.2894833  36.4797970  49.6467000  70.0588185
  38.2042417  48.5734347  69.3358672  38.5468377  47.6745022  69.8483587
  37.3457920  48.1505729  68.1123178  36.8068015  49.0307973  67.7618987
  38.0236693  47.8055656  67.3315795  36.3274002  47.0193362  68.4534082
  36.8404660  46.3315603  69.1255901  35.5008216  47.4942506  68.9819214
  35.7753419  46.2317180  67.2270138  35.4415183  46.9513066  66.4794490
  36.5842392  45.6287651  66.8144216  34.6008159  45.3158621  67.6177859
  34.9340152  44.5956536  68.3650332  33.7912936  45.9181949  68.0300576
  34.1208576  44.5996054  66.4271913  34.8707085  44.0410743  66.0452666
  33.3504543  43.9988720  66.6835080  33.8116622  45.2667755  65.7348177
  39.5536244  49.2227920  68.9425348  40.5989127  48.5492842  68.9525739
  39.5371687  50.5348939  68.6801480  38.6636639  51.0390318  68.7343120
  40.7466059  51.2783130  68.3220524  41.1775386  50.8309654  67.4263536
  40.4585251  52.7747042  68.0388266  39.9871826  53.2092192  68.9203783
  41.7360172  53.5360591  67.7201753  42.2077142  53.1023815  66.8384014
  41.4976351  54.5819385  67.5267600  42.4195505  53.4702744  68.5666712
  39.5810282  52.8909419  66.9204153  39.4043917  53.8185428  66.7473360
  41.7366206  51.2069624  69.4666917  42.9205709  50.9034501  69.2586821
  41.2679992  51.4921233  70.6780047  40.3038678  51.7589476  70.8171264
  42.1806516  51.5434409  71.8334878  43.0594025  52.1241572  71.5530154
  41.5439984  52.1852869  73.0832335  40.7002396  51.5270266  73.2902691
  42.2626503  52.1218824  73.9003133  41.0479584  53.6213525  72.9533533
  40.3420625  53.6682388  72.1241287  40.3695388  54.0927245  74.2194762
  41.0749964  54.0465582  75.0491129  40.0293973  55.1200663  74.0891946
  39.5143868  53.4518901  74.4342939  42.2173718  54.5261949  72.5825453
  42.6431050  54.2000776  71.6335995  41.8666801  55.5539689  72.4887511
  42.9796972  54.4724566  73.3597654  42.7251887  50.1706785  72.1496091
  43.9112613  50.0326369  72.4557356  41.8802281  49.1484682  72.0674112
  40.9188748  49.3074163  71.8016391  42.2937804  47.7707664  72.4127316
  42.6545037  47.7455707  73.4410035  41.1112776  46.7875328  72.2806226
  40.1780431  47.2696914  72.5716478  41.0368563  46.4465613  71.2480046
  41.2420706  45.5599893  73.1288532  41.9634347  44.4219150  72.8369715
  42.4784286  44.3969688  71.8766284  41.8693868  43.5252383  73.8728633
  42.2899943  42.6072429  73.8946170  41.0735983  44.0612029  74.8551934
  40.6609751  43.5148978  76.0724649  41.0088603  42.5167642  76.3385549
  39.8349172  44.2780073  76.8643483  39.4994911  43.8910051  77.8265430
  39.4140499  45.5439237  76.4614473  38.7604666  46.1409058  77.0974824
  39.8129154  46.0871604  75.2368060  39.4492553  47.0790172  74.9683434
  40.6530058  45.3385876  74.4147105  43.4486385  47.2940640  71.5465824
  44.3413948  46.5604700  72.0228292  43.4446610  47.7085385  70.2801824
  42.6971996  48.3005897  69.9472015  44.4649059  47.2925925  69.3364900
  44.6745557  46.2308632  69.4664011  43.9925171  47.5297827  67.8779802
  43.7523536  48.5901319  67.8000044  44.8443226  47.3026122  67.2369491
  42.7721944  46.6906522  67.4301404  43.0117751  45.6301186  67.5074088
  41.9198049  46.9176392  68.0704615  42.4256569  47.0291154  65.9841185
  42.1854951  48.0894648  65.9061411  43.2774623  46.8019429  65.3430883
  41.2228576  46.2020366  65.5427116  41.4624370  45.1415029  65.6199805
  40.3704694  46.4290267  66.1830312  40.8888200  46.5282918  64.1488409
  41.6783811  46.3176266  63.5552811  40.0922113  45.9805229  63.8564990
  40.6663727  47.5108751  64.0771029  45.7887047  48.0456802  69.5913030
  46.8088076  47.6312846  69.1287921  45.7729176  49.1699575  70.2885299
  44.9131636  49.4916426  70.7097672  46.9862984  49.9957853  70.4552650
  47.4291747  50.2189492  69.4846170  46.6150002  51.3104473  71.1357733
  45.7155747  51.7328371  70.6877555  46.4419729  51.1312920  72.1969354
  47.6723191  52.3636293  71.0466535  48.7951848  52.3590006  71.8419680
  49.5488516  53.4036485  71.5484598  50.4974883  53.5697640  72.0589429
  48.9393414  54.0983366  70.6066080  49.2708310  54.9597514  70.1965115
  47.7702760  53.4617518  70.2655995  47.1305194  53.8772668  69.4870367
  48.0405093  49.2703371  71.2914661  47.6998633  48.6135308  72.2595894
  49.3116041  49.4228758  70.9216782  49.4995152  49.9751791  70.0972088
  50.4571888  48.7859763  71.6181475  50.3452321  47.7019528  71.5967463
  51.7844186  49.1577423  70.9284077  52.5950280  48.7797764  71.5514274
  51.8043280  48.6538744  69.9620637  51.9617073  50.6778560  70.7197906
  51.2804002  50.9817925  69.9250931  51.6921680  51.1890190  71.6440000
  53.3744763  51.0874349  70.3319816  54.3666476  50.5263409  70.8118896
  53.4642064  52.0878459  69.4624586  54.3724165  52.4110873  69.1611766
  52.6238014  52.5205640  69.1066838  50.5941445  49.1255087  73.1029949
  51.2440334  48.3942382  73.8400559  50.0307366  50.2596388  73.5150985
  49.5563244  50.8444475  72.8420226  50.0859896  50.7057894  74.8988408
  50.9606178  50.2755882  75.3867463  50.1829481  52.2378079  74.9785123
  49.3801656  52.6667357  74.3787954  50.0882896  52.5796940  76.0091692
  51.4875395  52.8212656  74.4430357  52.6133813  52.0353843  74.2463641
  52.5686720  50.9703056  74.4737588  53.8141722  52.6051454  73.7545893
  54.6899810  51.9772139  73.5909994  53.8744579  53.9728130  73.4795456
  54.7941322  54.4193226  73.1014870  52.7511835  54.7667297  73.6908746
  52.7920274  55.8361515  73.4840678  51.5779747  54.1957563  74.1654517
  50.6978093  54.8169471  74.3313759  48.8668069  50.2787538  75.7170956
  48.8177336  50.6000122  76.9010356  47.9042978  49.5739008  75.0992480
  48.0122435  49.3062944  74.1313462  46.6246168  49.2849315  75.7639918
  46.3692820  50.2123074  76.2767073  45.5564029  48.9948431  74.7257184
  45.7934048  48.0642456  74.2100457  44.5877540  48.9010665  75.2166620
  45.5197479  49.8105730  74.0036794  46.6600697  48.1678306  76.8216948
  45.8257378  48.1604757  77.7323013  47.6255221  47.2526503  76.7089224
  48.2473181  47.3342141  75.9172049  47.7061899  46.0407877  77.5361870
  46.8126417  45.4359378  77.3818261  48.9532986  45.1885732  77.1657246
  48.9680911  44.2791525  77.7664195  48.9127061  44.9247240  76.1089200
  50.2363683  45.8530144  77.3816410  50.9092248  46.6343696  76.4811471
  50.4464962  46.7668530  75.5031746  52.0687196  47.0984792  77.0334108
  52.7339907  47.7038882  76.5740701  52.1838231  46.6120436  78.3125635
  53.1965511  46.8032837  79.2605578  54.0506253  47.4250127  78.9920268
  53.0472693  46.1904469  80.4769077  53.8095477  46.3240453  81.2444904
  51.9193922  45.3826524  80.7624721  51.8024837  44.9028352  81.7341755
  50.9248031  45.1776921  79.8074968  50.1116526  44.4922322  80.0463097
  51.0400551  45.8223013  78.5702066  47.5815153  46.2004088  79.0641092
  46.9469031  45.3637467  79.7074115  48.1528716  47.2622469  79.6586080
  48.9660255  48.3733544  79.1347905  48.3246273  49.1992412  78.8271875
  49.5600282  48.0390281  78.2842108  49.8100030  48.7129353  80.3211129
  50.2645542  49.6994122  80.2297591  50.5881795  47.9694550  80.4936811
  48.7930444  48.6810891  81.4099683  48.1618170  49.5690607  81.3759478
  49.2407254  48.5918882  82.3997787  47.9511798  47.4273298  81.0984421
  48.3147903  46.5161437  81.5734426  46.4976318  47.6785665  81.5210334
  46.1664429  47.4967850  82.6825554  45.6519107  48.0907474  80.5743715
  45.9921586  48.1625041  79.6261196  44.2798500  48.5270541  80.8558532
  44.1400869  48.6425047  81.9306725  43.9983512  49.8876805  80.1711270
  44.0066139  49.7938154  79.0852079  43.0250322  50.2552766  80.4961244
  45.0054703  50.9617277  80.5205019  44.8359236  51.7461751  81.6541214
  43.9607996  51.5873889  82.2842363  45.7673480  52.7261781  81.9897844
  45.6070432  53.3475830  82.8708400  46.8820443  52.9098308  81.2160752
  47.6210556  53.6604668  81.4962677  47.0715090  52.1408321  80.0753416
  47.9512042  52.3009212  79.4519572  46.1376215  51.1642456  79.7267072
  46.2905994  50.5578857  78.8339444  43.2233855  47.5154989  80.4539827
  42.0266788  47.8197114  80.5471107  43.6303773  46.3013006  80.0811739
  44.6129873  46.0707688  80.0433304  42.6582680  45.2835891  79.6530296
  41.9272250  45.7350775  78.9823333  43.3542543  44.1426449  78.9183853
  44.1575890  43.8510380  79.5949339  42.6495035  43.3175708  78.8150458
  43.9420817  44.4862930  77.5466255  43.5108553  45.5759608  76.8248984
  42.7408182  46.2145263  77.2577683  44.0302630  45.8682761  75.5806598
  43.6904112  46.7384865  75.0191116  44.9738965  45.0195463  75.0350754
  45.5135237  45.2940273  73.8116720  45.1665457  46.0992589  73.4207656
  45.3982586  43.9187174  75.7209373  46.1371608  43.2466168  75.2845831
  44.8901618  43.6617004  76.9631514  45.2300261  42.7892332  77.5211776
  41.8417461  44.7039618  80.7983747  40.7315227  44.1888859  80.5999256
  42.4297166  44.7444736  81.9850656  43.3178912  45.2166112  82.0763422
  41.8491615  44.1569129  83.1560575  40.7819231  43.9963552  83.0033398
  42.5080101  42.8114158  83.4471695  43.5837483  42.9856685  83.4700314
  42.1694678  42.5021409  84.4360264  42.1949925  41.7229414  82.4440576
  41.1178713  41.6144785  82.3169887  42.6480723  41.9885750  81.4889348
  42.7662352  40.3921029  82.8984402  43.9815126  40.2264832  82.9980249
  41.8897990  39.4422743  83.2019978  42.2165950  38.5375624  83.5098976
  40.9002579  39.6287429  83.1236447  42.0845689  45.0865996  84.3267406
  42.9553234  45.9688569  84.2482250  41.2973135  44.9141785  85.4101938
  40.1003402  44.0448913  85.5257778  40.4178122  43.0059285  85.6144802
  39.4841710  44.1611273  84.6341928  39.4158581  44.5459875  86.7635685
  38.8747194  43.7356496  87.2520563  38.7208332  45.3477114  86.5140078
  40.5271280  45.0521333  87.6192977  41.0246717  44.2304891  88.1345162
  40.1939463  45.7895920  88.3495335  41.4989853  45.7070284  86.6156131
  41.2175213  46.7332421  86.3794742  42.9499144  45.6805556  87.1439814
  43.6217264  44.6485218  87.0168723  43.4334310  46.8072068  87.6951390
  42.9708218  47.6899248  87.5311235  44.7059754  46.8136671  88.4284105
  45.4841001  46.4333080  87.7666341  45.1206151  48.2378146  88.9198276
  44.3105956  48.6389535  89.5289706  46.3968191  48.2032569  89.7363466
  47.2074565  47.8026360  89.1276834  46.6500673  49.2132737  90.0585762
  46.2521597  47.5689671  90.6109046  45.3584617  49.1548395  87.6911538
  44.4416824  49.2236512  87.1055919  45.6479820  50.1495127  88.0301271
  46.1530561  48.7365222  87.0733098  44.5878343  45.7849618  89.5547511
  43.6204571  45.7966102  90.3344271  45.5182972  44.8310195  89.5555931
  46.2131702  44.8292445  88.8226212  45.5859537  43.7792580  90.5844572
  44.6017558  43.6399941  91.0317369  46.0380036  42.4510770  89.9741727
  45.4053215  42.2918370  89.1009859  47.0778874  42.5347377  89.6583521
  45.8910292  41.2746230  90.9279214  45.8909402  41.4414561  92.1701999
  45.8136790  40.1495615  90.4143841  46.5949923  44.2427684  91.6168922
  47.8111931  44.0021935  91.4930360  46.0895103  44.9275347  92.6357897
  45.0981119  45.1145151  92.6834001  46.9430612  45.4876088  93.6607395
  47.6965534  46.1127532  93.1816328  46.1228794  46.3518017  94.6025582
  45.3698276  45.7379624  95.0967387  46.7778534  46.7959754  95.3521040
  45.6314717  47.1425830  94.0357403  47.6883641  44.3913854  94.4318820
  48.7360494  44.6783570  94.9854711  47.1782891  43.1487698  94.4464424
  46.2780133  42.9709687  94.0245543  47.8594601  42.0387802  95.1300030
  48.3150135  42.4285355  96.0403112  46.9240332  40.8601427  95.4860259
  46.5382268  40.4242392  94.5644827  47.6974823  39.7682702  96.2946766
  48.0832177  40.2033390  97.2166441  47.0221148  38.9473579  96.5356797
  48.5271187  39.3917955  95.6962876  45.7373610  41.3648744  96.3144099
  45.1122908  41.9683584  95.6562343  45.1762833  40.4917820  96.6475780
  46.1531380  42.2006383  97.5324145  46.7139019  43.0742137  97.1999846
  45.2633633  42.5245474  98.0723062  46.7778968  41.5976375  98.1913275
  49.0199233  41.5436054  94.2650164  50.1686203  41.5888684  94.6860361
  48.7301190  41.1162293  93.0416930  47.7712393  41.0562373  92.7301647
  49.7792465  40.6550423  92.1413486  50.2682273  39.7749806  92.5590668
  49.1841184  40.2851919  90.7881707  48.3205189  39.6490079  90.9819877
  48.8538682  41.2125150  90.3200824  50.1523033  39.5589390  89.8528073
  50.8675161  40.2845759  89.4654799  50.6817420  38.7985857  90.4269672
  49.4098632  38.8906393  88.6764917  49.1119397  37.8900883  88.9899215
  48.5207784  39.4823175  88.4584443  50.2748565  38.7942256  87.4255192
  49.7303673  38.2870219  86.6290417  50.5644490  39.7900262  87.0899351
  51.4847621  38.0184856  87.7656851  51.2166609  37.0955745  88.0762597
  52.0752985  37.9409022  86.9499968  51.9896679  38.4885233  88.5034071
  50.8989692  41.6946731  91.9601031  52.0667731  41.3236665  91.9066763
  50.5603790  42.9841759  91.8758950  49.5852699  43.2464230  91.8979871
  51.5645562  44.0401174  91.6283758  52.4366448  43.6152091  91.1313711
  50.9659913  45.1445246  90.7202043  50.0546277  45.3942757  91.2634721
  51.6281838  46.0101891  90.7051653  50.6062241  44.7426334  89.2628601
  49.8731852  43.9376366  89.3151575  50.0287006  45.9124410  88.4305177
  50.7614026  46.7176882  88.3773810  49.7989659  45.5639185  87.4236141
  49.1183705  46.2808536  88.9034571  51.7842546  44.1043868  88.5334716
  52.0973311  43.2055450  89.0646646  51.4845221  43.8405786  87.5192395
  52.6138393  44.8103454  88.4946044  52.1513399  44.6305557  92.9321540
  52.9924377  45.5439347  92.9139535  51.6982910  44.1076107  94.0626496
  50.9587034  43.4207436  94.0262751  52.1613920  44.5556533  95.3697534
  51.5599909  44.0993275  96.1559993  53.6317911  44.1474179  95.5753924
  53.7368952  43.0905965  95.3300744  54.2513520  44.7395766  94.9018998
  54.1185904  44.3670405  97.0060910  53.3231843  44.5119324  97.9400785
  55.4387361  44.3896082  97.1791950  55.8214858  44.5312111  98.1030732
  56.0512118  44.2650173  96.3858152  51.9725406  46.0622613  95.5720913
  52.9395692  46.7825356  95.8429133  50.7212461  46.5181273  95.4427774
  50.0039831  45.8647734  95.1621320  50.3474286  47.9317516  95.6202847
  51.2255498  48.5187534  95.8894151  49.7625029  48.4931865  94.3091752
  48.7672416  48.0491904  94.2886410  49.6759485  49.5718677  94.4397706
  50.4854427  48.1933947  92.9828095  50.6697457  47.1220587  92.9029813
  49.6000988  48.6554733  91.7951637  49.4157367  49.7268674  91.8740573
  50.1113838  48.4434817  90.8561494  48.6503859  48.1211171  91.8198440
  51.8375993  48.8390423  92.9033570  52.4644403  48.4718687  93.7159783
  52.3019753  48.5945493  91.9480145  51.7300190  49.9203903  92.9882805
  49.3390931  48.0960919  96.7983394  48.1198749  48.2297073  96.5593230
  49.8332212  48.0614348  98.0636892  51.2652975  47.9926906  98.4224560
  51.6987516  48.9913153  98.3679905  51.7808643  47.3347418  97.7228895
  51.2529542  47.4476182  99.8135910  52.1126969  47.8401108 100.3566299
  51.3168918  46.3603702  99.7699423  49.9501864  47.8874448 100.4482583
  50.0628474  48.8139240 101.0113239  49.5808449  47.1036122 101.1095397
  48.9614709  48.1001581  99.2787012  48.2696342  47.2633324  99.1828736
  48.1661729  49.4001759  99.4965286  47.1641528  49.4080416 100.2162582
  48.6448057  50.4839562  98.8955112  49.5320670  50.4152808  98.4178603
  47.9978159  51.7805435  98.9613883  47.3370154  51.8335173  99.8266256
  49.0701002  52.8714726  99.0953810  48.5753574  53.8357551  98.9792428
  49.4916902  52.7984032 100.0978893  50.2086145  52.7435154  98.0441165
  50.3072501  51.7070004  97.3191967  51.0189752  53.6987088  97.9430861
  47.0777382  52.0462905  97.7470509  46.3671042  53.0457838  97.7369704
  47.0825863  51.1636927  96.7416611  47.6624708  50.3388138  96.8000415
  46.3467038  51.4209058  95.4730622  46.7261604  52.3459544  95.0390151
  46.5009497  50.2690174  94.4144757  47.5353746  49.9504481  94.2857198
  45.9153783  49.4445747  94.8212933  45.9252807  50.6833555  93.0645605
  44.6020974  50.3404354  92.7283274  44.0459352  49.7115761  93.4235389
  44.0062650  50.7737787  91.5625541  42.9720374  50.5051132  91.3473938
  44.7302884  51.5962478  90.6566205  44.0976550  51.9915988  89.4783461
  43.2030049  51.6521942  89.4008523  46.0564870  51.9571545  90.9553118
  46.6363332  52.5785890  90.2728910  46.6446805  51.4944444  92.1798663
  47.6672930  51.7741629  92.4330880  44.8632503  51.7148992  95.7523967
  44.3011397  52.7503784  95.3279554  44.2279181  50.8305085  96.4975148
  44.6881235  49.9858756  96.8055822  42.7844118  50.9558721  96.7192975
  42.2980051  51.3229053  95.8155308  42.1905797  49.5949560  97.0746141
  42.8606958  49.1251293  97.7945492  41.1836745  49.6369263  97.4899216
  42.1274989  48.6843244  95.8919540  41.2991441  48.9304395  94.8171532
  41.4703815  47.9857199  93.9096640  40.8845519  47.9867868  92.9904788
  42.4039729  47.1552950  94.3423991  42.7485778  46.3418108  93.8529190
  42.8381047  47.5750100  95.5756156  43.6202859  47.0217271  96.0953960
  42.3699636  52.0685633  97.6930819  41.2119144  52.4534849  97.7107006
  43.3105506  52.6252753  98.4531536  44.2039142  52.1696229  98.5730774
  42.9966290  53.7780523  99.3073950  41.9150478  53.8366228  99.4292588
  43.6544980  53.6819128 100.7228142  43.6082494  54.6934374 101.1262723
  42.9957239  53.0313812 101.2980752  45.0934142  53.1610501 100.8140290
  45.1484805  52.2404255 100.2330652  45.7449981  53.9117726 100.3668643
  45.5536903  52.8793484 102.2808459  46.4993282  53.3999113 102.4321148
  44.7986086  53.2979674 102.9462099  45.7379687  51.3748805 102.5921397
  44.7925670  50.8536967 102.4415293  46.4932882  50.9556414 101.9274366
  46.1696154  51.2126246 103.9879381  45.4696564  51.6006514 104.6040489
  46.2899007  50.2306140 104.1911292  47.0458452  51.6951335 104.1276003
  43.2561702  55.1083538  98.5703804  42.6338369  56.1242866  98.8809005
  44.1275217  55.0874162  97.5590263  44.6435088  54.2384254  97.3771709
  44.4042381  56.2726306  96.7133113  44.3009659  57.1772812  97.3125119
  45.8379766  56.2129598  96.1064156  45.9807325  55.2330309  95.6509373
  46.0377600  57.2736359  95.0763735  45.8956134  58.2539367  95.5312419
  47.0480945  57.2037337  94.6733367  45.3157380  57.1392551  94.2709387
  46.8881877  56.3881959  97.2189241  46.7892451  57.4063929  97.5952032
  46.6365972  55.6827034  98.0108092  48.3121928  56.1536885  96.7693447
  48.5646787  56.8591686  95.9777333  48.9881722  56.2970741  97.6123107
  48.4120301  55.1354791  96.3933369  43.3908270  56.4060883  95.5759051
  42.9966117  57.5176600  95.1983689  42.9977275  55.2573493  95.0292054
  43.3588467  54.3948890  95.4111144  42.1047523  55.1836050  93.8801140
  41.8699143  56.1573418  93.4502455  42.6889932  54.2807630  92.8020046
  42.9642474  53.3299168  93.2583235  41.6760742  54.0315332  91.6672427
  41.4006783  54.9819445  91.2101037  42.1250820  53.3834988  90.9145513
  40.7851408  53.5526600  92.0734658  44.0220790  54.8599177  92.2904352
  44.7364878  54.7091308  93.0997461  44.3026914  54.2403837  91.4386524
  44.0274711  56.3609720  91.8654426  43.7473865  56.9812036  92.7168915
  45.0252086  56.6395157  91.5262781  43.3135880  56.5124570  91.0557988
  40.7499459  54.6566886  94.3922984  40.6187081  53.4614310  94.7331648
  39.7720617  55.5663091  94.4878504  39.9727596  56.5393014  94.3059007
  38.4436776  55.2143751  95.0002477  38.5353240  54.4054816  95.7250866
  37.7777459  56.4239490  95.6921408  38.2964763  57.3162640  95.3417238
  36.7411032  56.4515482  95.3564173  37.8179943  56.3779810  97.2474584
  37.3720680  57.3040347  97.6103290  37.2058764  55.5328181  97.5622812
  39.2363063  56.2291213  97.8291894  39.5892998  55.2230606  97.6026140
  39.8800479  56.9587211  97.3378847  39.2735853  56.4536007  99.3419000
  40.2792720  56.7809526  99.6055960  38.5609909  57.2435055  99.5793002
  38.9328269  55.2316389 100.1137756  39.5932717  54.4997051  99.8942641
  38.9726457  55.4357488 101.1021346  38.0008086  54.9283870  99.8698921
  37.5249895  54.5805753  93.9273120  36.6391190  53.8112894  94.2566244
  37.7496139  54.8660283  92.6482775  38.5009568  55.4807683  92.3695698
  36.9219710  54.2663360  91.6043496  36.2190918  53.5645640  92.0533218
  36.1316123  55.3355059  90.8536787  36.8581874  55.9955130  90.3797817
  35.4976543  54.8856080  90.0896178  35.2845967  56.1377342  91.7565958
  35.4929108  57.3427917  91.9120199  34.3419105  55.4770267  92.4094568
  33.7295646  55.9710715  93.0427435  34.2391706  54.4817948  92.2714038
  37.7976034  53.5710320  90.6169266  38.0620225  54.1322196  89.5532913
  38.2798949  52.3653486  90.9461658  37.9914981  51.5397794  92.1350584
  36.9642628  51.1779738  92.0905079  38.1274852  52.1355877  93.0376209
  38.9962416  50.4340972  92.0237781  38.6236599  49.5334604  92.5117691
  39.9389350  50.7319400  92.4828208  39.1637117  50.2254724  90.5241613
  38.3665532  49.5726009  90.1686388  40.1295258  49.8022815  90.2480959
  39.0098729  51.6086799  89.9130354  39.9520974  52.1242591  89.7273226
  38.2294880  51.4835417  88.6001299  37.0099464  51.3165333  88.6213522
  38.9266609  51.5399470  87.4692270  39.9034846  51.7965039  87.4788912
  38.2788073  51.3252179  86.1753989  37.5188815  50.5494752  86.2693953
  37.6088729  52.6081652  85.6870545  37.0070352  52.9771420  86.5175644
  38.4118153  53.3152256  85.4786097  36.7229796  52.4573314  84.4401467
  36.1874557  53.3972579  84.3065305  37.3845315  52.2926080  83.5896661
  35.5187336  51.0892400  84.5373599  34.6280466  51.5781763  86.0342079
  34.1773661  52.5594036  85.8852814  33.8467418  50.8486348  86.2473573
  35.3226310  51.6214943  86.8731223  39.3101224  50.7937992  85.1903242
  40.5041151  51.0778447  85.3223453  38.8507996  49.9612398  84.2581159
  37.8701276  49.7197108  84.2648629  39.6941241  49.3827089  83.2304156
  40.5327975  50.0462378  83.0195706  40.2436513  48.0336111  83.6980660
  40.9923631  47.6750915  82.9916713  40.7116781  48.2036382  84.6676751
  39.1548249  47.0037808  83.8404866  38.4177952  47.0567106  84.8605100
  39.0174652  46.1695833  82.9160928  38.8613582  49.1900412  81.9856055
  37.6385077  49.2520691  82.0355580  39.5244026  48.9145849  80.8719117
  40.5318542  48.8463234  80.8938445  38.8457322  48.7654142  79.5813131
  38.0959922  49.5489228  79.4712976  39.8439637  48.8734109  78.4164683
  40.8226821  48.6047897  78.8140262  39.5404036  48.1375587  77.6718390
  39.9184587  50.2225927  77.7809299  38.9064671  50.6275297  77.7808653
  40.5549136  50.8366669  78.4180641  40.5704281  50.2453162  76.0868129
  42.1563750  49.4591387  76.3636940  42.0009835  48.4587187  76.7675656
  42.6976044  49.3894570  75.4201285  42.7367722  50.0502657  77.0720789
  38.0700539  47.4578038  79.4351485  37.0743469  47.4205515  78.7272334
  38.5467993  46.3872124  80.0547330  39.4605378  46.4192919  80.4838625
  37.7815819  45.1380610  80.1401501  37.6599123  44.7047414  79.1474116
  38.2965710  44.4267678  80.7858648  36.4157227  45.4301618  80.7204431
  35.3824958  45.0543665  80.1506579  36.4075778  46.1520651  81.8377006
  37.2783501  46.3860091  82.2928105  35.1570195  46.4934261  82.5157695
  34.5882287  45.5743294  82.6566153  35.3957455  47.1389464  83.8904340
  36.0338350  48.0116841  83.7516145  34.0503503  47.5775198  84.5748038
  33.4118845  46.7051789  84.7143832  34.2650908  48.0286959  85.5435276
  33.5397982  48.3032403  83.9417422  36.0251790  46.1662278  84.7242807
  36.1861724  46.5444970  85.5918024  34.2630816  47.3324269  81.6445062
  33.0614312  47.1087169  81.6049188  34.8451145  48.3000136  80.9437569
  35.8322181  48.4823502  81.0554668  34.0801870  49.1539000  80.0327980
  33.2042826  49.5770493  80.5245655  34.9361590  50.2838504  79.4548551
  35.8660203  49.8689650  79.0658455  34.1830546  50.9789647  78.3321566
  33.2532320  51.3945362  78.7205262  34.7971773  51.7820957  77.9248060
  33.9579760  50.2593987  77.5449694  35.3554433  51.2728171  80.5673817
  34.4385781  51.7432368  80.9225778  35.7878978  50.6713108  81.3669271
  36.3825905  52.3860596  80.1338546  35.9506277  52.9883073  79.3346013
  36.6088213  53.0247619  80.9876569  37.2999471  51.9163808  79.7789483
  33.4723207  48.3937835  78.8733523  32.3368586  48.6710301  78.4655372
  34.2627429  47.4854925  78.3058646  35.2045527  47.3708324  78.6521978
  33.8479865  46.6895050  77.1859508  33.5146199  47.3329525  76.3717389
  35.0226831  45.8378356  76.6881495  35.8488845  46.5340140  76.5438368
  35.2595915  45.1583337  77.5068384  34.8007161  45.0211314  75.3856319
  34.0433535  44.2593844  75.5706838  34.4544488  45.6939784  74.6011080
  36.1332123  44.3329648  74.9323853  36.8246281  45.1458063  74.7102774
  36.4903575  43.7800478  75.8011946  36.0484124  43.3836415  73.7179096
  35.3530163  42.5840241  73.9731291  35.6511659  43.9561616  72.8797479
  37.4105545  42.7742310  73.3245678  37.7786233  42.2433227  74.1009449
  37.2895358  42.1655601  72.5277151  38.0549426  43.5149886  73.0876263
  32.6482510  45.7903394  77.5841328  31.6724458  45.7149468  76.8529104
  32.7672616  45.1168130  78.7334751  33.6631378  45.1709695  79.1966945
  31.7081874  44.2909394  79.3505170  31.4429374  43.4572462  78.7003653
  32.2335311  43.7271067  80.6845664  33.2751419  43.4657083  80.4979731
  32.1885295  44.5586781  81.3878187  31.4974852  42.5104191  81.2801835
  30.6216565  42.3378425  80.6546899  32.1765666  41.6620062  81.1956487
  31.0452766  42.6747265  82.7852687  29.9856032  42.9248586  82.7340309
  31.1633529  41.6836628  83.2233898  31.7955399  43.7403333  83.6823697
  31.7522591  44.6769697  83.1265463  31.2019997  43.8305604  84.5921324
  33.2266864  43.4372330  84.0446511  33.7769322  43.3540132  83.2017966
  33.5952179  44.1849897  84.6148655  33.2669648  42.5695789  84.5600666
  30.4387005  45.1428265  79.5828306  29.3380883  44.7610455  79.2049683
  30.6138042  46.3159013  80.1746366  31.5293894  46.5624588  80.5225050
  29.5018743  47.2425878  80.4229449  28.7459138  46.7516228  81.0357876
  29.9891045  48.4928176  81.1564307  30.9038376  48.8303170  80.6691355
  29.2205768  49.2592451  81.0561606  30.2580005  48.2461639  82.5992827
  29.3352420  47.9058238  83.0691615  31.0156164  47.4667721  82.6809450
  30.7469899  49.5010925  83.2965908  31.7740717  49.7318455  83.0138275
  30.1070271  50.3526661  83.0655724  30.7015861  49.2601054  84.7251438
  30.5092203  48.3080074  85.0019181  30.8774390  50.1691190  85.6704142
  31.1305537  51.4457724  85.3901344  31.1933957  51.7454560  84.4276685
  31.2585731  52.1087400  86.1412567  30.8067805  49.7750706  86.9219067
  30.6231297  48.8045943  87.1329710  30.9364452  50.4444872  87.6670021
  28.7653197  47.6357835  79.1411827  27.5365986  47.6363162  79.1145332
  29.5109157  47.9650923  78.0960931  30.5071989  48.0939567  78.2005596
  28.9139958  48.2173540  76.7884702  28.1828506  49.0211319  76.8748814
  29.9697849  48.6257009  75.7608802  30.7732915  47.9033596  75.9047528
  29.5798647  48.5374760  74.7468394  30.5104615  50.0381296  75.9771185
  30.7128326  50.1780375  77.0389907  31.8103829  50.2588524  75.1720652
  31.6086890  50.1195598  74.1099843  32.1761928  51.2714510  75.3421476
  32.5647457  49.5415001  75.4952415  29.3855615  51.0377545  75.6044616
  28.5181822  50.8633140  76.2411114  29.7424350  52.0574990  75.7489037
  29.1040516  50.8962619  74.5609909  28.1416271  46.9998505  76.2827255
  27.0357062  47.1599883  75.8346008  28.7058606  45.7960885  76.3850621
  29.6453380  45.6967723  76.7422985  28.0235239  44.6068845  75.8992015
  27.6693324  44.7810543  74.8831737  28.9624667  43.3941568  75.8897863
  29.4098382  43.3156135  76.8806390  28.3566536  42.5094071  75.6940606
  30.0826361  43.4985983  74.8245833  29.6550265  43.2038912  73.8662522
  30.3756477  44.5476871  74.7838867  31.3208418  42.6309815  75.1227639
  32.2453005  42.6048294  74.2722527  31.3876609  41.9869075  76.1986514
  26.7642313  44.2965657  76.6958374  25.8341915  43.7617955  76.1372063
  26.7395215  44.6469819  77.9838987  27.5499837  45.0982227  78.3834384
  25.5966459  44.3702346  78.8584707  25.0549531  43.5043807  78.4777278
  26.0477213  44.0725218  80.3148000  26.6543451  44.9043796  80.6727379
  25.1515143  43.9863029  80.9291934  26.8675327  42.7686117  80.4510813
  27.7509730  42.6624984  81.3129266  26.5652115  41.7864348  79.6179442
  27.0714352  40.9137777  79.6659746  25.8295766  41.9137882  78.9377066
  24.6111292  45.5326374  78.8845977  23.6829310  45.5134658  79.6772404
  24.8095902  46.5465514  78.0399998  25.6035259  46.5112157  77.4166886
  23.9788696  47.7913341  78.0610523  24.4680704  48.5681859  77.4734445
  22.5828197  47.5283634  77.4644511  22.6744509  46.9108321  76.5709422
  22.0065956  46.9922103  78.2185105  21.8343367  48.8104508  77.0977223
  20.5988847  48.8236927  76.9863487  22.5673811  49.8840791  76.9443528
  22.1287328  50.7609293  76.7018221  23.5681990  49.8305907  77.0692664
  23.8836949  48.4116198  79.4498419  22.8093675  48.8117150  79.9078587
  25.0252271  48.4538053  80.1377646  25.8554890  48.0393814  79.7389949
  25.1258025  49.0738529  81.4537816  24.3919651  48.6388100  82.1322502
  26.5270271  48.8366338  82.0299774  26.5902929  47.7625690  82.2045665
  27.2576004  49.1250124  81.2741993  26.8162104  49.5730189  83.3157675
  27.3423272  50.8584387  83.3018802  27.5500151  51.3355183  82.3440909
  27.6037271  51.5350283  84.4854568  28.0037214  52.5488875  84.4714539
  27.3593858  50.9056191  85.6903603  27.6147461  51.5536459  86.8672521
  27.9612354  52.4398438  86.7399807  26.8498036  49.6266212  85.7248476
  26.6470602  49.1354364  86.6765477  26.5955428  48.9657646  84.5383545
  26.2132238  47.9451349  84.5540818  24.8767265  50.5910475  81.3827134
  24.2310835  51.1753321  82.2790290  25.4060867  51.2213689  80.3259870
  25.8751050  50.6962642  79.6018418  25.4051096  52.6647499  80.2350067
  25.5310801  53.0829621  81.2336704  26.5409509  53.1913149  79.3330555
  26.3783583  52.7703916  78.3408426  26.4452531  54.2761329  79.2870998
  27.9377733  52.8253459  79.8166604  28.4870873  53.4442556  80.9234350
  27.8978768  54.1974394  81.4465454  29.7449888  53.1288128  81.3666289
  30.1611740  53.6399439  82.2347514  30.4870788  52.1897189  80.7053053
  31.7266339  51.8801618  81.1713414  31.9670371  52.3772024  81.9566800
  29.9793506  51.5400432  79.5878499  30.5637285  50.7897931  79.0551889
  28.7072040  51.8609573  79.1540444  28.2863123  51.3604588  78.2820057
  24.0646702  53.1645389  79.7565153  23.3993961  52.5417609  78.9495060
  23.6886701  54.3106832  80.2954691  24.2094055  54.6911580  81.0727547
  22.5244613  55.0225021  79.8409796  21.7821491  54.3342590  79.4367603
  21.9167596  55.7501510  81.0251079  22.6812645  56.2918038  81.5821032
  21.1304017  56.4414871  80.7221298  21.2985264  54.7942668  81.9736425
  21.8538571  54.2798057  83.1080867  22.8637966  54.6058617  83.3567018
  20.9688760  53.4194480  83.7166769  21.1318462  52.9290631  84.5844689
  19.8167067  53.3581675  82.9693132  18.6350113  52.6444618  83.1849570
  18.5720027  52.0026760  84.0637287  17.6135736  52.7982183  82.2642661
  16.6762881  52.2591627  82.4021605  17.7576512  53.6378314  81.1496484
  16.9566715  53.7486229  80.4187201  18.9386315  54.3594447  80.9443949
  18.9887452  55.0285476  80.0853893  19.9875124  54.2153446  81.8612618
  22.8327761  56.0121743  78.7206690  21.9204071  56.4402949  78.0174346
  24.1004609  56.4142676  78.5925666  24.7963511  56.0604909  79.2334084
  24.5221951  57.3821838  77.5714968  23.9531751  57.2164360  76.6567056
  24.2851211  58.8192088  78.0412704  24.4639589  59.4901814  77.2010847
  23.2477131  58.9095881  78.3633205  25.1487097  59.1679330  79.1191962
  24.9745544  60.0726579  79.3889044  25.9879862  57.2055037  77.2354469
  26.7408407  56.6261923  78.0300621  26.3897576  57.7065353  76.0642031
  25.7029045  58.0647385  75.4161116  27.7959821  57.7030933  75.6541914
  28.1666293  56.6780664  75.6478947  27.9517227  58.2878330  74.2492816
  27.5931784  59.3171482  74.2417816  29.0027782  58.2676447  73.9612280
  27.3703438  57.6959638  73.5423242  28.6390094  58.4843336  76.6597568
  29.7535210  58.0663442  76.9880701  28.1003149  59.6085719  77.1653986
  27.2286426  59.9669326  76.8022672  28.8289377  60.4187335  78.1713961
  29.8113804  60.6921220  77.7864749  28.0489088  61.7060578  78.4863611
  28.5714294  62.2551185  79.2696898  27.9970982  62.3189399  77.5864771
  26.7455141  61.3978003  78.9194055  26.2717399  62.2102636  79.1118665
  29.1509183  59.6057593  79.4380434  30.2185192  59.7835793  80.0639463
  28.2509709  58.6856887  79.8030882  27.3568939  58.6315310  79.3364057
  28.4789468  57.8331978  80.9501297  28.7724207  58.4623113  81.7904799
  27.2277256  56.9993008  81.3648720  26.3505792  57.6462792  81.3763807
  27.0756920  56.1947249  80.6453975  27.4409620  56.4012171  82.7640440
  28.3504287  55.8035931  82.7022647  27.6122891  57.2560458  83.4182718
  26.3211286  55.5566033  83.3229300  25.2735458  55.4554922  82.6753469
  26.5501510  54.9899735  84.4404524  29.6867562  56.9376109  80.7147799
  30.4629451  56.7060378  81.6192978  29.8269855  56.4261573  79.5039080
  29.1096676  56.6096474  78.8169685  30.9619571  55.6028038  79.1133873
  31.1024699  54.7875780  79.8231494  30.7004625  55.0081551  77.7338574
  29.7544656  54.4668486  77.7471386  30.6488638  55.8108619  76.9982628
  31.9159632  53.8615471  77.1277271  31.3113544  53.6179375  75.9684165
  32.2425292  56.4392502  79.0715713  33.2937037  56.0456600  79.5880178
  32.1407782  57.5943303  78.4415026  31.3100672  57.8125353  77.9100846
  33.2535556  58.5439095  78.4103121  34.0879949  58.1130982  77.8569480
  32.8380875  59.8388571  77.7321838  31.9235094  60.1841040  78.2143153
  33.6324821  60.5666167  77.8977228  32.5922849  59.6815191  76.2152343
  33.5673696  59.6388196  75.7299637  32.0710695  58.7359047  76.0660701
  31.6259367  61.0109597  75.4845860  32.6167355  62.3323863  75.9897942
  33.6188661  62.2141274  75.5776679  32.1856458  63.2676861  75.6327556
  32.6718705  62.3504750  77.0782492  33.8028330  58.8013757  79.8185310
  35.0049088  58.8906081  80.0176602  32.9180483  58.8964636  80.7920660
  31.9301376  58.8736766  80.5832299  33.3243782  59.1007146  82.1660778
  33.9312474  60.0022264  82.2502533  32.0926701  59.2606440  83.0427122
  31.5757019  60.1627390  82.7155000  31.4551266  58.3938143  82.8688024
  32.4071340  59.3672637  84.5203135  31.4726501  59.3428459  85.0808887
  33.0479659  58.5484749  84.8474547  33.0977719  60.6536364  84.8035405
  32.4283021  61.6736606  84.9521736  34.4665974  60.6400738  84.8542727
  34.9703401  61.4946375  85.0441820  34.9660071  59.7755708  84.7015447
  34.2023052  57.9802058  82.7084386  35.1635630  58.2141448  83.4751634
  33.8384048  56.7465525  82.3731224  32.9690534  56.5759447  81.8881269
  34.6397497  55.5904208  82.7926695  34.8300752  55.6426667  83.8646516
  33.9018166  54.2922832  82.4920426  33.3881443  54.4250463  81.5398799
  34.6274120  53.4837548  82.4031993  32.8922754  53.9479725  83.5658008
  32.9298522  54.6094784  84.6426643  32.0912190  53.0137693  83.3344717
  36.0349185  55.5835890  82.1679294  37.0026727  55.2407766  82.8250659
  36.1379951  55.9994696  80.9126395  35.3101857  56.1935064  80.3674968
  37.4329449  56.1408839  80.2717370  37.9856018  55.2044827  80.3480422
  37.2678117  56.4884324  78.8032237  36.3924154  57.1149597  78.6322149
  38.1627778  57.0189626  78.4781493  37.1250618  55.2979642  77.9046594
  35.9295661  55.0290355  77.2631638  35.0669900  55.6677066  77.4533259
  35.8216235  53.9652252  76.3900401  34.8768029  53.7933799  75.8744008
  36.8878635  53.1277003  76.1676477  36.7919992  52.2751129  75.4953347
  38.1033849  53.3765311  76.8121504  38.9612099  52.7234335  76.6518386
  38.2114460  54.4683471  77.6634874  39.1602696  54.6848965  78.1543438
  38.2713328  57.2079702  80.9653143  39.4481568  56.9646677  81.2580382
  37.6727987  58.3736313  81.2211715  36.7343393  58.5373972  80.8856509
  38.3482177  59.4499984  81.9430510  39.2236750  59.7701492  81.3780933
  37.4324620  60.6457009  82.1378510  36.4056058  60.2865870  82.2064275
  37.7048038  61.1456889  83.0673357  37.5201047  61.6473749  81.0060189
  38.0313548  61.3515057  79.9187789  37.0181983  62.8552861  81.2565833
  37.0462075  63.5685749  80.5420665  36.6118644  63.0524872  82.1599687
  38.8486798  59.0005071  83.2991444  39.9658272  59.3501415  83.6825913
  38.0105974  58.2764208  84.0379482  37.0729014  58.1126922  83.7002819
  38.3922752  57.7073824  85.3385459  38.6920498  58.5048928  86.0184073
  37.2378979  56.9208010  85.9822608  36.8989271  56.1589164  85.2803129
  37.6955087  56.2420995  87.3006123  38.0342081  57.0034448  88.0032756
  36.8608040  55.6924720  87.7356718  38.5134033  55.5529787  87.0902280
  36.1797914  57.8516899  86.2330965  35.4391673  57.3931641  86.6366189
  39.5745574  56.7563732  85.2083899  40.5416715  56.8439442  85.9754613
  39.4937772  55.8585202  84.2306602  38.6554504  55.8038453  83.6700194
  40.5695491  54.9211254  83.9547125  40.6613025  54.2004584  84.7673130
  40.2664348  54.1653097  82.6647538  39.2497395  53.7796368  82.7401601
  40.3235425  54.8795644  81.8433653  41.2173240  53.0261061  82.4060827
  42.2179134  53.4580866  82.3883462  41.1284794  52.3513808  83.2575253
  40.9513307  52.1201217  80.9191154  41.4273572  53.3127743  79.6564470
  42.4695194  53.5981125  79.7999013  41.3060622  52.8659150  78.6696822
  40.7950095  54.1971685  79.7344506  41.9269162  55.6446667  83.8250959
  42.9232120  55.2836114  84.4495739  41.9601889  56.6580685  82.9817414
  41.1270174  56.9109695  82.4699156  43.1879496  57.4089790  82.7222822
  44.0079411  56.7304480  82.4871040  42.9630545  58.3382614  81.5255762
  42.0795906  58.9516212  81.7027218  43.8262826  58.9837232  81.3633532
  42.7252845  57.6034717  80.2322937  43.5890011  56.5828333  79.8255138
  44.4464467  56.3433993  80.4544481  43.3732560  55.8779712  78.6460964
  44.0431089  55.0711700  78.3486580  42.2957461  56.2104162  77.8484921
  42.1156606  55.6659793  76.9215306  41.4265790  57.2564888  78.2340966
  40.5780280  57.5218117  77.6034896  41.6530440  57.9413756  79.4091466
  40.9901894  58.7556796  79.7017773  43.6480874  58.2229502  83.9272025
  44.8346659  58.2165443  84.2976623  42.6934022  58.9038860  84.5479470
  41.7611314  58.8974434  84.1594513  42.9499217  59.7386262  85.7192935
  43.7291927  60.4666920  85.4940026  41.6374075  60.5176492  86.1478862
  40.8341294  59.7941440  86.2871148  41.8506638  61.2903898  87.4363922
  42.6535385  62.0144624  87.2977894  40.9323675  61.8135176  87.7031657
  42.1194833  60.5990217  88.2350453  41.2693016  61.4476318  85.0988221
  40.4745807  61.9211478  85.3553406  43.5019523  58.9122631  86.8562422
  44.4199134  59.3490840  87.5536466  42.9418092  57.7332408  87.0878627
  42.1275923  57.4198507  86.5790042  43.4793090  56.8643594  88.1491473
  43.3347279  57.3448471  89.1167873  42.7772015  55.5066978  88.1681741
  42.8162767  55.1261328  87.1475161  43.2957230  54.8159219  88.8330531
  41.3170466  55.5951218  88.5997859  40.8878969  56.6023576  89.1662093
  40.5674832  54.5126362  88.3789834  39.5930081  54.5141899  88.6444936
  40.9783278  53.6971129  87.9474405  44.9776482  56.6341121  88.0118264
  45.7221063  56.6928932  88.9751793  45.3833314  56.3486686  86.7837889
  44.6743350  56.1803300  86.0844423  46.7740326  56.1566680  86.4140970
  47.2327155  55.3550612  86.9930060  46.7994043  55.7639679  84.9215029
  46.1900899  54.8737744  84.7653277  46.4061885  56.5830130  84.3193015
  48.3368740  55.4025368  84.2813424  47.9147826  55.1343110  83.0489496
  47.6500128  57.3985857  86.7428541  48.7300594  57.2315248  87.3416227
  47.1776697  58.6204477  86.3956348  46.3373212  58.6797058  85.8384973
  47.8776736  59.8741082  86.7427068  48.9248939  59.7879365  86.4528738
  47.2659412  61.0987062  86.0254981  46.3179114  61.3492326  86.5014971
  47.9740534  61.9135600  86.1761315  47.0444807  60.8883316  84.5333598
  47.9520874  60.1597418  83.7789489  48.8326310  59.7424785  84.2674504
  47.7527780  59.9600454  82.4288081  48.4867287  59.4040378  81.8454783
  46.6307612  60.4554620  81.8229651  46.4555812  60.2406165  80.4882279
  47.1721122  59.7396565  80.0917156  45.6932649  61.1680568  82.5567903
  44.7923522  61.5556905  82.0811888  45.9095241  61.3829477  83.8946090
  45.1857185  61.9505888  84.4794074  47.8863031  60.1344976  88.2665385
  48.8107131  60.7268714  88.7741096  46.8666580  59.6931430  88.9971081
  46.1026715  59.2006716  88.5567720  46.8061836  59.9191606  90.4567820
  47.1144136  60.9380287  90.6913054  45.3820647  59.6501565  91.0642450
  45.0495728  58.6522574  90.7783308  45.4450340  59.7498381  92.6033471
  45.7770281  60.7476753  92.8900551  44.4557074  59.5627103  93.0208598
  46.1468955  59.0096191  92.9874895  44.3435111  60.6192822  90.4960144
  44.6021891  61.6113953  90.8660116  44.4513510  60.5969764  89.4115917
  42.8784846  60.2932463  90.8753547  42.7697530  60.3158216  91.9596829
  42.2137855  61.0326234  90.4285932  42.6189156  59.3014010  90.5052647
  47.8085564  58.9953588  91.1428841  48.5526900  59.4204979  92.0282580
  47.7996626  57.7157496  90.7484045  47.1750099  57.3940441  90.0228606
  48.6411261  56.7327996  91.4227311  48.5998779  56.9112377  92.4972346
  48.1914188  55.2949105  91.1478214  47.1273376  55.2736667  91.3831488
  48.3378403  55.0163197  90.1042468  48.9133844  54.3301174  92.0253144
  48.6190631  54.2579476  93.3736065  47.8239339  54.8924261  93.7651497
  49.2996076  53.4151236  94.2134589  49.0456900  53.3715295  95.2725751
  50.3155192  52.6323534  93.7171614  50.9742964  51.7923631  94.5865629
  50.6398224  51.8450125  95.4848696  50.6465031  52.6900398  92.3671125
  51.4476219  52.0705172  91.9639985  49.9476103  53.5443693  91.5344686
  50.2060041  53.6075486  90.4774250  50.1177188  56.8916541  91.0441865
  50.9574811  56.7101273  91.8877553  50.4330027  57.2258434  89.7867535
  49.7066874  57.4247584  89.1137021  51.8204564  57.1663904  89.3152893
  52.4432134  56.6301917  90.0313647  51.8660440  56.4226220  87.9711552
  51.2671452  56.9652987  87.2397720  52.9004372  56.3764294  87.6305721
  51.3237790  54.9941042  88.0849436  52.0535996  54.0658674  88.4680876
  50.0309303  54.8094388  87.7567260  49.6252457  53.8863180  87.8147588
  49.4727849  55.5948908  87.4540054  52.5181417  58.5442622  89.2559389
  51.8709594  59.5857637  89.3528033  53.8418229  58.5370553  89.1642751
  54.3455129  57.6648565  89.2395413  54.6103883  59.7708124  89.0331546
  54.1875929  60.5361401  89.6840132  56.0836083  59.5453885  89.4298774
  56.5012532  58.8625145  88.6900430  56.5766314  60.5141097  89.3485913
  56.3090135  58.9704665  90.8459449  55.8920122  59.6530639  91.5863984
  55.8166367  58.0014677  90.9278506  57.8042816  58.8031095  91.0945211
  58.2219279  58.1202372  90.3546861  58.2973032  59.7718313  91.0132366
  58.0267882  58.2355760  92.4923846  57.6097863  58.9181723  93.2328388
  57.5344137  57.2665773  92.5742875  59.4681284  58.0742571  92.7319959
  59.9244984  58.9721088  92.6565738  59.6154942  57.6983814  93.6577933
  59.8546456  57.4414499  92.0462419  54.4567694  60.2718363  87.5659521
  54.3348747  59.4664991  86.6290317  54.4469871  61.6022853  87.3564694
  54.7366496  62.6365494  88.3686251  55.8088772  62.6708828  88.5616266
  54.2088643  62.4029578  89.2932745  54.2356095  63.8701162  87.7307436
  54.8051581  64.7221954  88.1017887  53.1827751  64.0008145  87.9808621
  54.4171857  63.6916645  86.2477281  55.3981285  64.0172289  85.9015227
  53.6428261  64.2436854  85.7150559  54.2509695  62.1920848  86.0024182
  53.2311099  61.9383102  85.7133107  55.2336469  61.7308336  84.8907225
  54.9109277  61.8201205  83.7039638  56.4214379  61.2812144  85.2775054
  56.6702742  61.3067868  86.2560379  57.4139789  60.8111460  84.3265142
  57.2331027  61.2581540  83.3489832  58.8335768  61.2030863  84.7935727
  59.5567077  60.7271643  84.1312433  59.0402839  62.7247417  84.7678029
  58.3177622  63.2013545  85.4302999  60.0503627  62.9604479  85.1028888
  58.8996345  63.0938873  83.7519044  59.0238947  60.7362208  86.1302823
  59.9039996  60.9749344  86.4303351  57.3331366  59.2764790  84.0995394
  58.0222137  58.7629382  83.2241712  56.5024234  58.5493452  84.8550288
  55.9332896  58.9914866  85.5626283  56.4278711  57.0846891  84.7132180
  57.4223238  56.6594741  84.8486989  55.4764775  56.4592846  85.7590992
  54.5643554  57.0559033  85.7457347  55.2485976  55.4409922  85.4440571
  56.0524822  56.4375610  87.1818337  57.2378568  56.7274555  87.3760844
  55.3225366  56.1082178  88.1354408  55.9603577  56.6736674  83.3008338
  55.1024546  57.3383765  82.6871164  56.5062288  55.5591874  82.8132826
  57.2160436  55.0892953  83.3568484  56.1245793  54.9837678  81.5324040
  56.4597634  55.6375762  80.7272423  56.7533859  53.6026664  81.3347023
  56.5659920  53.0258909  82.2404135  56.2568087  53.1241442  80.4905888
  58.2477511  53.6635756  81.0740765  58.7542281  54.7222004  80.6143280
  58.9108042  52.6314899  81.3298372  54.6320318  54.8169778  81.4231245
  54.0732655  55.1816130  80.4139216  53.9943726  54.2712735  82.4610293
  54.5316901  53.9055285  83.2340881  52.5536367  54.0232487  82.4394679
  52.2934314  53.4885989  81.5259351  52.0751101  53.1931889  83.6866399
  52.7380677  52.3354587  83.8001588  52.0943331  54.0225629  84.9654648
  51.4312052  54.8802833  84.8528693  51.7565586  53.4100932  85.8014612
  53.1090000  54.3712115  85.1578042  50.6581859  52.6440723  83.4987632
  50.4530928  52.0192682  84.3680488  49.9911691  53.5061250  83.5060635
  50.4351066  51.8565929  82.2599691  51.1014924  50.9940564  82.2521742
  49.4002574  51.5158771  82.2268168  50.6395711  52.4809131  81.3901885
  51.7753853  55.3383340  82.2347915  50.7879482  55.3534383  81.5034799
  52.2486404  56.4461229  82.8126871  53.0000819  56.3738024  83.4836600
  51.6003814  57.7819996  82.6135496  50.5207965  57.7150403  82.7481304
  52.1552773  58.8664213  83.5799947  53.2423068  58.7867727  83.5910525
  51.7482953  60.2931184  83.1505833  50.6613302  60.3736791  83.1397359
  52.1586849  61.0162264  83.8554206  52.1372428  60.4977431  82.1531114
  51.6765445  58.5840210  84.9714550  52.0296041  57.6017238  85.2853710
  52.0643965  59.3431095  85.6507599  50.5868761  58.6014992  84.9919057
  51.6688318  58.2361487  81.1449489  50.6366444  58.6141021  80.5508559
  52.8608150  58.1270559  80.5553695  53.6636323  57.8301141  81.0914751
  53.0622736  58.5117286  79.1702604  52.7098552  59.5329272  79.0251609
  54.5601405  58.4431366  78.7730214  54.7446169  57.3713197  78.8456597
  54.6222945  58.7520879  77.7295723  55.6188623  59.2039877  79.5982728
  55.6185376  58.8123046  80.6154675  57.0251091  59.0344279  78.9820697
  57.0263410  59.4263343  77.9649627  57.7534482  59.5800467  79.5820057
  57.2892749  57.9770808  78.9637946  55.2924032  60.6759226  79.7540072
  54.3334898  60.7843010  80.2607996  56.0708830  61.1609466  80.3429232
  55.2377364  61.1425352  78.7704508  52.1991319  57.6377273  78.2586407
  51.6515526  58.1366005  77.2829792  52.0609324  56.3506357  78.5914424
  52.5843667  55.9925228  79.3774901  51.2131912  55.4237454  77.8429778
  51.4908298  55.4460549  76.7891665  51.3730109  53.9928812  78.3604711
  51.1759457  54.0150461  79.4322795  50.6156560  53.3855652  77.8648089
  52.7531494  53.3896039  78.1094126  52.8032318  53.1922158  77.0386042
  53.4714497  54.1672774  78.3689711  53.1635903  51.8719954  79.0155515
  52.2684694  50.5816188  78.0960056  52.6205902  50.5591378  77.0646936
  52.4474094  49.6124857  78.5616904  51.2005121  50.7992654  78.1100893
  49.7487934  55.8221631  77.9254839  49.0681834  55.8992238  76.9014479
  49.2775547  56.0899860  79.1414386  49.8568231  55.9104551  79.9490994
  47.9184032  56.5830842  79.3590291  47.2319109  55.8181388  78.9961434
  47.6492187  56.8157414  80.8363390  48.3229180  57.5858430  81.2120688
  46.6171183  57.1391184  80.9716026  47.8142553  55.8893902  81.3865531
  47.6407757  57.8629739  78.5907829  46.5576106  58.0156658  78.0471034
  48.5926984  58.7982091  78.5928343  49.4199690  58.6805672  79.1601817
  48.4284822  60.0609430  77.8498773  47.5140260  60.5612886  78.1685044
  49.6120314  60.9924603  78.1125594  50.5184954  60.3894457  78.0596851
  49.6238698  61.7359555  77.3155809  49.5479249  61.7050629  79.4791376
  48.7820995  62.4787934  79.4247920  49.2777117  60.9804453  80.2472627
  50.8535866  62.3470136  79.8618436  51.9077003  62.0423545  79.3119991
  50.7938618  63.2271093  80.8099246  51.6356131  63.6951037  81.1141242
  49.9058113  63.4413773  81.2406877  48.2424977  59.8139150  76.3500597
  47.3843680  60.4256305  75.7125595  49.0496101  58.9161978  75.7909763
  49.8249816  58.5339713  76.3132803  48.9124885  58.5447200  74.3730652
  49.0065845  59.4675672  73.8007032  50.0587231  57.5435365  73.9145251
  49.9720723  56.6111574  74.4724326  49.9583528  57.3391791  72.8485682
  51.0328971  57.9927298  74.1076820  47.5200652  57.9763024  74.0769287
  46.8773977  58.3580648  73.1001181  47.0619460  57.0777145  74.9436978
  47.6456885  56.8070767  75.7222215  45.7624369  56.4303548  74.7954569
  45.6653410  56.0502155  73.7785175  45.5981618  55.2736695  75.7630941
  45.8485676  55.7150662  76.7277521  44.5497801  54.9753506  75.7617777
  46.4612774  54.0686060  75.5254060  47.5092154  54.3617424  75.4621760
  46.2639535  53.0809289  76.7409586  45.2162701  52.7869665  76.8045542
  46.8811459  52.1946736  76.5935617  46.5580019  53.5782051  77.6652704
  46.1255927  53.3907174  74.1684135  46.2903077  54.0996126  73.3569728
  46.7681685  52.5216924  74.0270163  45.0824504  53.0745645  74.1678307
  44.6352950  57.3951264  75.0048792  43.6326717  57.3499268  74.2659641
  44.7787183  58.2642205  76.0020704  45.5778979  58.2093307  76.6172114
  43.7776438  59.2829060  76.2633512  42.8082052  58.8056178  76.4064731
  44.1126471  60.0932046  77.5151954  44.1048989  59.3927816  78.3503283
  45.1222763  60.4792624  77.3748092  43.1626339  61.2503614  77.8131974
  43.0962083  61.8723378  76.9205420  42.1930542  60.7926512  78.0094518
  43.5754228  62.1288320  79.0265975  44.4719469  61.7439474  79.8197016
  43.0096835  63.2347797  79.1664469  43.6529732  60.2296643  75.0520625
  42.5527760  60.7145234  74.7461219  44.7676229  60.5552218  74.4070158
  45.6787575  60.2604174  74.7279886  44.6938661  61.4582692  73.2302838
  44.1743275  62.3773778  73.5012419  46.1039039  61.8176062  72.7420294
  46.5681683  62.4037638  73.5351101  46.6417125  60.8769236  72.6238008
  46.1558574  62.5924259  71.4480602  45.9843924  61.9079684  70.6172663
  45.3754395  63.3533107  71.4582768  47.5030112  63.2555796  71.2838167
  47.6872135  63.8891476  72.1514341  48.2681595  62.4810649  71.2311415
  47.5497792  64.1000424  70.0212790  47.5336046  63.4321452  69.1600287
  46.6666695  64.7386634  70.0017949  48.7863550  64.9536649  69.9699077
  49.6047754  64.3620759  69.9875177  48.7836264  65.4994048  69.1200486
  48.8013211  65.5729258  70.7676489  43.8587794  60.8419016  72.1138402
  42.9993098  61.5069854  71.5463117  44.1028302  59.5577510  71.8288660
  44.8661190  59.0925469  72.2990518  43.3520831  58.8091423  70.8082823
  43.3654681  59.3297244  69.8507259  43.9381398  57.3673667  70.6267699
  44.1687755  56.9562927  71.6095851  42.9294029  56.4495174  69.9104868
  42.6986170  56.8597241  68.9273444  43.3598909  55.4546280  69.7965752
  42.0149276  56.3838296  70.4999944  45.2719742  57.4552608  69.8434294
  45.0177402  57.2483531  68.8038838  45.6015595  58.4899885  69.9372998
  46.3823869  56.5320413  70.2828272  46.0536843  55.4970476  70.1887922
  47.2589652  56.6927697  69.6552317  46.6375020  56.7386817  71.3222096
  41.8594214  58.7403546  71.1608702  41.0144380  58.8996728  70.2940954
  41.5640390  58.4492485  72.4340436  42.3298242  58.1821747  73.0359938
  40.2036577  58.4591654  72.9977156  39.6131805  57.6510931  72.5659112
  40.2680915  58.2597162  74.5317594  40.4585216  57.2129033  74.7684413
  41.0683624  58.8757861  74.9417890  39.0161046  58.6429446  75.2600587
  37.8185442  57.9547700  75.0280526  37.8181932  57.1326078  74.3124066
  36.6506652  58.2998435  75.6864657  35.7255771  57.7601098  75.4839804
  36.6611285  59.3455430  76.6144965  35.7551541  59.6238466  77.1528807
  37.8471666  60.0334967  76.8469363  37.8609886  60.8622523  77.5548016
  39.0225350  59.6651065  76.1750235  39.9544274  60.1929277  76.3777086
  39.4917343  59.7730420  72.6708095  38.3611475  59.7713262  72.1628434
  40.1598434  60.8899763  72.9586304  41.0505030  60.8432332  73.4325923
  39.5797713  62.2030383  72.7056132  38.5613917  62.2328202  73.0930602
  40.3961243  63.3046099  73.3893303  41.3905245  63.1236008  72.9812823
  40.0338649  64.2735746  73.0458546  40.4638650  63.2982901  74.9251240
  40.7132948  62.2915859  75.2604332  41.5547518  64.3112054  75.4467076
  41.3057350  65.3182650  75.1121624  41.5822757  64.2872081  76.5360961
  42.5311487  64.0290897  75.0528038  39.0991460  63.5810358  75.5516898
  38.3887403  62.8167376  75.2366161  39.1878326  63.5682120  76.6380008
  38.7459991  64.5601325  75.2280296  39.4134871  62.4785104  71.2113188
  38.3727046  62.9953350  70.8008311  40.4283999  62.1385249  70.4044386
  41.2913978  61.7968189  70.8026483  40.3558396  62.3171472  68.9459342
  40.1882588  63.3694318  68.7163412  41.6587081  61.8683401  68.2678694
  41.9430339  60.9314069  68.7468416  41.4084506  61.6806975  67.2237136
  42.8414138  62.8665615  68.3438329  42.6528042  63.6861912  67.6504827
  42.8918802  63.2558694  69.3606881  44.1924586  62.2307069  67.9949721
  44.4481955  61.0882179  68.3484909  45.0451048  62.9668179  67.2987394
  45.9467010  62.5874679  67.0471061  44.7898902  63.9042048  67.0225643
  39.1435471  61.5524774  68.3643105  38.4357995  62.0593357  67.4860777
  38.8968072  60.3484411  68.8739702  39.5256969  59.9576592  69.5609102
  37.7744924  59.5333394  68.4205559  37.6780153  59.6128128  67.3377469
  37.9870914  58.0646539  68.7853898  38.1107089  58.0227371  69.8675455
  37.0775623  57.5342936  68.5033000  39.1794270  57.4131221  68.1156994
  40.0614151  58.0213050  68.3164768  39.3166629  56.4215003  68.5469240
  38.9835038  57.2906048  66.6319850  38.3422820  56.4331388  66.4278142
  38.5060324  58.1973185  66.2605140  40.3069577  57.1023079  65.9417668
  40.8285771  58.0588124  65.9084084  40.9019177  56.3840759  66.5059163
  40.1064568  56.6018237  64.5635850  39.5555383  57.2674119  64.0405353
  41.0034939  56.4812017  64.1153946  39.6235065  55.7153051  64.5942917
  36.4461559  60.0115404  68.9788318  35.4158297  59.9837356  68.2782828
  36.4478335  60.4670530  70.2329013  37.2485747  60.3510925  70.8374391
  35.2317823  61.0531100  70.7971848  34.3930606  60.3628093  70.7070178
  35.3928799  61.4423220  72.2823614  36.3480480  61.9466574  72.4286454
  34.2744006  62.3664490  72.6712384  33.3188602  61.8626150  72.5256545
  34.3811697  62.6460261  73.7193498  34.3103773  63.2622661  72.0513036
  35.4093605  60.1903231  73.1477844  36.2429482  59.5538074  72.8509996
  35.5233130  60.4728926  74.1943354  34.4736386  59.6464026  73.0186487
  34.7621649  62.2607187  69.9617868  33.5788906  62.3921016  69.6989365
  35.7037813  63.0971602  69.5198533  36.6572895  62.9346594  69.8105678
  35.4169505  64.2882450  68.6786208  34.6804699  64.8833014  69.2186240
  36.6773272  65.1194423  68.5011082  37.4211047  64.5402173  67.9539396
  36.4402673  66.0251331  67.9428726  37.0756110  65.3898086  69.4790505
  34.8435017  63.9576980  67.3104012  34.2519789  64.8123287  66.6719184
  35.0520039  62.7297683  66.8497837  35.5797380  62.0763800  67.4107471
  34.5615648  62.2876076  65.5572067  34.3090280  63.1514826  64.9423536
  35.6307716  61.4668083  64.8319302  35.6972165  60.5196217  65.3672076
  35.2445566  61.2899500  63.8281079  37.0262060  62.1006343  64.7387561
  37.0154476  62.8493013  63.9466180  37.2821030  62.5772923  65.6850203
  38.1021877  61.0525584  64.4097175  37.8143252  60.0467336  63.7641910
  39.3309415  61.2785722  64.8661504  40.0680137  60.6156317  64.6729256
  39.5212477  62.1120927  65.4038570  33.3067225  61.4317511  65.7239355
  32.8688962  60.7919901  64.7762135  32.7429531  61.4071543  66.9312433
  33.1890755  61.8987247  67.6924480  31.5072153  60.6702210  67.2095441
  31.5876448  59.6541234  66.8233109  31.2529251  60.6013712  68.7237954
  32.1343694  60.1361080  69.1650269  31.1737662  61.6313222  69.0716962
  29.9893767  59.8160213  69.1470355  29.1244454  60.4413511  68.9257724
  29.9470330  58.9107472  68.5414054  29.9624894  59.3601075  70.9050087
  30.7058709  60.8142473  71.6350056  30.0998582  61.6893795  71.4005035
  30.7613203  60.6905578  72.7165447  31.7100423  60.9501090  71.2334054
  30.3129569  61.3396292  66.5254062  30.2865318  62.5689824  66.3802639
  29.3264325  60.5319199  66.0887046  29.5084117  59.0930782  65.8143978
  29.3446442  58.5270639  66.7314083  30.5233461  58.9190837  65.4570003
  28.4774699  58.8036290  64.7682902  28.1369305  57.7735411  64.8734126
  28.9177754  58.9412019  63.7807143  27.3544669  59.7798910  64.9966821
  26.6419492  59.3713384  65.7132728  26.8360805  60.0269359  64.0702135
  28.0179028  61.0404210  65.5793122  28.2377725  61.7889730  64.8181121
  27.1113147  61.6681390  66.6760005  27.2288102  61.2803544  67.8406836
  26.2410977  62.6214856  66.3201936  26.2442956  62.9738454  65.3736569
  25.2958805  63.2217366  67.2897035  25.6096991  62.9590132  68.2999478
  25.2406019  64.7496100  67.1756285  26.2298839  65.1648618  67.3679466
  24.9190237  65.0281489  66.1720830  24.2512127  65.3001387  68.1972212
  23.2615379  64.8856632  68.0052454  24.5723982  65.0223790  69.2011094
  24.1671157  66.8176374  68.1159194  24.8464647  67.4372086  67.3004096
  23.3294379  67.4162760  68.9657142  23.2357123  68.4218443  68.9534903
  22.7932468  66.8608712  69.6169637  23.9168218  62.6347928  67.0717218
  23.7658547  61.4201342  67.0515128  22.9393354  63.3689151  66.9451343
  51.8725559  12.6259542  61.6436508  52.4724926  12.5225850  62.4495613
  52.2796828  13.3094710  61.0214347  51.6324944  11.7078852  61.2977905
  50.5864333  13.2240460  62.0979017  50.4207280  14.1778205  61.5969476
  49.3968564  12.2930359  61.7906280  49.3299360  12.1311678  60.7147936
  49.5439097  11.3369140  62.2929289  48.1066572  12.9354831  62.2888970
  48.1726512  13.0972485  63.3648048  47.9586750  13.8915009  61.7866686
  46.9298298  12.0144513  61.9849188  46.8629096  11.8525810  60.9090848
  47.0768833  11.0583307  62.4872214  45.6396304  12.6569005  62.4831863
  45.7056239  12.8186671  63.5590939  45.4916487  13.6129156  61.9809555
  44.5052469  11.7690851  62.1901729  44.6419656  10.8833142  62.6558096
  43.6507538  12.1945759  62.5201717  44.4436595  11.6194035  61.1932268
  50.6367152  13.4779923  63.5929311  51.1842354  12.6689352  64.3445148
  50.1140361  14.6333381  64.0072831  49.8704004  15.3446202  63.3328805
  49.9093144  14.9216865  65.4178692  50.7333211  14.4981697  65.9921041
  49.8470238  16.4320332  65.6895930  49.2568120  16.7926233  64.8471418
  49.2921701  16.5884156  66.6146778  51.1660008  17.1987646  65.7517909
  51.7766325  16.9305894  64.8896355  50.8970456  18.7274846  65.7394933
  50.2868139  18.9965085  66.6016662  51.8447886  19.2640357  65.7841797
  50.3704021  18.9969154  64.8239857  51.9860170  16.7871282  66.9703700
  52.2060296  15.7208691  66.9175935  52.9194208  17.3497611  66.9877724
  51.4193950  16.9961913  67.8777459  48.6177093  14.2714517  65.8954392
  47.6135009  14.1924504  65.1732852  48.6797870  13.7655082  67.1116816
  49.5847496  13.5994638  67.5283006  47.4994030  13.4632274  67.8921358
  47.0774508  12.4976095  67.6135005  47.9263064  13.4057903  69.3750976
  47.9765889  12.3589220  69.6744929  48.9151554  13.8559848  69.4622894
  47.0186759  14.0941193  70.2167383  47.3185225  14.0351340  71.1268002
  46.4041003  14.5203444  67.7724585  46.6555583  15.7080129  67.6311028
  45.1666732  14.1005106  67.9183583  44.9525711  13.1145365  67.8723725
  44.0483858  15.0549105  67.9865290  44.0723054  15.5671748  67.0247014
  42.7325518  14.2928340  68.1001135  42.6663138  13.5594077  67.2964982
  42.6898348  13.7819383  69.0620183  41.5791019  15.2614741  67.9933906
  41.6444082  15.9949826  68.7970082  41.6208853  15.7724505  67.0314881
  40.2613882  14.4983100  68.1071400  39.7791931  14.3505964  69.2618131
  39.7495688  14.0703313  67.0382737  44.1851211  16.1685331  69.0942646
  44.0914166  17.3774671  68.8114322  44.3933035  15.7888200  70.3550973
  44.3201273  14.8249178  70.6477354  44.6313972  16.8173372  71.3869412
  43.8335556  17.5584404  71.3388374  44.6640503  16.2167571  72.8154290
  44.9781823  15.1745925  72.7578678  45.3680213  16.7742950  73.4332285
  43.3414482  16.2300054  73.5474952  43.1591190  15.5736232  74.7490915
  41.9178127  15.7525202  75.1682959  41.5772389  15.3050981  76.1020635
  41.2862562  16.5062613  74.2887394  40.3259703  16.8137957  74.3468204
  42.1517580  16.8124830  73.2655267  41.8134302  17.4264879  72.4308811
  45.9344116  17.6032539  71.0671376  46.0323711  18.7992086  71.3665478
  46.9276239  16.9707271  70.4431935  46.9167838  15.9660824  70.3398934
  48.1515363  17.6898944  70.0953117  48.4155304  18.3660383  70.9084758
  49.3210287  16.7274240  69.8593348  48.8524570  15.8818279  69.3558398
  50.0568196  17.1822666  69.1961380  50.0296579  16.2309419  71.1605162
  49.2663408  15.8472770  71.8374572  51.0525741  15.1369390  70.8762522
  51.8165217  15.5200253  70.1996964  51.5191463  14.8235120  71.8101551
  50.5544827  14.2839511  70.4153651  50.6820523  17.3561128  71.9319240
  49.9255754  18.0858812  72.2205073  51.1593112  16.9553016  72.8261697
  51.4321923  17.8393467  71.3059257  47.9266616  18.7041811  68.9700989
  48.5770543  19.7513116  68.9223493  47.0284143  18.3811404  68.0312562
  46.6538004  17.4482251  67.9341333  46.6397101  19.3913471  67.0453174
  47.5328935  19.7406016  66.5272981  45.6601976  18.8465355  66.0134606
  44.8345253  18.3934313  66.5621509  45.2914188  19.6970607  65.4401290
  46.2534678  17.8363647  65.0813682  46.9757006  18.3564721  64.4521075
  46.7703707  17.0940669  65.6895684  45.2036745  17.1303295  64.1869106
  44.2113563  17.2246981  64.6279300  45.2016022  17.5729457  63.1908253
  45.5310077  15.7067434  64.0674893  46.4505075  15.4371769  64.3867907
  44.7232386  14.7611463  63.5782569  45.1236204  13.4940545  63.5769983
  46.0333125  13.2547315  63.9448093  44.5164018  12.7761416  63.2082350
  43.5288633  15.0662480  63.0928317  43.2187644  16.0274612  63.0900212
  42.9339460  14.3362206  62.7278220  46.0581676  20.6357884  67.7235085
  46.3471046  21.7488756  67.3432346  45.2202425  20.4553000  68.7433024
  44.9219002  19.5250784  68.9997768  44.6593475  21.5977024  69.4845948
  44.1877531  22.2915625  68.7887096  43.6058645  21.1240628  70.4940868
  42.8898661  20.5638041  69.8927917  44.1014794  20.4483935  71.1911785
  42.8697846  22.2169727  71.2781195  43.4676278  22.8737570  72.3630669
  44.4827314  22.5978766  72.6486439  42.7843216  23.8691231  73.0768491
  43.2678333  24.3924093  73.9017672  41.4818766  24.1841685  72.7251141
  40.7844128  25.1318860  73.4235608  41.2921141  25.5186058  74.1406988
  40.8723202  23.5412456  71.6588391  39.8547268  23.8062268  71.3718041
  41.5581409  22.5599385  70.9567627  41.0710781  22.0380598  70.1330439
  45.7729096  22.3595791  70.1856065  45.8328936  23.5716065  70.1184018
  46.6820233  21.6250296  70.8215453  46.5397849  20.6328457  70.9457980
  47.8682087  22.2365565  71.4224481  47.5643651  22.9414507  72.1963359
  48.7637917  21.1780412  72.0527183  48.9400086  20.3658943  71.3474068
  49.7172804  21.6177286  72.3453517  48.0976795  20.4213512  73.5207376
  49.1278284  19.6086174  73.7378905  48.6789863  23.0754027  70.4040578
  49.0763900  24.2092980  70.7001839  48.8536611  22.5450357  69.1902207
  48.5082393  21.6205076  68.9756725  49.6161893  23.2622023  68.1561125
  50.5855213  23.5651767  68.5519676  49.8457024  22.3513519  66.9372621
  50.0995019  21.3547149  67.2983712  48.8978730  22.3122734  66.4004266
  50.9271088  22.8394362  66.0106111  51.9003717  23.4932655  66.4316570
  50.7945814  22.5280096  64.8167954  48.8718433  24.5366242  67.7801034
  49.4761121  25.5647918  67.5579578  47.5412424  24.4658998  67.7704516
  47.0683276  23.5771219  67.8512280  46.7447170  25.6456798  67.5417016
  47.0827731  26.1488751  66.6358254  45.2858859  25.2779001  67.3750080
  45.1940011  24.5252872  66.5919179  44.9097736  24.8721123  68.3141436
  44.5397344  26.4100986  67.0238632  43.6170522  26.1659097  66.9207653
  46.9274576  26.6850839  68.6418134  46.9846952  27.8849320  68.3478927
  46.9589498  26.2657634  69.9127365  46.7697238  25.2980179  70.1312808
  47.2143929  27.1921629  71.0214699  46.4985584  28.0131788  70.9813068
  47.1796739  26.5507681  72.4170007  47.9054755  25.7387282  72.4606335
  47.5269697  27.6049866  73.4786664  46.8012854  28.4171802  73.4359525
  47.5016432  27.1474547  74.4676678  48.5247928  27.9995292  73.2868737
  45.8147390  25.9141326  72.6780256  45.0829627  26.7193662  72.7428570
  45.5796293  25.2780558  71.8246621  45.7716219  25.0787170  73.9660743
  46.0061903  25.7142600  74.8199845  44.7751755  24.6552001  74.0918808
  46.5028591  24.2729505  73.9017903  48.5967200  27.8616522  70.8149807
  48.7473893  29.0782196  70.9942502  49.5886212  27.0564376  70.4210197
  49.4197606  26.0646153  70.3322844  50.9393042  27.5494253  70.1947109
  51.3093805  28.0480491  71.0905440  51.8629345  26.3992560  69.8657069
  51.8212561  25.7835994  70.7642219  51.4389406  25.8466646  69.0272727
  53.3147164  26.7529660  69.5590007  53.3195754  27.4205172  68.6973438
  54.0265172  27.4354986  70.7401806  54.0224660  26.7683235  71.6021318
  55.0556543  27.6631727  70.4624357  53.5063699  28.3591769  70.9938840
  54.0227026  25.4722963  69.1457577  53.5381261  25.0576270  68.2618264
  55.0662456  25.6904366  68.9187467  53.9719680  24.7494877  69.9600505
  50.9479493  28.6127840  69.0983667  51.5790023  29.6643277  69.2561226
  50.2374617  28.3359251  67.9949563  49.7777267  27.4409070  67.9072888
  50.1497070  29.2764425  66.8712249  51.1488722  29.4969731  66.4955463
  49.3199767  28.6757581  65.7321463  49.8322866  27.7570925  65.4463291
  48.3521303  28.4304591  66.1694126  49.1123808  29.5523232  64.4909024
  48.4684921  30.3870065  64.7680520  50.0844269  29.9326399  64.1769157
  48.4505678  28.7492727  63.2990155  47.3690421  28.8835329  63.3183878
  48.8437781  29.1084514  62.3479762  48.7503083  27.3106430  63.4210902
  49.6978406  27.0457362  63.1928222  47.8940100  26.3544646  63.8044922
  46.6014933  26.6164399  64.0445333  46.2516820  27.5577627  63.9366286
  45.9833270  25.8713139  64.3322089  48.3342103  25.1038045  63.9471693
  49.3043967  24.8894014  63.7658688  47.6954115  24.3766986  64.2358766
  49.5423902  30.5976103  67.3625933  50.0590797  31.6676261  67.0715812
  48.5225116  30.5193432  68.2165177  48.0983973  29.6364482  68.4629377
  47.9374114  31.7365642  68.7494491  47.6902900  32.4130618  67.9312919
  46.6588959  31.4279708  69.5319958  45.9140692  31.0100626  68.8547329
  46.8823685  30.7048346  70.3163645  46.1255133  32.6794015  70.1466829
  46.8621501  32.9413279  70.9061970  46.1146193  33.4462294  69.3721150
  44.7597154  32.5869875  70.7817976  44.1471720  31.4910960  70.8072810
  44.2950389  33.6692943  71.2242564  48.9294647  32.5049329  69.6173245
  49.0439142  33.7195845  69.5158762  49.6683462  31.8000815  70.4517576
  49.5382030  30.8016545  70.5311645  50.6319686  32.4436140  71.3353994
  50.1338494  33.2368383  71.8928684  51.2343772  31.4524303  72.3295573
  51.5829322  30.5902168  71.7610536  52.0847574  31.9417414  72.8044554
  50.2538743  30.9927032  73.3966196  49.7580330  31.8880850  73.7714978
  49.5239387  30.3562321  72.8964190  50.9714886  30.0970935  74.7724426
  51.5129185  28.5860287  74.0156837  52.2393570  28.8102035  73.2345744
  51.9750142  27.9473184  74.7684236  50.6574166  28.0711039  73.5785681
  51.7554220  33.1440773  70.5940812  52.2857823  34.1282312  71.1066746
  52.0730241  32.6562484  69.3808059  51.6333692  31.7929698  69.0952312
  53.0812995  33.2360974  68.5109451  53.8310592  33.7572410  69.1062340
  53.7758443  32.1377912  67.7020786  52.9193601  31.5230851  67.4251840
  54.2307329  32.5525265  66.8025393  54.8085448  31.2726765  68.4467560
  54.4284313  31.0788729  69.4497788  55.0707099  29.9372235  67.7315388
  55.4513076  30.1302239  66.7285458  55.8057353  29.3614323  68.2939469
  54.1412184  29.3718660  67.6643313  56.1520924  32.0314901  68.7403401
  55.9484443  32.9062985  69.3578652  56.8375165  31.3673361  69.2668328
  56.6040060  32.3481690  67.8003467  52.5433130  34.3336901  67.5877795
  53.3132811  34.9572794  66.8673558  51.2294762  34.5570674  67.6037634
  50.6612798  34.1523808  68.3341612  50.5665291  35.3562482  66.5705290
  51.1009345  35.2507860  65.6263957  49.1136875  34.8907465  66.3679391
  48.7345479  35.3317856  65.4460731  49.1077169  33.8043465  66.2796253
  48.2895130  35.2803171  67.4507780  47.3922459  34.9763538  67.2954785
  50.5741889  36.8280877  66.9494216  50.7847127  37.1932983  68.1099831
  50.3429137  37.6879511  65.9767095  50.1558375  37.3628934  65.0389252
  50.4311115  39.1217932  66.2047948  51.4283679  39.3870595  66.5558115
  50.1562131  39.8743339  64.8854592  49.2404578  39.4766338  64.4480507
  50.0193762  40.9309995  65.1153147  51.2936363  39.7160378  63.9027320
  51.5458714  38.6571713  63.8454617  50.9482380  40.0599720  62.9277902
  52.5282557  40.5107246  64.3134859  52.2768988  41.5698117  64.3705232
  52.8745339  40.1670109  65.2881918  53.6316376  40.3053837  63.2810086
  53.8838728  39.2465174  63.2237370  53.2862391  40.6493206  62.3060694
  54.8220099  41.0715883  63.6770431  55.1424789  40.7527477  64.5802263
  55.5527743  40.9355935  62.9932384  54.5886051  42.0528338  63.7297553
  49.4999489  39.6224008  67.2986496  49.8141624  40.5924738  67.9896562
  48.3537185  38.9662952  67.4482596  48.1415698  38.2054926  66.8187584
  47.3564058  39.3309211  68.4585731  46.8949924  40.2855438  68.2058036
  46.2583374  38.2527427  68.5129990  45.7715109  38.2476948  67.5377690
  46.7599369  37.2983427  68.6730571  45.2016496  38.4678094  69.6128369
  45.7166160  38.4983412  70.5730339  44.7165447  39.4267590  69.4306528
  44.1427906  37.3546266  69.6351021  43.7971183  37.1913565  68.6143414
  44.6115907  36.4445322  70.0093401  42.9375928  37.7217284  70.5352900
  42.2125108  38.2375922  69.9058131  42.5073035  36.7860953  70.8924188
  43.2903922  38.5935798  71.7125452  43.6887280  39.4607896  71.3818254
  42.4569743  38.7887285  72.2486715  43.9619372  38.1155763  72.2961881
  47.9704553  39.5139889  69.8527048  47.5601341  40.4131495  70.6152792
  48.9258790  38.6542253  70.1957036  49.2054352  37.9204668  69.5604509
  49.4912415  38.6591286  71.5337284  48.9322084  39.3452955  72.1699328
  49.4217390  37.2669023  72.1416398  50.0189132  36.5592284  71.5665921
  49.7802369  37.2920547  73.1706912  48.0421293  36.7209212  72.1857950
  47.0542159  37.2360402  73.0036883  45.9354635  36.5579876  72.7976984
  45.0256589  36.8270450  73.3343200  46.1681202  35.6109686  71.9067732
  45.5007286  34.9360601  71.5615388  47.4860917  35.6896194  71.5157921
  47.8814975  34.9821459  70.7869323  50.9062880  39.2273471  71.6376432
  51.5175213  39.1662572  72.6873854  51.3696716  39.8798071  70.5686705
  50.7504257  40.1015121  69.8021975  52.7735502  40.2125474  70.4358337
  53.3513885  39.3020263  70.5944316  53.0621516  40.7322966  69.0436211
  52.4976142  41.6490029  68.8731889  54.1279045  40.9390910  68.9461159
  52.7690321  39.9835628  68.3077014  53.2200981  41.2254608  71.5032355
  54.3760448  41.1929291  71.9296786  52.3156504  42.0933868  71.9859950
  51.3729752  42.1040509  71.6235739  52.7072796  43.1417016  72.9474124
  53.5353809  43.6648172  72.4691890  51.5567279  44.1561130  73.1965573
  50.7236288  43.6490444  73.6833093  51.9147703  44.9623483  73.8367843
  51.2236135  44.5694883  72.2445830  53.2339466  42.5769110  74.2469606
  54.0709390  43.2140494  74.8989454  52.8040929  41.3655197  74.6263272
  52.0683496  40.9101894  74.1053134  53.2882113  40.7220940  75.8552697
  54.0516139  41.3572496  76.3045949  52.1616387  40.4917932  76.8937806
  52.5233974  39.6836258  77.5294655  52.0583612  41.4008925  77.4862097
  50.8283415  40.1162421  76.3183635  49.9169382  41.1091763  75.9583707
  50.1914503  42.1532063  76.1091815  48.6739871  40.7865741  75.4145129
  47.9845038  41.5782192  75.1212335  48.3252962  39.4893384  75.2479745
  47.0878626  39.2013837  74.7300031  46.5730433  39.9865516  74.5298228
  49.1980997  38.4722041  75.5962026  48.9201921  37.4311711  75.4315265
  50.4490148  38.7862410  76.1651246  51.1183685  37.9875087  76.4846437
  54.0296472  39.4156756  75.5958744  54.8029742  39.0093539  76.4229923
  53.8251425  38.8004593  74.4379346  53.1811540  39.1886162  73.7636110
  54.4222487  37.5142183  74.1542121  54.4289047  36.9842718  75.1066887
  53.5807776  36.7295856  73.1698144  53.5719564  37.2430867  72.2083890
  54.0024508  35.7322803  73.0446176  52.5613240  36.6477624  73.5468007
  55.8751954  37.5987155  73.6629738  56.6063509  36.6086394  73.7572873
  56.2849061  38.7382997  73.1154138  55.6771557  39.5435611  73.0675323
  57.5404134  38.7753950  72.3765070  57.5364474  37.9944882  71.6160676
  57.7405655  40.1331478  71.6850594  58.5845993  40.0800041  70.9973954
  56.8360185  40.3830832  71.1305983  58.0120038  41.2914215  72.6128439
  57.1113144  42.1645205  73.1450516  56.0671654  42.0089407  72.8736708
  57.7421263  43.0838587  73.9368821  57.3008822  43.8109207  74.4816610
  59.0827130  42.7977925  73.9286791  60.1313039  43.3917551  74.6188469
  59.9000812  44.2164405  75.2930343  61.3847821  42.9078918  74.4114972
  62.2292697  43.4023245  74.8915772  61.6218556  41.7997164  73.6042566
  62.6280911  41.4029965  73.4693382  60.5781584  41.1660699  72.9454932
  60.8058414  40.3038029  72.3187900  59.2756176  41.6697417  73.1114850
  58.7975183  38.3261800  73.1477211  59.6967716  37.7288717  72.5471946
  58.8605795  38.5683042  74.4689952  58.0435373  39.4120783  75.3731547
  57.2316021  38.8212544  75.7971697  57.6285683  40.2538986  74.8188639
  59.0523865  39.8482926  76.4166299  58.5671466  40.1366886  77.3490831
  59.6691984  40.6725672  76.0585577  59.8484880  38.6354780  76.5827178
  59.3113646  37.9014828  77.1834244  60.8128904  38.8466379  77.0447126
  60.0554046  38.0964902  75.1650593  60.9136335  38.5566146  74.6753379
  60.2230135  36.5828428  75.1648778  61.2925706  36.0902509  75.4552497
  59.1322057  35.8798057  74.8908006  58.2777679  36.3953780  74.7351710
  59.0669400  34.4240606  74.9103105  59.9060241  34.0034056  75.4644644
  57.7640845  34.0142295  75.6079839  56.8449038  34.1854032  75.0477111
  57.8617072  32.9513330  75.8289386  57.5994504  34.7165870  76.9317458
  58.3292311  34.3272626  78.0470594  58.9601353  33.4413852  77.9743881
  58.2681260  35.0366565  79.2312104  58.8643656  34.7272479  80.0896190
  57.4599769  36.1243931  79.3223273  57.4124355  36.6862190  80.2551678
  56.7042921  36.5173203  78.2446434  56.0200969  37.3592874  78.3498504
  56.8057548  35.8534282  77.0306621  56.2644885  36.2237804  76.1600475
  59.2083823  33.7752988  73.5418537  59.1410280  32.5713839  73.4173976
  59.4910019  34.5910169  72.5287751  59.5926930  35.5837791  72.6842788
  59.6171608  34.0870491  71.1623493  58.7962067  33.4032816  70.9464893
  59.5742045  35.2356886  70.1542348  60.2698413  35.9704442  70.5596024
  59.9550892  34.8610131  69.2041584  58.2162208  35.8900795  69.9339574
  57.0485646  35.3424159  70.4295778  57.1029041  34.4384920  71.0362642
  55.8238031  35.9246467  70.1656907  54.9048922  35.4914033  70.5606653
  55.7742028  37.0986061  69.4112763  54.5784667  37.7327247  69.1033531
  53.8110096  37.2803435  69.4610687  56.9425056  37.6444347  68.9203691
  56.9108214  38.5597419  68.3293452  58.1295750  37.0420661  69.1733121
  59.0513094  37.4646283  68.7733783  60.8980751  33.2724138  70.8767749
  60.9327624  32.4846285  69.9515176  61.9519120  33.5320106  71.6443962
  61.8596072  34.1787142  72.4146907  63.2386607  32.8494659  71.4588818
  63.0943707  31.9328995  70.8868805  64.2124676  33.7542725  70.6964987
  64.6535595  34.4272661  71.4317652  64.9869883  33.1049564  70.2883244
  63.5869919  34.5734236  69.5668170  63.3543547  33.8822164  68.7567471
  62.6630804  35.0040174  69.9529238  64.4704338  35.6682793  69.0505812
  64.5526505  36.4299330  69.8259669  65.4547105  35.2435032  68.8534416
  63.9188512  36.3063878  67.7605051  63.7861605  35.5310292  67.0059769
  62.9571675  36.7726878  67.9745796  64.8671194  37.3358907  67.2523671
  65.7581719  36.9039303  67.0535321  64.4964609  37.7473241  66.4077163
  64.9898820  38.0546703  67.9512120  63.8634838  32.5940754  72.8145007
  63.4422913  33.1960010  73.8078307  64.8698561  31.7085492  72.8655123
  65.4021277  30.8187244  71.8267570  66.0402074  31.3950672  71.1568439
  64.5721909  30.3945275  71.2616366  66.1654444  29.7747718  72.5958348
  66.9763816  29.3672097  71.9922016  65.5043417  28.9665308  72.9085503
  66.6871753  30.5215822  73.7750701  67.5561019  31.0964631  73.4547929
  66.9553264  29.9071972  74.6345617  65.5371111  31.4756473  74.1493832
  64.8165801  31.0415009  74.8425283  66.0845359  32.7798779  74.7341763
  66.5579096  33.6382356  73.9778012  66.0653066  32.8892318  76.0542994
  65.5709756  32.2148537  76.6208242  66.7164338  33.9962658  76.7182527
  66.3235556  34.9468550  76.3575227  66.5728471  33.9544721  78.2637080
  66.8676514  32.9638518  78.6099177  67.4558045  35.0226696  78.9475731
  67.1612623  36.0136560  78.6021865  67.3283814  34.9624354  80.0284226
  68.5014160  34.8463996  78.6951309  65.1015055  34.1448776  78.6183807
  64.5124222  33.3456742  78.1685399  64.9819171  34.1182256  79.7014725
  64.7573185  35.1069830  78.2389215  68.1943629  33.9799618  76.3413473
  68.8725287  32.9787508  76.5554985  68.6870386  35.0969209  75.8213358
  68.0390105  35.8447422  75.6190433  70.0733555  35.2723576  75.4508099
  70.5436378  34.2949576  75.3430000  70.2081823  36.0214812  74.1411972
  69.5900735  35.5011323  73.4095705  69.8315665  37.0350166  74.2790614
  71.6519989  36.0782748  73.6400014  72.5885227  36.0234026  74.4648670
  71.8434842  36.1978742  72.4082992  70.7361333  35.9809835  76.6386890
  70.7197746  37.2142524  76.7652641  71.2458912  35.1791053  77.5573730
  71.2992820  34.1853125  77.3852548  71.7023352  35.6802691  78.8391821
  70.8795445  36.1719456  79.3581897  72.1955739  34.5118219  79.6995283
  73.0256148  34.0150727  79.1971617  72.5294060  34.8876492  80.6666944
  71.3830053  33.8005302  79.8475001  72.8110261  36.7027094  78.6650631
  72.8141258  37.7391069  79.2889931  73.7528828  36.4200186  77.7772129
  73.7912855  35.5449707  77.2743055  74.8329098  37.3696086  77.5884235
  75.2129205  37.6917867  78.5579039  75.9662943  36.7409236  76.8098994
  75.5503817  36.2737640  75.9172192  76.6592386  37.5297692  76.5172377
  76.6947156  35.7115530  77.6185079  76.0136869  34.9443184  77.9868172
  77.4218683  35.2581687  76.9448680  77.4178829  36.3474997  78.7874176
  78.2784430  37.2415593  78.5593767  77.0756694  35.9911867  79.9453049
  74.3820039  38.6497701  76.9227664  74.7693169  39.7308923  77.3597050
  73.4898841  38.5631674  75.9351028  73.1502744  37.6772882  75.5887180
  73.0213311  39.7987010  75.2759208  73.8889739  40.3570773  74.9244793
  72.1336542  39.4749423  74.0803239  71.2558824  38.9236754  74.4175500
  71.8180136  40.4011504  73.6001054  72.6912300  38.8680949  73.3669203
  72.2757683  40.6838951  76.2579012  72.2772593  41.9116040  76.1180489
  71.5712931  40.0827637  77.2309874  71.5150478  39.0753024  77.2752315
  70.7970864  40.8700260  78.2091100  70.5635350  41.8509537  77.7951851
  69.4834204  40.1544598  78.5446092  69.7932510  39.2000830  78.9703664
  68.9455034  40.7302000  79.2977815  68.5669681  39.9037399  77.3434170
  69.1427463  39.3900797  76.5735252  67.3642595  39.0610250  77.7213386
  66.7876965  39.5742826  78.4909102  66.7385173  38.9052462  76.8425437
  67.7008253  38.0969382  78.1026005  68.1110349  41.2809387  76.7342622
  68.9868529  41.8436905  76.4112255  67.4587859  41.1025601  75.8793624
  67.5711638  41.8519945  77.4895988  71.5683280  41.1664370  79.4885337
  71.0224417  41.7833277  80.4116534  72.8192652  40.7087558  79.5382638
  73.1191021  40.0716980  78.8141405  73.7049865  40.9279825  80.6770958
  74.6347409  40.3820558  80.5170333  74.0385677  42.4290295  80.8664964
  73.1391499  42.9024906  81.2601733  74.8322615  42.4818692  81.6117199
  74.4908897  43.1692864  79.5737418  73.6830936  42.9703301  78.8694814
  74.5286850  44.2368828  79.7903260  75.8304964  42.7229089  78.9575673
  76.6430152  42.0959423  79.6552177  76.1130190  43.0477496  77.7680336
  73.2084916  40.2534172  81.9664772  73.4115843  40.7342119  83.0760969
  72.5827149  39.0885598  81.7874330  72.4706759  38.7511842  80.8420630
  72.0497723  38.2743299  82.8835907  71.9274484  38.8898257  83.7748264
  70.6861121  37.6872821  82.5028458  70.9784940  37.0149997  81.6962180
  70.2665819  37.1070206  83.3246675  69.6295282  38.6813229  81.9847663
  70.0736415  39.2698181  81.1819353  68.3590687  37.9411441  81.4473895
  67.9141081  37.3527631  82.2498338  67.6351353  38.6735378  81.0901490
  68.6421152  37.2810290  80.6274913  69.2982096  39.7433549  83.0430560
  70.2014293  40.2981821  83.2969466  68.5497426  40.4300032  82.6475656
  68.9079260  39.2568687  83.9369848  73.0642555  37.1890846  83.0990908
  72.9150035  36.0519342  82.6566941  74.1492223  37.5298196  83.7620626
  74.2537969  38.4410235  84.1849940  75.2892378  36.6067013  83.8074760
  75.4065951  36.1347895  82.8319630  76.6050876  37.3371879  84.1646952
  76.4943038  37.7481587  85.1681538  77.4758708  36.6822433  84.1349621
  76.9057696  38.4898224  83.2612118  77.1172466  38.3322151  81.9076006
  77.3237951  39.5157985  81.3596352  77.5164084  39.6081237  80.2907689
  77.2472390  40.4334811  82.3108674  77.3693535  41.4283620  82.1867713
  76.9732520  39.8175222  83.5051303  76.8556618  40.4124677  84.4108420
  75.0864310  35.4335360  84.7506445  75.8798773  34.4932977  84.7060260
  74.0257083  35.4842857  85.5789282  73.4911191  36.3400122  85.6241594
  73.6261185  34.3755422  86.4318067  74.4481505  33.6655180  86.5225165
  73.2601751  34.8740366  87.8188098  72.9633979  34.0054675  88.4066960
  74.1536719  35.3198601  88.2558507  72.1327464  35.8949865  87.8186685
  71.7301485  36.3462598  86.7415741  71.6496716  36.2502799  88.9169041
  72.4283437  33.5596998  85.9192888  71.9620197  32.6271604  86.6061412
  71.9338409  33.8638471  84.7143529  72.3813877  34.5446158  84.1173980
  70.6752717  33.2635836  84.2620662  69.8808563  33.5028609  84.9689960
  70.2805288  33.7987096  82.8830131  70.3456167  34.8852924  82.8264396
  71.0257849  33.3557156  82.2223697  68.9058925  33.3557029  82.4569508
  68.7504881  32.2688717  81.6369628  69.6400545  31.7556542  81.2717519
  67.4997586  31.8223269  81.2729375  67.3861259  30.9763156  80.5951070
  66.3742036  32.4506722  81.7958671  65.1198635  31.9806757  81.4507886
  65.1519029  31.2291930  80.8542596  66.5181920  33.5431146  82.6336086
  65.6345513  34.0595725  83.0085098  67.7690613  33.9759808  82.9920772
  67.8793491  34.8029171  83.6935848  70.7506646  31.7362647  84.2329311
  69.8461757  31.0520693  84.6965824  71.8338774  31.1885832  83.6914138
  72.5806415  31.7715624  83.3413026  71.9425607  29.7324237  83.5108024
  70.9808728  29.3296559  83.1929445  72.9915948  29.3930228  82.4463539
  73.8673588  30.0017687  82.6712206  73.2770290  28.3413152  82.4231489
  72.5682299  29.7499641  81.0646578  71.5921144  29.0533477  80.3869602
  71.3922411  29.6224771  79.2150679  70.6563770  29.2153406  78.5216397
  72.1963469  30.6628556  79.1111427  72.2691670  31.2796161  78.3146481
  72.9244283  30.7789223  80.2611401  73.6302594  31.6011699  80.3786667
  72.2648732  29.0058609  84.8233514  72.0940170  27.7859170  84.9268700
  72.7416995  29.7570572  85.8148361  73.0350051  30.7050144  85.6265587
  72.9273985  29.2221066  87.1878374  73.3819167  28.2328694  87.1337813
  73.8473562  30.1449116  88.0289793  73.4499574  31.1565800  87.9471221
  73.8091338  29.8232003  89.0697198  75.2826943  30.1264448  87.5478082
  75.7485559  29.0581352  87.0932385  75.9569667  31.1752574  87.6395897
  71.5751774  29.0306241  87.8864823  71.3505301  28.0445621  88.5868147
  70.6728346  29.9904586  87.6742437  70.8948853  30.7630427  87.0627646
  69.3438543  29.9758330  88.3356532  69.3584694  29.4999069  89.3161531
  68.7883790  31.4234489  88.4702650  68.7768462  31.8732709  87.4774772
  67.3544667  31.4557746  89.0701454  67.3652891  31.0065088  90.0631931
  67.0136819  32.4885753  89.1428717  66.6776645  30.8949349  88.4255551
  69.7654078  32.2875945  89.2851965  70.6908182  32.3602658  88.7138514
  69.3208213  33.2779636  89.3832351  70.0580877  31.7425001  90.6315113
  70.5031542  30.7522685  90.5342647  70.7535680  32.4036937  91.1484535
  69.1331563  31.6699641  91.2036479  68.3261503  29.1202067  87.5442576
  67.5343016  28.3467550  88.1350801  68.3683585  29.2520531  86.2196234
  69.0414861  29.8928511  85.8241788  67.4454829  28.5607232  85.3081769
  66.6469861  28.0079997  85.8031503  66.8388320  29.5509304  84.3137965
  67.6524133  30.0853353  83.8232892  65.9761372  28.8405997  83.2506982
  65.1620171  28.3063191  83.7404465  65.5636874  29.5795724  82.5637446
  66.5921787  28.1332068  82.6955519  66.0727505  30.6884242  85.0382542
  66.8174069  31.2769137  85.5742277  65.6147858  31.3022899  84.2626661
  64.9852745  30.2117200  86.0261803  65.4425836  29.5981334  86.8023760
  64.5047798  31.0766396  86.4834968  64.2399633  29.6235072  85.4908143
  68.2353620  27.4455476  84.6163010  68.9435402  27.6855180  83.6429789
  68.0432466  26.2260646  85.1005725  67.3774282  26.1226637  85.8529643
  68.7549239  25.0413956  84.6406042  69.7783422  25.2994817  84.3683804
  68.7949888  23.9919149  85.7630392  67.7564212  23.7845227  86.0208473
  69.2458027  23.1000792  85.3277279  69.5627315  24.3868766  87.0227524
  69.0099138  25.1817506  87.5234207  69.6170185  23.5158100  87.6757439
  70.9638770  24.8685594  86.7064062  71.3785369  24.2300714  85.9263490
  70.9002714  25.8934112  86.3407115  71.8853611  24.8215243  87.9588106
  72.1512485  23.7764092  88.1173630  72.7819969  25.3908806  87.7139086
  71.2750557  25.3686175  89.1939374  70.4444346  24.8409036  89.4212835
  71.9359242  25.3005346  89.9546723  71.0289955  26.3371585  89.0473705
  68.1375803  24.4034326  83.3999568  68.8129293  23.6648537  82.6862468
  66.8764858  24.7073041  83.1357962  66.3831203  25.3343246  83.7550984
  66.1398237  24.1250143  81.9976896  66.8380346  23.6415581  81.3144101
  65.1209204  23.0680558  82.4944318  64.3519640  23.5787813  83.0740565
  64.6549325  22.5260845  81.6714966  65.7283155  22.0328080  83.4026450
  66.4616307  20.9789839  82.9132080  66.8967963  20.2352319  83.9203415
  67.4956937  19.3436777  83.7344597  66.4751152  20.7788214  85.0531228
  66.6492383  20.4314813  85.9853973  65.7490459  21.9122272  84.7542202
  65.3225570  22.5137230  85.5569725  65.4356341  25.2127554  81.2169686
  64.2380694  25.4277466  81.4078709  66.1651138  25.8690521  80.3160320
  67.6164883  25.7749641  80.0586694  67.8174252  24.9238804  79.4079920
  68.1467195  25.6436728  81.0019173  67.9311889  27.0898600  79.4027172
  68.7628908  26.9681585  78.7087721  68.1956102  27.8278007  80.1600985
  66.6893523  27.4796401  78.6955918  66.6727960  26.9622183  77.7363736
  66.5788335  28.5515467  78.5315750  65.5455661  26.9641444  79.5880907
  65.1815216  27.6943218  80.3108706  64.3767341  26.4799896  78.7176305
  64.4197074  25.3390802  78.2176985  63.3869328  27.3462524  78.5206349
  63.3734897  28.2267346  79.0152759  62.2757392  27.0298946  77.6575234
  62.6185808  26.4603075  76.7937356  61.2493988  26.1820934  78.4297867
  61.8026655  25.3431022  78.8517925  60.8772351  26.8137480  79.2363887
  60.0809939  25.6591991  77.6178079  59.4806780  25.0342682  78.2790059
  59.4940428  26.5216472  77.3019381  60.5631023  24.6854542  76.1420822
  61.6058440  23.3637855  76.8472428  61.0226637  22.7820933  77.5611293
  61.9561809  22.7110973  76.0476412  62.4622938  23.8077528  77.3546756
  61.6669391  28.2983114  77.1235231  61.6985538  29.3094106  77.7911898
  61.1415357  28.2259205  75.8950460  61.1553310  27.3406327  75.4090681
  60.5554215  29.3856881  75.2120970  59.9693356  29.9680584  75.9230453
  61.6452728  30.2883728  74.6194643  61.2143382  31.2480507  74.3341347
  62.3883385  30.4425820  75.4018791  62.2947111  29.6651415  73.4352551
  63.1069131  28.7222603  73.6108712  61.9550101  30.1091363  72.3099943
  59.6492065  28.8594708  74.1033785  59.6947505  27.6346883  73.7696654
  58.8780934  29.7493910  73.4937223  58.8696505  30.7247180  73.7559539
  57.8918927  29.2825743  72.4852976  57.3052700  28.4584034  72.8911490
  56.9433471  30.4200651  72.1136929  57.6652406  31.1960121  71.8589868
  56.3651474  30.1575231  71.2277715  56.0029127  30.9370432  73.2001292
  56.5655294  31.1198507  74.1156316  55.3566165  32.2493966  72.7252948
  54.7934048  32.0672775  71.8100221  54.6838265  32.6236608  73.4969041
  56.1339284  32.9886578  72.5319569  54.9850864  29.8443183  73.6265748
  55.5218830  28.9784934  74.0142550  54.3286585  30.2409086  74.4011197
  54.3893324  29.5455240  72.7640795  58.5265739  28.6560376  71.2509057
  57.9431811  27.7711481  70.6711476  59.6976274  29.1417165  70.8231923
  60.1130267  29.9685926  71.2279373  60.3574722  28.5274985  69.6571892
  59.6279787  28.4532417  68.8507004  61.5765275  29.3280951  69.1479671
  61.8210006  28.9449625  68.1572393  61.2655934  30.3697096  69.0675982
  62.7199328  29.2390947  69.9848454  63.4337834  29.7584228  69.6075981
  60.7725186  27.0924072  69.9023088  60.8175927  26.2822689  68.9580131
  61.1440336  26.7938132  71.1536469  61.2248449  27.5281259  71.8423804
  61.5351536  25.4540346  71.5310239  62.1635526  24.9973192  70.7664162
  62.2951024  25.4525697  72.8498490  61.6849308  25.9454827  73.6067027
  62.6046516  24.0392871  73.2938170  63.2152271  23.5458539  72.5376286
  63.1479258  24.0653974  74.2384177  61.6740696  23.4872503  73.4256237
  63.5031093  26.2164453  72.6808922  63.9943502  26.2248860  73.5056416
  60.2872841  24.5484621  71.5717817  60.3206421  23.4185276  71.1171167
  59.1940534  25.0640718  72.1259497  59.2290022  25.9135486  72.6711718
  57.9275366  24.3278880  72.0665389  58.0251279  23.3109101  72.4464482
  56.7868668  25.0347226  72.8342663  56.6282624  26.0187172  72.3930199
  55.4890326  24.2293946  72.7630527  55.6467364  23.2453717  73.2045609
  54.7058628  24.7521323  73.3121345  55.1880074  24.1157745  71.7216230
  57.1715348  25.3178800  74.2839784  58.0507190  25.9617425  74.3080270
  56.3437538  25.8151005  74.7895969  57.3952220  24.3792894  74.7910410
  57.5374227  24.0382357  70.6233197  57.1387409  22.9217541  70.3021112
  57.7079311  25.0321830  69.7476254  57.9282804  25.9704948  70.0494805
  57.4666808  24.7993698  68.3177837  56.4620942  24.4001282  68.1781011
  57.5917546  26.1034415  67.5181390  56.7736894  26.7502197  67.8352299
  58.5424665  26.5574898  67.7975797  57.5403155  25.9250534  66.0147067
  58.4805148  25.4738186  65.6976686  56.7173635  25.2483172  65.7847498
  57.3417440  27.2015987  65.2998737  56.3225683  27.5425410  65.4819127
  58.0454309  27.9320979  65.6989915  57.5672580  27.0467335  63.7879764
  57.3161500  27.9869737  63.2970653  58.6174348  26.8143420  63.6112784
  56.7236660  25.9633076  63.2383294  55.7504892  26.1786609  63.4015764
  56.8879857  25.8795686  62.2453103  56.9564885  25.0918927  63.6927837
  58.3817446  23.7127937  67.7382592  57.9086529  22.8320479  67.0013467
  59.6837185  23.8222302  67.9754694  60.0618855  24.6254253  68.4570985
  60.6217257  22.8084206  67.4661065  60.6084651  22.8099393  66.3761886
  62.0467238  23.1050898  67.9381911  62.2976286  24.1149425  67.6136245
  62.0482353  23.0631714  69.0273837  63.0664291  22.1358283  67.3969868
  62.6533193  21.1337486  67.5122141  63.1921259  22.3567744  66.3370410
  64.4508742  22.2124119  68.1114446  65.0896848  21.4614405  67.6466199
  64.8552354  23.2051917  67.9140120  64.4409116  21.9887640  69.5611936
  64.6460248  22.7897829  70.1411907  64.2024004  20.8272679  70.1497242
  64.2348571  20.7617408  71.4765692  64.4392416  21.5912934  72.0152431
  64.0549942  19.8826859  71.9402624  63.9485248  19.7243850  69.4169817
  63.9397338  19.7826911  68.4087044  63.7682785  18.8448737  69.8796586
  60.1784436  21.4140140  67.8889367  60.1629778  20.4757720  67.0925375
  59.8501281  21.2741589  69.1711978  59.9643687  22.0464218  69.8120241
  59.4562247  19.9780762  69.7131588  60.1739220  19.2218545  69.3951359
  59.4128246  19.9983014  71.2380399  58.7638158  20.8158464  71.5518981
  58.9960010  19.0516684  71.5819060  60.7870034  20.1893097  71.8348729
  61.3882188  19.3564480  71.4702055  61.1664055  21.1213858  71.4160768
  60.8676930  20.2460662  73.3548327  61.9012122  20.4716688  73.6175883
  60.2233138  21.0609838  73.6846572  60.4436706  18.9614967  74.0339808
  59.3962572  18.7858133  73.7887035  61.0520152  18.1537844  73.6270203
  60.6059210  19.0075157  75.5156583  60.0419608  19.7556208  75.8930007
  60.3092064  18.1282202  75.9142808  61.5764794  19.1698732  75.7431566
  58.1443174  19.4789448  69.1104582  58.0277131  18.3068325  68.8281920
  57.1661964  20.3797190  68.9392993  57.2804460  21.3259405  69.2735316
  55.8961479  20.0086676  68.3471983  55.4806565  19.1474530  68.8704340
  54.9071828  21.1637731  68.4486105  54.8484354  21.4525225  69.4980255
  55.3112466  21.9920075  67.8664936  53.5258290  20.8202701  67.9431827
  52.9700358  21.7559089  67.8817434  53.6494179  20.4053277  66.9428574
  52.6081378  19.6529827  68.9582728  52.2499735  20.6937971  70.3877324
  51.6670530  21.5587090  70.0711410  51.6814365  20.1217863  71.1209922
  53.1847357  21.0306149  70.8359230  56.0957420  19.5716833  66.9091521
  55.5847560  18.5384061  66.4988942  56.8629236  20.3617764  66.1718251
  57.2538758  21.2053903  66.5662504  57.1260263  20.0687741  64.7696651
  56.1875742  19.9649713  64.2250260  57.9307707  21.2108895  64.1442907
  58.7192740  21.4185990  64.8676291  58.3773963  20.8970494  63.2008237
  57.1109708  22.4585596  63.9220381  55.8759523  22.3753787  64.0681901
  57.7134756  23.4914367  63.5286274  57.8713863  18.7545639  64.6359077
  57.6856225  18.0169615  63.6621944  58.6974304  18.4570162  65.6254421
  58.8156017  19.1064143  66.3899138  59.4494723  17.2170871  65.6539890
  59.7274525  16.9911457  64.6245344  60.3491975  17.4054331  66.2397533
  58.7215943  16.0287878  66.2389577  59.2943957  14.9406494  66.3626437
  57.4466711  16.2359703  66.5772496  57.0948265  17.1803743  66.5108740
  56.5823819  15.2185124  67.1436925  55.6448072  15.6713388  67.4661848
  56.2703906  14.1304340  66.1057986  57.1883400  13.5652010  65.9446160
  55.5136442  13.4772264  66.5402578  55.7705554  14.6706027  64.7802540
  56.5173128  15.3535480  64.3752358  55.6298492  13.8372041  64.0919584
  54.4757376  15.3957255  64.9552335  53.7861849  14.7335718  65.4788446
  54.6635728  16.2795053  65.5649472  53.8556814  15.8179046  63.6935980
  53.5512624  15.0702282  63.0866314  53.6638306  17.0764679  63.2980038
  54.0754436  18.1200678  64.0339786  54.5447761  17.9597876  64.9138293
  53.9140848  19.0611855  63.7047970  53.0524199  17.3081203  62.1413487
  52.7398653  16.5326900  61.5746764  52.9030153  18.2585782  61.8340919
  57.1567095  14.6332845  68.4332017  57.0502016  13.4275311  68.6902094
  57.7585117  15.4937895  69.2498131  57.8496586  16.4633532  68.9819739
  58.3877834  15.0587104  70.4822483  58.7667476  14.0464693  70.3413469
  59.5462986  15.9589575  70.9054996  59.1296650  16.9604123  71.0132208
  59.8737702  15.5955279  71.8795537  60.7159960  16.0029627  69.9701597
  60.9852100  14.9941057  69.6573784  60.3872545  16.5760236  69.1031940
  61.9199351  16.6759325  70.5921237  62.0979625  16.6663540  71.8282772
  62.7378086  17.1887379  69.8175427  57.4293239  14.9130995  71.6516049
  57.7065708  14.1425412  72.5469076  56.3024530  15.6280462  71.6534016
  56.0923716  16.2839128  70.9146160  55.3610950  15.5130213  72.7669726
  55.9137715  15.4187893  73.7017283  54.4618419  16.7381879  72.8549244
  53.9280147  16.8555412  71.9118677  53.7468594  16.5475425  73.6552708
  55.2304860  18.0006937  73.1578344  55.9207203  18.1461088  74.3433322
  55.8664440  17.3319444  75.0660285  56.6684722  19.2835570  74.6316093
  57.2310160  19.3792278  75.5603145  56.6903875  20.3067175  73.7013193
  57.4111839  21.4438488  73.9880787  57.8443495  21.4074993  74.8440260
  56.0093900  20.1810453  72.5406993  56.0300303  21.0013291  71.8231975
  55.2961014  19.0368942  72.2584517  54.7712487  18.9424514  71.3078149
  54.5240301  14.2584404  72.6101987  53.8998751  14.0492556  71.5637260
  54.4748825  13.4273204  73.6618470  55.2334734  13.5504919  74.9135385
  54.9948965  14.5015116  75.3897138  56.3007739  13.5114672  74.6957182
  54.7665475  12.3620103  75.7238179  54.0010580  12.6863319  76.4287579
  55.6120348  11.9465009  76.2720921  54.2329104  11.3855134  74.7638001
  53.4325629  10.8206105  75.2417411  54.9888051  10.6962401  74.3874688
  53.6640478  12.2206012  73.6083700  53.8226099  11.7514288  72.6373738
  52.1706517  12.5085871  73.7980438  51.3012190  11.7161705  73.3718140
  51.8849426  13.6248623  74.4678653  52.6389264  14.2010826  74.8136658
  50.5296013  13.9828031  74.8239007  49.8841950  13.8674173  73.9531332
  49.9935416  13.0880500  75.9553329  48.9940996  13.4578899  76.1843161
  49.9257960  12.0653557  75.5843787  50.8494333  13.1146789  77.2227118
  51.6226927  14.0578430  77.4233647  50.7694534  12.1532156  78.0275587
  50.4339748  15.4573410  75.1647581  51.4421842  16.1433497  75.2233067
  49.2029978  15.9398635  75.3489799  48.4095358  15.3338171  75.1965822
  48.9514917  17.3379060  75.6852578  49.3807421  17.9393227  74.8839207
  47.4765028  17.6364132  75.7744503  47.0342360  17.0483331  76.5786032
  47.3316731  18.6972451  75.9788035  46.9956122  17.3797991  74.8305262
  49.6538415  17.7423842  76.9994431  50.0528038  18.8805051  77.1754288
  49.7334408  16.8157866  77.9389743  49.3018807  15.9140741  77.7948571
  50.3683719  17.0804941  79.2239048  49.9086240  17.9534266  79.6872836
  50.2067326  15.8831165  80.1670636  50.5762495  15.0052508  79.6370558
  50.8354030  16.0729973  81.0370170  48.7938911  15.6395043  80.6144045
  48.8138052  15.3239806  81.6575484  48.2460161  16.5779852  80.5296191
  48.0541278  14.5555862  79.7817198  48.1546843  14.4811393  78.5510191
  47.3027623  13.7029424  80.4785220  46.7949008  12.9735907  79.9987052
  47.2447985  13.7901968  81.4830758  51.8317083  17.4292620  79.0556294
  52.3379097  18.3285817  79.7224579  52.5141235  16.7397763  78.1580800
  52.0792319  15.9900087  77.6396041  53.9110590  17.0418897  77.8920637
  54.4717657  16.9564522  78.8228739  54.2944708  16.3209129  77.1700615
  54.0904123  18.4454661  77.3331213  55.0132130  19.1733897  77.7124946
  53.2245130  18.8087154  76.3926670  52.5951250  18.1180046  76.0094063
  53.1939527  20.1638616  75.8328441  54.1469674  20.4144953  75.3669633
  52.0986223  20.2145901  74.7642136  52.4509394  19.7041093  73.8678982
  51.2061623  19.7139910  75.1397343  51.6686500  21.6003397  74.3326226
  52.3913154  22.3043294  73.4017535  53.2838959  21.8523449  72.9691915
  52.0003901  23.5692345  73.0121735  52.5963009  24.1135064  72.2795351
  50.8779286  24.1387392  73.5365945  50.5543767  25.1248904  73.2035483
  50.1519995  23.4619015  74.4914243  49.2779865  23.9279209  74.9464269
  50.5342128  22.1875149  74.8729916  49.9420355  21.6368169  75.6038526
  52.9755571  21.2131911  76.9241643  53.7416321  22.1690764  77.0441912
  51.9645008  20.9834472  77.7577931  51.3907934  20.1590514  77.6513467
  51.6099137  21.9409590  78.7925859  51.4521131  22.9084223  78.3159173
  50.3078475  21.5319602  79.5254826  50.4531735  20.5692079  80.0154707
  50.0588757  22.2854513  80.2727205  49.4940277  21.4530305  78.8046728
  52.7563252  22.1049782  79.7920559  52.9814921  23.2014786  80.2822596
  53.4525046  21.0120251  80.0968046  53.1644409  20.1148240  79.7332818
  54.5606842  21.0506778  81.0450735  54.1831283  21.4825136  81.9719330
  55.0787012  19.6543931  81.3363678  55.4685273  19.2122972  80.4194780
  55.8742119  19.7091248  82.0795147  54.2659787  19.0373973  81.7196402
  55.6753327  22.0006934  80.5404516  56.2326316  22.7991001  81.3005894
  55.9453977  21.9522660  79.2310690  55.5187092  21.2809140  78.6087164
  56.9583158  22.8589324  78.6855472  57.8372330  22.8398005  79.3299368
  57.3748813  22.4659236  77.2906586  56.5011204  22.0208859  76.8146518
  57.6602467  23.3698489  76.7525270  58.5248437  21.4764838  77.2622106
  59.0504989  21.1346533  78.3486960  58.8905484  21.0739970  76.1460016
  56.4753304  24.3080133  78.6900626  57.2416343  25.2277937  78.9776167
  55.2005066  24.5428212  78.3211227  54.6028370  23.8192790  77.9477903
  54.7030888  25.9080096  78.3352685  55.3738707  26.5688472  77.7862289
  53.2899084  26.0208354  77.7239533  52.6129245  25.3618018  78.2675219
  52.7802738  27.4718183  77.8192167  53.4565426  28.1314279  77.2754552
  51.7828517  27.5364194  77.3843875  52.7403938  27.7755119  78.8652958
  53.2943565  25.5596235  76.2792690  53.6177717  24.5198625  76.2302614
  52.2893560  25.6468288  75.8663901  53.9791470  26.1802111  75.7013125
  54.7772129  26.4645351  79.7646975  55.1888186  27.6157933  79.9835265
  54.3506109  25.6631503  80.7320310  53.8706628  24.7978678  80.5294593
  54.4185918  26.1094203  82.1242579  54.0327809  27.1257360  82.2039540
  53.5938900  25.2089531  83.0134236  53.8675795  24.1683003  82.8395413
  53.7710617  25.4608609  84.0590109  52.1250085  25.4064956  82.6877839
  51.8939566  26.4683752  82.7722082  51.9529447  25.0781291  81.6627612
  51.2747929  24.6566379  83.5822239  51.5734946  23.6088576  83.5500864
  51.4080119  25.0410331  84.5934570  49.8485114  24.7520851  83.2249959
  49.4608861  25.6777698  83.1111805  49.0539104  23.7152909  83.0691081
  47.7686120  23.9132309  82.8504082  47.4064428  24.8549497  82.8045919
  47.1523295  23.1221972  82.7297380  49.5370342  22.4673399  83.1545467
  50.5189783  22.3208447  83.3400865  48.9167828  21.6795545  83.0329691
  55.8549303  26.2891040  82.6328359  56.1199885  27.1324565  83.4912960
  56.7618017  25.4541316  82.1390229  56.4801432  24.6483252  81.5991675
  58.1848358  25.6151105  82.4575585  58.3175672  25.6116028  83.5394408
  59.0229799  24.4706562  81.8548075  58.6710197  23.6145602  82.4304140
  58.7593886  24.3356614  80.8058099  60.5564371  24.5851139  81.9890214
  60.8697529  25.5013385  81.4885549  61.0162763  24.6180085  83.4453479
  60.7037059  23.7018405  83.9463816  62.1026290  24.6991551  83.4821424
  60.5710821  25.4765356  83.9481736  61.1917324  23.4331497  81.1835170
  60.8981711  23.5157729  80.1370494  62.2774486  23.4902585  81.2613643
  60.8491293  22.4782561  81.5821401  58.6959942  26.9824853  82.0142569
  59.4607328  27.6522044  82.7323316  58.3377991  27.3515416  80.7929795
  57.8469380  26.7163940  80.1800012  58.6718404  28.6863763  80.2874712
  59.7511578  28.8046518  80.1916381  58.0364569  28.8555512  78.9048275
  58.4704020  28.0920975  78.2591269  56.9686625  28.6693223  79.0198664
  58.2480847  30.2315510  78.2785287  57.8816457  30.9921947  78.9679084
  59.3142697  30.3802502  78.1075312  57.3778208  30.3787208  76.7247681
  55.7344150  30.7422130  77.3622285  55.7669662  31.6592393  77.9505330
  55.0414021  30.8691246  76.5305271  55.3981740  29.9187255  77.9922377
  58.1813569  29.8173316  81.2196017  58.9524584  30.6992552  81.6222421
  56.9145037  29.7607857  81.6310594  56.2586856  29.0698894  81.2954043
  56.4355294  30.7734952  82.5435818  56.6669701  31.7597174  82.1412137
  54.9229519  30.6721012  82.7493597  54.6847061  29.6653187  83.0924737
  54.5835023  31.3972841  83.4889431  54.1016151  30.9097320  81.5016203
  54.2911942  32.0490096  80.7615741  55.0245831  32.7902822  81.0789942
  53.5491636  32.2573133  79.6090789  53.7335146  33.1396453  78.9962121
  52.5683428  31.3402060  79.2336024  51.9340513  31.5482770  78.3719293
  52.4002877  30.1796321  79.9443708  51.7079881  29.4050119  79.6145448
  53.1340072  30.0036170  81.1046360  52.9568071  29.1318954  81.7345578
  57.1499030  30.6999766  83.9014987  57.5429760  31.7177816  84.4615136
  57.2627337  29.4848029  84.4402437  56.8441516  28.6875935  83.9827008
  57.8637692  29.2913356  85.7349721  57.3587185  29.9223746  86.4662811
  57.7534891  27.8363640  86.1867772  58.1657030  27.1873539  85.4141421
  58.3159377  27.7028386  87.1108565  56.3820400  27.4986329  86.4108194
  56.3200408  26.5835482  86.6943259  59.3037588  29.7904818  85.7608367
  59.7432035  30.3321929  86.7753988  60.0503396  29.5837384  84.6764381
  59.6998342  29.0674461  83.8822797  61.4283273  30.0880997  84.6256374
  62.0086019  29.6477753  85.4364980  62.0839708  29.7327339  83.3161460
  61.3184756  29.9268257  82.5648507  62.9480162  30.3696256  83.1266873
  62.5182373  28.2771850  83.2037713  62.6450045  27.5578418  84.2130648
  62.8284482  27.8726566  81.9725959  63.1256107  26.9199466  81.8172318
  62.7649862  28.5206095  81.2004363  61.4400484  31.6119431  84.8022922
  62.2946991  32.1746802  85.4935404  60.5125864  32.2836711  84.1357138
  59.8946751  31.7951009  83.5035871  60.4137919  33.7252545  84.2142431
  61.3750694  34.1820390  83.9788867  59.3812939  34.2227382  83.2139637
  59.6329171  33.8662096  82.2151282  58.3924543  33.8574342  83.4911805
  59.2346944  36.0005131  83.0836799  58.2810714  35.9938019  82.1566111
  60.0918138  34.1997744  85.6457127  60.7226369  35.0967998  86.1982293
  59.1072769  33.5503996  86.2692634  58.5314475  32.8889155  85.7683058
  58.7770804  33.8413842  87.6471677  58.6174634  34.9144563  87.7527031
  57.5119620  33.1103037  88.1093612  57.7968489  32.0592840  88.1572802
  57.2499928  33.4610769  89.1075748  56.3148778  33.2687314  87.1867891
  56.0224310  34.4689293  86.5698921  56.6530697  35.3382181  86.7562553
  54.9312926  34.5724208  85.7155733  54.7478976  35.5301548  85.2285273
  54.0923764  33.5174272  85.4867544  53.0077113  33.6745511  84.6242095
  52.9493076  34.5575178  84.2519751  54.3523699  32.3136312  86.1134917
  53.7119438  31.4494039  85.9372362  55.4446965  32.2088107  86.9779506
  55.6313482  31.2757872  87.5096728  59.9131605  33.5362227  88.6105162
  60.1383616  34.2821079  89.5824688  60.6281545  32.4400016  88.3597774
  60.4026259  31.8640985  87.5612965  61.7272395  32.0092742  89.2447323
  61.3726598  31.9510182  90.2737992  62.2444834  30.6183184  88.8219314
  61.4193336  29.9098900  88.8951184  62.5802483  30.6785145  87.7866834
  63.4057742  30.1450023  89.7099908  64.2327364  30.8478453  89.6087681
  63.0691355  30.1277084  90.7465608  63.8690568  28.7579029  89.3058530
  64.0715122  28.7967156  88.2355239  64.7981119  28.5706769  89.8442790
  62.8821359  27.6381513  89.5942682  61.9069914  27.9765933  89.2440529
  63.1994755  26.7763967  89.0070937  62.7879789  27.2552110  91.0202840
  62.4935221  28.0534806  91.5644905  62.1147747  26.5095877  91.1248875
  63.6913677  26.9411678  91.3448831  62.8622875  33.0396374  89.1984433
  63.3748371  33.4687357  90.2302110  63.2543537  33.4259708  87.9830279
  62.8013289  33.0706583  87.1531961  64.4074499  34.2949749  87.8198864
  65.2199439  33.9312250  88.4488846  64.8961394  34.3343000  86.3570378
  65.1065300  33.3035297  86.0718225  64.1031071  34.7314237  85.7234035
  66.1467747  35.1709459  86.1840436  67.3676729  34.6896274  86.6180183
  67.4214076  33.6839130  87.0348522  68.5022767  35.4579389  86.5302361
  69.4511984  35.0915655  86.9219248  68.4191219  36.7367014  85.9960520
  69.5525552  37.4937767  85.8945084  70.3352126  37.0428510  86.2196437
  67.2361023  37.2243323  85.5132986  67.1854292  38.2090370  85.0486597
  66.0909389  36.4482188  85.6209207  65.1357898  36.8337269  85.2643062
  64.1817436  35.7252590  88.3092390  65.0943200  36.3586600  88.8668675
  62.9862442  36.2466004  88.0377883  62.2520253  35.6400962  87.7013741
  62.7031510  37.6645766  88.1652939  63.6319727  38.2339371  88.1303918
  61.7970878  38.1308557  87.0126776  61.0070888  37.3798886  87.0196967
  61.3576689  39.1208655  87.1347089  62.4985234  38.0772909  85.6854041
  62.3780000  37.0900988  84.9136380  63.3467579  39.0280707  85.4838944
  63.8617113  39.0657084  84.6158470  63.4919087  39.7303409  86.1951247
  62.0405409  38.0412610  89.4780999  61.1985372  37.3187919  89.9475582
  62.3612577  39.2185878  90.0254904  63.4964757  40.0915852  89.6868627
  63.2594591  40.6947794  88.8104609  64.3849780  39.4930379  89.4858557
  63.6312681  40.9132373  90.9309157  64.1193797  41.8629631  90.7121305
  64.2058326  40.3752342  91.6849247  62.2072649  41.1173491  91.3835129
  61.7825025  41.8761412  90.7263140  62.0442163  41.4045731  92.4222704
  61.5500461  39.7621157  91.1068707  61.5660705  39.0817255  91.9582876
  60.1128180  39.9259024  90.6135329  59.8959724  40.2137850  89.4354656
  59.1313395  39.7176429  91.4945386  59.2698606  39.4247246  92.9340804
  59.8714866  40.2023092  93.4047275  59.7605974  38.4597324  93.0608335
  57.8900407  39.4152533  93.4141567  57.7485097  40.3323401  93.9860132
  57.7914495  38.5555367  94.0769300  56.9586115  39.3294256  92.3186777
  56.1048823  39.9954811  92.4436405  56.6076106  38.3004595  92.2404040
  57.7400057  39.7140709  91.0538670  57.6511973  38.9093481  90.3240502
  57.2401686  41.0165003  90.4369016  56.2601676  40.9964323  89.6777222
  57.9244461  42.1184210  90.7385127  58.6649434  42.0688183  91.4235694
  57.5452543  43.4319481  90.2219791  56.4864355  43.4407727  89.9632821
  57.8006330  44.5150728  91.2958379  57.2536747  45.4013126  90.9741005
  57.3965894  44.1642210  92.2454441  59.2663269  44.8610649  91.4677473
  60.1655423  44.0877046  91.0832015  59.5338561  45.9440265  92.0366157
  58.2211764  43.7652123  88.8565819  58.0514562  44.8526016  88.3138697
  59.0149380  42.8397857  88.3275809  59.2466849  41.9999671  88.8385579
  59.6426730  43.0558157  87.0426023  60.1069701  44.0419590  87.0356097
  60.7178897  42.0063448  86.7432533  60.5060713  41.1005199  87.3113320
  60.7395004  41.7706080  85.6792697  62.1009187  42.4303540  87.1151524
  63.2122542  41.9861341  86.4373530  64.2947709  42.5253346  86.9772172
  65.2849230  42.2911396  86.5862562  63.9180696  43.3111977  87.9734653
  64.5279553  43.8584220  88.5639608  62.5508523  43.2663476  88.0809621
  62.0453216  43.8489062  88.8511344  58.5582529  43.0862794  85.9537653
  57.5685090  42.3320158  85.9774984  58.7564106  43.9656661  84.9772723
  59.5410797  44.6012071  84.9992139  57.7987829  44.0837225  83.8775624
  56.8116359  44.3510484  84.2546259  58.2731710  45.1835528  82.9275717
  58.2796012  46.1107416  83.5006152  59.2927103  44.9288179  82.6381761
  57.4303651  45.3634056  81.6910474  57.8738743  46.1640882  81.0991794
  57.4717888  44.4307092  81.1284991  55.9753340  45.7061669  82.0009576
  55.6981521  46.2324053  83.1109812  55.1106447  45.4520511  81.1310222
  57.5999447  42.7683417  83.1268896  56.4991331  42.4438118  82.7083300
  58.6562207  41.9890143  82.9783807  59.5677641  42.2754184  83.3057348
  58.5536405  40.7483425  82.2083698  58.0099096  40.8793317  81.2727963
  59.9168743  40.1284473  81.8986335  60.5720437  40.9129671  81.5199766
  60.5489165  39.4911548  83.1431948  59.8944929  38.7061704  83.5221808
  61.5160044  39.0621095  82.8809705  60.6858612  40.2518405  83.9117682
  59.8156568  39.1407283  80.7656638  59.4514364  39.6479147  79.8722392
  60.7987273  38.7145300  80.5655962  59.1234632  38.3440636  81.0382334
  57.6168432  39.7557777  82.9109300  56.9637266  38.9623889  82.2477859
  57.5099765  39.8394881  84.2392440  58.1306213  40.4449065  84.7572863
  56.6070802  38.9776917  84.9844577  56.6218473  37.9295429  84.6856850
  56.8811693  39.0623578  86.5057272  56.9937385  40.1121983  86.7763971
  55.7315158  38.4383685  87.3300592  55.6186393  37.3883373  87.0602549
  55.9612574  38.5172684  88.3926476  54.8030171  38.9689764  87.1192345
  58.2357358  38.4680024  86.8018271  59.0026178  39.0231250  86.2616114
  58.4323161  38.5258478  87.8723923  58.2523942  37.4249774  86.4857223
  55.1465514  39.2876234  84.6220770  54.3317216  38.3820729  84.4152492
  54.8239326  40.5751752  84.5115800  55.4524299  41.3053035  84.8149002
  53.4776213  40.9534896  84.0803795  52.7951415  40.4408453  84.7582558
  53.2512967  42.4658814  84.2077887  53.9213192  42.9925716  83.5282540
  52.2179144  42.7018191  83.9537124  53.4536669  42.7790564  85.2320285
  53.1614049  40.4307312  82.6601764  52.0163515  40.0408490  82.3472090
  54.1597917  40.4778353  81.7820039  55.0352140  40.9111434  82.0388679
  54.0033559  39.9967575  80.4223061  53.1064808  40.4255895  79.9752968
  55.2126908  40.4055305  79.5798337  56.1039566  39.9795295  80.0405588
  55.0849991  39.9870120  78.5815165  55.3665275  41.9187261  79.4801576
  54.5629181  42.2882009  78.8431323  55.2501048  42.3264458  80.4843052
  56.9428952  42.4484368  78.8077615  56.4989873  42.1802385  77.1545282
  55.6376219  42.7994301  76.9040279  57.3350744  42.4423440  76.5061766
  56.2446120  41.1299790  77.0118765  53.7877573  38.4799108  80.3987624
  52.8836787  37.9870637  79.7050112  54.5985776  37.7454150  81.1602296
  55.3748910  38.1924010  81.6267490  54.4389117  36.2952676  81.3100748
  54.5826865  35.8128934  80.3432537  55.4781166  35.7291896  82.3037337
  55.3408685  36.1960697  83.2790726  55.3443489  34.6513197  82.3954013
  56.4832244  35.9403035  81.9386467  53.0312267  35.9695939  81.7765290
  52.3866865  35.0550955  81.2611005  52.5557632  36.7440340  82.7509011
  53.0909860  37.5195829  83.1144391  51.2642733  36.4592156  83.3484413
  51.2017713  35.4203984  83.6725577  51.1059029  37.3639002  84.5727422
  51.9910737  37.1987408  85.1869850  51.1116996  38.3865318  84.1955274
  49.8978290  37.1479295  85.3855049  49.0226274  37.4218103  84.7963426
  49.8380441  36.0935693  85.6554165  49.9426264  37.9986517  86.6583124
  50.1566480  39.0290500  86.3744586  48.9648843  37.9499795  87.1376357
  50.9597542  37.5545141  87.6186675  50.9536249  36.5687216  87.8383831
  51.8546429  38.3380180  88.2278249  52.7235626  37.8052754  89.0815099
  52.7026388  36.8122745  89.2648441  53.4005867  38.3960140  89.5427754
  51.8828684  39.6470999  88.0211468  51.2167783  40.0702112  87.3907494
  52.5703343  40.2153700  88.4950227  50.1454067  36.6848326  82.3430645
  49.1756274  35.9279914  82.2941012  50.2683464  37.7449433  81.5446335
  51.0099170  38.4191437  81.6696387  49.2588157  38.0063392  80.5178200
  48.2646505  38.0101381  80.9647209  49.5100188  39.3756668  79.8673701
  49.7967720  40.0542847  80.6707066  50.3495816  39.2467938  79.1842697
  48.3323608  39.9547513  79.1148140  48.6569358  40.8954323  78.6699869
  48.0692311  39.2515024  78.3246837  47.1227327  40.2026506  79.9933889
  46.7396156  39.2476033  80.3528400  47.4176470  40.8182634  80.8431805
  46.0561686  40.9062463  79.2144492  46.4223382  41.8913128  78.9252013
  45.8315965  40.3255519  78.3197646  44.8243847  41.0561593  80.0286363
  45.0321656  41.5945824  80.8575074  44.1180904  41.5324391  79.4860445
  44.4846806  40.1434707  80.2964046  49.2250565  36.8967842  79.4917445
  48.1605517  36.4379951  79.1139560  50.3900889  36.4109717  79.0872081
  51.2520515  36.8702549  79.3444605  50.4535638  35.3044297  78.1580215
  49.7507774  35.4717571  77.3418157  51.8687504  35.1628630  77.5676151
  52.0671616  36.1464775  77.1418983  52.5945321  34.9546454  78.3537362
  51.9843881  34.1042704  76.4761759  51.7066370  33.1375487  76.8961811
  51.0471812  34.4365439  75.2695080  51.3246408  35.4029806  74.8486575
  51.1497700  33.6654093  74.5060109  50.0128623  34.4732047  75.6114740
  53.4496957  33.9450246  76.0324097  54.0571898  33.6417375  76.8850921
  53.5133756  33.1855800  75.2531215  53.8176093  34.8948312  75.6443299
  49.9464894  34.0074851  78.7940973  49.2331424  33.2439290  78.1461621
  50.2340107  33.8248601  80.0772827  50.8796021  34.4256928  80.5695337
  49.7468719  32.6367982  80.7542869  49.9146582  31.7757681  80.1073138
  50.4399364  32.3855179  82.0896273  51.5159974  32.3859274  81.9158698
  50.1807796  33.2028593  82.7625989  50.0261943  31.0548840  82.7210011
  49.0529808  31.2076503  83.1874974  49.9410605  30.2945307  81.9446525
  50.9979261  30.5629710  83.7767642  51.7936982  31.3248070  84.3079127
  50.9473621  29.2575913  84.0605091  51.5699268  28.8704510  84.7552299
  50.2868251  28.6644508  83.5788695  48.2236679  32.6294129  80.8939478
  47.5930937  31.5744844  80.8048236  47.6472987  33.8066817  81.0897552
  48.1845471  34.6566222  81.1849634  46.1937382  33.8984969  81.1426402
  45.8326747  33.3257747  81.9968776  45.7131240  35.3457316  81.2852930
  46.2552267  35.8842863  80.5080011  44.6435168  35.3929541  81.0808173
  45.9965049  35.9765351  82.6237033  46.3051126  35.2453903  83.5975178
  45.8376988  37.2307570  82.6956551  45.5964936  33.3464474  79.8249026
  44.5952930  32.6438716  79.8357471  46.1693806  33.7504651  78.6887406
  46.8652859  34.4821533  78.7098947  45.7532298  33.2331880  77.3970406
  44.6846628  33.3975310  77.2582777  46.5234962  33.9377923  76.2301042
  47.5956537  33.8120976  76.3810296  46.1316322  33.3364672  74.9205976
  45.0596085  33.4621912  74.7687440  46.6728611  33.8334514  74.1155022
  46.3759876  32.2742092  74.9203446  46.2044216  35.4157821  76.2185102
  46.5057869  35.8605260  77.1669214  46.7443509  35.8981970  75.4037391
  45.1327891  35.5555632  76.0765034  45.9281491  31.7146007  77.3510752
  44.9937599  30.9731161  77.0004736  47.1205783  31.2543471  77.6781304
  47.8669101  31.8737306  77.9600030  47.3991019  29.8409327  77.5952489
  47.2688086  29.5023426  76.5673970  48.8471035  29.5382513  78.0343075
  49.4722202  29.8833127  77.2107415  49.1820038  30.0010646  78.9626101
  49.0958523  28.0692500  78.1742546  49.1494097  27.2730260  77.0566286
  49.0817827  27.7265652  76.0677764  49.2885323  25.9008395  77.1809876
  49.3485012  25.2881643  76.2814691  49.3499506  25.3209193  78.3973747
  49.4272011  24.2370005  78.4825347  49.3147797  26.1037496  79.5378161
  49.4302927  25.6569469  80.5252999  49.1296900  27.4739393  79.4132567
  49.0091506  28.0907902  80.3037987  46.4460762  28.9928191  78.4451709
  45.8653190  28.0223273  77.9840605  46.3348430  29.3322985  79.7185655
  46.8101637  30.1466311  80.0805489  45.5442013  28.5197532  80.6466241
  45.9077821  27.4922693  80.6330169  45.6530158  29.0592252  82.0782338
  45.3501868  30.1054776  82.0364047  44.9340926  28.4969791  82.6741607
  47.0431020  28.9545344  82.7211320  47.7097934  29.5298887  82.0787997
  46.9866492  29.4272730  83.7016576  47.5792615  27.5424412  82.8707543
  46.7880968  26.5628427  82.8836944  48.8028160  27.3957156  82.9992614
  44.0856033  28.5072507  80.2197650  43.4059235  27.4656793  80.3430749
  43.5877425  29.6501011  79.7215920  44.1211173  30.5077458  79.7140915
  42.2087645  29.6916238  79.2609255  41.5630725  29.2664213  80.0292899
  41.7489691  31.1151184  78.9716015  41.8859488  31.6913783  79.8866208
  42.3986985  31.5125393  78.1918527  40.2806380  31.2158052  78.5167345
  40.0757665  32.2609136  78.2846204  40.1707584  30.6153119  77.6137194
  39.1119423  30.6462582  79.7482599  39.4942798  31.7113807  81.1815048
  39.3447019  32.7560277  80.9086712  38.8354855  31.4551860  82.0112367
  40.5311893  31.5595836  81.4813006  42.0044250  28.8115991  78.0439988
  41.0814380  27.9691122  77.9955850  42.8795062  28.9453083  77.0513917
  43.6508412  29.5970070  77.0721379  42.7026629  28.1184677  75.8588247
  41.6905862  28.2484892  75.4755566  43.6915293  28.5041240  74.7641117
  44.6933904  28.3565202  75.1673321  43.5320218  27.8212137  73.9296712
  43.5511477  29.8938420  74.2947656  43.4879058  30.5341790  75.1745781
  44.4486376  30.1428632  73.7285480  42.3102795  30.1127820  73.4110935
  42.3161305  29.4986438  72.5105942  41.3739870  29.9605343  73.9480072
  42.4025346  31.5152749  73.0208927  42.8234300  31.6949802  72.1205303
  42.0271900  32.5508161  73.7630226  41.3347376  32.3819168  74.9020993
  41.0904012  31.4507530  75.2076051  41.0617337  33.1868936  75.4476091
  42.3037910  33.7694121  73.3347100  42.7911646  33.8951208  72.4590591
  42.0266276  34.5697982  73.8848565  42.8964563  26.6229882  76.1784654
  42.1627898  25.7641997  75.6661874  43.9050239  26.3108942  76.9832659
  44.5260325  27.0177992  77.3503259  44.1785785  24.9134858  77.3068080
  44.2879512  24.3294590  76.3929975  45.4673533  24.8171713  78.1007420
  46.2701311  25.4048236  77.6554198  45.2735134  25.1752209  79.1118436
  45.9858431  23.4118408  78.2339921  46.4424516  22.7067485  77.1260484
  46.4477580  23.1794189  76.1438801  46.8886078  21.4095491  77.2695214
  47.1967773  20.8521292  76.3849790  46.9472181  20.8194769  78.5075892
  47.3179087  19.8009208  78.6226187  46.5313909  21.5287785  79.6105166
  46.5753935  21.0634962  80.5952381  46.0628552  22.8152224  79.4780197
  45.7479601  23.3740343  80.3593086  42.9962385  24.2952293  78.0865112
  42.6074124  23.1497552  77.8394398  42.4222899  25.0571984  79.0158595
  42.8029086  25.9698740  79.2214122  41.2869572  24.5886635  79.8017881
  41.5882611  23.6389225  80.2437238  40.9494170  25.5544777  80.9155522
  40.6370873  26.5074829  80.4885496  40.1398035  25.1447843  81.5195205
  41.8277374  25.7082509  81.5424543  40.0433955  24.3504653  78.9711384
  39.2428843  23.4690039  79.3068101  39.8822961  25.1128979  77.8925224
  40.5626674  25.8376843  77.7139754  38.7209652  25.0083875  76.9927374
  37.8362928  24.7330915  77.5669030  38.4541311  26.3403862  76.2933691
  39.3856894  26.6162184  75.7991879  37.6899210  26.1414870  75.5420223
  37.9980358  27.4834843  77.1907144  38.6948467  27.5214222  78.0280413
  38.0867334  28.3973022  76.6032013  36.6164623  27.3602480  77.7046057
  35.9446177  27.2157603  76.8585282  36.5676005  26.4902135  78.3593972
  36.1916689  28.6174494  78.4886830  37.0149334  28.9549379  79.1183160
  35.9180499  29.4108033  77.7931103  35.0523528  28.2902304  79.3191423
  35.3058101  27.5554063  79.9640398  34.7669956  29.1090625  79.8370083
  34.2892439  27.9778897  78.7358696  38.8744084  23.8927508  75.9566491
  37.9762401  23.6635032  75.1529687  40.0282630  23.2360044  75.9220407
  40.8007853  23.5423829  76.4960100  40.2277975  22.0886006  75.0543936
  40.0961849  22.3897138  74.0151110  41.6274087  21.5164494  75.2212034
  42.3400228  22.3086572  74.9916664  41.7418853  21.2160498  76.2627192
  41.8866838  20.3354934  74.3280555  41.2522475  19.5197684  74.6747314
  41.5918780  20.6203555  73.3180826  43.6101051  19.7829688  74.3112683
  43.8766489  19.2682639  75.9954934  43.1810181  18.4672313  76.2455805
  44.8995090  18.9090153  76.1086235  43.7127642  20.1131228  76.6644153
  39.1736315  21.0298534  75.4088812  39.1563513  20.5495542  76.5335448
  38.2903289  20.6687070  74.4556993  38.0893894  21.2155314  73.0919572
  38.7330497  20.6941681  72.3834504  38.3236863  22.2799813  73.0796915
  36.6339671  20.9478673  72.8523852  36.4293853  20.8658132  71.7849057
  36.0225095  21.7430338  73.2789192  36.3878125  19.6380240  73.5634910
  36.7254184  18.8062109  72.9452610  35.3371226  19.4981369  73.8176211
  37.2216869  19.7113487  74.8300043  36.6891289  20.1662832  75.6651778
  37.7510631  18.3492369  75.2490999  38.7111207  17.8435726  74.6735775
  37.2059601  17.6892717  76.1653258 100.4284835  60.7736769  57.2437500
 100.5399465  61.3215346  56.4026026  99.8395353  59.9793504  57.0381152
 101.3367419  60.6338826  57.6628250  99.7064723  61.5403814  58.1708530
  98.7843224  61.0186754  58.4269031 100.5094217  61.7781552  59.4581062
 100.8817723  60.8125690  59.8003015 101.3513421  62.4243405  59.2096817
  99.6678141  62.4356022  60.5831271 100.2749630  62.4149502  61.4881379
  99.4932750  63.4699415  60.2868495  98.1568021  61.6747267  60.8981417
  97.5859211  62.2984354  62.5463785  97.4749707  63.3820521  62.5068322
  96.6266884  61.8443360  62.7949079  98.3197182  62.0364341  63.3086110
  99.3768224  62.8866083  57.6313994 100.2320777  63.4084380  56.8999712
  98.2350046  63.4609988  58.0360479  97.5826386  62.9114140  58.5768570
  97.8934709  64.8752637  57.7481248  98.0703855  65.1279054  56.7026715
  96.3765596  65.0354587  58.0480642  96.2264349  64.9292537  59.1224395
  96.0688155  66.0333411  57.7356152  95.5858452  64.0485225  57.3522060
  94.6575974  64.1774689  57.5603615  98.6375484  65.9566387  58.5995958
  98.8196644  65.8143864  59.8007215  99.0477388  67.0179561  57.9234781
  98.6052285  67.0556261  57.0163590 100.0687898  68.0342969  58.2469905
 100.0507380  68.1926132  59.3252804 101.4371681  67.6725196  57.8479979
 101.5600027  67.5580430  56.7710085 101.8944257  68.6088575  58.1678209
 102.1288933  66.4789372  58.5803116 102.0283330  66.3192530  59.9891010
 101.4292454  67.0208769  60.5695470 102.6937494  65.2675318  60.6319482
 102.6746849  65.2569845  61.7217312 103.2615757  64.1963721  59.9312320
 103.9125338  63.1591473  60.5524272 103.9347824  63.2488109  61.5079716
 103.2498519  64.2880454  58.5482842 103.7014703  63.4927863  57.9552377
 102.6723192  65.3754429  57.9204256 102.6182353  65.4111732  56.8323546
  99.5365984  69.3228713  57.5796342  99.1934244  69.3257060  56.4072155
  99.4984714  70.4179021  58.3232785  99.7681458  70.2533206  59.2825949
  98.9150729  71.7248084  57.9764527  98.9813987  71.8895294  56.9010146
  97.4249083  71.7679550  58.3924321  97.3574209  71.8773267  59.4748287
  96.9716915  72.6346412  57.9112360  96.6398766  70.5036927  57.9737579
  96.2808070  70.2955135  56.7765313  96.3441376  69.6023614  58.8621639
  95.8312380  68.7766179  58.5879715  96.6286032  69.7318962  59.8225809
  99.7786057  72.8915295  58.4365549 100.7944085  72.7667713  59.2430691
  99.3862522  74.0923026  58.0455414  98.6294516  74.1183930  57.3772065
 100.0272839  75.3270156  58.3956602 100.5291859  75.2781484  59.3619963
 101.0434167  75.5346243  57.3467032 101.8747140  74.8419943  57.4782623
 100.4936936  75.2740213  56.4422748 101.5788029  76.9492199  57.2229219
 100.9596488  77.7795811  56.2830200 100.0220846  77.4866223  55.8105286
 101.5656056  79.0136179  55.9477197 101.1509895  79.6621699  55.1759842
 102.5511098  79.4999978  56.8161879 103.1364927  80.6650418  56.5332297
 102.8045530  81.0654084  55.7263082 103.1089196  78.7026418  57.8055724
 103.9725784  79.0389785  58.3792200 102.5484682  77.4573347  58.0598034
 102.8754600  76.8786093  58.9236630  98.9390108  76.3938667  58.5575958
  97.8433894  76.2557907  57.9499487  99.2189544  77.3596683  59.4173428
 100.0884510  77.2855137  59.9258466  98.2300524  78.3453656  59.8699129
  97.6640038  78.8370329  59.0787420  97.2187581  77.7248427  60.8993905
  96.7059171  76.8877280  60.4257532  97.9143340  77.2551904  62.0980255
  98.4270688  78.0918966  62.5725008  97.1919550  76.8300706  62.7948342
  98.6428619  76.4932554  61.8208906  96.0315765  78.6356789  61.2362931
  95.4708210  78.8536874  60.3273774  95.3806039  78.1348509  61.9528862
  96.3984271  79.5667137  61.6683760  98.7581979  79.7492536  60.2861038
  99.7282421  79.7963118  61.0043271  98.2151239  80.8123259  59.6113742
  97.3948997  80.6867087  59.0355688  98.9289789  82.1159261  59.5471992
  99.3551578  82.5359614  60.4582651 100.0099898  82.1379861  58.4395946
 100.7341087  81.3683806  58.7069115  99.5210821  81.9003530  57.0382418
  98.7972190  82.6698872  56.7700251 100.3635398  81.9381965  56.3476382
  99.0474386  80.9204037  56.9793951 100.9478570  83.2725225  58.5271065
 101.4720706  83.2384208  59.4821663 101.6709909  83.2103777  57.7138937
 100.3947539  84.2085989  58.4500424  97.8997401  83.2285597  59.4793242
  96.8470237  82.9755379  58.9131216  98.0631011  84.4168703  60.1427470
  98.7055772  84.3413329  60.9183873  97.4210058  85.6754738  59.9135288
  96.3881672  85.4183780  60.1485722  97.9201326  86.7152683  60.9481151
  98.9912291  86.8470121  60.7948308  97.2351334  88.0342011  60.8271956
  96.1639811  87.9033237  60.9808300  97.6284839  88.7187406  61.5787142
  97.4114900  88.4460440  59.8335235  97.4295043  86.3138988  62.2166005
  97.7210385  86.9385694  62.8847283  97.6994727  86.1565563  58.4168452
  98.8529894  86.4165145  58.1230407  96.6775760  86.3675845  57.6445414
  95.7722478  86.0652897  57.9748414  96.7548466  87.0475124  56.3292512
  97.7345679  86.9347499  55.8649991  95.6703139  86.4725519  55.3556506
  94.6828127  86.5866205  55.8027858  95.7055505  87.0147153  54.4107075
  95.8669839  85.4157452  55.1751520  96.4802063  88.5308838  56.5209442
  96.9630455  89.3324795  55.7657835  95.8207127  88.9298121  57.5958690
  95.6261486  88.1722753  58.2349168  95.3553324  90.2385745  57.9343645
  96.0830422  91.0040026  57.6648138  94.0488622  90.4826958  57.1168081
  94.3562664  90.7372548  56.1025095  93.5049884  89.5381549  57.1048168
  93.1841960  91.5349204  57.6412502  92.4664569  91.6047607  56.8238924
  92.6638564  91.2590083  58.5584314  93.8366220  92.9139609  57.8418907
  94.5818841  93.3157739  56.9793197  93.7523831  93.5756536  58.9843353
  94.1951466  94.4788855  59.0750776  93.2456939  93.1745454  59.7605309
  95.0627278  90.4187508  59.4682892  94.2417898  89.7363435  60.0658736
  95.9015010  91.2867954  60.0707443  96.6674399  91.6360156  59.5126384
  95.9187822  91.5466010  61.5220859  96.0823493  90.6325156  62.0928686
  97.0569744  92.4774512  61.7760906  97.2219998  92.4763958  62.8535250
  97.9247371  92.0476720  61.2757129  96.8519251  93.9034682  61.2972856
  96.9734974  93.9841508  60.2170952  95.8706622  94.2836411  61.5813520
  97.9197954  94.7105749  61.9833475  97.6903744  94.7063440  63.0489211
  98.8672209  94.1988499  61.8141679  98.0288981  96.1987557  61.4756785
  98.7499907  96.7027694  62.1191816  98.4159648  96.1603818  60.4574418
  96.7042951  96.9711418  61.4898320  96.3456778  97.0071863  62.4333330
  96.8586824  97.9104385  61.1522135  96.0361090  96.5045126  60.8932722
  94.5582136  91.9084756  62.1447300  93.5843004  92.3167667  61.3896005
  94.3549876  91.7489409  63.4384510  95.3321334  91.2370135  64.3350409
  96.0467966  92.0368525  64.5289850  95.8374236  90.4134174  63.8305904
  94.5860807  90.7767751  65.6217981  95.2075661  90.8792390  66.5113801
  94.2342026  89.7482608  65.5415389  93.3864840  91.7759091  65.6461893
  93.6507272  92.6771656  66.1993720  92.5071477  91.3173184  66.0984745
  93.0953893  92.1318236  64.1695692  92.2900489  91.5263823  63.7536774
  92.7180451  93.6442633  64.0616276  93.7133363  94.4295450  64.1779948
  91.4439217  94.0216984  63.9522238  90.6881007  93.3530826  63.9944963
  91.1115496  95.4296417  63.7914899  92.0052743  96.0484679  63.8715506
  90.4581828  95.6910157  62.4414794  90.1347685  96.7314861  62.4110696
  91.4601501  95.4142544  61.2445055  91.7836612  94.3737875  61.2739842
  90.9585458  95.6115381  60.2971030  92.3281303  96.0668781  61.3382774
  89.2970018  94.9457311  62.1485144  88.9714860  95.1891642  61.2788132
  90.1160652  95.9525312  64.8364346  89.9367472  97.1692365  64.9023226
  89.4423084  95.1042341  65.6074527  89.5442362  94.1368130  65.3357793
  88.4791988  95.4286742  66.6228893  87.9649604  96.3090228  66.2373449
  87.4887393  94.3516372  66.8183047  87.9871646  93.4661361  67.2127156
  86.7256483  94.6825087  67.5228019  87.0210343  94.1098769  65.8638923
  89.1880032  95.9021600  67.9246529  90.0664454  95.2861093  68.4770555
  88.7133853  97.0408251  68.4890745  88.0285001  97.6307240  68.0384627
  89.2962447  97.4950423  69.7598768  90.3354539  97.1926766  69.8891762
  89.2130057  99.0030392  69.8750706  88.1901381  99.2978337  69.6406833
  89.5851030  99.5167421  71.2673217  90.6080689  99.2227126  71.5022434
  89.5063892 100.6037160  71.2871294  88.9063274  99.0903028  72.0059114
  90.0540762  99.7563595  68.8432029  89.7202509  99.4930757  67.8395375
  89.9391987 100.8297678  68.9938597  91.1029888  99.4838195  68.9598440
  88.6397485  96.8034047  70.8939774  87.5051156  97.2026268  71.3011564
  89.2770300  95.8218676  71.4776248  90.1314737  95.4726839  71.0676297
  88.7451852  95.1421856  72.6230437  87.6581487  95.0844611  72.5671979
  89.3229023  93.6863531  72.6531887  90.3952800  93.8803068  72.6311146
  89.0704826  93.1469100  73.5660882  88.9719712  92.8413785  71.4931425
  89.6821458  92.6172590  70.5094497  87.7590006  92.4100088  71.4436406
  87.4642911  91.8280673  70.6725438  87.1085524  92.6558221  72.1761662
  88.9790125  95.8731116  73.9410350  88.1928113  95.6241083  74.8820801
  89.9403345  96.7382447  73.9726387  90.5764317  96.8536881  73.1966539
  90.1204376  97.5491729  75.1099774  89.1406274  97.9425476  75.3807680
  90.4855521  96.9034851  75.9086501  91.0784055  98.6988272  74.9322264
  91.9188514  98.7365885  74.0727185  90.8389552  99.7670057  75.6951545
  90.0682492  99.7468203  76.3476147  91.7001793 101.0004216  75.6460294
  92.7060511 100.7164223  75.3367312  91.1606349 102.0505788  74.6596306
  91.7754566 102.9490836  74.6068795  91.0042181 101.6584715  73.6546999
  89.5674060 102.5777579  75.2355452  89.3414782 103.4406262  74.2489789
  91.8029157 101.7632312  76.9999322  90.9234511 101.7780641  77.8871779
  92.8259314 102.5568643  77.1308116  93.4979974 102.6924322  76.3891594
  93.0620460 103.2378728  78.4265092  92.1919351 103.7615707  78.8224216
  93.5805111 102.2141549  79.5234776  92.9214797 101.3475880  79.4701978
  95.0283717 101.7612971  79.3704889  95.6880811 102.6273266  79.4241317
  95.2782359 101.0647404  80.1707870  95.1553233 101.2676236  78.4070205
  93.4247747 102.6131597  80.9706370  92.3690898 102.7672375  81.1940007
  93.8194920 101.8237172  81.6102295  93.9731032 103.5371111  81.1543500
  94.0477533 104.3669675  78.2235823  94.9505217 104.2200805  77.4086047
  93.9602249 105.4692580  79.0188385  93.1779228 105.5756822  79.6487406
  94.9889246 106.4844798  79.0262224  95.9823174 106.3576502  78.5958919
  94.3540350 107.7876493  78.4416495  95.1056165 108.5518183  78.6398194
  93.9342390 107.8568308  76.9828653  93.1822790 107.0932064  76.7840347
  93.5167360 108.8410905  76.7706787  94.8021495 107.6858885  76.3459896
  93.3500960 108.4892380  79.1962166  93.0627678 109.2624261  78.7050719
  95.5365370 106.8649185  80.4343833  94.9221117 106.7882738  81.5191105
  96.7260379 107.3738762  80.2987790  97.1649767 107.4820265  79.3955982
  97.4677064 107.8104381  81.4910640  96.9129142 108.6301523  81.9475434
  97.5094843 106.9702665  82.1842203  98.8703741 108.2724804  81.1959295
  99.1617730 108.5361135  80.0473329  99.7184982 108.4298970  82.2082864
  99.3666865 108.0896820  83.0917917 101.0737357 109.0014269  82.1706317
 101.2413607 109.5173244  81.2251949 101.2388698 110.0492293  83.3583248
 100.6544017 109.6094969  84.1664905 102.2385247 110.2875681  83.7216217
 100.5804887 111.3617166  83.0144100 100.3633558 112.3642642  83.9678940
  99.7691732 113.3523564  83.3382410  99.3904963 114.2023504  83.9058790
  99.7481879 113.0941686  82.0267945  99.4027476 113.7065709  81.3017192
 100.2619533 111.8845127  81.8229347 100.3554619 111.4959271  80.8088546
 102.0750952 107.8037943  82.3745174 102.4544706 107.4419733  83.4658601
 102.3815683 107.0850720  81.2990476 102.1489580 107.4553314  80.3886082
 103.0700741 105.7216912  81.3729024 103.0527708 105.2853134  82.3715887
 102.1925779 104.8131040  80.4058684 101.2149109 104.6318477  80.8524247
 102.0657113 105.3114383  79.4447920 102.8234181 103.3876353  80.0989585
 102.9551605 102.4304556  81.1492770 102.6088411 102.6415425  82.1610107
 103.5645544 101.1568135  80.8456477 103.6498578 100.4045257  81.6297952
 104.0331873 100.8897398  79.5862114 104.4774733  99.9144503  79.3874147
 103.9473412 101.8675052  78.5367628 104.4130212 101.6837225  77.5685344
 103.2588760 103.0633171  78.7659866 103.0554494 103.7424034  77.9380015
 104.5098448 105.7782385  80.9139627 105.3167950 104.8668845  81.1367323
 104.8391057 106.8865210  80.1545702 104.2211420 107.6698528  79.9976893
 106.2119628 106.9331019  79.5545339 106.6508053 105.9590381  79.7706733
 106.0904999 107.0858761  78.0587278 107.0954157 107.0987766  77.6367348
 105.2851002 105.9481019  77.4239126 104.2798516 105.9348580  77.8451008
 105.2250515 106.1019163  76.3464924 105.7764474 104.9967215  77.6277603
 105.3250948 108.2061050  77.7272052 105.2634426 108.2802566  76.7720608
 107.0319066 108.1033410  80.0527493 108.2668008 107.9795564  80.1160710
 106.3580872 109.1713045  80.5367715 105.4600039 109.2204729  80.0772845
 106.7111862 110.2360880  81.5043696 106.4753625 109.9307617  82.5238117
 108.2556621 110.4946405  81.4029263 108.7926582 109.6079360  81.7398085
 108.5186168 110.7061096  80.3664729 108.6065950 111.5816212  82.2020916
 109.5519420 111.7351926  82.1362526 105.9475679 111.5364363  81.3235614
 105.3484071 111.7486486  80.2703182 105.6861675 112.1958746  82.4964318
 106.3407906 112.0866904  83.2577772 104.5034839 112.9996691  82.7184829
 103.6231539 112.3569790  82.7102477 104.6558502 113.6090284  84.1276205
 105.5280911 114.2623525  84.1491488 103.7642140 114.1860347  84.3728732
 104.7830481 112.8098307  84.8578280 104.2804157 114.0767871  81.7055330
 103.1510782 114.4278578  81.4726507 105.2755957 114.6246529  80.9695026
 106.2259187 114.3439238  81.1648912 105.0488970 115.6538492  79.9394548
 104.6034819 116.5560619  80.3586407 106.4048781 116.0004356  79.3827877
 106.2046070 116.8098675  78.6807829 106.9519864 116.3912789  80.2407003
 107.2352757 114.9318467  78.6981866 106.4711635 114.2426133  78.3387555
 107.7247529 115.4064696  77.8477489 108.2742118 114.1593694  79.5196588
 108.0725025 113.7919516  80.6855621 109.3789077 113.9855834  78.9276873
 104.0837136 115.2731298  78.7862043 103.3936110 116.1252896  78.2044129
 103.9892158 114.0024784  78.4969135 104.6285582 113.3862792  78.9782027
 103.0099029 113.3935193  77.5045543 102.6348663 114.1871523  76.8583396
 103.6504766 112.2845139  76.6121495 103.8674241 111.4108470  77.2267544
 102.8606441 112.0411120  75.9015017 104.8765473 112.6863893  75.8718403
 105.7808793 111.9105477  75.6657565 104.9440531 113.8133580  75.4008938
 101.8206949 112.7505658  78.2045086 102.0666287 112.1335879  79.2430368
 100.6264351 112.7994357  77.6908119 100.4794487 113.5356211  77.0151453
  99.4324771 111.9505213  78.1043705  99.6640682 111.4360011  79.0369656
  98.1767972 112.8037965  78.3145381  98.3078101 113.4496582  79.1827533
  98.1901556 113.4080999  77.4074885  96.8003302 112.0532817  78.4233313
  96.5640592 111.6176712  77.4524964  96.8540086 110.9464778  79.4793605
  97.0897907 111.3814079  80.4506182  95.8872089 110.4457571  79.5311101
  97.6233053 110.2230089  79.2094054  95.8122383 113.0862470  78.9676024
  95.7518164 113.9296469  78.2797614  94.8276909 112.6296949  79.0692285
  96.1520723 113.4365587  79.9422273  99.3111083 110.8622231  77.0419399
  98.9509345 111.1153488  75.8727602  99.7107761 109.5957188  77.3932053
 100.0184840 109.4971440  78.3501265  99.6869554 108.3662944  76.5193848
 100.0818123 108.6398488  75.5409395 100.5213123 107.1774807  77.0776225
  99.9318657 106.9414609  77.9635947 100.5239016 106.3200998  76.4045762
 101.9428846 107.4603719  77.5047134 102.2319192 107.7517483  78.6429457
 102.8083537 107.5401784  76.5543923 103.7767618 107.7272758  76.7718323
 102.5145937 107.4152901  75.5961602  98.2324849 107.7596053  76.3607090
  97.4147737 107.7964824  77.2996225  97.8711085 107.2951894  75.1769139
  98.5143470 107.4896632  74.4229088  96.6740028 106.4734178  74.8843468
  96.0050271 106.4919410  75.7447116  95.8931166 107.0178067  73.6270042
  95.3765786 107.9517393  73.8484939  96.7557129 107.2218842  72.9926700
  94.9210418 106.0497154  72.8861319  95.4726641 105.1670710  72.5624769
  93.8031958 105.6334515  73.8058550  93.2507933 106.5155797  74.1295833
  93.1304000 104.9575084  73.2780790  94.2183053 105.1256051  74.6764161
  94.1295269 106.8222529  71.7784766  94.8301618 107.2444328  71.0580779
  93.4540449 106.1356856  71.2681331  93.5524227 107.6253590  72.2368109
  97.3123086 105.0857295  74.5344729  98.0286397 104.9416778  73.5314605
  96.8591685 104.0100061  75.1758661  96.2737845 104.2872587  75.9508216
  97.1311008 102.5529673  74.9786717  97.8686479 102.4342081  74.1849339
  97.6733266 101.8837131  76.2602394  96.8285885 101.9085910  76.9486418
  97.9277488 100.8479444  76.0354004  98.8587436 102.5656190  76.8950125
  99.4236206 103.0689122  76.1103401  98.4419334 103.5644920  77.9279225
  97.8773625 103.0618300  78.7132182  99.3267632 104.0321187  78.3597815
  97.8175741 104.3282918  77.4643649  99.8050225 101.5291229  77.5137466
 100.1600037 100.8513427  76.7374079 100.6553612 102.0380011  77.9676942
  99.2731270 100.9603963  78.2764629  95.8162814 101.8565469  74.4748121
  94.7096067 102.0405359  75.0148030  95.9645438 100.9969645  73.4430096
  96.9151907 100.8936809  73.1178907  94.8962353 100.2214930  72.7568062
  93.9828111 100.2813896  73.3485560  94.6368529 100.8359566  71.3251497
  95.6095705 101.1293404  70.9303755  93.9393133  99.8887400  70.3234830
  92.9662657  99.5952733  70.7173820  93.8055292 100.4012070  69.3708131
  94.5533372  99.0005378  70.1745851  93.6939722 102.0780674  71.5907487
  92.6597015 101.8815892  71.3082930  93.7297371 102.4116963  72.6278177
  94.2713508 103.1668469  70.6851295  94.2354926 102.8341059  69.6477783
  93.6851244 104.0793149  70.7939414  95.3055296 103.3642114  70.9673019
  95.2572435  98.7132346  72.5781599  96.2897702  98.3089990  72.0589178
  94.2881976  97.8727075  72.9902282  93.5331651  98.2498493  73.5450159
  94.3045532  96.4317834  72.7278582  95.2978594  96.1372944  72.3891575
  94.0209987  95.7472604  74.0503491  93.0260052  96.0252213  74.3979489
  94.0704646  94.6663886  73.9185558  94.7623471  96.0572694  74.7868246
  93.3066297  95.9821518  71.6473208  92.1487426  96.3089005  71.6834299
  93.8114957  95.1441267  70.6700449  94.8113122  95.0064503  70.6311662
  92.9836840  94.4961431  69.6569866  91.9272002  94.6407165  69.8829060
  93.2890716  95.1306381  68.2411602  94.2314888  94.7181105  67.8809243
  92.4853978  94.8465054  67.5618391  93.3924687  96.6890580  68.3024332
  92.4785205  97.1170634  68.7142715  94.2425477  96.9921865  68.9136458
  93.5851040  97.1784661  66.9045707  94.3679213  96.5782654  66.4408302
  92.6495875  97.0349345  66.3639165  93.9895744  98.6921355  66.8555654
  93.0987567  99.2826504  67.0696602  94.7341718  98.8638815  67.6328538
  94.5342688  99.0873078  65.5677032  93.8443091  98.9286464  64.8473686
  94.7771053 100.0673962  65.5913081  95.3599734  98.5405392  65.3693223
  93.2013233  93.0038457  69.6249439  94.2146869  92.5710009  68.9809248
  92.4309565  92.1029884  70.2304751  91.5555806  92.4821732  70.5621909
  92.7629801  90.7083405  70.5731680  92.1668681  90.3832163  71.4258367
  92.4585224  89.7671205  69.3629116  91.4700212  89.9778458  68.9547946
  93.2054717  89.8698083  68.5757509  92.4802680  88.3001109  69.8806053
  91.9476552  88.0462646  70.9112186  93.0757453  87.3565278  69.2208844
  93.0733502  86.4131928  69.5817349  93.5393230  87.5690796  68.3490941
  94.1991495  90.5044106  71.1055494  94.4175683  90.4891511  72.2751803
  95.2219181  90.3313328  70.2119334  94.9696158  90.4264910  69.2385949
  96.5959913  90.0072017  70.5367269  96.9011488  89.9134831  71.5789337
  97.0207535  88.7748740  69.8013764  98.1107522  88.7744262  69.7997008
  96.5117023  87.4577369  70.3884894  95.4217037  87.4572538  70.3900657
  96.8740142  86.6259632  69.7843522  96.8760426  87.3498624  71.4101155
  96.8042885  88.9474504  68.3625921  97.0794733  88.1525444  67.8999928
  97.6066686  91.1169345  70.2033867  98.7887441  90.8939112  70.3070308
  97.1206432  92.3595373  69.9136445  96.1163872  92.4584581  69.9558789
  97.8911300  93.4925240  69.5724462  98.9329594  93.1925801  69.4596438
  97.4204629  94.1367993  68.2586077  96.4230674  94.5458335  68.4198296
  98.1086383  94.9452766  68.0118707  97.3787756  93.1230198  67.0937475
  96.6588545  92.3563752  67.3802271  97.0036504  93.6672495  66.2270311
  98.7019932  92.4686383  66.7455221  99.0402796  91.9058602  67.6155463
  98.5324391  91.7843029  65.9142364  99.7473461  93.4167986  66.3657388
  99.3824995  94.3454059  66.2086565 101.0626927  93.2281894  66.2807629
 101.4619148  92.0359342  66.4136093 100.7920351  91.2971686  66.5735677
 102.4487826  91.8280303  66.3591350 101.8825659  94.1892633  65.9950709
 101.5267359  95.1196823  65.8283208 102.8738786  94.0037727  65.9403793
  97.8050993  94.5781231  70.6595177  96.6834798  94.7575627  71.1898157
  98.9197743  95.1954929  70.9084260  99.8038599  94.8694648  70.5448362
  98.9319018  96.3123393  71.9284261  97.9196425  96.6520551  72.1475686
  99.5520010  95.7751194  73.2087061  98.7806437  95.1826408  73.7007183
 100.3386868  95.1150070  72.8433607 100.1365658  96.7561316  74.1936235
 100.6222682  97.5439044  73.6177695  99.0814469  97.3880911  75.1508786
  98.5956158  96.6009183  75.7274425  99.5760523  98.0825994  75.8299401
  98.3336915  97.9233648  74.5656912 101.0852097  96.0209746  75.0447691
 101.8720695  95.5907863  74.4251813 101.5272878  96.7035335  75.7705662
 100.5600488  95.2232073  75.5700048  99.6075987  97.5826602  71.2278782
 100.7274549  97.4662093  70.7289219  98.9251757  98.6861331  71.0910405
  98.0641030  98.7322024  71.6169024  99.3754540  99.9045509  70.3678971
 100.3476160  99.7160075  69.9124285  98.3858979 100.2971621  69.2653105
  97.4026629 100.4122222  69.7215005  98.7071423 101.2523216  68.8498921
  98.3092126  99.2382378  68.1298966  99.2800143  99.0403252  67.6755009
  98.0017529  98.3745670  68.7195071  97.2697156  99.5012077  67.0248492
  96.6277556 100.5822421  66.9969944  97.2605520  98.6574053  66.1073491
  99.3174564 101.1344721  71.3163602  98.5319092 101.1111666  72.2836556
 100.2120882 102.0849893  71.0538568 100.7277421 102.0355629  70.1868174
 100.5057181 103.1853439  71.9745067  99.6717332 103.3862316  72.6469742
 101.7935734 103.0242249  72.7917112 102.6104947 102.7851091  72.1108560
 102.1244504 104.2973800  73.5517510 101.3081384 104.5369019  74.2331940
 103.0422569 104.1527933  74.1216866 102.2606860 105.1171937  72.8464535
 101.7260701 101.7540962  73.7154869 101.0106186 101.9923056  74.5025613
 101.3284348 100.9513465  73.0945371 103.0529232 101.3026379  74.3487476
 103.4509614 102.1047545  74.9702574 102.8807406 100.4189494  74.9631962
 103.7687788 101.0637974  73.5622326 100.6111282 104.4995339  71.1233650
 101.3736765 104.5746122  70.1201859  99.9179084 105.5214453  71.5411994
  99.4831447 105.4571160  72.4505627  99.7377140 106.7810241  70.7571968
 100.5666751 106.8820872  70.0566906  98.4269820 106.7923418  69.9684036
  97.8027239 106.6225950  70.8456648  98.2434699 107.7944829  69.5809290
  98.1007405 105.8050080  68.9398612  98.1657497 106.1688458  67.5736326
  98.4750928 107.1730830  67.2839534  97.8270974 105.2223879  66.5843474
  97.8973098 105.4975309  65.5319842  97.3813071 103.9341793  66.9485116
  97.1040443 102.9758135  66.0185184  97.2447703 103.2756487  65.1174664
  97.2283254 103.5974914  68.3178584  96.9056372 102.5942676  68.5962733
  97.4901795 104.5483020  69.3096132  97.2341260 104.3374880  70.3479263
  99.7041836 108.0607064  71.6455086  99.5325834 107.8879463  72.8527258
 100.0544160 109.2300339  71.1261738 100.3146929 109.2414483  70.1503536
  99.9167284 110.5500974  71.8456940  99.2906417 110.5847065  72.7372751
 101.3038879 111.0783171  72.2028585 101.2604704 112.1427351  72.4335716
 101.7594444 110.3433543  73.3803503 101.8035627 109.2788313  73.1502522
 102.7508943 110.6939757  73.6670423 101.0642586 110.5081023  74.2035614
 102.4390720 111.1963049  71.1514780 102.1250653 111.8656300  70.3505375
 103.3353328 111.5948119  71.6268815 102.6553354 110.2114671  70.7374423
  99.3809134 111.5704885  70.7795137  99.6250288 111.4417773  69.5306963
  98.6890260 112.6266868  71.2686477  98.4471874 112.5713103  72.2477018
  98.0810600 113.7302339  70.4446003  97.8137756 113.3202922  69.4706363
  96.7670901 114.2202845  71.1623102  96.9889827 114.8336882  72.0355792
  96.0104178 115.1012457  70.0740527  95.7877626 114.4883611  69.2006124
  95.0806249 115.4820133  70.4966657  96.6439019 115.9375736  69.7784936
  95.7766214 113.1103889  71.5874414  96.2681512 112.4314705  72.2842702
  94.9100939 113.5616238  72.0707807  95.4528156 112.5550046  70.7072148
  99.1589516 114.7900431  70.0915149  99.8373987 115.3795150  70.9732849
  99.3054833 115.1001216  68.8001061  98.7274568 114.6274015  68.1200176
 100.3736253 116.0282217  68.3030912 100.6788393 116.5502955  69.2099443
 101.6284545 115.2952474  67.6981439 102.2461021 116.0886544  67.2772912
 102.4635299 114.4456842  68.6234409 101.8466344 113.6517228  69.0443505
 103.2906106 114.0057491  68.0662212 102.8576422 115.0647983  69.4293403
 101.2173088 114.3268920  66.7938717 101.9862462 113.8833780  66.4283161
  99.8776192 117.0683682  67.2900614  98.7348570 116.9865781  66.8397917
 100.6685268 118.0238018  66.8084072 101.6153871 118.1401750  67.1400879
 100.1060499 119.0624897  65.8870972  99.3365015 119.5740403  66.4652065
 101.1969477 120.0799917  65.5121498 101.9702718 119.5845889  64.9250842
 100.7564605 120.8860502  64.9253441 101.6382609 120.4913999  66.4199412
  99.3680504 118.4420833  64.6271902  98.2742144 118.8677238  64.1857221
  99.9249153 117.4411435  63.9845946 100.8618225 117.2007843  64.2753378
  99.3910380 116.8202416  62.7450807  98.7777135 117.5367013  62.1986213
 100.5685327 116.3783282  61.8339947 101.3247523 115.8656301  62.4284456
 100.2034319 115.7084849  61.0554632 101.1828719 117.6196356  61.1901868
 101.8159732 117.2855284  60.3682040 100.3316058 118.1713639  60.7913871
 101.9822384 118.5202543  62.1088239 102.6185924 118.0708752  63.1117327
 102.0974464 119.7490741  61.9217679  98.3454374 115.8043242  63.0584192
  97.8927245 115.1261477  62.1406411  97.9605789 115.5763055  64.3315105
  98.3941471 116.1508563  65.0400368  96.9902496 114.5874704  64.7492415
  96.1989896 115.0860088  65.3091221  96.5656882 114.1153700  63.8632571
  97.6204266 113.5138183  65.6298305  98.5838790 113.7292507  66.3370685
  97.0560376 112.2660907  65.6237547  96.4747231 111.9882554  64.8459499
  97.3152230 111.3022054  66.6601335  97.4078895 111.7501007  67.6495282
  96.0611487 110.4098970  66.6396495  95.2256408 111.0612135  66.8961891
  95.9304910 110.0349341  65.6245478  96.1068926 109.2607324  67.5924381
  97.1321708 108.9029369  67.6867131  95.5926619 109.7301245  68.9816630
  94.5672111 110.0876542  68.8882713  95.6235372 108.8955191  69.6820781
  96.2260192 110.5369232  69.3504920  95.2892288 108.0539038  67.1753523
  95.6528615 107.6813640  66.2177068  95.3844491 107.2719008  67.9286820
  94.2417332 108.3396409  67.0794039  98.5489590 110.5474444  66.1754128
  98.4884860 109.7025158  65.2568745  99.6320501 110.7507521  66.8615189
  99.6231174 111.4456172  67.5944460 100.9164258 110.0935529  66.5336494
 101.0214622 109.9129420  65.4638615 102.0272434 111.0807463  66.9813809
 101.7771488 112.0635785  66.5818902 102.0169551 111.1185179  68.0706777
 103.4395396 110.6685341  66.4922299 103.7009087 109.7357798  66.9919862
 103.3783423 110.4993655  65.4171769 104.4831244 111.6916091  66.7745370
 104.3070567 112.0899585  67.7737452 105.4562521 111.2014179  66.7456503
 104.4892445 112.8438903  65.7855074 103.6689576 112.7968464  65.1981271
 105.3825178 113.7392724  65.5257001 106.4606615 113.7906367  66.2358635
 106.5978306 113.1312525  66.9885235 107.1611873 114.4899308  66.0349877
 105.1174648 114.6805291  64.6285604 104.2234469 114.6886220  64.1587023
 105.8109756 115.3844750  64.4197502 100.9571423 108.6789412  67.1877417
 100.7302143 108.5586054  68.3928305 101.3837831 107.6251625  66.4779396
 101.6329026 107.5907312  65.0480938 102.5122078 108.2149617  64.8891634
 100.7648471 108.0628182  64.5879715 101.8305016 106.2078459  64.5855056
 102.8678504 106.0173043  64.3103685 101.1816638 105.9668055  63.7434780
 101.4211097 105.4010771  65.8505082 102.1581119 104.5980040  65.8499891
 100.4194610 104.9742495  65.9016711 101.6597858 106.3322171  67.0603474
 101.0354419 106.1573011  67.9365308 103.1504537 106.3504302  67.4843941
 104.0778551 106.5825584  66.6937209 103.3362745 105.9404999  68.7513818
 102.5081224 105.8790122  69.3262580 104.6435791 105.7406977  69.3900356
 105.5518566 106.1419382  68.9404388 104.5632773 106.2250392  70.8626166
 103.6841203 105.7535193  71.3017648 105.7916299 105.9006617  71.7105635
 106.6711725 106.3722571  71.2722674 105.6446472 106.2770624  72.7228970
 105.9368846 104.8208546  71.7424903 104.0655407 107.7213859  70.9004991
 103.0784625 107.7881950  70.4429893 104.0096250 108.0601590  71.9350066
 104.7641061 108.3512592  70.3497117 105.2699529 104.3139183  69.2773610
 106.3736739 104.0558540  68.8356000 104.5283984 103.2757682  69.7068878
 103.7207801 103.5034157  70.2690521 104.9642042 101.8513579  69.6397351
 105.4992695 101.6509409  68.7114908 105.9133465 101.5832491  70.8226453
 106.7349517 102.2836622  70.6726927 105.3395874 101.8796567  71.7007359
 106.4681560 100.1937983  71.0296567 106.8652278 100.1236335  72.0423322
 105.6598491  99.4730448  70.9061399 107.5693774  99.8926325  70.0338271
 107.2603781 100.1939762  69.0329223 108.4784030 100.4273248  70.3092832
 107.8329183  98.4178540  70.0519553 108.2706281  98.1411885  71.0111044
 106.8940587  97.8817048  69.9134425 108.7796276  98.0585008  68.9496446
 109.6498149  98.5548745  69.0780464 108.9537928  97.0637714  68.9663742
 108.3740427  98.3143931  68.0607582 103.7774461 100.9174699  69.4081831
 102.7884765 101.0757243  70.1269623 103.9113025  99.8664545  68.5832522
 104.7064066  99.9211796  67.9628379 102.9598659  98.6915250  68.4328652
 102.2140130  98.6607844  69.2271307 102.2563483  98.9091631  67.1208688
 101.6593772  99.8176917  67.2002451 103.0117681  99.0379694  66.3457238
 101.3377111  97.7191733  66.7528322 101.8704338  96.7874692  66.9431862
 100.5540494  97.8480817  67.4993952 100.7147342  97.6720441  65.3682934
 100.5265029  98.7506982  64.7674346 100.5285829  96.5878271  64.8533330
 103.7540306  97.3588033  68.5463839 104.7480217  97.0933405  67.8787432
 103.2124614  96.3976404  69.3777488 102.3947786  96.7532650  69.8521170
 103.7074386  95.0611914  69.7468431 104.4523344  94.7875927  68.9995994
 104.3583532  95.0085441  71.1264704 104.9370633  94.0855656  71.1625892
 105.2749270  96.2038755  71.4654690 104.6967765  97.1272308  71.4300023
 105.6886499  96.0730340  72.4653762 106.0873523  96.2564348  70.7406901
 103.3177694  95.0231033  72.1969579 102.6643639  94.1583948  72.0810164
 103.8000380  94.9850632  73.1737227 102.7281055  95.9364967  72.1187934
 102.5828081  94.0423044  69.5846405 101.4024254  94.3874614  69.5374364
 102.8861195  92.7447202  69.7027911 103.8596095  92.4810157  69.6491567
 101.8593143  91.6557311  69.9110570 100.8936266  92.1143024  70.1237986
 101.7852069  91.0590693  69.0018803 102.2386022  90.7547989  71.0598558
 103.4132736  90.6925602  71.3945118 101.3209780  89.9222499  71.5485999
 100.4812634  89.9368977  70.9875614 101.3616865  89.0280184  72.7279933
 102.3803349  88.9037529  73.0954338 100.5117499  89.6876642  73.8403733
  99.5255348  89.8772081  73.4166373 100.4260022  88.9607975  74.6480936
 101.0745691  90.9581204  74.3742616 102.0161910  90.7282342  74.8728611
 101.2629044  91.6250339  73.5329184  99.9409029  91.7955988  75.5720937
  99.8782638  90.8047350  77.0785429 100.8787905  90.7253209  77.5036767
  99.2142719  91.2809703  77.7999411  99.5038310  89.8084322  76.8434216
 100.7820486  87.6324863  72.4029547  99.9516623  87.3994450  71.5235763
 101.1836157  86.7172316  73.2348427 101.9287649  86.8742273  73.8983218
 100.5806602  85.3831382  73.1700934 100.2755213  85.1406763  72.1521535
 101.6321579  84.3672600  73.6203255 101.7337963  84.5932555  74.6817844
 101.1919877  83.3772930  73.5006775 102.9877972  84.3945392  72.9703693
 103.0926703  84.5930589  71.5875647 102.2125751  84.8049905  70.9804265
 104.3572938  84.5151703  70.9861664 104.4263655  84.5300663  69.8984583
 105.5596019  84.3727764  71.7882370 106.7965436  84.4710594  71.1752046
 106.7353926  84.6320964  70.2307856 105.3995245  84.1841893  73.1597792
 106.2780176  84.0566795  73.7923072 104.1300142  84.1582136  73.7214115
 104.0082975  83.9472432  74.7838505  99.3315403  85.1861801  73.9719137
  99.2369575  84.3637894  74.9392030  98.3577915  86.1092479  73.7184513
  98.4957382  86.7620440  72.9602117  97.1688286  86.1952467  74.4641157
  96.7751962  85.1810059  74.5309601  97.4548275  86.5396621  75.4579376
  96.1260765  87.0772173  73.9359397  96.3987038  88.2355996  73.5420149
  94.9272663  86.5883498  74.2102765  94.8389998  85.5995828  74.3964168
  93.7131948  87.3818577  74.1097102  93.6974052  88.0534384  73.2513226
  92.6010299  86.2677963  73.9028036  92.7622501  85.7856855  72.9386063
  92.6928858  85.5281437  74.6981504  91.2036197  86.8807399  73.9374315
  91.0181873  87.1233692  74.9837807  91.2754087  87.8016022  73.3586734
  90.0265842  86.0108399  73.3880808  90.0233364  85.0928256  73.9757357
  89.1127868  86.5712673  73.5855522  90.1000851  85.6609857  71.8909259
  91.1239142  85.3526531  71.6792532  89.4257571  84.8218563  71.7199208
  89.7430947  86.7374537  71.0342144  90.3680916  87.5149602  71.1922085
  89.8132503  86.4392665  70.0717890  88.7942788  87.0230316  71.2298998
  93.4568346  88.3622892  75.2294863  93.0972643  88.0223189  76.3634433
  93.9224328  89.6016683  74.9401308  94.2388607  89.8358366  74.0100029
  94.0389330  90.6092956  75.9820065  94.7104835  90.2392993  76.7567464
  94.5789229  91.9340881  75.4275766  93.9533239  92.2575515  74.5956525
  94.5635287  92.9878849  76.5074291  95.1893242  92.6653177  77.3395535
  94.9482645  93.9255323  76.1063099  93.5418620  93.1351255  76.8575954
  96.0333133  91.7473459  74.9126503  96.6635402  91.7070008  75.8010686
  96.0521234  90.7802161  74.4102506  96.5603036  92.8267532  73.9617081
  96.5422296  93.7941608  74.4636001  97.5833399  92.5877832  73.6712096
  95.9308109  92.8673776  73.0727826  92.6748167  90.8323719  76.6656706
  91.7678604  91.3470323  76.0142683  92.6323167  90.5570546  77.9648289
  93.5107894  90.2259585  78.3373346  91.4415408  90.4962788  78.8273646
  90.6462261  90.6652233  78.1013952  91.3398541  89.0723344  79.3342011
  92.1242698  88.8907489  80.0689247  90.3655280  88.9201070  79.7985455
  91.4564946  88.3801161  78.5003378  91.2333625  91.5699804  79.9719635
  90.1380795  91.6792352  80.5597981  92.2803318  92.4010664  80.1334453
  93.0005994  92.3015118  79.4324440  92.4597678  93.4036133  81.1661952
  91.4812902  93.8479007  81.3486496  93.0260880  92.8544263  82.5310897
  93.9511307  92.3205238  82.3135041  93.3033006  93.9590402  83.5572779
  92.3785662  94.4931240  83.7757308  93.6910643  93.5149676  84.4740872
  94.0376576  94.6555581  83.1526986  92.0921691  91.9098724  83.2377315
  91.8938516  91.0488574  82.5994327  92.5497926  91.5739604  84.1682386
  91.1553104  92.4215342  83.4581828  93.4419713  94.3502548  80.5859229
  94.4963887  93.9997966  80.0784616  93.1740032  95.6703702  80.7241746
  92.2186897  95.9928497  80.7831870  94.2388489  96.6694851  80.6299463
  95.1950315  96.2594765  80.9550723  94.3564995  97.0778876  79.1700968
  94.3706239  96.1980455  78.5268413  93.5249085  97.7223604  78.8851209
  95.6666727  97.8412178  79.0151313  95.4836576  98.8575824  79.3638565
  96.3930868  97.3585872  79.6689602  96.3340203  97.9004567  77.3169961
  95.0496999  98.8021035  76.4589616  94.9331487  99.7873733  76.9103574
  95.3224895  98.9137616  75.4095718  94.1096101  98.2554690  76.5332786
  93.9794131  97.8154291  81.6393316  92.9604081  98.4339270  81.5179187
  94.9002220  98.0411951  82.5838852  95.7603846  97.5188725  82.4978690
  94.7502906  98.8909767  83.6770241  94.0182749  99.6583724  83.4253176
  94.2681842  98.1433667  84.9586960  93.3502255  97.6565568  84.6293524
  95.0427145  97.3918116  85.1115617  94.0042474  98.8984160  86.2996202
  93.7755221  98.2170850  87.1191162  94.9522347  99.3986627  86.4975403
  92.9139047  99.9222927  86.1818097  91.7908063  99.6324412  86.6874588
  93.1765029 101.0506504  85.6929168  96.0852728  99.6565121  84.0369894
  97.1614991  99.1576170  83.8234905  96.0643990 100.8741027  84.5520741
  95.1814150 101.3640019  84.5729879  97.3060680 101.5992493  85.0616635
  98.2165979 101.0465655  84.8302004  97.3577351 102.9616516  84.3359581
  96.3279763 103.2991149  84.4534927  98.0268959 103.6535549  84.8474205
  97.7050541 102.9164775  82.8786998  97.1509244 102.1187757  82.3840150
  97.3239297 104.2607501  82.2596186  97.8780429 105.0589533  82.7535104
  97.5670162 104.2539919  81.1970915  96.2545137 104.4294427  82.3860807
  99.1417686 102.5217796  82.5122557  99.3527422 101.5222776  82.8924994
  99.2558914 102.5291521  81.4282710  99.8387668 103.2331163  82.9553048
  97.3161219 101.7909974  86.6483231  96.2950268 102.0455599  87.2244184
  98.5261518 101.7581374  87.2225259  99.2740044 101.3967132  86.6479057
  98.8243274 102.0867080  88.6478924  98.1342581 102.8515207  89.0042138
  98.6682540 100.8329011  89.5303408  98.8626105 101.2588658  90.5146573
  97.6983285 100.3355884  89.5352999  99.7281882  99.7318498  89.3082699
  99.6457952  98.9243384  88.1446430  98.8653411  99.1626330  87.4220042
 100.5034384  97.8745134  87.9097970 100.4575747  97.3306141  86.9663083
 101.4418635  97.5032229  88.8914867 102.1224695  96.6652735  88.7407676
 101.4882290  98.2309683  90.0718590 102.2006206  97.9403502  90.8439598
 100.6286773  99.3357517  90.2816865 100.6701378  99.8879314  91.2205573
 100.1500619 102.7510690  89.0034717 101.0558577 102.5003293  88.2045077
 100.2807408 103.5036653  90.1076948  99.4328375 103.7702569  90.5873700
 101.5829077 104.0751213  90.5922207 102.4314487 103.6094122  90.0910296
 101.5777295 105.5791486  90.2568240 101.3201860 105.6894656  89.2034481
 100.8143710 106.0591770  90.8691610 102.9919495 106.2672366  90.5335469
 103.2851874 106.1402144  91.5756494 103.7599807 105.8437610  89.8863232
 102.8255448 107.8197746  90.2143289 102.0419936 108.2369952  90.8468426
 103.7658724 108.3330546  90.4153939 102.4741177 108.0306442  88.8571281
 102.0456899 107.2451595  88.3885528 102.6318249 109.1662180  88.1792066
 103.3722176 110.1208085  88.6192299 103.8521349 110.0177462  89.5019289
 103.4704017 110.9692211  88.0801051 102.0896021 109.3834657  87.0295180
 101.5133359 108.6715981  86.6037694 102.2437657 110.2644523  86.5602688
 101.8474304 103.7663289  92.0855271 101.4325503 104.5648148  92.9408637
 102.6082605 102.7032800  92.4376047 103.1489499 101.7213993  91.5479260
 104.0445977 102.1254273  91.0760396 102.4082610 101.4903834  90.7823474
 103.4451426 100.5405141  92.4355516 104.2019530  99.9004233  91.9820973
 102.5400911  99.9604750  92.6159340 103.9524534 101.1737992  93.7272372
 105.0201464 101.3880724  93.6801444 103.7402777 100.5809490  94.6169617
 103.1748928 102.4591502  93.7701581 102.3512845 102.3720177  94.4788016
 104.1103710 103.5834537  94.2132126 104.8817612 104.1283974  93.3614084
 104.1119449 103.8628122  95.5546590 103.4263294 103.5009529  96.2020296
 105.0660784 104.8828126  96.0413236 104.9408358 105.7986433  95.4636839
 104.8378982 105.2017917  97.5175486 105.0739111 104.3181058  98.1104198
 105.4967207 106.0201371  97.8080031 103.3468412 105.6169729  97.7695754
 103.0664050 106.3357402  96.9996209 102.7310621 104.7228008  97.6727539
 103.1243287 106.2526061  99.1818075 103.6377011 105.6165048  99.9028643
 103.5937217 107.2362461  99.1669040 101.6591048 106.3947475  99.5821983
 101.5241528 107.0280109 100.4590483 101.0365080 106.7652174  98.7678124
 101.2808748 105.0604775  99.8985821 101.8573802 104.7171534 100.6534793
 100.3112609 105.0433588 100.1808159 101.4054443 104.4736016  99.0860810
 106.5359855 104.5575697  95.7574098 106.9081485 103.4342143  95.7667588
 107.2916192 105.5357824  95.2056566 106.8880084 106.4591670  95.1381391
 108.6639408 105.3328647  94.6995096 109.3006451 106.1233557  95.0967888
 109.0239239 104.3659521  95.0510654 108.7296290 105.3629789  93.1444925
 109.7280429 105.6983991  92.5060757 107.6182014 105.1803856  92.4493333
 106.8303785 104.7713442  92.9311212 107.4763435 105.4889061  90.9959554
 108.4252988 105.3625663  90.4747825 106.4643579 104.5174912  90.4058712
 105.5437119 104.7673314  90.9332137 106.3867490 104.8401099  89.3676063
 106.6849222 103.0033721  90.4542540 106.4462712 102.7154790  91.4781016
 105.9525358 102.5675309  89.7747309 108.1007634 102.4861208  90.0887889
 108.6394056 101.6920846  90.9257280 108.6738923 102.8307423  89.0648322
 107.0468855 106.9383470  90.6750177 106.0820009 107.5080182  91.2010142
 107.7230963 107.5745525  89.7228583 108.6465393 107.2574810  89.4643665
 107.2382107 108.8439825  89.1588881 106.4857816 109.3020828  89.8008333
 108.4486592 109.7947802  89.0623687 108.1385988 110.7718702  88.6918867
 108.9228000 109.9100671  90.0370479 109.3500283 109.2291852  88.1745308
 110.1181436 109.7990633  88.0918409 106.4503931 108.7070183  87.8822854
 106.0611413 109.7337101  87.3466931 106.1349362 107.5114433  87.3731093
 106.5825083 106.6961481  87.7669014 105.3082812 107.3397325  86.1445309
 104.5061435 108.0762679  86.1913290 106.0543268 107.5090939  84.8086052
 105.3612991 107.3700365  83.9788612 106.4906743 108.5064293  84.7536242
 107.1798633 106.4480371  84.7242251 107.8881000 106.6796799  85.5197396
 106.7146597 105.4824294  84.9224409 107.9133691 106.3932864  83.3929394
 107.1892425 106.0839718  82.6392391 108.2565832 107.4041967  83.1730214
 109.1303886 105.4159255  83.3767566 109.4789218 105.3445250  82.3464522
 109.9125061 105.8571394  83.9945929 108.8098248 104.0757577  83.8779155
 108.0854181 103.6665720  83.3052885 109.6360058 103.4959692  83.8408985
 108.4872518 104.1416513  84.8327473 104.5670614 106.0101831  86.2870118
 105.0721346 105.0928212  86.9209931 103.3635929 105.9036291  85.7815380
 102.9404329 106.7803198  85.5123756 102.4988230 104.6767044  85.8158546
 102.3758843 104.3496870  86.8483491 101.1124511 104.9539703  85.2211752
 101.1487105 105.0255297  84.1341316 100.6635209 104.0028431  85.5073897
 100.2684711 106.1068153  85.7815288  99.1272188 106.2015512  85.3367633
 100.6356831 106.8151079  86.7995646 103.1451206 103.3970371  85.3159887
 103.8709776 103.3929567  84.3260635 102.8246301 102.3092800  85.9799046
 102.5012685 102.4815634  86.9211034 102.9291608 100.9327759  85.5289605
 103.6059676 100.8725913  84.6766638 103.4754672 100.0432416  86.6522846
 102.6216361 100.0036336  87.3286743 103.6823691  99.0435705  86.2702514
 104.7172782 100.5711495  87.4179559 104.5553982 101.5976195  87.7469774
 104.9214880  99.6623155  88.6496474 105.0839003  98.6356883  88.3213826
 105.7888901 100.0042055  89.2142938 104.0360167  99.7046491  89.2838783
 105.9606945 100.7087171  86.6349565 105.7978981 101.4060052  85.8131378
 106.7559565 101.0853773  87.2782191 106.2478769  99.7365157  86.2343947
 101.6596257 100.2860070  85.0314300 100.5804656 100.6160594  85.4844817
 101.8387604  99.3331748  84.1797424 102.8014329  99.0441167  84.0807153
 100.8637397  98.7322398  83.3354648  99.8931421  99.2059384  83.4826012
 101.2881715  98.9119096  81.8301983 101.3126019  99.9921649  81.6868426
 102.2951092  98.5087389  81.7223565 100.3700096  98.2786647  80.7807448
 100.3982645  97.1944341  80.8891263  98.9493152  98.7670027  80.9656733
  98.9201819  99.8511765  80.8569667  98.3065255  98.3095523  80.2135688
  98.5967011  98.4924459  81.9598475 100.8588268  98.5995805  79.3470961
 101.8668030  98.2080006  79.2101707 100.1885622  98.1376444  78.6222087
 100.8657283  99.6793400  79.1981971 100.5155831  97.3025700  83.5375969
 101.4740670  96.5134310  83.4629693  99.3349078  96.9645178  84.0177391
  98.7299711  97.7200820  84.3063109  98.8867485  95.6091913  84.2317681
  99.7532665  94.9532213  84.1484064  98.2205453  95.3714205  85.5950315
  98.9955740  95.5444475  86.3416850  97.4073911  96.0816569  85.7448468
  97.6558600  94.0076410  85.8701280  98.5908004  92.9631420  86.0706057
  99.6510263  93.1630580  85.9155103  98.1609188  91.6621953  86.4704861
  98.8626922  90.8737147  86.7423558  96.7974931  91.4185945  86.5060260
  96.4325410  90.4377000  86.8105844  95.8703058  92.4463958  86.1456481
  94.8094609  92.2038969  86.0831774  96.3122285  93.7614464  85.8722394
  95.5865948  94.5492386  85.6699055  97.9535805  95.1375716  83.1726140
  96.9113819  95.7836130  82.9770566  98.2382115  93.9654112  82.6831662
  99.0839877  93.5751592  83.0736343  97.5532281  93.2215684  81.6552048
  96.5249472  93.5786636  81.5984544  98.2158225  93.3628369  80.2898737
  99.2480326  93.0186411  80.3544637  97.4619709  92.5242064  79.2516421
  96.4297312  92.8681435  79.1861500  97.9424551  92.6312420  78.2791304
  97.4768899  91.4760264  79.5502979  98.2111415  94.8503594  79.8601460
  97.1757548  95.1883083  79.9033390  98.8013279  95.3940536  80.5978290
  98.7792416  95.1149251  78.4520295  98.1892427  94.5718916  77.7137100
  98.7360036  96.1826155  78.2369319  99.8148158  94.7776345  78.4081993
  97.4984146  91.7280795  82.1083806  98.4987941  91.1267765  82.4285079
  96.3558591  91.0849685  82.0140979  95.5936287  91.7252059  81.8432177
  96.0592426  89.6687617  82.0913446  96.9786815  89.0951977  82.2086290
  95.1612158  89.4028615  83.2970245  95.7816964  89.6155592  84.1675776
  94.3648397  90.1440068  83.2292840  94.5626474  88.0397612  83.4331840
  95.1250674  87.3202432  82.8381392  94.6249376  87.6423297  84.9016884
  94.0623150  88.3611739  85.4973541  94.1935109  86.6494126  85.0285245
  95.6636434  87.6314867  85.2319506  93.0948920  87.8645347  83.0006659
  92.9932731  88.1207213  81.9460847  92.7917951  86.8286997  83.1532418
  92.4593701  88.5199957  83.5961335  95.3070649  89.3143691  80.7793066
  94.5692173  90.1256570  80.2040649  95.4195930  88.0405642  80.3948299
  95.9138287  87.4140115  81.0139116  94.8769627  87.4948259  79.1316767
  94.3394681  88.2768422  78.5953472  96.0530123  86.9737601  78.2179794
  95.6523177  86.6873121  77.2456155  97.1337450  88.1100756  78.0277427
  97.5352570  88.3967405  78.9997051  97.9417707  87.7415864  77.3957543
  96.6709872  88.9770900  77.5563174  96.6668079  85.8451784  78.8475319
  97.3839138  85.5224093  78.2969144  93.9229198  86.3345698  79.4428825
  93.6345402  86.0529077  80.5725890  93.2325603  85.7171075  78.4886236
  93.5251869  85.8889406  77.5373391  92.0652411  84.8655284  78.7116323
  91.4908305  85.3368721  79.5091200  91.2239259  84.8593050  77.4453183
  91.7822532  84.3821824  76.6398838  90.3014348  84.3068982  77.6240833
  90.9840517  85.8843659  77.1628119  92.3456669  83.4279393  79.1119422
  91.4450918  82.7847407  79.6266616  93.5938598  82.9207868  78.9367745
  94.1984811  83.4623917  78.3357781  94.1198245  81.6830744  79.5176420
  93.3409638  80.9563611  79.7486467  95.0297065  81.0983471  78.3897135
  94.7310432  81.4856379  77.4155958  96.0754941  81.3449282  78.5730876
  94.8525557  79.5724297  78.4099818  95.3266576  79.1585299  79.2999341
  93.7910106  79.3250698  78.4160849  95.5268954  78.9606848  77.1230789
  94.9628776  79.2352626  76.2316812  96.5530136  79.3155154  77.0267662
  95.5263982  77.4574053  77.2758086  96.1327187  77.2134247  78.1481328
  94.4973272  77.1430164  77.4497961  96.0649117  76.7510576  76.0859136
  97.0186077  77.0419146  75.9247745  96.0394408  75.7541617  76.2460693
  95.5029655  76.9766636  75.2775711  94.9081274  81.8735665  80.7882845
  95.5555210  80.9031182  81.2473494  94.8358181  83.0574739  81.4161249
  94.4796842  83.6833795  80.7079510  95.2558762  83.6285209  82.7029747
  94.8783178  84.6448916  82.8149549  94.6855089  82.7693981  83.8287975
  95.2461253  81.8352642  83.8634740  94.9245124  83.3687971  84.7072610
  93.1802342  82.4625621  83.8127122  92.2151186  83.5175347  84.0471192
  92.6190040  84.4920362  84.3215695  90.8570865  83.3423454  83.9403047
  90.1728750  84.1671536  84.1394226  90.3641945  82.1233414  83.5057535
  89.0037972  82.1175518  83.4062315  88.6061237  82.9559634  83.6522423
  91.1776376  81.0041876  83.2718328  90.7999446  80.0354502  82.9447299
  92.5926465  81.1912519  83.4896006  93.2728978  80.3431668  83.4114350
  96.7495769  83.9291983  82.8903175  97.1986927  84.2766923  83.9660613
  97.5221223  83.8908097  81.7675459  97.1774507  83.4665512  80.9182489
  98.8467535  84.5273026  81.7407103  99.4933684  84.1145191  82.5150475
  99.4771782  84.2524851  80.3832922  98.8910193  84.8091485  79.6520994
 100.5023140  84.6228842  80.3843353  99.4911999  82.7331054  79.9659438
  98.7576366  82.2848590  79.1467161 100.3389847  81.9640813  80.5966616
 100.3905136  80.9813670  80.3692476 100.9386872  82.3560662  81.3085643
  98.6535821  86.0533133  81.8773606  97.7993318  86.7214498  81.3047882
  99.5126814  86.6570884  82.7261274 100.2609412  86.1179089  83.1378215
  99.4093246  88.0675162  83.0687581  98.9675771  88.6961260  82.2955777
  98.5055098  88.1470135  84.3611156  98.9399216  87.5297222  85.1474602
  98.4477287  89.1808317  84.7016763  97.5040979  87.7854403  84.1275811
 100.7651029  88.5951968  83.3389978 101.8143505  87.9204388  83.4812479
 100.8309533  89.9611827  83.3561752  99.9942098  90.5226324  83.2873721
 102.1571320  90.6668690  83.4725453 102.8199253  90.1105034  84.1353133
 102.8410206  90.7739495  82.0445186 103.6153329  91.5407543  82.0679705
 103.2878105  89.8150881  81.7817191 101.7420063  91.2107324  80.6688354
 102.6816133  91.1884948  79.7278027 101.9322207  92.0811259  84.0440227
 100.8670918  92.7279574  83.9406042 102.9774485  92.6294424  84.6031595
 103.7064282  91.9581138  84.7981103 103.2127451  94.0240301  84.9493931
 102.4156067  94.7322867  84.7234680 103.6113917  94.1548727  86.4369707
 104.2837511  93.3206768  86.6373460 104.3022690  95.5003649  86.8696328
 103.6302833  96.3350346  86.6699769 104.5312623  95.4657001  87.9347436
 105.2246295  95.6339387  86.3043822 102.4430603  93.7834251  87.4124677
 101.7485255  94.6218058  87.4657585 101.9246348  92.9069564  87.0237041
 102.9837432  93.4768908  88.8170024 103.5019337  94.3531114  89.2066379
 102.1555098  93.2214481  89.4779696 103.6780452  92.6382629  88.7645829
 104.3494636  94.5588420  84.0933899 105.4425093  93.9167076  84.0439570
 104.0178435  95.5027223  83.2044934 103.0524703  95.7902716  83.2784472
 104.8337811  96.0886300  82.1505716 105.7183758  95.4897356  81.9339689
 103.9207105  96.1135519  80.8752497 103.0775468  96.7104875  81.2228730
 104.4270334  96.6381039  80.0649520 103.4261068  94.7946857  80.3812627
 103.1243433  94.1798806  81.2292333 102.2354621  95.0083770  79.4619247
 102.5365849  95.6227549  78.6134179 101.8757988  94.0443114  79.1023130
 101.4386148  95.5115870  80.0095693 104.5676132  93.9981616  79.7215033
 105.3600364  93.8267028  80.4500407 104.1859994  93.0401858  79.3682970
 104.9657033  94.5631600  78.8786510 105.3379048  97.4473450  82.5488641
 104.6733805  98.1388320  83.2448771 106.3753642  97.8789843  81.8808106
 106.8507602  97.1926085  81.3124918 106.9703143  99.1939473  82.0113469
 106.1962795  99.9376625  82.2007063 107.9535878  99.2066152  83.1764666
 107.3706011  99.0946918  84.0906323 108.6073746  98.3429463  83.0550625
 108.8101272 100.4934674  83.2652676 109.4231188 100.6149143  82.3721871
 108.0226609 101.2471073  83.2700651 109.7193308 100.6682627  84.5603156
 109.9287793  99.6767342  85.2596527 110.2603131 101.7567394  84.6957950
 107.5971742  99.7562087  80.7157364 108.2125587  99.0145344  80.0398111
 107.3902257 101.0224167  80.3587118 106.5160117 101.4537639  80.6228876
 108.2184207 101.6925385  79.3666590 108.3403320 101.0520323  78.4931667
 107.5644810 103.0074541  78.9229375 106.6389897 102.6101291  78.5061665
 107.3322293 103.6651909  79.7605182 108.3020549 103.7888436  77.8580610
 109.1161506 104.8709726  78.3151376 109.2870604 104.9722578  79.3868795
 109.6704650 105.7591554  77.4531875 110.3886819 106.4968805  77.8109974
 109.4800180 105.5692627  76.0483627 109.9658722 106.4723236  75.1275496
 110.4268680 107.2102979  75.5331064 108.5991231 104.5706056  75.5907252
 108.3343432 104.5581669  74.5334469 108.0582580 103.5944308  76.4700395
 107.4917574 102.7539336  76.0691136 109.7080021 101.7947517  79.6270909
 110.1914786 102.0758160  80.6987799 110.4723112 101.4661558  78.5596535
 110.0643916 100.9923801  77.7664086 111.9002978 101.7309698  78.5438843
 112.1018088 102.4734859  79.3159999 112.8020478 100.5031416  78.7929602
 112.4901958 100.0614134  79.7393871 112.6150771  99.7970186  77.9839285
 114.2347355 100.8154047  78.8478485 114.4825234 101.2120392  77.8632760
 114.3304227 101.6060081  79.5920879 115.2020121  99.6602095  79.1962003
 116.1143271 100.0887776  79.6110615 114.7258262  99.0267113  79.9445495
 115.5463595  98.8241777  77.9673875 114.6203115  98.4048036  77.5741179
 115.9902054  99.4851805  77.2229580 116.4912654  97.7273991  78.2791735
 116.0800037  97.1145423  78.9686444 116.6886210  97.2038497  77.4383128
 117.3495896  98.1158109  78.6431997 112.3739354 102.3705788  77.1920482
 111.9252782 101.9773508  76.1374751 113.1567284 103.4334896  77.3011653
 113.1612308 103.8673027  78.2132428 113.8381575 104.1273643  76.1942189
 113.8444912 103.4729417  75.3225594 113.1581772 105.4373387  75.8147350
 113.6067017 105.8257084  74.9003533 112.0956258 105.2585279  75.6500802
 113.3352654 106.4596034  76.9450180 112.6171702 106.1023816  77.6831458
 114.3318344 106.4751193  77.3862792 112.9581929 107.8772141  76.5470050
 111.9160963 108.1351878  75.9582688 113.8829178 108.7886048  76.7227852
 113.6933899 109.7498304  76.4773755 114.7809748 108.5256932  77.1028806
 115.2959222 104.2073337  76.5341613 115.6160750 104.4246446  77.7097293
 116.2216052 103.9179477  75.5706039 115.8747334 103.9548632  74.6227555
 117.6536804 103.5863769  75.7839774 118.0257938 104.2324885  76.5790691
 117.9341080 102.1005130  76.1758890 117.6834887 101.4503547  75.3376865
 118.9891452 101.9831135  76.4233032 117.1334951 101.7443670  77.3135525
 117.3066941 100.8310981  77.5534314 118.6196036 103.7753881  74.5560229
 118.4828868 102.9684746  73.6164910 119.4267955 104.8647156  74.4391182
 119.4994195 105.4724653  75.2425268 120.1863936 105.2081040  73.2405858
 120.4964152 106.2469728  73.3534464 121.0667975 104.5655049  73.2331859
 119.4667843 105.0561923  71.9515655 119.9609126 104.3993619  71.0579744
 118.2860707 105.6295710  71.8619265 117.9008176 105.7877165  72.7820730
 117.4151029 105.7354362  70.7364596 116.6478219 106.4692548  70.9832172
 118.1033497 106.1634445  69.4124104 118.9402319 105.4792467  69.2724076
 117.3677047 106.0029066  68.6242771 118.5952026 107.5671048  69.3531449
 118.8313941 107.8013457  68.3151441 117.7667528 108.1920395  69.6866515
 119.8208203 107.8363561  70.2278368 119.8971637 108.7021070  71.1658833
 120.8212364 107.1078785  69.9953995 116.3570184 104.6743863  70.5107358
 115.3557310 104.8843668  69.8219734 116.5460093 103.5057325  71.1504982
 117.4264399 103.4820048  71.6448446 115.7886989 102.3418615  71.0974496
 115.2935037 102.2516314  70.1306304 116.7436741 101.0964244  71.2943911
 117.1795086 101.1019048  72.2934493 116.1964381 100.1660877  71.1423832
 117.7605384 101.1988051  70.3426994 118.3607987 100.4552647  70.4345417
 114.5759145 102.3946984  72.0787362 114.7251804 102.7247248  73.2448234
 113.4349030 101.8497685  71.6051330 113.4571620 101.6732002  70.6109361
 112.1635490 101.6633232  72.3173479 112.2320822 102.1808597  73.2741960
 110.9475434 102.2562907  71.4799818 110.8920347 101.7406356  70.5212749
 109.6579314 102.0693526  72.2233641 109.7125126 102.5851523  73.1820467
 108.8366848 102.4805570  71.6363669 109.4862832 101.0063340  72.3925609
 111.3363774 103.8135792  71.3444440 112.2445337 103.8189851  70.7416807
 110.5187946 104.2525749  70.7726568 111.5660932 104.6363633  72.6253515
 112.3838955 104.1982138  73.1974742 111.8190879 105.6624001  72.3582536
 110.6581564 104.6318016  73.2284517 111.9240486 100.1802685  72.7988594
 112.1728885  99.2435173  72.0756264 111.5327303  99.9606362  74.0729193
 111.3708438 100.7676886  74.6582043 111.3484687  98.6435342  74.6515616
 111.0402557  97.9525891  73.8668968 112.5837913  98.1292162  75.2743907
 112.9483419  99.0281717  75.7714633 112.3747124  97.3619145  76.0197995
 113.6595716  97.6122324  74.2905337 113.3743361  96.6157805  73.5627926
 114.7923751  98.1407921  74.3948111 110.2209276  98.6854315  75.7499248
 109.8660167  99.6687826  76.3719729 109.6144269  97.5578665  75.9474701
 109.8637429  96.8347457  75.2878967 108.5192379  97.2861715  76.9063657
 108.3562931  97.9617673  77.7460791 107.0991702  96.9869223  76.1673916
 107.2228835  96.1324854  75.5020097 105.9715042  96.6713682  77.2233575
 105.8468848  97.5255859  77.8888518 105.0327334  96.4749353  76.7054537
 106.2542546  95.7951387  77.8067726 106.7655991  97.9901611  75.0148101
 107.6603126  98.0892157  74.4001747 105.9645917  97.5495648  74.4212097
 106.3204123  99.4088954  75.5238325 107.1211452  99.8503469  76.1171682
 106.1054741 100.0509860  74.6696543 105.4254249  99.3106954  76.1382055
 108.9720854  96.1908359  77.8698829 108.8858797  95.0294047  77.4645482
 109.4449916  96.5670797  79.0804320 109.3439919  97.5244915  79.3858188
 110.1518233  95.6061997  79.9821047 110.5036009  94.6707861  79.5469575
 111.3506256  96.3678216  80.6095838 111.0037872  97.3489150  80.9340208
 111.9260502  95.6226428  81.7891452 112.2735486  94.6415623  81.4653760
 112.7628827  96.1858191  82.2022367 111.1578960  95.5015938  82.5529420
 112.3774518  96.7419641  79.5652245 111.7937012  97.3486781  78.8729571
 113.0561301  97.3839207  80.1268177 113.1823308  95.7141558  78.7837331
 112.5043082  95.0720821  78.2214818 113.8533837  96.2256905  78.0937189
 113.7667357  95.1073228  79.4753432 109.2336480  95.0848913  81.0389200
 108.3751000  95.8520774  81.4931367 109.2262726  93.7947576  81.3042175
 109.9014215  93.2280857  80.8111087 108.2530581  93.1199311  82.1740892
 107.3815744  93.7491587  82.3548875 107.7997143  91.8559510  81.4346330
 108.6771340  91.2374473  81.2457203 106.7443640  91.0305402  82.2707250
 105.8664065  91.6482777  82.4596448 106.4498948  90.1432217  81.7103207
 107.1873633  90.7296228  83.2200937 107.2067348  92.1044584  80.2436093
 106.9485559  91.2748078  79.8354136 108.8539393  92.8878300  83.4750147
 109.7406073  92.0299507  83.5971286 108.4494508  93.6476582  84.5175559
 107.8050202  94.4043307  84.3379585 108.9666440  93.4732106  85.9071459
 110.0371826  93.6782420  85.9100402 108.2786758  94.4188158  86.9236278
 107.1988533  94.3005390  86.8336649 108.5920436  94.1368979  87.9288257
 108.6572360  95.8877720  86.6615441 109.7165384  95.8885737  86.4046812
 108.0739207  96.2033868  85.7965397 108.4178660  96.8373214  87.7996403
 107.3467474  96.8402805  88.0016183 108.9495926  96.4465782  88.6672152
 108.8525795  98.2088658  87.5640664 109.0746833  98.4399463  86.6062715
 108.8729255  99.1692838  88.4622075 108.3811945  99.0144105  89.6632291
 107.9673683  98.1313972  89.9261653 108.4173261  99.7784675  90.3227828
 109.5183081 100.1953105  88.0723417 109.9445922 100.2021683  87.1567353
 109.6008627 100.9973985  88.6805673 108.8081076  92.0222281  86.3401783
 109.7935406  91.3632927  86.7757054 107.5489965  91.5229479  86.2684452
 106.8563048  92.1309008  85.8553220 107.1128251  90.2419417  86.7995842
 107.8596367  89.4532298  86.7084517 106.8533494  90.5106267  88.3156850
 106.1008957  91.2918808  88.4231811 106.4979578  89.5966596  88.7915645
 107.7798027  90.8311696  88.7921678 105.8972157  89.7379392  86.0181967
 105.1662419  90.5097681  85.3772151 105.7684933  88.4075313  86.1357313
 106.3530198  87.8983949  86.7831942 104.8640957  87.6384480  85.2536442
 103.9087622  88.1498988  85.1359360 105.5178011  87.5151002  83.8932323
 104.7849708  87.3854317  83.0968372 106.0254187  88.4713898  83.7670003
 106.5987924  86.4050730  83.6910871 107.9618780  86.5243389  84.0143365
 108.4914237  85.3111901  83.6238520 109.5404984  85.1616140  83.8791327
 107.6153006  84.5124368  82.9889980 107.7512308  83.6177772  82.5404370
 106.3993336  85.1913439  83.0679116 105.4940957  84.7365208  82.6656907
 104.5416604  86.3340261  85.9077336 105.3332991  85.7280542  86.6147245
 103.3912817  85.8788112  85.5560585 102.7594448  86.5031842  85.0753926
 102.9441067  84.4920986  85.8171399 103.6185405  83.8105751  85.2987154
 102.9988421  84.3100896  86.8904414 101.5198220  84.2357967  85.3430634
 100.7195250  85.1773413  85.3193272 101.1571733  82.9460021  85.0954090
 101.8511839  82.2300744  84.9344861  99.7287121  82.5673337  85.0221504
  99.1210182  83.2429692  84.4202168  99.8056657  81.2003814  84.3045880
 100.4725679  81.0950998  83.4488682 100.1917732  80.6157322  85.1395768
  98.4345310  80.6572906  83.9228867  97.4668469  80.7548401  84.6505444
  98.2094564  80.2994190  82.6884644  97.3028822  79.9384469  82.4278456
  98.9428638  80.3850549  81.9993484  99.1338619  82.5141112  86.4981821
  99.8358516  82.1865738  87.4992109  97.8492989  82.7915341  86.6761015
  97.3711978  83.0773688  85.8335950  97.1154197  82.8335358  87.9356424
  97.6129092  82.2301314  88.6949228  97.0482666  84.3115276  88.4375194
  96.4886913  84.3175001  89.3729012  98.4188050  84.9285454  88.6634984
  98.9788385  84.9233464  87.7283854  98.3028398  85.9550539  89.0112526
  98.9590106  84.3503541  89.4131479  96.2998214  85.2585283  87.4239152
  95.2783786  84.9053616  87.2823874  96.2810607  86.2736813  87.8204149
  96.8217065  85.2523614  86.4669937  95.7224874  82.1465537  87.7200800
  94.7437921  82.3050205  88.5251576  95.5860996  81.1913655  86.8451972
  96.2826099  81.1230689  86.1169745  94.4173237  80.2718326  86.7920172
  93.5020704  80.7958097  86.5165927  94.7305347  79.2413022  85.7160140
  93.7849362  78.7417086  85.5054222  95.0400315  79.8152601  84.8425816
  95.8177945  78.1756708  86.0488293  96.6749565  78.5700383  86.5945842
  95.2246753  77.5452473  86.7113080  96.3206009  77.3340026  84.9066247
  95.7288212  77.2300187  83.8238943  97.5727792  76.8015380  84.9327985
  97.8952829  76.2389630  84.1584587  98.1739398  76.9713443  85.7264439
  93.9587521  79.5641425  88.1059459  94.8180881  79.4698058  89.0251174
  92.7957062  78.9139027  88.2268360  92.0855116  79.1685304  87.5553543
  92.4456438  77.9071701  89.2876733  93.3266525  77.7338007  89.9056262
  91.2775060  78.3733329  90.2060678  90.5666773  78.8217750  89.5120063
  90.7836946  77.5823777  90.7705500  91.7942569  79.4486117  91.1758833
  92.8225393  79.2452329  91.9142208  91.1630941  80.5256052  91.3913001
  92.0705109  76.5025573  88.6314666  91.6467206  76.4358036  87.4722933
  92.1223136  75.4541455  89.4760417  92.4265791  75.6556349  90.4178080
  91.8824055  74.0703511  89.1119409  92.6322691  73.7657980  88.3818374
  91.9558361  73.1204806  90.3161045  91.2450171  73.4923236  91.0540533
  91.6339237  72.1404499  89.9639506  93.3981255  72.9975281  90.9831343
  93.6740614  73.9920759  91.3336124  93.2995239  72.3265406  91.8364546
  94.4974435  72.4624831  90.0297530  95.2815432  72.0210615  90.6449226
  94.0466941  71.6897865  89.4069653  95.0847668  73.4525473  89.1789645
  94.5958216  73.6624907  88.3205032  96.2321926  74.1257993  89.4525620
  96.9797069  74.0055809  90.5004775  96.7251459  73.3508900  91.2262038
  97.8147236  74.5669212  90.5884762  96.6763770  75.0161963  88.5503566
  96.1576172  75.1675795  87.6970856  97.5271238  75.5303013  88.7293110
  90.5488198  73.8488046  88.3605906  90.3992698  72.8442067  87.6388594
  89.5728526  74.7346250  88.5779452  89.7459085  75.4970632  89.2173505
  88.2484153  74.5864961  88.0355379  88.2794415  74.5540530  86.9464630
  87.4624629  73.4183076  88.5474043  88.0919067  72.5292450  88.5090808
  87.0036615  73.6546963  89.9832232  86.3737457  74.5433930  90.0222713
  86.4354788  72.7917102  90.3303889  87.8735267  73.7981028  90.6242132
  86.1662175  72.8381260  87.7546338  85.8182893  71.9576273  88.2947901
  85.3946624  73.6076477  87.7799035  86.4580050  72.4662039  86.3226938
  87.2291929  71.6963404  86.2966335  85.5504706  72.0866912  85.8531721
  86.8055684  73.3463609  85.7817473  87.5239270  75.9206253  88.2681770
  88.0226879  76.7609127  89.0392832  86.4437368  76.1822904  87.5131873
  86.1197128  75.4847401  86.8585643  85.7006784  77.4631369  87.6011783
  85.0907043  77.4417702  88.5042698  86.4260598  78.2735995  87.6723932
  84.8150853  77.7052725  86.4217164  85.2424158  77.3854579  85.3362413
  83.6938355  78.3677706  86.5599629  83.4158317  78.6325782  87.4941418
  82.7778813  78.7124877  85.4192986  82.7891656  77.9582366  84.6324841
  81.3106808  78.7555992  86.0671953  81.2451947  77.9441355  86.7919970
  81.2040822  79.7107902  86.5813421  80.2254933  78.6105161  85.0622436
  80.2307145  79.5325545  84.4809357  80.5185343  77.7772761  84.4235418
  78.7823397  78.3554643  85.6253442  78.1404818  78.0367922  84.8040249
  78.8360368  77.5633766  86.3722132  78.1741355  79.5887853  86.2674315
  78.0579870  79.5794613  87.2706871  77.7526883  80.6849090  85.5736094
  77.6236969  80.7194300  84.3132826  77.8390879  79.8996563  83.7640307
  77.3061342  81.5665479  83.8642336  77.5001633  81.7224986  86.1672969
  77.6045939  81.7646816  87.1709975  77.1882468  82.5328388  85.6513941
  83.1667056  80.0546285  84.7451148  83.5612021  80.9300199  85.4894510
  83.0048798  80.2865913  83.4600764  82.6126050  79.2868529  82.5269946
  81.7460578  78.7750554  82.9456347  83.4408796  78.5839650  82.4375038
  82.2917208  80.0032205  81.1780310  81.2121500  80.0484878  81.0345847
  82.7444924  79.4524056  80.3535905  82.8964595  81.3978980  81.2979473
  82.2621071  82.1790395  80.8790035  83.8757447  81.4307868  80.8204345
  83.0493341  81.6084729  82.8564326  84.0310325  82.0216170  83.0881190
  81.9713285  82.5737137  83.3223845  80.7947343  82.1950217  83.0717786
  82.1676941  83.7920905  83.7504784  83.1235006  84.0857079  83.6079225
  81.2117626  84.7692166  84.2906641  80.6709105  84.3458855  85.1370498
  81.9769345  86.0089399  84.7687051  82.4614530  86.4682492  83.9070927
  81.2621758  86.7100921  85.1995248  82.9597702  85.6747108  85.7432434
  83.4191155  86.4707753  86.0205212  80.3264428  85.2376291  83.1691309
  80.8340111  85.7342303  82.1709027  78.9994603  85.3096348  83.2775640
  78.5545010  84.6351479  83.8835161  78.1451376  86.1661274  82.4416231
  78.1351969  85.7551909  81.4321026  76.6788445  86.2720042  82.9496138
  76.7374756  86.4499590  84.0233892  76.2461191  87.1446148  82.4603292
  75.7766137  85.0188442  82.6763050  74.7152131  85.2015370  82.8440934
  75.9619652  84.9126994  81.6074377  76.1991059  83.7141769  83.4069707
  76.6097123  82.7529201  82.6687683  76.2972279  83.7195656  84.6537594
  78.6974178  87.6057297  82.1107591  78.5646832  87.9144582  80.9229046
  79.3362148  88.3555811  83.0491620  79.1085443  88.1583229  84.0131924
  79.9918566  89.6428643  82.7328680  79.6845476  89.9248629  81.7258242
  79.5908152  90.7688114  83.7029727  79.8237604  91.7204585  83.2252651
  78.1035128  90.7320528  84.0689923  77.8698934  89.7808218  84.5471985
  77.8773771  91.5482648  84.7551116  77.5036465  90.8408815  83.1654341
  80.2744124  90.6495988  84.8909546  80.0127856  91.3583990  85.4831996
  81.4796378  89.4780324  82.3345521  82.2394728  90.4406401  82.3867640
  82.0241008  88.3147389  82.0475708  81.3416097  87.5724403  81.9901431
  83.4382522  87.9821120  81.8119247  83.4522545  86.8999876  81.6818861
  83.6842632  88.4644321  80.8659093  84.4978732  88.3760346  82.8684631
  84.2486338  88.5948824  84.0800899  85.7810925  88.3590391  82.4946593
  85.9584042  88.1751400  81.5174996  86.9590962  88.5045679  83.4178861
  86.8921196  88.0466463  84.4047605  88.2348505  87.9675155  82.6777843
  88.2241928  88.4095761  81.6815067  89.6005833  88.2895442  83.3774925
  89.6121731  87.8473841  84.3737158  90.4182430  87.8757170  82.7873397
  89.7220983  89.3697136  83.4585306  88.1169116  86.4314138  82.3015186
  88.2849217  85.8556634  83.2116751  87.1020902  86.2569919  81.9440078
  89.1265464  85.9896353  81.2195905  90.1416721  86.1633342  81.5765897
  88.9927264  84.9286648  81.0085620  88.9588418  86.5646649  80.3089226
  87.1135016  89.9419774  83.8780270  86.8143348  90.8445458  83.1224163
  87.4768662  90.2263330  85.1174757  87.6025482  89.4226298  85.7161112
  87.7070041  91.5692305  85.6899824  87.8680929  92.4631359  85.0874188
  86.5436520  91.8198121  86.6856740  86.3406187  90.8688223  87.1781132
  86.8241170  92.8970661  87.7474410  87.0267976  93.8485139  87.2557417
  85.9553759  93.0023171  88.3972964  87.6891863  92.6047504  88.3426770
  85.1423795  91.9182300  86.0813312  85.1126250  92.8480942  85.5133805
  85.0367152  91.0736610  85.4004218  83.9969728  91.9028156  87.0932121
  84.1017068  92.7474188  87.7742232  83.0454056  91.9770328  86.5667988
  84.0257986  90.9729859  87.6612663  89.0811715  91.5169150  86.3885529
  89.3516901  90.5414474  87.1114379  89.9116440  92.5664028  86.1689263
  89.8168580  93.1384453  85.3419545  90.9658106  92.8978965  87.1225576
  90.7757748  92.3843237  88.0650163  91.9284962  92.5787937  86.7231715
  91.0072722  94.3960344  87.3752961  90.8727200  95.2720998  86.4603348
  91.2049424  94.6968964  88.6273510  91.4356423  93.8562660  89.1374663
  91.0308798  95.9499345  89.3862342  91.1932409  96.8833605  88.8472964
  89.6583121  96.0144307  90.1404386  89.7202857  96.7744640  90.9192898
  88.5178642  96.3667274  89.1703677  88.4549672  95.6068470  88.3914413
  87.5750902  96.4058613  89.7160291  88.7141913  97.3374881  88.7151990
  89.3832754  94.8576592  91.0360353  88.8477335  94.1183100  90.4405033
  90.3504265  94.4523986  91.3334946  88.5441799  95.2041040  92.3184200
  87.5766430  95.6090148  92.0217389  88.3936150  94.3008809  92.9097046
  89.0793356  95.9431056  92.9147294  92.2209772  96.1622463  90.2981580
  92.8739702  95.1158581  90.6736360  92.6337999  97.4058175  90.5156300
  92.1721238  98.1918437  90.0807537  93.8370689  97.6711119  91.3663870
  94.1175376  96.8553593  92.0327085  95.0621793  98.0386351  90.4401316
  94.8938912  98.9626164  89.8869245  96.2403439  98.2348003  91.4256957
  96.4095443  97.3110292  91.9789758  97.1408623  98.4945278  90.8691806
  96.0011176  99.0371199  92.1236592  95.2599716  96.9913730  89.3235878
  95.2158319  96.0259570  89.8276954  94.3921046  97.1011348  88.6733119
  96.5252437  97.0701769  88.4941323  97.3935885  96.9600239  89.1437042
  96.5239251  96.2720856  87.7517391  96.5698622  98.0352033  87.9893222
  93.5592688  98.7928517  92.3782036  93.2961063  99.9914103  91.9966123
  93.7559804  98.4730484  93.6622365  94.0261010  97.5112989  93.8111397
  93.5523542  99.3047412  94.8068309  92.4998403  99.4947875  95.0170595
  94.1534819  98.4610247  95.9826940  93.4991683  97.6270053  96.2364351
  95.1209217  98.0775680  95.6584698  94.3486062  99.3718288  97.2402374
  93.4569841 100.1649965  97.6267852  95.3779177  99.2617741  97.8505493
  94.2103902 100.7006797  94.5702758  95.3771110 100.7042523  94.2015772
  93.6216095 101.8629315  94.9382501  92.1911382 102.0869263  95.3190641
  92.0853570 101.8559024  96.3790351  91.5764764 101.4017278  94.7352895
  91.8911149 103.5457188  95.0060774  91.0674238 103.9570040  95.5895810
  91.7165052 103.7366884  93.9472368  93.2203896 104.1190903  95.4462580
  93.3886781 104.2289018  96.5175747  93.3255805 105.0894913  94.9611225
  94.2423783 103.1180474  94.8526922  94.3584722 103.2784379  93.7808268
  95.5851926 103.3708334  95.5561684  96.3262492 104.1488689  95.0731799
  95.8930975 102.6922905  96.6810409  95.1015688 102.2471307  97.1230978
  97.1491049 102.6621900  97.3552460  97.6636646 103.6056908  97.1732193
  97.0105328 102.4654268  98.8604732  96.6426916 101.4497912  99.0063376
  98.0143479 102.5510047  99.2765641  96.0842447 103.4462602  99.5652235
  95.1510028 103.2713124  99.0299164  95.9633203 103.1573021 100.6092444
  96.4417873 104.9103427  99.4870135  97.4451600 105.3461077  98.9069263
  95.7415864 105.6806650 100.1307753  98.1747792 101.6409774  96.7709320
  99.2878444 101.5004021  97.2666410  97.8714668 100.8855413  95.7571776
  96.9377219 100.9707418  95.3817302  98.7435011  99.8151998  95.2301879
  98.1558635  99.1594750  94.5876878  99.8923399 100.3720436  94.4284128
 100.6102480 100.9236287  95.0354227 100.4160628  99.6131955  93.8470661
  99.2395172 101.5467055  93.2397553 100.4124919 101.8634861  92.6987575
  99.2310758  98.8345075  96.2823725 100.2978994  98.2073421  96.2402426
  98.4072480  98.4484864  97.2791973  97.6413694  99.0708300  97.4941804
  98.6230796  97.2703212  98.1545060  99.6812010  97.2241757  98.4120890
  97.8082154  97.3150385  99.4450961  96.7817959  97.1665184  99.1096801
  98.1416962  96.4341615  99.9936818  97.8736260  98.5451121 100.3635358
  98.7973315  98.4933587 100.9398955  97.8851746  99.4384457  99.7390970
  96.7005714  98.6051349 101.3018583  96.3123201  97.6058117 101.4986148
  96.9831621  99.0764210 102.2432038  95.6223538  99.4207775 100.6623414
  95.3832945  99.0997050  99.7350537  94.9364750 100.4808609 101.1816549
  95.0947327 101.0787825 102.3264755  95.8095260 100.7598086 102.9647750
  94.5020342 101.8590504 102.5714043  93.9986061 101.0087140 100.4235738
  93.8192687 100.6250321  99.5066625  93.4627255 101.7949376 100.7623706
  98.3946639  96.0008866  97.3931046  98.8964580  94.9822057  97.8376638
  97.5575751  96.0320022  96.3272425  97.0837434  96.8849955  96.0665024
  97.1671025  94.7508782  95.6238319  98.0668680  94.2737101  95.2354611
  96.4450481  93.7527410  96.5710069  96.0628995  92.9446283  95.9472958
  97.2002232  93.3596576  97.2516655  95.3052604  94.3546697  97.3733029
  95.7172058  95.1300294  98.0192281  94.5978870  94.8021169  96.6750795
  94.4142020  93.0869814  98.4245779  95.9037472  92.5236773  99.3365371
  96.3401779  93.3646905  99.8753544  95.6233499  91.7447106 100.0455426
  96.6337061  92.1265732  98.6311509  96.3511660  95.0124752  94.2758405
  95.5275937  95.8691691  94.1738890  96.6376956  94.1872154  93.2526489
  97.5733623  93.8069853  93.2598799  95.7324866  93.7993714  92.1511992
  95.1737087  94.6316103  91.7231280  96.5553303  93.1088988  91.0434764
  97.0304970  92.1990249  91.4101460  95.5200192  92.7414297  89.9107327
  95.0447484  93.6509081  89.5432178  96.0390868  92.2462344  89.0900920
  94.7600540  92.0729544  90.3153226  97.7464861  93.9082808  90.5187257
  97.3491812  94.7342540  89.9287952  98.2791920  94.3034952  91.3836705
  98.7005434  93.0921813  89.6672252  98.1686292  92.6969932  88.8017811
  99.5208479  93.7260956  89.3305467  99.0986384  92.2662325  90.2566562
  94.6803843  92.8252339  92.7511475  95.1302626  91.8718258  93.4406194
  93.4020582  93.0593229  92.6138824  93.1872029  94.0074983  92.3402041
  92.2994921  92.1308411  92.8071921  92.7018168  91.2308281  93.2721765
  91.5854453  92.6005433  93.4836656  91.5925192  91.7507411  91.5370786
  91.5493753  92.5242459  90.5473721  91.1328416  90.5255806  91.3546304
  91.0140660  90.0623745  92.2442549  90.7228004  89.7958510  90.1147430
  90.5087455  90.4778691  89.2918633  91.9413471  88.9016507  89.7180618
  92.0760161  88.1149119  90.4603593  91.4566480  88.4872810  88.8340570
  93.2912589  89.4688059  89.3338145  93.7229641  90.0084984  90.1767044
  94.2191263  88.2979042  88.9431160  93.7882827  87.7579809  88.0999342
  95.1978720  88.6871973  88.6627442  94.3271007  87.6208635  89.7904989
  93.2890395  90.2151287  88.0202695  92.5923079  91.0513821  88.0781052
  94.2910240  90.5913104  87.8138343  92.9821822  89.5419242  87.2198114
  89.5104092  88.8140779  90.3167979  89.5230658  88.0633012  91.2667054
  88.5358738  88.9511082  89.4830920  88.4566904  89.8046046  88.9488886
  87.5239842  87.8857910  89.2627366  87.6273633  87.1417958  90.0525993
  86.1019430  88.4067668  89.2717277  85.9882184  88.9817820  90.1907073
  86.0102015  89.0724592  88.4135103  84.9938240  87.3154723  89.2023395
  85.2263357  86.6947822  88.3370171  85.0891336  86.7212922  90.1111674
  83.5349843  87.8487290  89.0815537  82.8261558  87.1454290  89.5186238
  83.4330896  88.8175760  89.5704836  83.2313749  88.0019345  87.6949195
  83.7795779  87.4241845  87.0738094  82.3460604  88.8591816  87.1588602
  81.4217622  89.4630255  87.8351696  81.3377202  89.2985084  88.8281304
  80.7891399  90.0957368  87.3665920  82.3298209  89.0952375  85.9070012
  82.9919012  88.6328744  85.3003958  81.6549464  89.7436057  85.5271831
  87.6866433  87.1892932  87.9194615  87.4481091  87.7990391  86.8524914
  88.2972111  86.0510639  87.8934993  88.5364093  85.7439328  88.8254618
  88.6914802  85.1802770  86.7327814  88.8473078  85.7586281  85.8221075
  90.0575501  84.5070562  87.1421461  89.9099552  83.9173579  88.0468952
  90.3121994  83.8446333  86.3148313  91.1865702  85.4976579  87.3627498
  91.0539246  86.0597380  88.2871805  92.4983950  84.6104053  87.4670886
  92.6319705  84.0483438  86.5427817  93.3621989  85.2555585  87.6274657
  92.4032229  83.9171041  88.3027776  91.4048640  86.5156864  86.1894473
  90.4972692  87.1010388  86.0420241  92.2309233  87.1828785  86.4355813
  91.6382991  85.9715387  85.2742913  87.6403175  84.1125699  86.4178008
  87.4367620  83.6777660  85.2455263  86.9271487  83.5251503  87.4020855
  87.2580898  83.7477724  88.3299954  85.7185220  82.6664207  87.2711117
  85.4315688  82.4966352  86.2333594  86.1334088  81.3399067  87.8831399
  86.2530427  81.5287048  88.9499774  85.3230959  80.6272586  87.7294330
  87.4290684  80.7650120  87.3205564  87.4257432  80.1341357  86.0809734
  86.5075757  80.1448905  85.4936471  88.5214837  79.5205010  85.6035048
  88.4459624  78.9487870  84.6785499  89.7147936  79.5844410  86.2739115
  90.8362873  78.9985534  85.8353256  90.7155779  78.5313964  85.0053899
  89.8074274  80.3373482  87.5088652  90.7673063  80.5096714  87.9957304
  88.5979808  80.8625147  88.0930920  88.6218399  81.3074911  89.0878416
  84.4843067  83.1728540  88.0546988  84.6707793  83.9827527  88.9987518
  83.3005789  82.7886002  87.6993687  83.1947443  82.1894780  86.8931733
  82.0917981  83.2061815  88.4194151  81.9288234  84.2770105  88.2974980
  80.8721040  82.4543636  87.8505995  80.8414575  82.7490336  86.8016335
  81.0056404  81.3748317  87.9204488  79.5280210  82.8600991  88.5461918
  78.6665647  81.9552886  88.7126728  79.2849022  84.0486465  88.8464355
  82.1148441  82.9472985  89.9741875  82.5033462  81.9012835  90.5099978
  81.7941452  84.0069323  90.7462073  81.6550913  84.8135447  90.1544812
  81.6309980  84.1652038  92.1551882  81.0109087  85.0551640  92.2627027
  81.0640879  83.2881261  92.4673531  82.8525563  84.3047593  93.0427453
  82.6333450  84.2181869  94.2671340  84.0421865  84.3624641  92.4087359
  84.1016626  84.5702343  91.4221288  85.2540241  84.0900617  93.1187848
  85.0689000  83.9058526  94.1770359  85.8421555  82.8343304  92.5038244
  85.7332954  83.0280340  91.4367126  86.9007914  82.7634748  92.7535634
  85.1358050  81.4987679  92.8617444  84.0726005  81.6300187  92.6605720
  85.6657975  80.2781145  92.0643109  86.7289123  80.1459395  92.2653471
  85.1248658  79.3820532  92.3685606  85.5165171  80.4475011  90.9979507
  85.0835539  81.0116278  94.2966083  84.5666802  81.7478238  94.9122027
  84.5485351  80.0629367  94.3395180  86.0978298  80.8734198  94.6710971
  86.2791294  85.2615544  93.0572305  86.4243946  85.8278604  91.9733183
  86.9066406  85.7117398  94.1011695  86.7733184  85.2363718  94.9822767
  87.7213442  86.9066864  94.0831243  87.8375683  87.2256265  93.0473307
  87.0990907  88.1150917  94.9226040  86.1112815  88.4081127  94.5669764
  87.0222117  87.7487268  95.9463064  87.9149516  89.3514623  94.9748419
  88.2093051  90.1029067  93.7819462  87.8192846  89.7515761  92.8266709
  88.9818566  91.2658867  93.8359518  89.2826248  91.7569796  92.9104968
  89.3853475  91.8224368  95.1202790  89.9350153  92.7598642  95.2051018
  89.0282320  91.0786420  96.3166999  89.3037265  91.4724180  97.2950369
  88.3294223  89.8540893  96.2190598  88.1033724  89.2823213  97.1191057
  89.1662148  86.5495830  94.6049623  89.3546740  86.2483365  95.7806598
  90.1721053  86.7812335  93.7895457  89.9798140  86.8956310  92.8046413
  91.5648550  86.7345574  94.2214931  91.6499279  86.4657185  95.2743879
  92.2773592  85.6120455  93.3517288  93.0355804  85.2388647  94.0401588
  91.4858894  84.8699862  93.2467350  92.9084366  85.8721959  91.9981775
  92.1110768  86.0742068  91.2829783  93.5499906  86.7492445  92.0835955
  93.7370636  84.6794630  91.5145718  94.1698856  84.9412088  90.5490392
  94.5360166  84.5112854  92.2367143  92.8931232  83.3887373  91.3688562
  92.2394733  83.3172898  92.2381880  92.2883667  83.4852597  90.4671622
  93.7486620  82.1339769  91.2734700  94.3088047  82.0441202  92.1090929
  93.1508904  81.3252241  91.1802612  94.3541199  82.1997918  90.4677478
  92.2708046  88.0555117  94.1959230  91.8094757  88.9625244  93.5014162
  93.3939266  88.1203815  94.9734922  93.4576886  87.4558862  95.7314366
  94.4154035  89.2066607  94.8966580  94.3783680  89.8184285  93.9952880
  94.1835005  90.1324775  96.1403336  95.0287102  90.8207476  96.1423445
  92.8649249  90.9360285  96.2128945  92.0192160  90.2483693  96.2113917
  92.8495171  91.5280746  97.1279598  92.7949612  91.5990496  95.3505663
  94.2964748  89.3811348  97.4585847  95.2926258  88.9473685  97.5459465
  94.1270255  90.0703244  98.2858720  93.5508220  88.5866931  97.4896504
  95.8400732  88.8045886  94.7067912  96.3280388  87.9051725  95.3634723
  96.5824597  89.5169553  93.8844712  96.0811605  90.2054722  93.3415689
  98.0332354  89.4690418  93.7684365  98.4599804  88.5438474  94.1557391
  98.4028271  89.6182691  92.2064355  97.9941650  90.5257826  91.7620090
  99.9543779  89.7048058  92.2260935 100.3638103  88.7973800  92.6699902
 100.3258939  89.8095962  91.2067332 100.2632007  90.5682211  92.8153656
  97.8542834  88.4596494  91.3455949  98.3762143  87.5404201  91.6115016
  96.7888939  88.3422675  91.5437521  98.0727531  88.7630278  89.8176612
  99.1380165  88.8800849  89.6186350  97.6811479  87.9375896  89.2231897
  97.5506976  89.6819341  89.5508859  98.5132724  90.7371479  94.5066861
  98.4171728  91.8603708  93.9805558  98.9805705  90.5797351  95.7391701
  98.8000687  89.3480510  96.5903003  98.9495343  88.4726351  95.9583135
  97.7806691  89.3471545  96.9762052  99.8489745  89.4552319  97.7072567
 100.7559157  88.9037463  97.4594254  99.4566794  89.0991124  98.6598242
 100.1105069  90.9866897  97.7526776 101.1764955  91.0839244  97.9583782
  99.5420490  91.4678848  98.5485460  99.7755712  91.6433614  96.3942821
  99.1464192  92.5146992  96.5760417 100.9430337  92.0377208  95.4696212
 101.5636796  91.2116440  94.8120956 101.1605946  93.3737933  95.4670720
 100.6032639  93.9793109  96.0525890 102.1043682  93.9971108  94.5081999
 102.2368239  93.3987503  93.6068013 101.4411779  95.3610398  94.1111379
 101.0126937  95.7569392  95.0318790 102.2405063  96.0192271  93.7706035
 100.3575337  95.2807657  93.0395496  99.6626586  94.4729543  93.2690929
  99.6089801  96.6017076  93.0204231 100.3031597  97.4100000  92.7904731
  98.8284051  96.5666104  92.2604418  99.1572596  96.7781048  93.9966060
 101.0388981  94.9899820  91.6438923 101.5793021  94.0446377  91.6927494
 100.2731238  94.9305922  90.8704817 101.7349669  95.7938375  91.4043020
 103.5862657  94.0939013  95.0781872 104.2649370  95.0457979  94.6126735
 104.0170799  93.3022191  96.0190955 103.3367812  92.6996059  96.4597205
 105.4197706  93.2850496  96.5364861 105.6296908  94.1873430  97.1108548
 105.5916690  92.0513689  97.4683449 105.7238123  91.2272009  96.7673567
 106.4959506  92.1681975  98.0656104 104.4440998  91.7611409  98.3612266
 103.7155130  92.6753501  98.7530146 104.3144909  90.5630577  98.7508409
 106.5229062  93.2813153  95.4663002 106.4851123  92.4442548  94.5617172
 107.4264824  94.2481623  95.6041946 107.4068132  95.0135820  96.2628637
 108.4772679  94.2332484  94.5924251 108.0305735  94.2520373  93.5983374
 109.3599884  95.4140918  94.7371428 109.9328706  95.3168396  95.6593398
 110.0426359  95.4518454  93.8882216 108.5337900  96.6999246  94.7839527
 107.9753157  96.8401513  93.8584562 107.8427391  96.6905892  95.6268428
 109.5340080  97.8494540  94.9561616 109.0575205  98.7878804  95.2397361
 110.3292177  97.6176997  95.6647031 110.1187256  98.0047893  93.6341471
 110.1119712  97.1883102  93.0396594 110.6055622  99.0757796  93.1799974
 110.4657304 100.2386845  93.6818354 109.9208185 100.3599428  94.5235405
 110.9004781 101.0335855  93.2354875 111.3391474  99.0492227  92.1234008
 111.5223410  98.1699123  91.6614988 111.7283618  99.9078100  91.7608558
 109.3860811  93.0156467  94.4418204 109.9868146  92.8911194  93.3773994
 109.3666250  92.0250852  95.3664302 109.0196308  92.3722924  96.2491201
 109.9014179  90.6390392  95.3154867 110.6318020  90.5281931  94.5140185
 110.5933315  90.3583376  96.6490781 111.1719023  89.4422741  96.5299865
 111.2646096  91.1827432  96.8895800 109.5642892  90.1751610  97.8009740
 108.3037249  90.3174383  97.6830257 110.0216106  89.8963898  98.8933772
 108.8251202  89.5852246  94.8839719 109.1440692  88.4278794  95.0278421
 107.5941012  89.9816409  94.4537633 107.2553651  90.8983121  94.7088537
 106.6398851  89.0208451  93.8751649 106.9084469  87.9980067  94.1393152
 105.3219794  89.3092909  94.4156319 105.5166263  89.2955342  95.4880230
 104.8933189  90.2719551  94.1370142 104.3376286  88.2408200  94.0975541
 104.6217820  87.2132473  93.4546294 103.0839430  88.4241814  94.3377312
 102.4193280  87.6955153  94.1199415 102.7726169  89.2955867  94.7424900
 106.8753993  88.9601684  92.3794703 106.1292669  89.5025086  91.5739949
 107.9073449  88.2473233  91.9896688 108.4712258  87.9370284  92.7680355
 108.3948399  87.9989318  90.6436865 108.4327920  88.9375877  90.0908900
 109.8019107  87.3892141  90.6713665 109.7132622  86.3518423  90.9940123
 110.2028667  87.4210827  89.6582926 110.7664954  88.1559405  91.6386943
 110.6523983  89.2134816  91.4005988 110.3935206  87.9684440  92.6455889
 112.2647796  87.7685480  91.5628337 112.2780936  86.6797510  91.6122571
 112.5903643  88.0908489  90.5737856 113.2292462  88.3494629  92.6422109
 113.2491121  89.4353269  92.5494460 112.8582019  88.0764473  93.6300812
 114.5814556  87.8206727  92.4664161 114.9256241  88.0739130  91.5512565
 115.1891669  88.2084176  93.1738345 114.5633373  86.8145340  92.5527622
 107.4066366  87.2140313  89.8558354 107.3502326  87.3779868  88.6300021
 106.6316292  86.2936697  90.4826280 106.6519479  86.3188136  91.4921101
 105.8423372  85.1941606  89.8087318 106.0093902  85.1837594  88.7316597
 106.3407241  83.8583006  90.3978172 106.0769723  83.8289307  91.4550171
 105.8386949  83.0436623  89.8758680 107.8240090  83.7073253  90.2490805
 108.0871710  83.6821441  89.1916248 108.2787316  84.5813169  90.7154122
 108.3398605  82.4365583  90.9340975 109.3457296  82.4423955  91.6400573
 107.6494992  81.4037912  90.7550824 104.3279556  85.3527414  89.9237469
 103.6245545  84.3817920  89.7894703 103.8324432  86.5297746  90.3676392
 104.5258330  87.1857562  90.6977877 102.3917843  86.8720358  90.5495681
 102.3120108  87.8570239  91.0094962 101.6410325  86.8938551  89.2087633
 101.7612317  85.9318325  88.7106028 100.5881241  87.0528036  89.4416138
 102.1416245  88.0298503  88.2701065 103.1490076  87.7959247  87.9257828
 101.1752867  88.1598361  87.0234754 100.1677404  88.3942278  87.3670010
 101.5301463  88.9564162  86.3695369 101.1614931  87.2185139  86.4740916
 102.2109987  89.5014014  88.8173684 102.8851224  89.5399781  89.6730368
 102.5802733  90.1637484  88.0344035 101.2157857  89.8225714  89.1247766
 101.7016669  85.9658246  91.6034701 100.5619018  85.4398924  91.3732339
 102.4048388  85.6405799  92.7246794 103.2911976  86.0943433  92.8936946
 101.9089097  84.6282491  93.7418179 101.4834150  83.7587170  93.2408516
 103.1128840  84.1596120  94.6179937 103.5471426  85.0407376  95.0903670
 102.7278957  83.4887860  95.3860278 104.1982245  83.4295981  93.7934563
 103.7216292  82.6337629  93.2210891 104.6537437  84.1456614  93.1094552
 105.2573565  82.8421414  94.6807956 106.0595845  82.4984423  94.0278023
 105.6244327  83.6521807  95.3110264 104.7994929  81.7162982  95.5377687
 105.6402576  81.3563928  96.1307977 104.0128234  82.0729350  96.2026450
 104.2884497  80.6373637  94.7223264 105.0173666  80.3064641  94.1064649
 103.9818914  79.8813904  95.3178316 103.5090990  80.9705397  94.1730494
 100.8513232  85.4395673  94.5657710 101.0712343  86.5879862  94.9059019
  99.7415324  84.7364171  94.7349248  99.7814387  83.7452059  94.5451688
  98.4240724  85.3422527  95.0246339  98.5075532  86.3983576  95.2810952
  97.6181834  85.2157460  93.7320918  97.5182300  84.1631638  93.4671768
  96.6285082  85.6491004  93.8764773  98.1322781  85.7446268  92.9295390
  97.8537595  84.7082606  96.2849860  98.5002185  83.8822454  96.8965213
  96.5849600  85.1135695  96.5179573  96.1918190  85.8878983  96.0022496
  95.7373859  84.4300385  97.4979004  95.9999219  83.3739205  97.5594537
  95.9492615  85.0660045  98.8691338  95.7199076  86.1284281  98.9513059
  95.2525581  84.4958414  99.4836404  97.2909709  84.8754863  99.4627641
  97.5792496  83.6582761 100.1124362  96.8113978  82.8847593 100.1256772
  98.8297634  83.4264318 100.7385555  98.9757656  82.5750687 101.4033599
  99.8902694  84.3144803 100.4909309 100.9103315  84.1139532 100.8185928
  99.5931347  85.5113686  99.7847027 100.3876739  86.2492455  99.6735931
  98.3288367  85.7578648  99.2402248  98.1596508  86.6499210  98.6371396
  94.2803602  84.6434176  97.0295559  93.9173802  85.7456666  96.5064092
  93.4058555  83.6500292  97.2492694  93.7992430  82.8796726  97.7707062
  91.9878342  83.5580408  96.8200578  91.8193279  84.3180966  96.0571553
  91.5923343  82.2051654  96.2531955  91.7651721  81.3678352  96.9292906
  90.5213850  82.3230751  96.0880742  92.2602106  81.8988175  94.9178277
  93.3172734  82.4365381  94.6193652  91.7411897  80.9219802  94.1614745
  92.1636254  80.6977622  93.2718823  90.9299261  80.4143923  94.4844399
  91.1737053  83.8555399  98.0929044  91.3174590  83.1661058  99.1144823
  90.3193172  84.8988609  98.0650793  90.2302788  85.3103551  97.1470139
  89.5999163  85.5136499  99.1686104  89.7701424  85.1911507 100.1957990
  89.8150129  87.0316340  99.0664264  89.3921723  87.3865605  98.1265682
  89.1378092  87.7490383 100.2319131  89.5604802  87.3949482 101.1721631
  89.3010486  88.8230207 100.1423842  88.0678010  87.5419807 100.2143401
  91.3272839  87.4551486  98.7652324  91.6369632  87.0511940  97.8013755
  91.4075561  88.5420151  98.7458119  92.2284753  86.8987491  99.8624269
  92.1490859  85.8118232  99.8821542  93.2617161  87.1835207  99.6638874
  91.9196770  87.3026428 100.8265915  88.1253026  85.1371038  99.1614914
  87.4258154  85.4248543  98.1974591  87.6718028  84.3470009 100.1831593
  88.2410643  84.3174058 101.0169247  86.5052388  83.5271712 100.1311509
  86.4654756  82.9834097  99.1873069  86.5459162  82.5091591 101.2835751
  86.8818315  83.0106642 102.1911833  85.5449024  82.1073090 101.4403807
  87.5221121  81.3486280 100.9416291  87.1719618  80.8873016 100.0182259
  88.5068359  81.7863357 100.7778213  87.6126466  80.2860521 102.0401613
  86.6448667  79.7899787 102.1137294  88.3714092  79.5597794 101.7487740
  87.9566073  80.8191112 103.3311470  87.1711700  81.1393895 103.8794256
  89.1901701  80.9758040 103.8293108  90.2451723  80.6818546 103.0987164
  90.1234629  80.3363269 102.1574952  91.1713586  80.8032333 103.4828331
  89.3428588  81.3528139 105.0295569  88.5332768  81.5336361 105.6057343
  90.2733922  81.4706418 105.4041539  85.1648534  84.3852525 100.1869849
  84.8974629  85.0345820 101.1679128  84.2424379  84.1673691  99.2429623
  84.6266688  83.8411491  98.3677215  82.7999322  84.5107550  99.2934024
  82.6968897  85.4216354  99.8831297  82.1439806  84.7380904  97.9173402
  82.4922282  83.8872442  97.3317775  81.0593431  84.6918016  98.0149042
  82.5345333  86.0285801  97.2166577  82.5069712  86.7722392  98.0130950
  83.8878165  86.1388802  96.4495564  83.9159276  85.3957877  95.6526110
  83.9820051  87.1359721  96.0193971  84.7127401  85.9620838  97.1397336
  81.4682597  86.4462864  96.2306887  80.5270012  86.6032671  96.7574608
  81.7685901  87.3724150  95.7405981  81.3389813  85.6649005  95.4818081
  82.0108644  83.5088219 100.1506953  82.2805618  82.3324513 100.0946898
  80.9874293  83.8597255 100.9373230  80.7875490  84.8230699 101.1656099
  80.1279878  82.8517272 101.4552271  80.6683043  81.9239585 101.6433828
  79.5715699  83.3770726 102.7920357  80.4165045  83.7075975 103.3961366
  78.9278838  84.2286846 102.5717513  78.7606933  82.3029811 103.5773387
  78.5371140  82.7070419 104.5646826  77.8298366  82.1245079 103.0390522
  79.5135015  81.0029343 103.7247395  80.6589382  81.1274539 104.2286192
  79.1269375  79.8604667 103.4078766  78.8943532  82.5227375 100.5146712
  78.3224361  81.4131106 100.5449347  78.5176983  83.4612243  99.6901079
  79.0718009  84.3040541  99.7421418  77.4372271  83.4199892  98.7641901
  77.0088236  82.4192502  98.7085924  76.3579666  84.3870117  99.2507393
  76.0232979  84.0237643 100.2224118  76.8361996  85.3589856  99.3718181
  75.1730348  84.5219085  98.3300692  74.5453853  85.3482188  98.6637879
  75.5806884  84.7506396  97.3453867  74.3393481  83.2523902  98.2508226
  73.8298985  82.7274277  99.2745479  74.1286744  82.7422897  97.0862784
  78.1081347  83.8586715  97.4137891  78.6730135  84.9119129  97.3292288
  78.3069224  82.8770789  96.5023805  77.8103422  82.0001830  96.5699155
  79.2712749  83.0396908  95.4336730  80.1349357  83.5962243  95.7976230
  79.7480757  81.6708676  94.9253180  78.8468506  81.3041497  94.4339824
  80.5292984  81.8262907  94.1812516  80.2192391  80.6481579  95.9489683
  79.3483804  80.2375247  96.4599343  80.9641842  79.5612633  95.3020604
  81.8355048  79.9710924  94.7912382  81.2894673  78.8441961  96.0557887
  80.3215262  79.0602798  94.5781083  80.9980748  81.2138336  97.0300543
  80.3978954  81.9504382  97.5641870  81.2961554  80.4217352  97.7169526
  81.8874793  81.6958938  96.6242506  78.5157264  83.8577080  94.3754951
  77.9882404  83.3561158  93.3803545  78.5515048  85.1832538  94.6176198
  79.0263834  85.4895180  95.4547529  77.8560783  86.1988490  93.7931816
  77.9395821  85.9398545  92.7376968  76.3750736  86.2614283  94.1649742
  75.8823311  85.4955358  94.7639005  76.4421964  87.1846593  94.7405080
  75.4373626  86.5555491  92.9600709  75.3914407  87.8217697  92.3687955
  74.2671384  87.7040773  91.6298058  73.9732941  88.6002921  91.0834052
  73.7050767  86.4980270  91.6975580  72.9118293  86.1565258  91.1738831
  74.4075696  85.7701306  92.6302754  74.0589617  84.7800902  92.9242036
  78.4650910  87.5558364  93.8621940  78.6195084  88.0926390  94.9799276
  78.8489868  88.0144178  92.6832406  78.7834119  87.3844298  91.8965294
  79.5095780  89.3466665  92.4752176  78.9157544  90.1669467  92.8784708
  80.9200334  89.3759278  93.1441334  80.7657904  89.3362839  94.2224361
  81.8400049  88.2213115  92.7156667  81.9950972  88.2605712  91.6374710
  82.7998991  88.3131195  93.2238743  81.3782682  87.2703742  92.9814092
  81.5855909  90.6960903  92.8405528  80.9768556  91.5096755  93.2350431
  82.5711810  90.7220670  93.3053506  81.6900790  90.8113004  91.7617063
  79.5047760  89.6816949  90.9620147  80.2851322  89.4649087  90.1495580
  78.4753166  90.4720766  90.6227402  77.8794161  90.8223006  91.3591810
  78.1799888  90.8622595  89.2516984  78.2243964  90.0779253  88.4960880
  76.7954490  91.5545721  89.1960106  76.7758033  92.3472598  89.9439146
  76.5232254  92.1447401  87.8281571  76.5422515  91.3525285  87.0797325
  75.5433362  92.6221441  87.8263147  77.2878758  92.8849268  87.5925039
  75.6909680  90.5700746  89.7479783  75.7320595  89.6549402  89.1572657
  75.9329121  90.3428997  90.7862240  74.2696293  91.1692235  89.6701911
  74.0267792  91.3962415  88.6321225  73.5499169  90.4506897  90.0623933
  74.2276326  92.0842029  90.2610794  79.2596835  91.8607233  88.7469703
  79.7589664  91.6902653  87.6431521  79.7086667  92.7264717  89.6542672
  79.2930043  92.7413175  90.5746496  80.7179212  93.7125579  89.3423628
  81.4397576  93.2542178  88.6663629  80.1609571  94.9958937  88.6759410
  79.5916329  94.6057152  87.8323001  79.4932243  95.5406703  89.3433625
  81.2196023  95.9134231  88.1771742  81.0845175  97.1216674  88.0166537
  82.3017478  95.3981843  87.7967387  81.4877489  94.0535972  90.6461445
  81.0085137  93.8062614  91.7585345  82.6989014  94.5797335  90.5526604
  83.1049082  94.7329229  89.6406347  83.5354639  94.8949231  91.7716643
  82.9001521  95.3799356  92.5127723  84.1064427  93.5891378  92.3862633
  83.2498134  92.9839998  92.6830687  85.0476055  92.7391420  91.4170395
  85.9047570  93.3435043  91.1201583  85.3955805  91.8471650  91.9379913
  84.4861093  92.4454726  90.5301449  84.9997858  93.7846973  93.6094622
  84.4326989  94.2776071  94.3991168  85.3482516  92.8147791  93.9643283
  85.8568903  94.4014783  93.3391775  84.7169677  95.8865163  91.5356604
  85.3591933  95.9072018  90.4900447  84.9639727  96.7186096  92.5405183
  84.4791063  96.4792774  93.3935857  85.8370441  97.8647628  92.5495729
  86.6447847  97.7052430  91.8352846  85.0741713  99.1800499  92.1587045
  84.2353840  99.2576773  92.8504480  85.7717791  99.9974526  92.3411768
  84.5518260  99.2628721  90.7031734  83.9756614  98.3458734  90.5796884
  83.8752996 100.1174107  90.7165080  85.5107954  99.4050004  89.5663377
  86.2488826 100.1727223  89.7985645  86.0175203  98.4564127  89.3888254
  84.7344740  99.8079678  88.3167488  84.2218039 100.7507752  88.5074953
  85.4346867  99.9362637  87.4913146  83.7500829  98.7786771  87.9668290
  83.1008957  98.6599461  88.7313934  83.2465044  99.0622104  87.1385070
  84.2249676  97.9050745  87.7896225  86.4636880  98.1749891  93.9095858
  85.8159350  97.9541911  94.9185760  87.6311701  98.8014381  93.9612886
  88.1389401  98.9673439  93.1041164  88.2702496  99.2004459  95.2518955
  87.9572601  98.5156892  96.0400865  89.8197340  99.1589962  95.1445685
  90.0860091  99.5557526  94.1648843  90.3054944  99.7511918  95.9200949
  90.4211793  97.7522437  95.2259983  90.3802822  97.0568411  96.4460441
  89.8834482  97.5263769  97.2950387  90.9518545  95.8046646  96.5849617
  90.8541637  95.2804240  97.5356083  91.6349825  95.2211455  95.5458935
  92.1184743  94.2501453  95.6531047  91.7025010  95.9172971  94.3048777
  92.2523137  95.4775678  93.4727454  91.0716925  97.1530587  94.1494488
  91.0863508  97.6545593  93.1817803  87.7950473 100.5659866  95.6857679
  87.4447915 101.3776448  94.8200879  87.7492672 100.8812392  96.9725771
  87.9230032 100.1100778  97.6012466  87.4249555 102.2248599  97.5649852
  86.9781462 102.8539611  96.7951200  86.4107726 102.1116121  98.7783479
  86.9527903 101.3380785  99.3223717  86.3715999 103.0191305  99.3808226
  84.9588831 101.6198872  98.4839460  85.0224617 100.7753214  97.7978212
  84.2166329 101.1909839  99.7539505  84.1522470 102.0352119 100.4404142
  83.2120451 100.8578644  99.4933062  84.7568420 100.3743322 100.2328604
  84.1375060 102.6082978  97.5690290  84.6446756 102.7238300  96.6111507
  83.1380337 102.2058390  97.4041556  84.0614787 103.5791297  98.0587271
  88.6342004 103.0262575  98.0705182  89.6071384 102.5134225  98.6289256
  88.5857603 104.3347003  97.7958182  87.7361475 104.6811991  97.3736855
  89.6777417 105.3015390  98.0763257  90.6432890 104.8639273  97.8227245
  89.4704244 106.5972649  97.2103979  88.5677086 107.1688273  97.4260823
  90.3362552 107.1189661  97.6181538  89.6312899 106.4495306  95.6908378
  88.5798674 106.1697633  94.7949460  87.5807777 106.0836798  95.2221565
  88.7708627 106.0021272  93.4039593  87.9626640 105.6139093  92.7841177
  90.0683642 106.2259530  92.8336176  90.3504467 106.0297449  91.5076983
  89.5913508 105.7280672  91.0033535  91.0678660 106.8056379  93.7133650
  92.0104722 107.1850715  93.3188726  90.8060470 106.8730574  95.0877807
  91.5551810 107.2818082  95.7658818  89.6792367 105.7078309  99.5633121
  88.6817429 105.5899561 100.2631711  90.7288235 106.3581802 100.1218991
  91.5373192 106.5987796  99.5664299  90.7239768 106.7334335 101.5514191
  91.7226152 107.1288781 101.7370103  89.9950151 107.5406392 101.6230651
  90.4031762 105.6796043 102.6070923  89.8530048 106.0344135 103.6564216
  90.8245062 104.3945966 102.4154311  91.2031871 104.1782931 101.5044355
  90.7490427 103.2952234 103.4337222  90.2014087 103.6336147 104.3133173
  90.0197156 102.0905555 102.8375360  90.4602006 101.7363149 101.9055565
  89.9222474 101.2567134 103.5327391  88.2848153 102.6198936 102.4199908
  87.8912540 101.4424658 101.9428413  92.1574157 102.9130315 103.8447159
  93.1553429 103.0380964 103.1185298  92.3163673 102.4910429 105.0926606
  91.4642936 102.4008420 105.6273882  93.5920466 102.1667945 105.7523387
  94.3880967 102.8697990 105.5070059  93.2684566 102.2899108 107.2825144
  92.9559467 103.3149459 107.4818628  92.4483453 101.6094891 107.5117388
  94.4928517 101.9410293 108.1696262  94.0134236 102.1302957 109.1300573
  94.7937118 100.8948385 108.1142165  95.6971431 102.7828970 108.0707939
  96.3254647 103.0747230 107.0936068  96.2969420 103.1028916 109.1537762
  97.1254828 103.6793332 109.1172175  95.9393042 102.7776805 110.0405876
  93.9578574 100.7482562 105.2996847  95.1008379 100.3833978 105.2700908
  92.9197029  99.9275445 104.7943516  91.9765921 100.2871689 104.8305686
  93.1201008  98.5173113 104.3714403  94.1821688  98.4162000 104.1480856
  92.7488901  97.5073320 105.5351183  91.6863948  97.5903772 105.7638261
  92.9732903  96.4888238 105.2182810  93.3313290  97.7472164 106.4246797
  92.3732577  98.2340791 103.0229367  91.4696409  99.0018818 102.7159554
  92.7831844  97.2578544 102.1207236  93.6163709  96.1027145 102.5220738
  93.0082085  95.4050790 103.0978718  94.4448031  96.4547528 103.1367835
  94.0924322  95.5055050 101.1765845  94.0950409  94.4173222 101.2394379
  95.0996346  95.8585562 100.9552260  93.0957006  96.0025301 100.1256044
  92.4992414  95.0938844 100.0437607  93.4397961  96.3010796  99.1353690
  92.2790504  97.0913040 100.7291896  92.2696186  98.0199037 100.1584779
  90.8479386  96.6359710 100.9799179  90.5406322  95.7133215 101.7599831
  89.8335926  97.2405875 100.3273482  90.1597439  97.7440280  99.5147768
  88.3839194  97.2154347 100.5991587  88.1796935  96.2654439 101.0930295
  88.0275875  98.3714695 101.5780266  88.2179677  99.3295646 101.0943847
  86.5531214  98.2785946 101.9590527  86.3620568  97.3208911 102.4431992
  86.3028213  99.0880963 102.6447320  85.9396117  98.3603494 101.0618221
  88.7072772  98.2549348 102.7972905  88.4615641  98.9839346 103.3715593
  87.6562859  97.4785687  99.2506855  87.9297211  98.4534882  98.4735509
  86.7812859  96.5408441  98.9345630  86.6995134  95.7439934  99.5497390
  86.0110328  96.5550089  97.7519419  86.2678051  97.3113786  97.0102735
  85.9867531  95.1645161  97.0813226  85.2143134  95.1358318  96.3128081
  87.3102524  94.9160929  96.4608312  88.0832053  94.9441649  97.2288523
  87.3096864  93.9367637  95.9822762  87.5122214  95.6844622  95.7145630
  85.4483458  94.0192028  98.0043535  86.1979874  93.8090142  98.7672158
  84.5309455  94.3629592  98.4821692  85.1574089  92.7278624  97.1963232
  86.0745065  92.3832216  96.7185634  84.7854807  91.9542987  97.8681624
  84.4074659  92.9371675  96.4335148  84.5709825  97.0390813  97.9830564
  84.0566523  96.9200265  99.1207117  83.9962977  97.6923112  96.9861282
  84.6396149  98.1843779  96.3827107  82.5747577  97.8882338  96.7806639
  82.0042835  97.4776371  97.6137718  82.2976781  99.3858655  96.6911814
  81.2268292  99.5892554  96.6949791  82.7720927  99.9239551  97.5118459
  82.9378795 100.1162765  95.1808414  82.5312556 101.3552877  95.4423878
  82.1496086  97.0144766  95.5710066  82.9647579  96.7164851  94.7077351
  80.8722553  96.6834434  95.4323394  80.1718515  97.1373446  96.0011166
  80.4515649  95.6400434  94.5360164  80.7817895  95.8647964  93.5218483
  81.0771382  94.2619065  94.9755649  80.5515534  93.6318290  94.2580259
  82.1525087  94.1515636  94.8359123  80.7669546  93.7229926  96.3195704
  81.6877065  93.9458878  97.3856467  82.5239971  94.6367420  97.2786969
  81.4957460  93.2399951  98.6151168  82.1579328  93.4491456  99.4552748
  80.4715443  92.2889067  98.7483519  80.3017007  91.7322763  99.6699893
  79.6180493  92.0588530  97.5909122  78.8670785  91.2736151  97.6777713
  79.7302791  92.8042481  96.3869095  79.0215046  92.6389217  95.5754874
  78.9094550  95.5537552  94.4790917  78.1787045  96.1534370  95.2227062
  78.4396252  94.8156245  93.4541804  79.0807649  94.6636876  92.6887038
  77.0630787  94.3791346  93.2965504  76.4860836  94.7448596  94.1459155
  76.3686826  94.8162995  92.0112714  76.7755031  94.2438907  91.1776381
  74.8239959  94.5721352  92.1075247  74.4163570  95.1446215  92.9407058
  74.3468501  94.8905139  91.1806658  74.6326510  93.5111674  92.2682606
  76.6480992  96.2703252  91.7499734  77.7226991  96.4217122  91.6478996
  76.1495227  96.5771379  90.8305241  76.2749351  96.8677524  92.5817968
  76.9180326  92.9017829  93.5027532  77.6441779  92.1382290  92.8784356
  75.8904255  92.4138222  94.1986605  75.3930574  93.1291971  94.7095061
  75.4568092  90.9745334  94.3735509  75.6894713  90.3799420  93.4901321
  76.2530919  90.3907502  95.5956225  76.2980099  89.3805505  95.1887094
  77.2619517  90.7360623  95.8215907  75.4091104  90.3874050  96.8882562
  75.2747263  91.5806020  97.5802092  75.7054939  92.4815967  97.1434629
  74.6064153  91.6486051  98.8103267  74.3156660  92.6089512  99.2361225
  74.3166415  90.4588052  99.4981952  73.8488421  90.5028611 100.7676525
  73.7524113  91.3979381 101.1010262  74.5107060  89.2018562  98.8559809
  74.2429553  88.2570480  99.3290005  75.0652159  89.2085494  97.5757161
  75.2524291  88.2678200  97.0579522  73.9497793  90.8678439  94.5372552
  73.2325749  91.8453727  94.4567233  73.4381016  89.6443920  94.7633887
  74.0400072  88.8436808  94.6342739  72.0199105  89.4125920  94.9777986
  71.5659610  90.2767342  95.4628630  71.3236227  89.1857468  93.6269150
  71.6750883  89.9782889  92.9662726  71.6784982  88.2229343  93.2592799
  69.7922713  89.1876809  93.6563272  69.5268915  88.2411324  94.1271991
  69.3944326  90.0116803  94.2486543  69.1708800  89.2348877  92.2904756
  69.6807887  89.6755477  91.2729056  67.9188040  88.8591257  92.1088619
  67.5127527  88.8957483  91.1848043  67.3724798  88.5366828  92.8947765
  71.7676901  88.3236156  96.0621497  72.5700764  87.3526675  96.1840544
  70.6941630  88.4592458  96.8609488  70.2248117  89.3469213  96.9697651
  70.2933194  87.3425777  97.7410418  70.6364859  86.3925735  97.3313737
  70.9421291  87.5423645  99.1541000  70.4493031  86.6826201  99.6080399
  72.0169671  87.3654968  99.1148424  70.6516825  88.8350818 100.0207761
  71.5958611  89.3136386 100.6958251  69.4507013  89.2403287 100.1924394
  68.7732181  87.2844347  97.6398624  68.1837196  88.1384218  96.9925770
  68.0711438  86.3107017  98.3417433  68.6407061  85.1432846  99.0053140
  68.8360554  85.4245661 100.0401181  69.5832233  84.9171708  98.5066828
  67.6570423  84.0315435  98.8909498  67.7799906  83.3150296  99.7031016
  67.7576458  83.5173478  97.9351343  66.3198803  84.7507435  98.9824435
  66.0313514  85.0467332  99.9910267  65.4995389  84.2055302  98.5156651
  66.6666347  86.0131196  98.1391274  66.5026951  85.6526451  97.1236078
  65.8837163  87.2723594  98.3538083  64.8176251  87.4266162  97.8103054
  66.2540563  88.1673825  99.3286940  66.9670439  87.8957722  99.9904915
  65.5881903  89.4535095  99.5172058  64.5113328  89.3216096  99.6224660
  66.1357067  90.0990255 100.8111084  66.2308958  89.2707088 101.5131979
  67.1275842  90.4607188 100.5400788  65.3260252  91.2530674 101.4762769
  65.8226950  91.6860687 102.3445683  65.2722897  91.9964021 100.6808725
  63.8900900  90.8551430 101.8771052  63.4906488  89.6801381 101.9439720
  63.1569957  91.8549418 102.2803435  62.2011818  91.6940799 102.5643238
  63.5483025  92.7856816 102.3068721  65.6369676  90.4996700  98.3738656
  64.8432585  91.3831831  98.3803111  66.6701571  90.5117966  97.5608955
  67.3292647  89.7612483  97.7104074  66.9433032  91.4632041  96.5104989
  66.3970451  91.1211980  95.6314466  66.5356263  92.4181280  96.8421904
  68.4383301  91.6552595  96.1336524  69.2223332  91.0495046  96.7785495
  68.6951590  92.3996536  95.0354519  67.8207758  92.6048317  94.5734397
  69.9473550  92.8586281  94.4003529  70.6965993  92.0873882  94.5790177
  69.8734003  93.1402757  92.8489087  69.3389196  92.3113149  92.3849544
  69.3096353  94.0618567  92.7041414  71.2672666  93.2821955  92.1984531
  71.6317731  94.2373236  92.5765616  71.8433692  92.4716183  92.6447404
  71.4277224  93.2418591  90.6558381  70.7966492  93.9981945  90.1891453
  72.4674193  93.4151612  90.3781761  71.0270431  91.9348707  90.1661092
  70.7872321  91.2269752  90.8454280  70.9872800  91.6202071  88.8942339
  71.4753271  92.3525755  87.9885626  71.9211409  93.2249053  88.2343080
  71.4174789  92.0624341  87.0228654  70.4111842  90.5468666  88.5483860
  69.9936732  89.9526100  89.2502718  70.3719890  90.2902173  87.5723257
  70.4388806  94.1216899  95.1484293  69.7294067  95.1115223  95.2080505
  71.6628958  94.1126649  95.5806275  72.3003781  93.4589201  95.1489640
  72.1739165  94.9976192  96.5825790  71.5292986  95.8673871  96.7093493
  72.2131497  94.2197292  97.9042170  72.9933098  93.4843454  98.1008389
  72.3752095  95.0969118  98.5306252  70.8668294  93.5790600  98.3717999
  69.5278067  94.0777287  98.2531497  68.6896382  93.3158325  98.9842467
  67.6144641  93.4948466  98.9915518  69.4618423  92.3617896  99.6432597
  69.1334113  91.6459065 100.2755130  70.8089649  92.5611988  99.2766226
  71.5904510  91.9394847  99.7134889  73.5865518  95.4218963  96.2586445
  74.4152129  94.5605994  95.9378030  73.9471822  96.7156092  96.4062611
  73.2149729  97.3221743  96.0656035  75.3255620  97.3141922  96.6490232
  76.0579228  96.7857825  96.0386707  75.4861590  98.8155592  96.4139684
  75.1453801  99.0414900  95.4035604  74.6991026  99.6216948  97.3969581
  75.0396532  99.3966326  98.4076377  74.8415807 100.6831167  97.1940196
  73.6414860  99.3738479  97.3068437  77.0086029  99.0731364  96.4806579
  77.5104189  98.4902391  95.7083151  77.2056311 100.1331782  96.3206866
  77.3850143  98.7779069  97.4600735  75.9722908  96.7166734  97.9558529
  75.3001623  96.9106412  98.9711744  77.2260530  96.2524925  97.9712643
  77.7493201  96.1615943  97.1121785  77.8212886  95.7110495  99.2183033
  77.4437553  96.2793781 100.0683447  77.4687203  94.2032499  99.4294496
  76.3904448  94.1005851  99.3074617  77.9776379  93.6372728  98.6492106
  77.8879595  93.6537212 100.8271169  78.9489667  93.4042628 100.8154960
  77.7021805  94.4134940 101.5862832  77.0634109  92.3849170 101.1546797
  76.0115618  92.6701157 101.1740224  77.2297750  91.6662761 100.3521975
  77.4447648  91.7496427 102.4959432  78.2818160  91.0699920 102.3361912
  77.7449291  92.5392867 103.1847559  76.3024944  90.9996568 103.0718334
  76.0244775  90.2676318 102.4339105  76.5781354  90.5912037 103.9534728
  75.5269018  91.6293403 103.2203388  79.3952397  96.0304625  99.2046166
  79.9540742  96.2335813  98.1438678  79.9891193  96.0245820 100.4462697
  79.4198735  95.8982555 101.2709515  81.4440466  96.2915934 100.6262487
  81.9457697  96.1314724  99.6719246  81.7463950  97.7059681 101.1038045
  82.8274017  97.7469825 101.2373805  81.3184516  98.8090016 100.2294026
  80.2374227  98.7689178 100.0957266  81.5927810  99.7609974 100.6838765
  81.8076372  98.7154853  99.2598394  81.0873150  97.8601252 102.3371302
  81.2501805  98.7423203 102.6789005  82.0894844  95.2979681 101.5702714
  81.4803028  94.7282989 102.4625476  83.3731922  95.0738033 101.4221148
  83.7850871  95.5343035 100.6231270  84.2345140  94.3031701 102.2871276
  83.9003702  94.3600660 103.3230860  84.1782763  92.9005806 101.8519002
  84.3366010  93.0583597 100.7850646  85.0650176  92.4385526 102.2858587
  82.9604707  91.9727491 102.0597858  82.1625236  92.1011681 103.2268208
  82.4454822  92.8243600 103.9916916  81.0313163  91.3163369 103.3987253
  80.3268047  91.5394686 104.1999603  80.7036813  90.3843085 102.4281861
  79.6691992  89.5288359 102.6344275  79.2382929  89.6588332 103.4823780
  81.5277041  90.1481351 101.3087646  81.3079888  89.3848769 100.5622644
  82.6960821  90.9632752 101.1760227  83.3950878  90.7849227 100.3589048
  85.6889893  94.6998588 102.2168016  86.2197299  95.0123952 101.1755598
  86.3701621  94.4692789 103.3689724  85.7869920  94.2789179 104.1713280
  87.8309324  94.5526792 103.5691714  88.2995343  95.2066434 102.8337516
  88.0618803  95.1618220 105.0045746  87.6972185  96.1880300 104.9596522
  87.4347436  94.5832949 105.6828856  89.4870899  95.1555222 105.5078319
  89.7187319  94.0925088 105.4411584  90.1660997  95.7158238 104.8650979
  89.6556886  95.6317112 106.9806498  89.2458709  96.7808919 107.3421123
  90.3703505  94.8480079 107.7240566  88.4435555  93.1480719 103.3607194
  87.9630401  92.1717703 103.8765383  89.5565474  93.0474907 102.6713556
  89.8457368  93.8730210 102.1664115  90.2901974  91.8262772 102.4606276
  89.5214374  91.0610922 102.3529283  91.1802000  91.8227856 101.1789629
  91.9504105  92.5888365 101.2686346  91.8478376  90.4373975 101.0192451
  91.0782028  89.6708292 100.9290434  92.4697446  90.4342340 100.1240791
  92.4669074  90.2290650 101.8918571  90.2262279  92.0124218 100.0145384
  89.6983803  92.9594186 100.1271267  90.7885985  92.0192839  99.0808405
  89.5053670  91.1949967  99.9979058  91.1177432  91.4016954 103.7227810
  92.1186515  92.0265310 104.0496084  90.6895396  90.3238657 104.4237958
  89.7768790  90.0315462 104.1048925  91.2520688  89.6645828 105.5396972
  91.7753374  90.3998390 106.1509971  90.1887560  88.9550131 106.4192224
  89.3986607  89.6773094 106.6244948  89.7819102  88.1277329 105.8376865
  90.6943529  88.4742960 107.6122404  89.9919141  88.0483434 108.1089738
  92.3548661  88.7070847 105.0884228  92.1336177  87.4890083 105.1153506
  93.5011058  89.1482916 104.5829370  93.6748246  90.0988828 104.8767014
  94.3676253  88.5751660 103.6600307  93.7827284  88.1719396 102.8333486
  95.3408934  89.5431090 103.1206779  94.6908264  90.3267698 102.7315922
  95.9236467  89.9356211 103.9540043  96.3045062  89.0614257 101.9947318
  96.7542744  88.1262482 102.3282769  95.6032066  88.8393623 100.6330307
  95.1535632  89.7742798 100.2985926  96.3346413  88.5049611  99.8973135
  94.8268053  88.0822301 100.7428134  97.4958417  89.9433654 101.7289042
  98.0997597  90.0213494 102.6329512  98.0960947  89.5123052 100.9276648
  97.1552040  90.9357112 101.4334136  95.1055539  87.3069855 104.1085165
  95.2059422  86.3374939 103.3167328  95.5689478  87.3304887 105.3271033
  95.5596677  88.2244524 105.7970418  96.1330484  86.1882978 106.0290381
  96.9970312  85.8016117 105.4885692  96.5797832  86.6154203 107.4163821
  97.0674954  87.5860883 107.3267175  95.6904622  86.7123671 108.0391257
  97.5626568  85.5993756 108.0700957  97.0796395  84.6280508 108.1765061
  98.4559825  85.4948312 107.4543508  97.9568548  86.1305019 109.4588847
  98.8122228  85.5627596 109.8250995  98.2300691  87.1820440 109.3710635
  96.8535766  86.0076903 110.4354805  96.0506636  85.5449550 110.0338511
  96.7864514  86.4024446 111.6545413  97.8118403  87.0175679 112.1863965
  98.6434302  87.1756266 111.6354194  97.7668212  87.3313647 113.1453566
  95.7000470  86.1631875 112.3261294  94.9337156  85.6759265 111.8840740
  95.6270714  86.4656105 113.2870215  95.2004632  84.9956604 106.1721457
  95.5355234  83.8271956 105.9498537  94.0185877  85.2399774 106.6587385
  93.7760274  86.1683063 106.9741262  93.0085990  84.1872226 106.7604150
  93.4605211  83.2507977 107.0874838  91.9572876  84.6112311 107.7936164
  91.7989092  85.6837520 107.6808581  91.0337724  84.0815498 107.5598274
  92.3766786  84.3000755 109.2613642  91.6632596  84.9181390 109.8064620
  92.2346693  83.2546724 109.5353439  93.8237071  84.7382014 109.6229786
  94.6949696  83.8596957 109.6619468  93.9403026  85.9402446 110.0032506
  92.2821484  83.9163112 105.4319450  91.4486711  82.9664506 105.3481209
  92.5319615  84.6768078 104.3653751  93.0307421  85.5343421 104.5549855
  91.8905446  84.5188758 103.0501307  92.0279537  85.4130043 102.4420583
  92.5602255  83.3040056 102.3145011  92.2072790  82.4231202 102.8507556
  92.1327458  83.3138605 101.3118725  94.1052590  83.2634513 102.2161956
  94.3288135  82.9789083 101.1880130  94.4396371  84.2861493 102.3905002
  94.8419512  82.3061481 103.1889988  95.7084323  82.8052404 103.6228378
  94.1690032  81.9894403 103.9858279  95.3100725  81.0643070 102.3833169
  95.8044364  81.3652570 101.4596644  95.9896985  80.4515910 102.9755896
  94.1628913  80.3254841 102.0782172  93.5331903  80.8929181 101.5290404
  94.4219712  79.5037168 101.5512673  93.7048855  80.0461551 102.9339654
  90.3576192  84.5885741 102.9200703  89.7419774  83.8424845 102.2067621
  89.7217039  85.5310886 103.6992803  90.3041232  86.0321407 104.3548975
  88.2530057  85.7123838 103.7829253  87.8090311  85.4439792 102.8243092
  87.6307127  84.8566817 104.8590690  86.5606350  84.9013291 104.6564867
  87.9974614  83.8512589 104.6523798  87.8862594  85.2006020 106.3287205
  88.9747885  85.2505315 106.3020321  87.4868948  86.1609941 106.6546868
  87.4647490  84.1454549 107.2744264  86.7632042  84.4987948 108.2096465
  88.0066999  83.0028826 107.1825638  87.9318090  87.2163435 103.8595982
  88.8411767  88.0609412 103.7225097  86.6094487  87.6337754 103.9370244
  85.8555999  86.9626538 103.9745376  86.2728702  89.0560118 103.9600160
  87.0912226  89.6667994 103.5787851  85.0830505  89.2385086 103.0674589
  84.4398830  88.3847988 103.2810344  84.5273535  90.1616232 103.2322629
  85.4082098  89.1809150 101.5523931  86.2297116  90.2180006 101.0189804
  86.7234904  90.9775615 101.6250742  86.3771637  90.2230793  99.6912360
  86.9004802  91.0681446  99.2439049  85.8818301  89.1817614  98.8696129
  86.1882346  89.0758974  97.8289356  84.9559617  88.2549145  99.4394677
  84.3978875  87.5898086  98.7804629  84.7643817  88.1948667 100.7981172
  84.1405544  87.4103186 101.2263970  85.9474021  89.4977937 105.3904636
  85.6631817  88.7992323 106.3468964  86.0000722  90.8159523 105.5541975
  86.3635924  91.3479781 104.7764438  85.6099913  91.5525362 106.7970314
  85.0701473  90.8810658 107.4647103  86.8332754  92.0786543 107.5238111
  87.6129998  92.1068614 106.7626716  86.6844778  93.0799248 107.9280596
  87.2842964  91.1662955 108.6449550  86.5044135  90.7478778 109.4854426
  88.5226841  90.8773411 108.8091962  88.7997040  90.2664206 109.5642696
  89.2152396  91.2620287 108.1827115  84.6558945  92.7244415 106.4476488
  84.5048102  93.0612784 105.2615853  84.0652058  93.4665342 107.3878919
  84.0927400  93.0876476 108.3237264  83.2871644  94.7135934 107.1541569
  82.4105930  94.5094101 106.5393147  82.8084552  95.2797701 108.5379992
  82.3733626  94.4472548 109.0909114  83.6950867  95.6385853 109.0607192
  81.8107251  96.3841212 108.4360566  82.1486738  97.0982726 107.6851376
  80.8503548  95.9666903 108.1334968  81.6593763  97.0801587 109.7544747
  80.7129793  97.6209256 109.7561510  81.6500159  96.3300170 110.5452334
  82.8338594  98.0841559 110.0022754  82.9064350  98.1769062 111.0858947
  83.7233594  97.5829043 109.6206530  82.7323312  99.3956760 109.4139862
  81.9083968  99.8604825 109.7678033  83.5519375  99.9357663 109.6519945
  82.6655013  99.3099752 108.4098506  84.0935721  95.7089391 106.3322325
  85.2398356  95.8236750 106.7239846  83.5418081  96.4615504 105.3700025
  82.6369935  96.1616885 105.0360973  84.1327271  97.6503768 104.7828096
  85.2197808  97.5831845 104.8263840  83.8164857  97.7461386 103.7440987
  83.6728606  98.9060549 105.5681347  83.5820650  98.9142129 106.7822972
  83.4274960 100.0210435 104.8859334  83.6364833 100.2964777 103.4861176
  82.8142273  99.8215909 102.9508816  84.5746125  99.8139782 103.2118788
  83.6758554 101.7789779 103.2811389  82.7709865 102.1044833 102.7679553
  84.5476570 102.0455502 102.6836421  83.7681108 102.3690384 104.6536674
  83.2833400 103.3263727 104.8449981  84.8257331 102.4407843 104.9074138
  83.1186899 101.2978965 105.4712251  83.6187747 101.2883247 106.4396887
  81.6450862 101.6811149 105.6611007  81.3254341 102.4321236 106.6034920
  80.7589742 101.2520921 104.6863341  81.0680095 100.8700853 103.8039128
  79.3138352 101.4906239 104.8785651  79.0854280 101.6764243 105.9280448
  78.9217320 102.7327138 104.0633561  77.8492133 102.7631066 103.8713169
  79.1976412 103.5632010 104.7131753  79.6108602 102.9774026 102.7270108
  80.5365540 103.9247556 102.5018724  80.7410387 104.6085246 103.3257326
  81.0275266 103.8177035 101.2602985  81.8347481 104.3384914 100.9484126
  80.3513649 102.8890115 100.5247254  80.3341580 102.4374850  99.1852278
  80.9363234 103.0519414  98.5159455  79.6098216 101.3101196  98.7748194
  79.6226691 100.9115136  97.7603993  78.8262807 100.6707462  99.7468334
  78.1978616  99.8170249  99.4931624  78.8294334 101.1136617 101.0774806
  78.2167629 100.5064938 101.7438759  79.5419868 102.2706675 101.5150479
  78.3647756 100.3262743 104.5915165  78.7407369  99.3985269 103.7915497
  77.2137561 100.3494254 105.2041829  77.0357603 101.1476338 105.7968719
  76.1781429  99.2503956 105.1526015  76.5856178  98.3086935 105.5203793
  74.9719675  99.6787655 106.0856874  75.3999795 100.1938297 106.9456954
  74.3573678 100.3748299 105.5148445  74.1201234  98.5306804 106.5611652
  73.8576575  97.9355699 105.6864904  74.7291188  97.9315929 107.2381592
  72.8124248  98.9822384 107.2967635  72.2451458  99.5426969 106.5536755
  72.2848265  98.0587148 107.5351825  72.9673152  99.8477039 108.5990355
  73.4465280  99.2508734 109.3750826  73.5819191 100.7212917 108.3817669
  71.6420265 100.2845357 109.0650439  71.0725071  99.4751980 109.2668357
  71.7457993 100.8403399 109.9019506  71.1979832 100.8379464 108.3462524
  75.7231711  98.9656596 103.7019468  75.5480359  99.8821775 102.8753461
  75.3346438  97.7141088 103.4203260  75.6885393  97.0089392 104.0508759
  74.6472160  97.2780055 102.2120802  75.2055038  97.6122643 101.3376176
  74.5159080  95.6438360 102.1569702  74.0714883  95.3869802 101.1954009
  75.5252759  95.2359264 102.2106934  73.6461762  95.0391135 103.3123621
  74.2127107  95.1832717 104.2323392  72.6797498  95.5355704 103.3998411
  73.4169916  93.5860906 103.1194874  74.1596032  92.7292945 103.4845594
  72.3593311  93.1859335 102.4438510  72.1948524  92.1988119 102.3073260
  71.7177796  93.8681002 102.0654839  73.3446703  97.9938015 101.9372406
  72.4885452  98.2564581 102.7660677  73.0742327  98.2939050 100.6397390
  73.8135168  98.0900448  99.9824724  71.8782969  99.0439777 100.1503919
  71.1006468  98.9721621 100.9107879  72.1460648 100.5239284  99.8625949
  72.6076752 100.9437245 100.7563433  72.8545159 100.5643662  99.0352124
  70.9056916 101.3289872  99.5072585  71.1133126 102.2982005  99.0538053
  70.4670549 100.6660111  98.7614973  69.9328451 101.5077098 100.6601600
  68.9940604 100.6945191 100.6450504  70.2076394 102.2789945 101.5953107
  71.1737039  98.3215540  98.9259600  71.8627854  97.9269936  97.9867977
  69.8970379  98.1586943  98.9349924  69.4242250  98.4461834  99.7799169
  69.1177374  97.5432713  97.8923121  69.5680250  96.5968569  97.5929126
  67.6925967  97.2689731  98.4076831  67.7073064  96.6996969  99.3370955
  67.2738208  98.2578256  98.5944921  66.8257035  96.5636937  97.4339037
  65.9527339  97.1368469  96.7721812  67.0589711  95.2777484  97.2050855
  66.4835233  94.7726717  96.5464071  67.8109146  94.8098561  97.6906352
  69.1017800  98.3922191  96.6464899  68.8858158  99.6274453  96.7050960
  69.3814776  97.7960062  95.5169411  69.6981174  96.8386482  95.5744240
  69.3869080  98.4595629  94.1915532  69.0076581  99.4805126  94.2354901
  70.8744883  98.4947185  93.6430443  70.8273023  98.9546341  92.6559524
  71.8706443  99.2460702  94.5028831  71.9187265  98.7864202  95.4900563
  72.8551698  99.2081262  94.0366532  71.5556127 100.2848994  94.6013232
  71.5032045  97.1256153  93.4213836  70.9128523  96.5674744  92.6947028
  72.5191703  97.2482401  93.0460488  71.5282608  96.5797360  94.3645107
  68.4075805  97.8230671  93.2124503  67.8680730  96.7065003  93.4776488
  68.1600741  98.5159821  92.0324827  68.6259501  99.3975146  91.8713637
  67.2421001  98.0257390  91.0170358  66.2051251  98.1545347  91.3271870
  67.4797889  98.8520255  89.7356597  67.3697262  99.8984779  90.0201293
  68.5107307  98.6640649  89.4357766  66.5128682  98.5303673  88.5271394
  66.7004362  97.5269105  88.1450485  65.4863092  98.5952621  88.8877838
  66.7249871  99.5511340  87.4056092  66.7781601  99.0524996  86.2702280
  66.8034043 100.7767828  87.6551862  67.5334969  96.5167301  90.7801771
  68.7102199  96.0190266  90.8115639  66.4751344  95.7026540  90.5275862
  65.5480848  96.0956318  90.4485504  66.6264551  94.2623033  90.3994738
  67.0438744  93.8058840  91.2969936  65.1346169  93.7622465  90.2246365
  64.7059872  94.2036772  89.3249056  65.1229638  92.6758601  90.1367216
  64.5462742  94.0624128  91.0917307  67.5390635  93.8184498  89.2035958
  67.8824997  92.6880393  89.1309692  67.8627147  94.7293765  88.2892123
  67.5482248  95.6729581  88.4648517  68.6416892  94.4775973  87.0994552
  68.8514927  93.4125316  87.0008822  67.8763357  94.9214503  85.9107438
  67.7782408  96.0015218  86.0199326  68.5177253  94.6997851  85.0577585
  66.4875360  94.3013866  85.6822650  66.0578764  94.6683059  86.6143935
  65.9223580  94.7009193  84.8402159  66.4233886  92.7431093  85.6585212
  67.4225881  92.1538968  85.2156849  65.2789506  92.2525184  85.8385888
  69.9703208  95.1744628  86.9606367  70.6471674  94.9369651  85.9654868
  70.2930925  95.9979778  87.9473062  69.5701364  96.1746471  88.6301105
  71.5951594  96.7557994  88.0698834  71.6577913  97.5017694  87.2776048
  71.5943888  97.4762297  89.4214856  71.5412433  96.7418510  90.2252041
  72.5093272  98.0598711  89.5232240  70.7320467  98.1404016  89.4792875
  72.7851848  95.8456091  87.8826321  72.9017020  94.6840379  88.3091354
  73.7961685  96.3651983  87.1716153  73.8055012  97.3415074  86.9130947
  74.9427442  95.4810297  86.6964195  74.9542850  94.5726610  87.2987752
  74.8186931  95.0862048  85.2126747  74.8670176  95.9987097  84.6184536
  75.6656847  94.4464975  84.9647233  73.6029882  94.3969379  84.9269324
  73.5735149  94.1735931  83.9937399  76.3360763  96.1203855  86.8706834
  77.3252479  95.4644112  86.4940385  76.5007554  97.3309394  87.2945619
  75.7006209  97.8695698  87.5941639  77.8420157  97.9684955  87.3549692
  78.5747921  97.1905117  87.5691634  78.2534696  98.6874225  86.0631234
  77.4840260  99.4378610  85.8817459  79.1983276  99.1830876  86.2859674
  78.4153288  97.8251822  84.8332273  79.2979589  97.2072191  84.9981108
  77.5320054  97.1889027  84.7785447  78.6010807  98.7266224  83.2640432
  76.8441840  98.9798424  83.0483865  76.4523562  99.5486906  83.8915837
  76.6666731  99.5311181  82.1249766  76.3410215  98.0142943  82.9969509
  77.9482208  99.0510983  88.4843074  76.9476571  99.6717211  88.7524281
  79.1382784  99.2864112  89.0264732  79.8533665  98.7606307  88.5444947
  79.5094533 100.0138859  90.2218035  78.8844118 100.9027735  90.3072511
  79.3104361  99.1408493  91.4968597  78.2516170  98.8943639  91.5758936
  80.1180584  97.8727863  91.4520901  81.1770956  98.1184845  91.3735178
  79.9452984  97.2990383  92.3626217  79.8178971  97.2805646  90.5876375
  79.7868540 100.0370335  92.6642969  79.1831143 100.9439833  92.6965853
  79.6802579  99.4965453  93.6048337  80.8333603 100.3029397  92.5152356
  80.8871474 100.5987364  90.0750788  81.7620364 100.0989589  89.4256940
  81.0794596 101.8572258  90.4943096  80.2728826 102.1775481  91.0109589
  82.1342834 102.8129880  90.2016900  83.1091956 102.3540925  90.0371897
  81.7445653 103.6669011  88.9547565  80.7517342 104.0937921  89.0967103
  82.7433189 104.7709562  88.7882413  83.7363939 104.3448068  88.6457657
  82.4786922 105.3729302  87.9189308  82.7426090 105.3995953  89.6786972
  81.5734342 102.8764167  87.6465624  81.9844104 103.4821258  86.8389017
  82.1500066 101.9560634  87.7393719  80.1370554 102.5400938  87.3407309
  79.5599099 103.4600263  87.2473120  80.0850725 101.9826196  86.4055200
  79.7255053 101.9339654  88.1477840  82.4328633 103.5799072  91.5428459
  81.4819324 104.1107220  92.0946585  83.6570467 103.5137290  92.0518522
  84.3315356 103.0292925  91.4769737  84.0924939 104.0091583  93.3816223
  83.2767854 104.0470534  94.1036214  85.1306543 103.0950203  93.8913276
  85.9584164 103.0535825  93.1833777  85.4937130 103.4569270  94.8532590
  84.7085328 102.0976844  94.0147527  84.5641529 105.4405182  93.2173094
  85.4700448 105.7531516  92.4564735  83.8241897 106.3643683  93.8420666
  83.0063062 106.0470852  94.3425637  84.0719045 107.8014686  93.7605673
  84.4472012 108.0266973  92.7623069  82.7877731 108.6004540  93.9919039
  82.4561902 108.4080995  95.0122724  82.9719104 110.0574506  93.7993594
  83.3030678 110.2506412  92.7790099  82.0266968 110.5703038  93.9772735
  83.7216710 110.4251555  94.4998975  81.7166923 108.2038596  93.0307360
  81.4908420 107.1447030  93.1543521  80.8189665 108.7911899  93.2236901
  82.0570655 108.3856821  92.0113306  85.1791831 108.3590689  94.7047696
  85.0917726 108.1096385  95.9376337  86.1511235 109.1842137  94.2510959
  86.4397636 109.6635061  92.8738916  85.8603052 110.5717504  92.7083007
  86.1126984 108.8922747  92.1765183  87.9154769 109.9033437  92.8083293
  88.1559130 110.6155410  92.0189851  88.4500592 108.9702697  92.6302954
  88.2438538 110.4607603  94.1726762  88.1611908 111.5418989  94.2840545
  89.2541748 110.1453769  94.4332226  87.1802180 109.7316962  95.1259161
  87.7174056 108.8799799  95.5431777  86.6693953 110.6168155  96.2617375
  85.7103468 111.3668877  96.0916684  87.3877246 110.6252273  97.4229293
  88.1556200 109.9700763  97.4577593  87.2460812 111.6248859  98.5497308
  86.2679184 111.5753737  99.0281086  88.3666240 111.2068186  99.6261361
  89.3185962 111.3738600  99.1222062  88.2567908 111.9227048 100.4407180
  88.3306207 109.7825219 100.1900215  88.1980575 109.1156191  99.3381011
  89.2607593 109.5363419 100.7022097  87.1472644 109.6128504 101.1642384
  86.3393753 108.6381024 101.1826340  86.8991877 110.5295857 101.9966904
  87.6937740 113.1002323  98.1100694  88.5990082 113.1667355  97.2778997
  87.0768662 114.1639208  98.7411998  87.5364733 115.4951040  98.3025488
  87.6272628 115.5001660  97.2163482  88.5094106 115.7006562  98.7489122
  86.4496035 116.4492645  98.8063512  85.6723216 116.5767344  98.0529035
  86.8776871 117.4206264  99.0539432  85.8989529 115.7474298 100.0749350
  84.8454950 115.9767693 100.2353369  86.4754780 116.0631352 100.9444455
  86.0725423 114.2696043  99.8530103  86.5339346 113.8785159 100.7597987
  84.8244562 113.5167719  99.5692401  84.2580691 112.9752362 100.5198528
  84.2581888 113.4296907  98.3843557  84.7080443 113.8053015  97.5617708
  82.9301860 112.8154963  98.2338402  82.2444101 113.3585564  98.8841450
  82.3561350 112.8234930  96.7891567  83.3123011 112.5006141  96.3773380
  81.5821849 112.1068416  96.5143621  82.0010513 114.1410347  96.0920222
  81.6194516 115.2438817  96.8198410  81.6807637 115.2048927  97.9074166
  81.1566311 116.4072112  96.1839553  80.8855594 117.2967519  96.7525837
  81.0420416 116.4081857  94.7288872  80.8070168 117.3106408  94.1645840
  81.2405526 115.2249253  94.0740152  81.0459644 115.2256205  93.0015251
  81.6717224 114.0465216  94.7098591  81.7411814 113.1167156  94.1452919
  82.7512138 111.2557901  98.6842085  82.0278627 110.9996551  99.6312534
  83.5913381 110.3524216  98.1092733  84.2570792 110.5984611  97.3906965
  83.5305813 108.9703006  98.5465788  84.3611275 108.4239377  98.0996115
  83.6199234 108.9415380  99.6325301  82.1926207 108.2890584  98.1296681
  81.3621558 108.7366129  97.3480818  82.1656222 107.0350386  98.5791170
  82.8599194 106.6853474  99.2239168  81.1006809 106.1182882  98.1340587
  81.1004292 105.2918396  98.8447498  80.1682820 106.6754485  98.2251848
  81.2096913 105.5434812  96.6863941  82.3332958 105.4740955  96.1611163
  80.0944964 105.1425300  96.0819908  79.2223272 105.2682789  96.5755567
  80.0549337 104.5695996  94.7577017  80.9233651 104.9031262  94.1896470
  80.0668235 103.0369897  94.8164777  79.1981448 102.6875210  95.3744821
  80.0341150 102.6337915  93.8043208  80.9766715 102.6989405  95.3124601
  78.7383515 104.9714207  93.9846817  77.6437698 104.9254391  94.5213189
  78.9417122 105.2868774  92.7232152  79.9080136 105.4473070  92.4769974
  77.9590946 105.3254986  91.6800258  77.1056807 105.9220536  92.0023703
  78.6113374 105.9865348  90.4242681  79.5127372 105.4388719  90.1492332
  77.5860051 105.9485030  89.2240668  76.6844696 106.4963943  89.4982010
  78.0373112 106.4090258  88.3452367  77.3274272 104.9137982  88.9990717
  78.9354780 107.4286304  90.7916620  77.9928948 107.9718456  90.8591539
  79.4197257 107.4195577  91.7681461  79.8407483 108.1112307  89.7854078
  79.3569432 108.1211009  88.8087118  80.0333773 109.1352900  90.1052447
  80.7837738 107.5688112  89.7177025  77.6642688 103.8798344  91.3356517
  78.5127576 103.0235949  91.3066377  76.3917062 103.6071962  91.1280420
  75.7584316 104.3162966  91.4689807  75.8187131 102.3321886  90.6328161
  76.4612839 101.7112853  90.0085717  75.1820918 101.4604937  91.7467081
  74.2503887 101.9203658  92.0761734  74.8987481 100.0743649  91.2143162
  75.8301074  99.6136451  90.8850627  74.4517098  99.4667476  92.0011190
  74.2098277 100.1417862  90.3723291  75.8737031 101.4815215  93.1821096
  76.0911835 100.4528364  93.4695293  76.8059349 102.0406346  93.1018846
  74.9859471 102.1252096  94.2361797  74.0536511 101.5663337  94.3173084
  75.4986959 102.1171025  95.1980124  74.7684006 103.1541319  93.9496621
  74.8580114 102.5743791  89.4155167  74.2975721 103.6274084  89.2911057
  74.6816045 101.6426859  88.5039260  75.0543166 100.7288053  88.7184189
  74.0518602 101.8591878  87.1476329  73.5180748 102.8082975  87.0990205
  75.0705668 101.7964221  86.0316753  75.7802596 101.0127222  86.2967244
  74.4778557 101.5039707  84.6253416  73.7683672 102.2875481  84.3593843
  75.2819250 101.4776949  83.8898942  73.9669184 100.5412352  84.6388545
  75.9140840 103.1843334  86.0196671  75.1782447 103.9405667  85.7462581
  76.2097890 103.3249957  87.0593171  77.1611178 103.3210416  85.1040812
  76.8661011 103.1809526  84.0641582  77.5960559 104.3128721  85.2273711
  77.8976448 102.5653795  85.3772160  72.9384672 100.7695878  87.0635031
  73.2430174  99.5854216  87.0648170  71.6914780 101.2055452  86.8585909
  71.5980436 102.2111727  86.8495036  70.4879912 100.3937466  86.6528905
  70.5645202  99.4932706  87.2623045  69.6182326 100.9711317  86.9663326
  70.3197592  99.9995277  85.2223311  71.2201813  99.6823257  84.4219919
  69.0215635  99.8228862  84.8529913  68.2571814  99.7458549  85.5086479
  68.7010537  99.7679075  83.3494353  69.5266513 100.1434582  82.7449112
  68.4799379  98.2993370  83.0125531  69.4301916  97.7840129  83.1524039
  67.7474434  97.9075644  83.7182910  67.9725358  98.0679890  81.5542314
  67.6308703  97.0559082  81.3373031  67.1318545  98.7580186  81.4820091
  69.0263158  98.4659476  80.5071723  69.9817815  97.7639685  80.1615834
  68.8436056  99.5771609  79.7975090  69.5281116  99.8497951  79.1066953
  68.0213014 100.1425880  79.9531023  67.4164685 100.5736701  83.0833950
  67.3061494 101.0276609  81.9632343  66.6663671 100.9027693  84.1204368
  66.7478975 100.4093065  84.9979028  65.7667171 102.0702847  84.0555155
  65.5693713 102.3865758  83.0312530  64.4435022 101.5928635  84.6874463
  64.6885459 101.3357676  85.7179581  63.7851993 102.4615563  84.6769492
  63.7634511 100.4538233  84.0457642  63.5373123 100.7509978  83.0217284
  64.4077046  99.5746699  84.0345488  62.4714010 100.1251713  84.7744086
  62.2580468  98.9414707  85.1830195  61.6165542 100.9757517  84.9359690
  66.2370990 103.2486194  84.9088690  65.4803741 104.2258183  85.0394319
  67.3973217 103.2696256  85.5176646  67.9952457 102.4778719  85.3286875
  67.8148931 104.2427637  86.6019863  67.6602912 105.2634512  86.2521372
  66.9629312 104.0256060  87.9334087  67.0021603 104.9209133  88.5538804
  65.9257502 103.8030384  87.6827709  67.5245517 102.9282592  88.6476260
  67.0244270 102.7815924  89.4538294  69.3400910 104.2987312  86.8581989
  70.1185415 103.4711982  86.3757749  69.7592984 105.3593286  87.6039926
  69.1128683 106.1307701  87.6882873  71.1284225 105.5393844  88.1070839
  71.6380089 104.5933017  88.2896992  72.0818916 106.5037054  87.2151422
  71.5135469 107.4102578  87.0071823  73.4607142 106.8902011  87.9126930
  74.0298600 105.9841288  88.1205554  74.0359055 107.5356947  87.2489207
  73.2612721 107.4156403  88.8466286  72.3442845 106.0173381  85.7717456
  72.7695430 105.0199107  85.8830770  71.3571860 105.9420565  85.3156003
  73.2540624 106.8621060  84.8802012  74.2415482 106.9374561  85.3354968
  73.3411670 106.3925539  83.9003886  72.8291918 107.8596032  84.7680219
  71.1228659 105.9263749  89.5974951  70.2266285 106.6718898  90.0654181
  72.1064716 105.4014197  90.3247583  72.8396927 104.8505362  89.9016584
  72.0983584 105.5443632  91.7843704  71.3768086 106.3511447  91.9130900
  71.5565644 104.2837260  92.4826260  72.1754484 103.4600735  92.1267054
  71.5489589 104.2916902  94.0529870  70.9298584 105.1148486  94.4096726
  71.1445748 103.3482316  94.4196728  72.5671578 104.4175285  94.4211394
  70.1638949 104.3649374  92.1672260  69.7037959 103.6170274  92.5552206
  73.4661142 105.8777098  92.3015003  74.4149337 105.3620899  91.7681986
  73.5656960 106.6200323  93.3605856  72.7617801 107.1559369  93.6549064
  74.7749523 106.7326902  94.1243641  75.5345114 106.0501876  93.7431038
  75.3084168 108.1828805  94.0068539  75.8001427 108.0945420  93.0380912
  74.4761977 108.8824722  93.9288606  76.2897802 108.6859106  95.0204931
  77.6524219 108.5608728  94.8109907  78.0071348 108.0507544  93.9154141
  78.6096680 109.1012257  95.7701197  79.6609825 109.1899623  95.4963213
  78.1633512 109.5825215  97.0167543  79.0389541 109.9923556  97.9884624
  79.9580561 109.9131465  97.7227988  76.7003756 109.5555647  97.2939306
  76.3173539 109.8529858  98.2701148  75.7981966 109.1366617  96.2709930
  74.7230687 109.1620210  96.4486357  74.5040897 106.3776223  95.6151740
  73.5089401 106.8049319  96.1384843  75.5543294 105.7931428  96.2770247
  76.3775282 105.5909768  95.7278690  75.5425969 105.3773653  97.7317795
  74.8816295 106.0148674  98.3189867  75.0157962 103.9240699  97.7987926
  74.0021964 103.9013411  97.3985453  75.6464370 103.2420224  97.2285264
  74.9391035 103.3722583  99.1969797  74.1706764 104.0036911 100.2723431
  74.4717356 103.2064054 101.3162817  74.0221769 103.4826435 102.2700576
  75.2814620 102.2019807 100.9913259  75.6698549 101.5119919 101.6183556
  75.5150440 102.2551044  99.6083066  76.0755411 101.4583801  99.1192518
  76.8922283 105.4818220  98.4393746  77.9189896 105.3174005  97.8360672
  76.8626353 105.8162371  99.7694016  75.9314413 105.8910631 100.1533002
  77.9890083 106.2373442 100.5980142  78.8519926 105.5786330 100.5007683
  78.3773865 107.6630168 100.0421276  78.4567350 107.6140027  98.9561255
  77.6123743 108.3889372 100.3176195  79.7254828 108.1301034 100.6123246
  80.5420916 107.3808909 101.1258222  79.9358620 109.4030365 100.5159519
  80.7974970 109.7972761 100.8656090  79.2374658 109.9964984 100.0915153
  77.6196542 106.0738877 102.0876103  78.0328252 106.8901352 102.9152006
  76.7190761 105.1734824 102.4413027  76.3128407 104.6214960 101.6994245
  76.2738946 104.9232287 103.8205200  76.1158282 103.8465890 103.8834566
  77.1163656 105.2038111 104.4526715  75.0496413 105.6224552 104.3052334
  73.9110188 105.3828119 103.7946379  75.2356389 106.6497354 105.1583080
  76.1201203 106.7028480 105.6430461  74.1696057 107.5630805 105.5608289
  73.2066768 107.0906410 105.3667465  74.2478327 107.9269038 107.0610676
  74.8490353 108.8094223 107.2797355  73.1943023 108.1572134 107.2195959
  74.6576072 106.8032063 107.9725624  73.7685838 106.0101998 108.3582076
  75.8737534 106.5628685 108.1632375  74.0811241 108.7728476 104.6355869
  73.6918646 109.8470571 105.0554249  74.2537132 108.5106567 103.3138506
  74.6733018 107.6077656 103.1440489  74.0884309 109.4042255 102.2024197
  73.0636045 109.7702667 102.2644188  75.0115411 110.5803664 102.0966229
  74.8625431 111.0328131 101.1162195  74.7313924 111.2936637 102.8717510
  76.4885165 110.1973702 102.2638726  76.5688803 109.2267788 101.7743883
  77.0250769 110.9443021 101.6788105  77.1207781 110.1103761 103.7184022
  76.7937058 111.0022723 104.2528588  76.6920029 109.2266183 104.1908676
  78.7050925 110.0180599 103.7634415  79.0262884 109.7332838 104.7653578
  79.0482708 109.2720287 103.0466673  79.2721488 111.3148174 103.4226759
  78.9546190 112.0061666 104.0869883  80.2802344 111.2592292 103.4504869
  78.9749898 111.5786871 102.4941457  74.0352446 108.6378432 100.8857328
  74.8023296 107.6830424 100.6706004  73.1108002 108.9929570 100.0320386
  72.7473687 109.9271567 100.1556821  72.6252183 108.2193548  98.9418001
  73.4509952 107.8946248  98.3087581  71.8792562 106.9340293  99.5018715
  72.7195569 106.2938722  99.7705591  71.2876975 107.1488217 100.3918280
  71.0033837 106.2192478  98.4668542  69.8119618 106.8035269  97.9853268
  69.5216098 107.7558725  98.4289857  69.0083098 106.2174334  96.9815924
  68.2236338 106.8048053  96.5047489  69.2958844 104.8910939  96.5148854
  68.4910615 104.3053019  95.6669474  67.7401938 104.8517559  95.4236667
  70.3843337 104.2287180  97.0777302  70.5670373 103.1991114  96.7701104
  71.2577937 104.8612023  98.0390295  72.1100947 104.3149170  98.4430783
  71.6110769 109.1329029  98.2329524  70.9266825 109.9183253  98.7832522
  71.6258178 109.0799705  96.9260756  72.3053321 108.4052794  96.6049034
  70.8921830 109.8934779  95.9013261  69.9289342 110.1824365  96.3217471
  71.6470098 111.1738358  95.4681631  72.5179369 110.8664924  94.8892630
  70.9148240 111.6346599  94.8051058  72.0737777 112.1811211  96.5329046
  71.3191275 112.1457207  97.3186212  73.4742744 111.9255495  97.1495807
  74.2295560 111.9612580  96.3644861  73.6890160 112.6915379  97.8947306
  73.4895959 110.9440392  97.6233984  72.2115766 113.5162628  95.8980682
  71.2555193 113.8152417  95.4683408  72.5163172 114.2460850  96.6481308
  72.9641960 113.4689954  95.1110302  70.5661450 109.0265763  94.7089605
  71.3617527 108.1950415  94.3528956  69.4239412 109.2304592  94.0685549
  68.6901401 109.8041225  94.4591259  69.1941787 108.6013865  92.7743835
  70.1486646 108.6283127  92.2487118  68.8094577 107.1021708  93.0395347
  67.8512971 107.0585162  93.5573402  68.7330883 106.5726945  92.0898385
  69.5765652 106.6331892  93.6557340  68.0867011 109.1951242  91.8509298
  67.2781128 110.0270250  92.2865708  68.1898295 108.8559228  90.5375947
  68.8747997 108.1325396  90.3713665  67.5258292 109.4833737  89.3612670
  66.5339967 109.8963051  89.5452644  68.4697664 110.6196365  88.7278869
  67.8630285 111.2416670  88.0698234  69.1124127 111.4975241  89.8129934
  69.7197230 110.8762207  90.4712160  69.7426556 112.2529927  89.3437794
  68.3313758 111.9869814  90.3948114  69.4762085 110.0107361  87.7480963
  69.9576667 109.1655732  88.2400297  68.9268663 109.6577206  86.8753405
  70.4911619 110.9711596  87.3278224  71.0412661 111.3242987  88.2000483
  71.1810025 110.4911923  86.6336678  70.0104650 111.8164477  86.8353608
  67.1226784 108.3645973  88.3714519  67.8690136 107.4699877  88.0945501
  65.9889959 108.6346991  87.7813300  65.3675866 109.2831209  88.2433896
  65.4752253 107.8836668  86.5946913  66.3260952 107.5271052  86.0141885
  64.7384953 106.6816852  87.1657878  63.8784034 107.0223129  87.7422553
  64.3989365 106.0422324  86.3509871  65.4094560 106.1179500  87.8139494
  64.7408403 108.7907467  85.6230232  63.5752583 108.6162190  85.2732324
  65.2997040 109.8821620  85.1306646  66.7616723 110.1993841  85.2212327
  67.2650051 109.2447364  85.0682481  66.9136708 110.5290774  86.2489962
  67.1754622 111.2320075  84.2249593  67.5228691 110.8145908  83.2798822
  67.9171618 111.9339938  84.6060082  65.7981923 111.9159052  84.0676135
  65.7906274 112.3819754  83.0823113  65.5857029 112.6687138  84.8267098
  64.6929891 110.7474099  84.1285921  63.7019606 111.0274847  84.4856899
  64.5690865 110.0705011  82.7518410  65.5254842 109.4664832  82.3540914
  63.4914707 110.1649811  81.9893314  62.3033800 110.9644791  82.2569161
  62.6368145 111.9196305  82.6626345  61.7162054 110.4363152  83.0081602
  61.5486590 111.1193923  80.9245531  61.9612541 111.9386926  80.3358160
  60.4868003 111.2951877  81.0967545  61.7740438 109.7745034  80.2418962
  61.7076177 109.7552064  79.1540937  61.0822841 109.0436063  80.6606534
  63.2358049 109.4444948  80.6913424  63.1566300 108.3788643  80.9064267
  64.3723626 109.6809130  79.6468420  64.5931656 108.7821233  78.7837453
  65.2125628 110.6969918  79.7792867  65.1126896 111.3831427  80.5136719
  66.2889548 110.8670519  78.8203181  65.8873310 110.8622451  77.8070193
  67.1148860 112.1726805  79.0462307  66.4274201 113.0183199  79.0658580
  67.9110133 112.1182737  80.3884923  68.5990693 111.2731016  80.3694264
  68.4749672 113.0424572  80.5147528  67.2155106 112.0012296  81.2195615
  68.1026481 112.4365620  77.8463384  68.7269570 113.2957828  78.0914480
  68.7322412 111.5567740  77.7133534  67.3495853 112.7111539  76.5728590
  66.7200785 113.5911411  76.7049330  68.0570378 112.8893779  75.7630155
  66.7253606 111.8521325  76.3268396  67.2830856 109.6651298  78.8438200
  67.8567863 109.4276346  77.8152946  67.3803571 108.9532175  79.9379178
  66.8882778 109.2010428  80.7844046  68.2003433 107.7008733  79.9344890
  68.8734201 107.5515956  79.0902243  68.9712274 107.5340132  81.2313411
  69.3867311 106.5278111  81.2862453  70.1574520 108.6021666  81.2703976
  69.7426712 109.6086944  81.2159965  70.7174620 108.4902162  82.1988138
  70.8231358 108.4377901  80.4230815  68.1632155 107.4617186  82.5452392
  67.7903862 108.4637910  82.7572534  67.3217631 106.7896068  82.3769443
  68.9501090 106.9827275  83.6842178  69.7915382 107.6546389  83.8534271
  68.3222206 106.9561719  84.5748076  69.3229172 105.9804550  83.4731167
  67.2854193 106.4477941  79.8174104  67.7785081 105.3773101  79.6262263
  65.9383908 106.5223242  79.8879913  65.5133179 107.3712983  80.2324551
  65.0597376 105.3697285  79.5867376  65.5151720 104.4560852  79.9687516
  63.6758759 105.5400805  80.2400658  63.3567219 106.5775749  80.1408416
  62.9589141 104.8903508  79.7381523  63.7506172 105.1616957  81.7516189
  63.7496018 104.0757152  81.8451389  64.6738954 105.5611281  82.1712774
  62.5835206 105.7254770  82.4914650  62.4525252 106.7895336  82.2946843
  61.6595052 105.1967799  82.2574256  62.9286922 105.5191238  83.9660646
  63.3817938 104.5373422  84.1035576  63.6273764 106.2899313  84.2913265
  61.6894384 105.6067375  84.7691156  61.0420552 104.8922967  84.4681687
  61.9105441 105.4711752  85.7452483  61.2696541 106.5165558  84.6421868
  64.9575134 105.1468375  78.0648835  64.0569806 105.5819491  77.3614743
  65.8378249 104.3137302  77.5120020  66.3536835 103.7192952  78.1449603
  66.0826853 104.1641992  76.0302919  65.3098089 103.5287908  75.5978370
  66.0527535 105.5392272  75.3128449  66.3051535 105.2868962  74.2829311
  65.0025062 105.8253911  75.3693323  66.9526693 106.7435978  75.7949197
  66.8480298 107.0717863  76.8290588  67.9679305 106.3829838  75.6296797
  66.7050771 107.9299759  74.8823979  65.7666262 107.9785995  74.1576284
  67.5323506 108.9623628  75.1178034  67.4536924 109.8045630  74.5658858
  68.2290555 108.8914498  75.8455912  67.5172090 103.5584280  75.8094165
  68.4977933 104.0681536  76.3861593  67.6457813 102.5757749  74.9065903
  66.8121902 102.4595261  74.3482790  68.7857055 101.5884963  74.7140217
  68.4548571 100.6381318  74.2951591  69.7408488 102.2939146  73.6724684
  69.1882570 102.4261260  72.7422740  70.0161274 103.2696617  74.0727673
  70.8988060 101.5480790  73.4248171  71.4482821 102.0119575  72.7888198
  69.3374419 101.2753475  76.1390764  68.5427010 100.9190526  76.9992105
  70.6442471 101.3227752  76.3001383  71.1808275 101.5190566  75.4672791
  71.3479336 100.9799982  77.4929531  70.8173151 101.4558600  78.3176342
  71.2980515  99.4811194  77.6870563  70.2851616  99.1175754  77.5138797
  72.2571296  98.8238716  76.6809372  73.2703636  99.1866008  76.8538072
  72.2325104  97.7416309  76.8084050  71.9493893  99.0767884  75.6663291
  71.7852613  99.2010190  78.9479704  71.7638901  98.2527254  79.0958991
  72.7453856 101.5810438  77.4781842  73.4375205 101.6957098  76.4483076
  73.2211938 101.8767708  78.6856311  72.5368263 101.8413622  79.4275790
  74.6416018 102.2439070  79.0393842  75.0207162 102.9289786  78.2810647
  74.8110035 102.8705122  80.4210741  74.4043162 102.1666940  81.1472599
  76.2942990 103.1997663  80.7892181  76.7015524 103.9039383  80.0636927
  76.3325634 103.6418206  81.7848208  76.8844297 102.2834285  80.7761805
  73.9543562 104.1702885  80.4569091  74.5177567 104.9900980  80.0112715
  73.0335324 104.0151005  79.8946817  73.6056269 104.5236392  81.9414108
  74.5260079 104.6794361  82.5041949  73.0059071 105.4334458  81.9676286
  73.0417852 103.7044369  82.3876059  75.4870237 100.9425560  79.0042638
  75.1773266 100.0060108  79.7875216  76.5586992 100.8198451  78.2020495
  76.7552344 101.6176770  77.6147357  77.4193814  99.6324481  78.0770202
  77.1205470  98.7935588  78.7055597  77.4960197  99.1554542  76.6330502
  78.3828017  98.5290210  76.5366220  76.2547989  98.3567801  76.1993720
  75.3676120  98.9827497  76.2950920  76.3678247  98.0439245  75.1613705
  76.1482504  97.4769657  76.8339393  77.7776462 100.3251565  75.6539588
  78.7280573 100.7933119  75.9101838  77.8247637  99.9428263  74.6343004
  76.9782967 101.0624473  75.7284136  78.8969015  99.9035761  78.6125799
  79.6381265  98.9538959  78.8589353  79.3352525 101.1479531  78.8746014
  78.7228861 101.9056150  78.6080394  80.7192054 101.4856006  79.3561764
  80.9928664 100.8555183  80.2024654  81.7584986 101.2323171  78.1759526
  82.8039105 101.3300949  78.4686175  81.6166106 100.2903148  77.6462362
  81.4547250 102.5301644  76.9735821  82.3907498 102.1430360  76.1116730
  80.7976538 102.9048473  80.0048873  79.7955994 103.6348327  79.9294333
  81.8663001 103.3016524  80.7239643  82.6552037 102.6719574  80.6891131
  81.9643350 104.4967718  81.5782802  81.4761962 105.3492462  81.1059380
  81.2597416 104.2053434  82.9157358  81.3470797 105.0159630  83.6391769
  80.2061884 103.9896642  82.7379485  81.8362693 103.0015384  83.5567586
  82.9356245 102.9564270  84.3847291  83.0098779 101.6679175  84.7673983
  83.7641390 101.4046710  85.5089442  82.0866327 100.9054337  84.1257591
  81.9885370  99.9047538  84.2212413  81.3249006 101.6795377  83.3466697
  80.5305608 101.2352562  82.7468869  83.4417089 104.9089475  81.7898421
  84.4147430 104.1758138  81.8167068  83.5689884 106.2244002  82.0574948
  82.7221725 106.7505541  82.2192489  84.8388052 106.9302672  82.1061352
  85.6277363 106.3053271  82.5246287  85.1907217 107.2673955  80.7351311
  85.4345506 106.3099488  80.2747589  84.3330767 107.7069088  80.2258442
  86.3605059 108.1842653  80.5785758  86.4202502 109.1751497  79.9405070
  87.4213423 107.7841948  81.1639473  88.2630390 108.3400836  81.1126234
  87.4142766 106.9135437  81.6758237  84.8495254 108.2004611  82.9339750
  83.9582230 108.9856629  82.6978500  85.7651182 108.3830725  83.8932075
  86.4086481 107.6197970  84.0461102  85.8950638 109.5593183  84.7118233
  84.9218352 109.9175060  85.0474228  86.7316659 109.1715795  85.9497366
  86.3765461 108.2117441  86.3248436  87.7760186 109.0805285  85.6511782
  86.6054153 110.2352902  87.0592637  87.1890436 111.1147199  86.7870833
  85.5586551 110.5162120  87.1753592  87.1267591 109.6669777  88.3723862
  86.9420007 110.3628757  89.1907317  86.6487794 108.7125047  88.5928768
  88.5938844 109.4492789  88.2537798  89.0267028 109.8265229  87.4228438
  89.3843568 108.9851096  89.2325476  88.9303221 108.1949656  90.1477650
  87.9598419 107.9155681  90.1334392  89.5478915 107.8602057  90.8734670
  90.6599035 109.2060152  89.0665615  90.9816343 109.6956500  88.2438543
  91.3193048 108.8862965  89.7615929  86.5943961 110.6623731  83.8992068
  87.5859997 110.3924640  83.2696257  86.1076331 111.8900782  84.0618345
  85.2467463 111.9945222  84.5795840  86.7018127 113.0918545  83.4410459
  87.5365608 112.9444339  82.7558000  85.6444666 113.9544469  82.7458684
  84.9822018 114.3409798  83.5205275  86.2305450 115.1296372  81.9378325
  86.8926025 114.7438397  81.1626286  85.4201982 115.6932194  81.4754326
  86.7937348 115.7837967  82.6034106  84.5828771 113.3082399  81.9350915
  84.0027379 112.6345548  82.5657172  83.9258812 114.0726325  81.5201699
  85.0391041 112.7421763  81.1229771  87.4755960 113.9019530  84.4132422
  88.4766317 114.4209880  83.8987801  87.0774874 114.0042390  85.6939003
  86.2511734 113.4801396  85.9441488  87.6375795 114.8890053  86.6644359
  88.5332638 115.3267933  86.2237653  86.6912164 116.0557642  87.1472904
  85.7323044 115.6250884  86.8590105  86.7139723 116.2003445  88.2274195
  86.8735794 117.3950839  86.4534406  85.9460191 118.2276859  86.6016392
  87.7594401 117.7061062  85.6276804  88.1898083 114.0646490  87.8606968
  87.3951856 113.3963961  88.5236198  89.4936460 114.1315334  88.2041418
  90.5629645 114.9998173  87.5741998  90.5476155 115.9880139  88.0339085
  90.3728541 115.0940412  86.5050511  91.8124579 114.2574580  87.8625242
  92.6789701 114.9187078  87.8604320  91.9703234 113.4502611  87.1472529
  91.5533529 113.7343643  89.1789492  91.8222539 114.4431172  89.9621865
  92.1752235 112.8434787  89.2666953  90.0663933 113.3520548  89.3066425
  89.9103165 112.3122811  89.0192249  89.5307580 113.5752717  90.7281414
  89.8200495 112.7671775  91.5899929  88.6806639 114.5760868  91.0071580
  88.6636434 115.4080650  90.4347753  87.8179430 114.5345119  92.2136446
  88.2772155 114.0126855  93.0532071  87.6509837 116.0829358  92.6015389
  87.2368780 116.3134157  93.5831166  88.7151909 116.3184734  92.5923088
  86.9607823 116.9383248  91.5761041  86.0797824 116.4869432  90.8940573
  87.1360659 118.2588703  91.6252902  86.6811177 118.8512721  90.9454504
  87.7230169 118.6609514  92.3421724  86.4644254 113.8058454  92.0901686
  85.8765751 113.5745459  93.1311962  86.0864207 113.2183191  90.9322254
  86.6449288 113.2612991  90.0917965  84.8466500 112.5050133  90.8871758
  84.9727584 111.6879857  90.1767803  84.6756442 112.0966171  91.8832024
  83.6196066 113.3477936  90.4717111  82.5382417 112.8105601  90.4314715
  83.7712869 114.6321053  90.1682274  84.6898550 115.0447139  90.2462413
  82.6528366 115.4964473  89.7988784  81.8117022 115.3176184  90.4686638
  83.0516343 116.9552696  89.9009413  82.2322208 117.5736522  89.5345213
  83.2495790 117.1968403  90.9452408  84.2226812 117.2082195  89.1239912
  84.4622764 118.1348321  89.1987102  82.0241074 115.2965913  88.4212288
  80.9192032 115.7307267  88.1534713  82.8168868 114.6872120  87.5083265
  83.7472274 114.4568216  87.8268953  82.4672426 114.4072581  86.0868823
  81.3867945 114.4712484  85.9579001  83.1315112 115.4155144  85.1498762
  84.1999621 115.3967368  85.3647233  82.9600782 115.0673501  84.1313025
  82.5982260 116.8713654  85.2971679  81.5123861 116.8085939  85.3686677
  83.0009748 117.2667623  86.2296682  82.9920799 117.8290334  84.1066235
  82.8119877 117.3002530  83.1706443  82.3533687 118.7110348  84.1537500
  84.4047693 118.2647426  84.1403904  84.8528276 118.2515145  85.0454694
  85.1224492 118.5956957  83.0900106  84.7030478 118.6158075  81.8749435
  83.7471819 118.3623126  81.6696129  85.3314075 118.8850055  81.1314409
  86.3191447 118.9982334  83.2527284  86.7058098 119.0597772  84.1837507
  86.8761753 119.2541265  82.4500239  82.7976770 112.9944271  85.5780772
  83.9362710 112.5728419  85.6428434  81.8478771 112.3050688  84.9645186
  80.9340677 112.7351584  84.9731565  82.0025560 110.9760889  84.2837514
  83.0531687 110.7585659  84.0914083  81.4171545 109.8490721  85.2449632
  80.3836092 110.0490832  85.5275920  81.4548878 108.9637586  84.6102222
  82.2497176 109.6102061  86.4998050  82.0479200 110.3432537  87.7188291
  81.4185508 111.2328222  87.7445549  82.7013883 109.8787799  88.9335308
  82.3676701 110.2472673  89.9035572  83.6509298 108.8448411  88.8632702
  84.4520794 108.6849261  89.9301706  84.2729306 109.3153684  90.6316318
  83.8108968 108.1654754  87.6623968  84.4891429 107.3125747  87.6877532
  83.1562650 108.5178198  86.4496043  83.3602516 107.9571768  85.5373714
  81.2602049 110.8999834  82.9248869  80.0042961 111.0801503  82.9383794
  81.9360052 110.7142020  81.7991639  82.9303324 110.8908547  81.7847915
  81.2994996 110.3104564  80.5791327  80.5206197 111.0338195  80.3379042
  82.2655128 110.2264741  79.4059190  83.0546834 109.6369267  79.8725484
  81.8732282 109.6888871  78.5426618  82.8304258 111.5614687  78.9562162
  82.7863497 112.2602891  79.7915653  84.2952415 111.4110196  78.4877239
  84.3400643 110.7126549  77.6520347  84.6772951 112.3813511  78.1705602
  84.9030966 111.0327761  79.3096390  81.8150663 112.1716838  77.9614059
  80.8551324 112.3085019  78.4593086  82.1830940 113.1362124  77.6116327
  81.6905061 111.5009213  77.1113109  80.6732247 108.9668394  80.8883493
  81.2712379 108.0679657  81.4669202  79.5519964 108.7250129  80.2669491
  79.0606786 109.5377820  79.9232741  78.9462305 107.3776595  80.0308719
  79.6000152 106.5734908  80.3684771  77.6057497 107.3367530  80.8875199
  76.9971246 108.0265981  80.3028930  77.2053483 106.3276516  80.7900875
  77.5803367 107.7466676  82.3278390  77.8808215 108.7907907  82.4151122
  76.1658958 107.5765786  82.8784939  75.8648676 106.5325497  82.7919800
  76.1452990 107.8744411  83.9268042  75.4766613 108.2011872  82.3102332
  78.5753769 107.0140580  83.1101742  79.5702227 107.2138106  82.7120784
  78.5294489 107.3362303  84.1504611  78.3691233 105.9453385  83.0518905
  78.6225358 107.1284380  78.5236306  78.1942703 108.0899300  77.8360385
  78.5890651 105.8402340  78.1635471  78.5064696 105.1621385  78.9074986
  78.6641549 105.3441531  76.7609448  78.5126486 106.1799268  76.0778436
  79.6482168 104.9083270  76.5883842  77.5782034 104.2651879  76.4889990
  77.3416384 103.3510503  77.2851639  76.9256876 104.3203961  75.3263623
  77.3090523 104.9531960  74.6388340  75.5981088 103.6850434  75.0449188
  75.3828007 102.9575239  75.8275151  74.3797670 104.7797896  74.9981416
  74.3039857 105.2840937  75.9614867  74.7956346 105.4664945  74.2608556
  72.9459449 104.3158777  74.5338692  71.9994640 105.0939779  74.8594869
  72.6906989 103.3471297  73.7869155  75.6288775 102.7486874  73.7992704
  76.1675368 103.1802157  72.7500143  74.9536102 101.6159023  73.8342707
  74.5740864 101.3548789  74.7331187  74.8800132 100.6181865  72.7129275
  75.8739818 100.2537863  72.4534317  74.0213270  99.4213425  73.1777869
  74.4379612  99.0950536  74.1307039  73.0142874  99.8075488  73.3353182
  73.9668377  98.2276599  72.2060329  73.2890721  97.5294113  72.6971373
  73.4832281  98.6409104  71.3209071  75.4562355  97.3556463  71.7118814
  74.8167059  96.3940034  70.3372298  74.4244565  97.0663136  69.5741844
  75.6181618  95.7902236  69.9115315  74.0186798  95.7408173  70.6902221
  74.4759853 101.1750951  71.3703615  75.0725820 100.8577724  70.3814511
  73.5867716 102.1428920  71.3357327  73.1087691 102.3463213  72.2018906
  73.1665788 102.8839010  70.1001560  72.9083593 102.1854867  69.3041413
  71.9137216 103.7478342  70.4299290  71.1896654 103.0526366  70.8548316
  72.2414291 104.4460958  71.2000839  71.2199920 104.5746285  69.2062900
  70.3336942 105.1269676  69.5185375  71.9995259 105.2767197  68.9104962
  70.8670708 103.6722182  68.0171544  70.4140597 102.4943571  68.1696082
  70.8816958 104.0310683  66.8154449  74.2208138 103.7268320  69.4600788
  74.1595947 104.1820703  68.2477409  75.3190018 104.0670628  70.1742946
  75.3694861 103.7731148  71.1392533  76.4584436 104.8526675  69.6128717
  77.3956011 104.5501274  70.0801023  76.5266202 104.7062427  68.5349055
  76.2058783 106.3931483  69.9105468  76.0563511 107.1628494  68.9793562
  76.2660295 106.7699410  71.1862035  76.3941677 106.0321390  71.8639410
  76.0712277 108.1242019  71.6716350  76.6887788 108.7867507  71.0652037
  74.6019564 108.6247872  71.6144555  74.6286276 109.6654862  71.9374623
  74.3115271 108.5779830  70.5649031  73.5944032 107.8618103  72.4517486
  73.9486615 106.8316307  72.4882442  73.6389931 108.2964029  73.4503692
  72.1263846 107.8867671  71.9412591  71.7085378 108.8925325  71.9852935
  72.0549371 107.5085311  70.9214884  71.3383260 107.0078810  72.8280718
  71.8574146 106.4787295  73.5141075  70.0546869 106.8543372  72.7718847
  69.3740475 107.6149548  71.9844833  69.8468625 108.3128395  71.4281535
  68.3711890 107.5093980  71.9276305  69.4249228 105.9684317  73.5073747
  69.9465841 105.3809084  74.1420289  68.4215373 105.8782980  73.4353178
  76.6442110 108.2073508  73.1366737  76.7551852 107.1903211  73.8883893
  77.1111881 109.3934362  73.4862203  77.0426279 110.1969892  72.8781894
  77.6830744 109.5892395  74.8688164  77.8077797 108.6281790  75.3677257
  79.0956472 110.2862455  74.7558795  78.9400744 111.2028836  74.1869587
  79.4766870 110.5343322  75.7465165  80.1215084 109.3883239  74.0179808
  79.8053096 109.2277469  72.9872848  81.4879516 110.1034922  74.0306790
  81.8050480 110.2640120  75.0611071  82.2255814 109.4879567  73.5157819
  81.4002932 111.0646528  73.5241351  80.3355145 107.9984240  74.5225604
  79.3965573 107.4466191  74.4781748  81.0803194 107.4974838  73.9041545
  80.6860175 108.0357186  75.5539942  76.7831578 110.5628775  75.6641082
  76.1265108 111.4668905  75.1651720  76.7526863 110.3134176  76.9755022
  77.2297481 109.4543634  77.2090345  76.1976748 111.0798644  78.0274773
  75.6829865 111.9507548  77.6215895  75.1732585 110.2266073  78.8319358
  75.7688343 109.3153151  78.7777583  74.9235479 110.4355288  79.8721745
  73.9007335 109.9409667  78.1414587  72.6843592 110.3657715  78.7049606
  72.7396988 111.0400192  79.5596111  71.3975274 109.9458716  78.1977722
  70.5020725 110.4208357  78.5986093  71.2880873 108.9887042  77.2492558
  70.3380603 108.5764340  76.9092823  72.4862560 108.5285209  76.6982403
  72.4037644 107.8077641  75.8847264  73.7733957 108.9541712  77.1473698
  74.6734346 108.5131915  76.7189229  77.3292868 111.5331354  79.0554489
  78.4555314 111.0063859  79.0037379  77.0395631 112.5972600  79.8733421
  76.2130405 113.1266730  79.6352631  77.8599659 113.0461869  81.0562460
  78.7935395 112.4863577  81.1122013  78.1886053 114.5269539  80.8896266
  78.4825828 114.7054578  79.8553090  77.2972708 115.1107621  81.1193891
  79.3006195 114.9362527  81.8011149  79.3562848 116.0112494  81.6296965
  78.8735725 114.7475480  82.7860634  80.9385154 114.2478732  81.7325603
  81.3224411 114.8645860  80.0839001  81.2639003 115.9530047  80.0798041
  82.3293760 114.5543493  79.8047301  80.6066553 114.4600528  79.3682851
  77.0239550 112.7737460  82.3037021  75.9528674 113.3292785  82.4358573
  77.5359294 111.8978841  83.1767297  78.2782713 111.2657320  82.9132692
  76.9900231 111.8059987  84.5499476  75.9162026 111.9926632  84.5370947
  77.2428494 110.3730357  85.1370352  76.8715933 109.6439116  84.4168642
  78.3044430 110.2002420  85.3138440  76.4602812 110.2223584  86.4805773
  76.7773731 111.0465012  87.1195939  74.9438044 110.2358930  86.3507941
  74.6259025 109.4116984  85.7122484  74.4932104 110.1253584  87.3371246
  74.6247680 111.1803289  85.9099348  77.0607648 108.8723148  86.9111663
  78.1413721 108.9710656  87.0142959  76.6311330 108.5711621  87.8665849
  76.8356811 108.1172027  86.1580116  77.7092317 112.9109931  85.3314924
  78.8257031 113.1398270  85.1974156  77.0547090 113.5585736  86.3215619
  76.1572628 113.1839047  86.5941658  77.5574438 114.7200698  87.0274984
  78.6269197 114.8421496  86.8559848  76.8450693 115.9424735  86.5129182
  75.8415377 115.8696558  86.9321092  77.3641958 116.7904662  86.9595905
  76.7506951 116.1442107  84.9823871  76.6919286 115.1369513  84.5699845
  75.6001562 116.9888002  84.4306808  75.6585276 117.9964005  84.8423035
  75.6719797 117.0360495  83.3440761  74.6492261 116.5364368  84.7121053
  78.0217590 116.8009584  84.5757300  78.8628799 116.1586938  84.8367115
  78.0153238 116.9707734  83.4990580  78.1198769 117.7553791  85.0929854
  77.3196461 114.6707700  88.5010583  76.2598468 114.2818251  88.9178607
  78.2449832 115.1344252  89.2950986  79.1536654 115.2836972  88.8802324
  78.1088525 115.2823898  90.7825007  77.0680798 115.1672589  91.0852156
  78.9498527 114.1835382  91.4754184  79.9310500 114.2230834  91.0023569
  79.0260892 114.5476853  92.4999597  78.4457935 112.7379152  91.4841652
  77.3715148 112.7318461  91.6685270  78.7354224 112.0776848  90.1316520
  79.8096182 112.0829649  89.9467891  78.3744585 111.0492628  90.1440633
  78.2284610 112.6306193  89.3408588  79.1955831 111.9285988  92.5690101
  79.0179676 112.3780524  93.5460176  78.8333921 110.9005358  92.5713289
  80.2643402 111.9362641  92.3550048  78.3960808 116.7241278  91.2619632
  79.4751052 117.2722611  90.9619959  77.4533228 117.3614877  91.8914762
  76.5665257 116.9000347  92.0355296  77.6084486 118.7631472  92.3779118
  78.4740770 119.2003020  91.8802350  76.3883140 119.6519787  92.1094865
  76.2005970 119.5377783  91.0418630  75.5821353 119.1810967  92.6720219
  76.4539123 121.1758322  92.4677955  75.4252023 121.5031695  92.6184837
  77.0222005 121.3314902  93.3848114  77.1007264 122.0050312  91.3056210
  76.7635834 123.1629643  91.1375301  77.8785138 121.4027871  90.6067498
  77.8925925 118.8629275  93.8973213  77.0076380 118.6221218  94.7437166
  79.0420260 119.4687090  94.3028647  79.7589950 119.5880057  93.6015637
  79.3769484 119.7518990  95.6806994  79.0294502 118.9202966  96.2937096
  80.9039882 119.9469253  95.9252379  81.0129987 120.1092443  96.9975571
  81.3700654 119.0001308  95.6523786  81.5559137 121.0400912  95.1969589
  81.6303366 120.7684562  94.1439743  80.9515059 121.9416098  95.2972462
  83.0102542 121.3104064  95.7780273  82.9135893 121.4706716  96.8518382
  83.6105175 120.4188021  95.5968502  83.7182709 122.5673516  95.1176978
  84.7801486 122.5161654  95.3583139  83.5869805 122.4946780  94.0380772
  83.1547216 123.8804174  95.6056367  83.2766658 123.9481460  96.6059577
  83.6396891 124.6431560  95.1549302  82.1708639 123.9282311  95.3823946
  78.4701362 120.9171897  96.2428481  78.1704984 121.8997662  95.5316050
  78.2303553 120.7613676  97.5610630  78.2295224 119.8075015  97.8930842
  77.7184005 121.8470612  98.4899746  77.8355357 122.7951457  97.9650801
  76.3174579 121.7203299  98.9255995  75.8385129 121.6012323  97.9537318
  76.3724718 120.7525148  99.4240043  75.4832085 122.7074574  99.7983951
  74.4347669 122.4100128  99.7784523  75.8821260 122.5635682 100.8025166
  75.6035833 124.2017074  99.4042036  74.6258513 124.9441379  99.5339386
  76.6908771 124.6921114  99.0201592  78.7614181 122.0470701  99.6084466
  79.3045577 121.0381615 100.1026954  79.1492560 123.2645872  99.9581720
  78.8301605 124.0495095  99.4084680  80.0840276 123.5184139 101.0481582
  80.5971790 122.5874998 101.2893509  81.1293082 124.5760930 100.7014751
  80.6374903 125.3780421 100.1509371  81.5390093 124.9721158 101.6306743
  82.2502183 124.0004412  99.8606543  82.8313108 123.3328287 100.4968350
  81.7313630 123.4166624  99.1003315  83.1898979 125.0050015  99.1808273
  83.2592387 126.1987546  99.5995737  83.8969298 124.5487355  98.2421249
  79.2878429 123.9266178 102.3514589  78.7219588 125.0176387 102.4337482
  79.2248148 123.0220255 103.3520078  79.6473970 122.1377074 103.1080712
  78.4626518 123.1103900 104.6192632  77.4153999 123.2424019 104.3473524
  78.5717490 121.9455049 105.5432382  79.6151438 121.6958781 105.7358851
  78.0665988 122.1472676 106.4878096  77.8742001 120.7470896 104.8261013
  76.8655440 121.0561556 104.5518895  78.4747806 120.6275301 103.9243748
  77.7939355 119.3926079 105.5454467  78.4953384 119.0930187 106.4575062
  76.8401827 118.5950100 105.1406478  76.7287359 117.6875705 105.5698733
  76.2193671 118.8900794 104.4006319  78.7789008 124.4965733 105.2880415
  79.8264149 125.1191432 105.0419565  78.0052085 124.8566538 106.2928556
  77.0756271 124.4667114 106.3554874  78.3648654 125.9303796 107.2040530
  78.3274718 126.8789068 106.6683320  77.4149865 126.0078759 108.4037169
  76.5140434 125.4825042 108.0868805  77.9075463 125.4399534 109.1929881
  77.0334031 127.4096827 108.9383726  77.9748995 127.9047963 109.1761707
  76.5521766 127.9252092 108.1072555  75.9327848 127.4709840 110.4044635
  75.9574824 129.2782341 110.6090504  75.5655617 129.7517025 109.7088700
  75.3401755 129.5561714 111.4633243  76.9815338 129.6113519 110.7777292
  79.8131475 125.9893013 107.6733131  80.4257145 127.0759023 107.5353677
  80.4434667 124.9567538 108.0967530  79.8578531 124.1416981 108.2100676
  81.8542336 124.8657987 108.5098389  82.2047471 125.8167910 108.9109040
  81.9626960 123.8107872 109.5973999  82.9890173 123.8837188 109.9571841
  81.2804153 124.1546876 110.3747837  81.6504991 122.3718083 109.2537681
  81.0217200 122.1402604 108.2183182  82.0307452 121.3937348 110.0083243
  82.9120236 124.5868172 107.3998184  84.0584632 124.2255089 107.7290579
  82.5189218 124.6055082 106.0895709  81.5584040 124.7947084 105.8411594
  83.4926166 124.3482868 104.9953143  83.2175920 124.9603033 104.1363052
  84.4858395 124.6342813 105.3414569  83.5165680 122.9100124 104.5810223
  84.2962297 122.5314843 103.7230893  82.7901845 121.9904945 105.2388148
  82.1633500 122.3412994 105.9488245  82.7950521 120.5339253 104.9630187
  83.8250350 120.1838460 104.8946157  82.0748924 119.7477918 106.1076776
  80.9989007 119.9215040 106.0947901  82.3543414 118.2785781 105.8296050
  83.4301876 118.1039909 105.8427918  81.8780107 117.6663283 106.5953454
  81.9553502 118.0111580 104.8511403  82.5681267 120.0995171 107.3708159
  82.1044400 119.5989776 108.0461345  82.0079061 120.2499957 103.6893629
  80.8245677 120.6977410 103.4775505  82.5997352 119.4421000 102.7689608
  83.4813866 119.0355880 103.0474174  82.0791147 119.1331407 101.4133560
  81.7753082 120.1230015 101.0728029  83.1836503 118.5750961 100.4254813
  83.6045731 117.6589721 100.8397758  82.5673754 118.2798578  99.0626674
  82.1466239 119.1956686  98.6475052  83.3357355 117.8966448  98.3911981
  81.7785189 117.5358726  99.1735415  84.1536858 119.6986132 100.1054165
  84.6204816 120.0495266 101.0257770  84.9227506 119.3325878  99.4252221
  83.6151407 120.5213766  99.6351714  80.9639470 118.0861871 101.5758497
  81.1580245 117.0517116 102.1769814  79.7902033 118.2984504 101.0056225
  79.6426954 119.2074383 100.5907952  78.7643705 117.3401831 100.8959011
  79.0847505 116.3347730 101.1690430  77.5856801 117.7967536 101.9002702
  78.0820562 118.0865707 102.8264004  76.6899007 118.9266108 101.4325279
  76.1927915 118.6373304 100.5066235  75.9409527 119.1370427 102.1960031
  77.2909132 119.8190637 101.2581362  76.7750474 116.7024248 102.1676114
  76.0704603 116.9644105 102.7647051  78.2319545 117.3652850  99.4362532
  78.5628480 118.2434171  98.6445320  77.3427743 116.4065267  99.0693319
  77.1420444 115.7096175  99.7722716  76.7580214 116.2214726  97.6916247
  77.3166294 116.8236505  96.9750788  76.8258788 114.7711240  97.2617294
  77.8648776 114.4425574  97.2867251  76.2627407 114.2530268  98.0379708
  76.2057082 114.4402029  95.8556424  75.1261078 114.5567359  95.9504250
  76.7132414 115.3173914  94.7159808  77.7927785 115.2010323  94.6202782
  76.2321266 115.0184338  93.7847162  76.4780773 116.3605408  94.9272564
  76.5894140 113.0528261  95.4239103  76.2207204 112.3301936  96.1518984
  76.1512942 112.8410466  94.4485633  77.6749282 112.9795311  95.3576856
  75.3643477 116.7734427  97.5316317  74.4069807 116.2992178  98.1269277
  75.1998596 117.8923999  96.7866274  76.0449868 118.2093866  96.3334400
  73.9643735 118.6504136  96.5625193  73.4660002 118.8166723  97.5175488
  74.2570883 120.0545623  95.8936230  75.2010472 120.4529403  96.2655582
  74.3110374 119.9453064  94.8104551  73.1094139 121.0253331  96.2569266
  72.2809570 120.7613346  95.5996102  72.8425821 120.7934361  97.2880069
  73.4017094 122.5133040  96.1314073  72.4794796 123.0050320  96.4409145
  74.1810747 122.7068379  96.8684512  73.8204527 123.0368423  94.8299621
  74.8786394 122.8125352  94.6956939  73.2416290 122.5323802  94.0562825
  73.6098020 124.4972541  94.7293946  74.1464058 124.9649184  95.4459462
  73.9098896 124.8188505  93.8202064  72.6292620 124.7052775  94.8533567
  73.1042290 117.8455326  95.6319947  71.9647105 117.5907596  95.8968309
  73.5937158 117.3430516  94.5046436  74.5998837 117.2926942  94.4326054
  72.8033862 116.8529178  93.4010780  71.9489341 116.2654957  93.7371526
  72.2682532 118.1413970  92.6509188  72.1687584 118.8886974  93.4381558
  73.0750830 118.4295151  91.9770392  70.9601636 118.0496978  91.8683335
  70.6749963 119.0151757  91.1270197  70.2713377 117.0369196  92.0261731
  73.6042664 115.9640879  92.3466562  74.7106195 116.3339778  92.0202233
  72.9515319 114.9150429  91.8678073  71.9994600 114.8006138  92.1849264
  73.4797176 113.9558977  90.9549606  74.5455375 114.1276591  90.8045440
  73.2823508 112.5179297  91.5273839  73.9686320 112.5468770  92.3737169
  72.2572660 112.4597558  91.8933306  73.5779977 111.3248638  90.6905162
  73.1125785 111.4201806  89.7094960  75.0962457 111.2482503  90.5285925
  75.5623713 111.1524494  91.5092290  75.3538514 110.3826377  89.9183016
  75.4565462 112.1549629  90.0426334  72.9713547 110.0392120  91.2833304
  71.8888158 110.1460452  91.3525816  73.2119951 109.1930222  90.6397807
  73.3833322 109.8674435  92.2777494  72.6870098 114.1538378  89.6636547
  71.4479030 114.1221071  89.8057867  73.2529317 114.4386926  88.4731447
  74.2607616 114.4957800  88.5066002  72.5581379 114.7692096  87.1691021
  71.5049530 114.4954032  87.2317978  72.6574332 116.2720196  86.8740638
  73.7086760 116.5533487  86.8120816  72.1693656 116.4803029  85.9219566
  71.9688195 117.0905162  87.9977277  70.9143241 116.8173965  88.0370449
  72.4417732 116.8494851  88.9497366  72.0994180 118.6211409  87.7253489
  71.9812799 118.8162648  86.6594835  71.3314455 119.1601164  88.2801670
  73.4363250 119.1174152  88.1561081  73.9353109 118.5198645  88.7995719
  74.0538850 120.2438954  87.7030839  73.3943458 121.1213572  87.0792130
  72.4067596 120.9857880  86.9167489  73.8575328 121.9545942  86.7456361
  75.2499298 120.5223913  87.9236826  75.8197910 119.8916996  88.4691972
  75.6423984 121.3771593  87.5556623  73.0841071 113.9381096  85.9928270
  74.2476321 113.5243813  86.0691135  72.3350615 113.6555948  84.9527592
  71.3383931 113.7923091  85.0425406  72.8536623 113.0251932  83.7013851
  73.9313721 113.1536179  83.6006491  72.5296014 111.4851577  83.7127587
  73.0046559 111.0384819  84.5862020  70.9939719 111.2254750  83.7673569
  70.5182515 111.6714903  82.8939375  70.8065369 110.1517313  83.7739187
  70.5815154 111.6713147  84.6724581  73.0982797 110.7677048  82.4908519
  74.1817244 110.8854643  82.4712993  72.8494080 109.7077657  82.5427317
  72.6702660 111.1969686  81.5849613  72.3153094 113.7636415  82.4288270
  71.1379346 114.0432652  82.2298819  73.2418065 113.9221883  81.4659942
  74.1950633 113.6055513  81.5715488  72.9001078 114.7161007  80.2814068
  71.8135042 114.7732006  80.2171308  73.4645408 116.1386448  80.2969780
  74.5421415 116.0608093  80.1526948  73.0232100 116.6711297  79.4544894
  73.1880776 116.8756138  81.5426227  73.5583584 116.3486347  82.4219895
  73.7427291 117.8054372  81.4165695  71.6908734 117.1917793  81.7261798
  71.1868371 117.4487770  82.8284853  70.9579406 117.2935779  80.7057978
  73.2645660 114.0267247  78.9514129  74.1077737 113.1290599  78.9846487
  72.5868791 114.3081787  77.7701961  71.7466446 114.8657494  77.8269444
  72.9156191 113.6520631  76.4673859  73.5846390 112.8109002  76.6489251
  71.6585900 113.1341898  75.7590533  71.3573963 112.2900081  76.3793266
  70.9041473 113.9183501  75.8223686  71.7979167 112.6696684  74.2875772
  72.2406604 113.4871181  73.7184947  72.6945134 111.3823105  74.1411943
  72.2521315 110.5642438  74.7096694  72.7582117 111.1008680  73.0900837
  73.6943345 111.5899745  74.5224210  70.4667738 112.4069975  73.6700955
  69.8705808 113.3193030  73.6888588  70.6019195 112.0830546  72.6381566
  69.9531122 111.6262986  74.2311302  73.8286113 114.5883414  75.6432768
  73.4649775 115.7282742  75.3986143  74.9718289 114.1036781  75.1462807
  75.2538276 113.1621778  75.3789896  75.8746117 114.9187776  74.2935803
  75.7715060 115.9920089  74.4537144  77.3063371 114.4730920  74.7761577
  77.5899659 113.5823425  74.2156051  77.9317993 115.3106267  74.4672359
  77.5026857 114.2133745  76.2932539  76.7371629 113.4931336  76.5819212
  78.8794498 113.6859983  76.7036171  79.6455032 114.4059629  76.4156728
  78.9061626 113.5401701  77.7834880  79.0686800 112.7357030  76.2043863
  77.3746822 115.5590456  76.9764358  76.3878277 115.9763388  76.7762260
  77.5049235 115.4351513  78.0515119  78.1390435 116.2354655  76.5939348
  75.8383505 114.8617415  72.7502317  75.8648167 115.8733260  72.0940226
  75.6374471 113.6789458  72.1851254  75.6075809 112.8530406  72.7657181
  75.4565274 113.5202153  70.7495410  74.4005324 113.6602065  70.5185082
  76.0435076 114.2858733  70.2422724  75.8929663 112.1556985  70.2547642
  76.4832111 111.3657780  71.0605549  75.7400253 111.8171876  68.9982529
  75.2789848 112.5139617  68.4307611  76.1261659 110.5147789  68.3540015
  75.7629464 109.6792325  68.9523600  75.5280899 110.4232431  66.9996787
  75.7077435 109.3750252  66.7608001  74.4717049 110.5678854  67.2260179
  75.9147034 111.2888485  65.8073837  75.6311495 112.3057009  66.0788782
  76.9976630 111.2311299  65.6979933  75.2355334 110.9030624  64.4591059
  74.5603141 109.8548856  64.3286630  75.3931894 111.6765556  63.4386678
  77.6526668 110.2640579  68.2235173  78.4251906 111.2043211  67.8982405
  78.0905921 109.0089067  68.4786918  77.3941227 108.3862914  68.8625926
  79.4916245 108.4576364  68.2212517  80.0948686 108.9034514  67.4304010
  80.3022716 108.5331051  69.5796230  81.2471432 108.0546565  69.3219317
  80.5823034 109.8686742  70.3026185  79.6378358 110.3475166  70.5610569
  81.1529215 109.6777435  71.2114857  81.1540845 110.5247734  69.6463406
  79.7589480 107.6027450  70.5114822  80.2512051 107.6495280  71.3343398
  79.3946943 106.9811150  67.7717342  78.3167589 106.5252570  67.5112872
  80.4850005 106.2553253  67.6922300  81.3358724 106.7980684  67.7315511
  80.5926509 104.8115430  67.4904824  79.9186300 104.5421701  66.6773199
  82.0137483 104.3051625  67.1433802  82.3979602 104.9838200  66.3818656
  82.6025454 104.4114501  68.0544900  82.1053563 102.9607575  66.6721223
  83.0231148 102.7483501  66.4871839  80.1060359 103.9857988  68.6886753
  79.8708968 104.5016915  69.8290035  79.8305190 102.7000978  68.4291772
  79.8962302 102.3704436  67.4767542  79.3102676 101.7721698  69.4587490
  78.5418888 102.2835086  70.0385989  78.7080465 100.5448825  68.7900685
  79.4440537 100.0496799  68.1566901  78.2731074  99.5861495  69.9192137
  77.5367069 100.0805213  70.5527842  77.8336528  98.6881588  69.4849405
  79.1414350  99.3118910  70.5182869  77.4481786 100.8407641  67.8950390
  76.6451594 101.1146425  68.5793281  77.7076492 101.7006276  67.2774555
  76.9772839  99.6743418  66.9857139  76.7171790  98.8142134  67.6026615
  76.1038469  99.9883237  66.4142049  77.7796702  99.4001969  66.3007901
  80.3821458 101.4241110  70.4861283  81.3280884 100.6728336  70.2013669
  80.3377156 101.9188911  71.7503532  79.4710236 102.2915259  72.1110299
  81.5170209 102.0129398  72.5735844  82.4185704 102.2174886  71.9961180
  81.2574383 103.2239040  73.5476237  80.3628229 103.0296661  74.1392612
  82.1126119 103.3459469  74.2123671  81.1170465 104.1350261  72.9660346
  81.7805576 100.6601730  73.2831417  81.1116659 100.2616296  74.2302875
  82.7644020  99.8701588  72.8143073  83.0557112 100.0836109  71.8710806
  83.4449470  98.7657848  73.5256001  82.7040626  98.0231546  73.8217248
  84.4786046  98.0962228  72.6661277  84.0771696  98.0371965  71.6544632
  85.3669820  98.7277949  72.6676723  84.8474617  96.7027321  73.1463705
  85.6990035  96.3491394  72.5650362  85.1510507  96.8477361  74.1831475
  83.7121762  95.6571810  73.0840902  83.7165749  94.7344636  73.9437914
  82.7517143  95.7241029  72.2357988  84.1740834  99.2731982  74.7807104
  84.3645713  98.5498639  75.7746172  84.5653078 100.5338358  74.6475298
  84.4144640 100.9665766  73.7474848  85.3956260 101.2252543  75.6109582
  84.8877275 101.3105736  76.5716137  86.6898065 100.4088226  75.8083028
  87.4349882 100.9951261  76.3459381  86.4840668  99.4908938  76.3589189
  87.4673793  99.9040160  74.2726307  88.4874857  99.2640101  74.8371425
  85.5296435 102.7149994  75.2910066  85.0345061 103.1716753  74.2736890
  86.0020186 103.4739875  76.2927125  86.5309076 103.0603465  77.0472169
  85.8077383 104.9101524  76.2965151  85.9619450 105.3595419  75.3155112
  84.3401201 105.0922928  76.6928630  83.7762761 104.7203415  75.8373916
  84.2360943 104.3971392  77.5259537  83.8166967 106.4188129  77.0893039
  84.4125913 106.8254134  77.9064248  83.9003396 107.3416801  75.8986969
  83.3042770 106.9359497  75.0812673  83.5183180 108.3250028  76.1729900
  84.9389400 107.4317781  75.5804328  82.3791186 106.4484818  77.5235869
  82.2465538 105.7974276  78.3876785  82.1008479 107.4678089  77.7912414
  81.7452462 106.1017692  76.7074403  86.7332887 105.4864061  77.3518341
  86.9906052 104.8764313  78.3942856  87.4259672 106.5530599  77.0010009
  87.2633709 106.8616025  76.0531278  88.4399634 107.3224409  77.8505600
  88.2065852 107.4564807  78.9068114  89.7920983 106.6725700  77.7356294
  89.6308833 105.6828964  78.1630123  90.5132782 106.5327816  76.3563786
  90.6752634 107.5221429  75.9285650  91.4735412 106.0364470  76.4965428
  89.8947803 105.9421120  75.6806047  90.5960013 107.2569017  78.6344694
  91.4700216 106.8627671  78.5860253  88.5310572 108.7938525  77.4092723
  88.4280391 109.0457662  76.2187729  88.7233716 109.7225139  78.3499621
  88.8583367 109.3416413  79.2756077  88.8556614 111.1487593  78.1708040
  88.3481540 111.4624917  77.2586048  88.2144241 111.8868675  79.3731521
  87.1383062 111.7170300  79.3381544  88.6099245 111.5146735  80.3182188
  88.5007135 113.4010921  79.2559196  89.2897022 114.1432236  80.1870514
  89.6252817 113.6529647  81.1009071  89.6276828 115.4569796  79.9460676
  90.2546528 116.0041068  80.6501005  89.1330086 116.1061393  78.7808487
  89.4970854 117.3925038  78.4906136  90.0937582 117.7693830  79.1414156
  88.3044452 115.4490937  77.9207326  87.9280108 115.9371182  77.0217167
  87.9374194 114.1264106  78.2063560  87.1845643 113.6260818  77.5972744
  90.3491580 111.4216345  78.2279008  91.1007091 110.9916295  79.1561420
  90.8884723 112.2247049  77.2884079  90.3012862 112.4033729  76.4862922
  92.2878146 112.6732715  77.2415985  92.8503469 112.0682296  77.9526405
  92.9744578 112.5603082  75.8323372  92.1878047 112.9158088  75.1668333
  93.8695029 113.1664498  75.6923851  93.2967968 111.0816422  75.5060868
  93.7830365 110.6299877  76.3707717  91.9782988 110.2774676  75.1631884
  91.4917137 110.7282838  74.2982615  92.2321072 109.2416764  74.9377584
  91.3013334 110.3075767  76.0169517  94.4203584 111.0459423  74.4204419
  95.3111620 111.5447761  74.8021923  94.6598953 110.0104461  74.1786344
  94.0747877 111.5576702  73.5222134  92.3587583 114.0594360  77.8954327
  92.0920121 114.2061843  79.1055783  92.6215602 115.0783479  77.1279728
  92.7899082 114.9242146  76.1441023  92.6274565 116.4691632  77.6308693
  92.0785218 116.6095156  78.5620358  94.1313143 116.6827893  77.9076823
  94.4944389 115.8989330  78.5723694  94.6701787 116.6345401  76.9614280
  94.3631873 118.0534691  78.5588727  93.3463240 118.6055539  79.1867807
  95.4571986 118.6650959  78.5348963  92.1211785 117.4153575  76.5069275
  92.0761967 116.9824904  75.3543909  91.7589916 118.6785054  76.8084170
  91.7919338 118.8711312  77.7993304  91.3298408 119.7624845  75.8968469
  90.9582788 120.6060268  76.4786350  92.5077970 120.2435122  75.0299482
  92.7439074 119.4364412  74.3364155  92.1589434 121.1118066  74.4709616
  93.7792584 120.6269380  75.7834644  93.8129670 121.5767046  76.5769681
  94.8700225 119.9457894  75.5982202  95.7109998 120.1995025  76.0967046
  94.8718445 119.1657727  74.9566040  90.1848120 119.1172546  75.0187579
  90.1864729 119.2823024  73.7866579  89.1784108 118.4707093  75.5793646
  89.3628821 118.3003889  76.5576594  87.8899872 117.9871260  75.0089870
  87.1905564 117.8580309  75.8349593  87.5168912 118.7580366  74.3347499
  88.0064581 116.6404712  74.2264370  87.0601676 116.0446343  73.8321189
  89.2064947 116.1219860  74.1472408  89.9553521 116.6025876  74.6250838
  89.5489547 115.0158438  73.2633219  88.8566083 114.9438511  72.4245294
  90.9525047 115.1453573  72.7208538  91.6379408 115.2798915  73.5576197
  91.3598380 113.8902369  71.9189772  90.6750876 113.7552994  71.0817139
  92.3748909 114.0133100  71.5413249  91.3174845 113.0148339  72.5670338
  91.1671349 116.3666842  71.8442487  90.9613864 117.2687951  72.4204132
  92.1994157 116.3869001  71.4948386  90.4948730 116.3222348  70.9874004
  89.1957864 113.7823964  74.0570397  89.6235669 113.6386133  75.2011687
  88.4475620 112.8900821  73.3807340  88.2221317 113.1415046  72.4288584
  87.9497803 111.6006820  73.9009317  88.4583276 111.2421763  74.7958912
  86.4227116 111.7108116  74.2052628  85.9468332 112.1671789  73.3372951
  85.7396303 110.3104258  74.5073843  86.2147031 109.8536288  75.3755682
  84.6790961 110.4591768  74.7104626  85.8553006 109.6553472  73.6439064
  86.1946159 112.6988240  75.3281443  86.5751050 113.6772293  75.0347960
  85.1273290 112.7722846  75.5369550  86.7168541 112.3597762  76.2228033
  88.2268455 110.6063927  72.7707986  88.0013061 110.7910049  71.5420495
  88.5651661 109.4308748  73.1733279  88.8440611 109.3461520  74.1403537
  88.6130641 108.2051422  72.3091408  88.5464200 108.5046192  71.2632100
  89.9223631 107.4027256  72.5117775  90.6981638 108.1460043  72.3280131
  90.0285401 107.0098413  73.5229493  90.1907627 106.2663328  71.5816855
  90.4561111 106.5127241  70.2279668  90.5333820 107.5540461  69.9152729
  90.6196159 105.4916350  69.2952009  90.8025275 105.7031911  68.2416886
  90.5437036 104.1620078  69.7416556  90.6985835 103.3361182  69.0473800
  90.2720500 103.9061889  71.0637142  90.2348796 102.8583962  71.3617899
  90.0475840 104.9155157  72.0149027  89.7759298 104.6507281  73.0367595
  87.4613412 107.2679005  72.5477923  87.1031700 106.9122131  73.6970794
  86.7815605 106.7978609  71.4954435  87.0908181 107.0577449  70.5697440
  85.6016476 105.8750162  71.6196613  85.4470353 105.6016891  72.6634460
  84.2713035 106.4452008  71.0532577  84.3418622 106.4113955  69.9660696
  82.9879101 105.6559522  71.5214085  82.9164162 105.6897101  72.6085378
  82.1000447 106.1135258  71.0850351  83.0593456 104.6185708  71.1945470
  84.0159679 107.9378829  71.3798048  84.8206623 108.5441477  70.9638576
  83.0659071 108.2481490  70.9448116  83.9814271 108.0731025  72.4608337
  85.8169122 104.5754452  70.8457089  85.5291095 104.3474706  69.6664315
  86.5687376 103.7068590  71.5002633  86.9108291 104.0198489  72.3975426
  86.9375469 102.3656139  71.0467377  87.5358182 102.4828718  70.1431774
  87.5476477 101.9157465  71.8299974  85.7679071 101.4525567  70.7479619
  84.7349251 101.4931747  71.4019447  85.8636157 100.6640784  69.7050103
  86.7486142 100.6984014  69.2195221  84.7461156  99.9090640  69.0804080
  84.0496587  99.6048786  69.8617646  83.9994753 100.7194136  68.0613051
  83.8906845 101.7530208  68.3898168  84.5080806 100.6966605  67.0975090
  82.7247906 100.1305266  67.9336965  82.2096130 100.6195039  67.2878690
  85.1463097  98.5167183  68.5538844  86.1800680  98.3515696  67.9147508
  84.2543434  97.5667894  68.7629972  83.5053685  97.7588946  69.4127906
  84.3015195  96.2223659  68.1143025  85.2367340  96.0643082  67.5771890
  84.2069475  95.1933807  69.2464242  85.0352847  95.3974131  69.9248986
  83.2634159  95.3786009  69.7597873  84.2649400  93.7166454  68.7923332
  83.4815725  93.6008596  68.0433140  85.2392093  93.5842390  68.3218335
  84.0828989  92.6745492  69.8789439  83.6930182  91.7817286  69.3901051
  85.0756194  92.4656775  70.2776643  83.1919874  93.0281586  70.9942784
  82.9648424  94.0108531  71.0473453  82.5116137  92.1759232  71.7604276
  82.6770669  90.9035759  71.6368010  83.3286446  90.5462526  70.9527933
  82.1543448  90.2699818  72.2245253  81.8678764  92.6370970  72.7876214
  81.8903407  93.6260549  72.9914786  81.3471554  92.0050924  73.3788223
  83.2011320  96.0430801  67.1492523  83.4457087  95.3538391  66.1851946
  82.0427196  96.6637726  67.3210881  81.8765842  97.2013671  68.1598315
  80.9371075  96.5340524  66.3370126  81.0345591  95.5961385  65.7902770
  79.5636149  96.5437072  67.0663863  79.5610449  97.4033101  67.7365919
  78.8607331  96.7168993  66.2514864  79.1500047  95.3008428  67.8358741
  78.7249308  94.6136340  67.1043299  80.2787369  94.5923051  68.6107270
  80.7040194  95.2787889  69.3428292  79.8754780  93.7191129  69.1235800
  81.0559406  94.2773169  67.9144243  78.1269177  95.6454788  68.9444174
  77.2381695  96.0879705  68.4944983  77.8491218  94.7367648  69.4784301
  78.5717517  96.3548158  69.6423160  80.9413657  97.6489386  65.2195340
  80.0476498  97.5957573  64.3448194  81.9360456  98.5618341  65.2324830
  82.4940074  98.6402909  66.0707088  82.2479458  99.4343177  64.1131579
  81.9303998  98.8964737  63.2198564  81.6255599 100.3195181  64.2441366
  83.6756982  99.8621821  63.9436403  84.5520185  99.4881863  64.6966541
  83.8646200 100.8901910  63.2055569  83.1509859 101.1264478  62.5310137
  85.0914134 101.7325494  63.2597716  85.9889044 101.1257104  63.1399575
  85.0231342 102.7451832  62.0999165  84.0035053 103.1234991  62.1729440
  85.7258529 103.5638823  62.2548951  85.2450884 102.1366787  60.7051120
  85.3356196 102.9509070  59.7205612  85.2556670 100.9243778  60.4079998
  85.1881668 102.4564292  64.6424089  84.2315222 103.0889829  65.0319947
  86.3359010 102.4621083  65.3543069  87.0974637 101.8600473  65.0756600
  86.5456967 103.3764215  66.5100003  85.7055756 103.2592111  67.1945128
  87.8374105 103.1083055  67.2737747  88.6997777 103.3255079  66.6435009
  87.8793940 103.7253576  68.1713181  87.8538289 101.7255961  67.6444647
  88.6606282 101.5334952  68.1279646  86.6842408 104.8775426  66.0763162
  87.2466396 105.0904672  65.0483873  86.2991822 105.8778679  66.8975124
  85.8203580 105.6728717  67.7628466  86.5550286 107.2427770  66.5733521
  87.0007313 107.3096844  65.5808947  85.1998347 108.0800772  66.5802693
  84.8355104 108.0305233  67.6063840  85.4923996 109.1041122  66.3481955
  84.0733087 107.6307643  65.6087287  84.3032545 107.8500837  64.5660760
  83.9147240 106.5589313  65.7275863  82.7945386 108.3548010  65.9858253
  82.2928288 108.1901886  67.0827962  82.2063869 109.2054362  65.1927765
  81.3559118 109.6626228  65.4890432  82.6038065 109.4034993  64.2856216
  87.4963217 107.8261536  67.5893974  87.5756183 107.3320604  68.6950185
  88.2398290 108.8533869  67.1301047  88.6608996 108.8368788  66.2122124
  88.5838934 109.9767597  68.0443110  88.5009344 109.6703249  69.0870549
  90.0784811 110.4014660  67.7604341  90.7028706 109.5080699  67.7514700
  90.0185544 110.8123523  66.7526239  90.6746813 111.4137716  68.6738299
  89.9339286 112.1660503  68.9448706  91.1428870 110.6750865  69.9410666
  91.8840469 109.9229083  69.6708653  91.5866538 111.3887666  70.6352082
  90.2898821 110.1899115  70.4155013  91.8951487 112.0019296  68.0363040
  91.6203454 112.4784143  67.0952700  92.3329913 112.7436882  68.7042781
  92.6218446 111.2124607  67.8445991  87.5417459 111.1380461  67.9326495
  87.0942481 111.4851941  66.8247830  87.1522954 111.6953275  69.1009233
  87.5813023 111.4133629  69.9707212  85.9855926 112.6965631  69.1540820
  85.7997580 113.3188943  68.2787143  84.6701338 111.9958087  69.5486354
  83.8600054 112.7161956  69.4353483  84.3816679 110.7730337  68.6982179
  85.1911936 110.0519443  68.8113511  83.4441054 110.3193293  69.0195111
  84.3021556 111.0680443  67.6519158  84.3127322 111.6367493  71.0440338
  84.2830718 112.5488424  71.6401114  83.3384967 111.1491092  71.0782678
  85.0695438 110.9640643  71.4475581  86.2817180 113.8580241  70.0960578
  86.5933793 113.5820441  71.2882425  86.2298931 115.0702987  69.6248324
  85.9765515 115.2243918  68.6593415  86.3992831 116.2709164  70.5192383
  87.1184121 116.0557716  71.3095961  86.9203796 117.4577563  69.6900684
  87.6286744 117.1336797  68.9275777  86.1048349 118.0057907  69.2182155
  87.6406350 118.3780042  70.7050649  86.9249761 118.5809008  71.5017870
  88.4762181 117.8039109  71.1054644  88.1531455 119.6894087  70.1400690
  88.5950628 120.2432527  70.9683594  88.9278085 119.4434479  69.4137771
  87.0785361 120.5479158  69.4683710  87.5535740 121.3117947  68.8527993
  86.4469742 119.9180753  68.8418490  86.2685000 121.1830916  70.4847032
  86.8534599 121.7671000  71.0650960  85.5586091 121.7502021  70.0436356
  85.8278902 120.4754325  71.0549493  85.0370032 116.7622519  71.0378490
  84.2135332 117.1720441  70.1807705  84.8576753 116.7220542  72.3724180
  85.4467959 116.0518395  72.8455444  83.8525688 117.4218562  73.1480907
  82.8469057 117.1055915  72.8711112  84.0952750 117.0611299  74.6740302
  85.1231526 117.3975466  74.8096428  83.4292107 117.6771361  75.2781782
  83.9757929 115.6067499  75.1099302  84.7810999 115.0065513  74.6864410
  84.0775181 115.5971120  76.5831216  83.2722099 116.1967668  77.0073757
  83.9972996 114.5726665  76.9466836  85.0382374 116.0147797  76.8842403
  82.7115099 114.9642123  74.5880787  82.7107812 114.9948402  73.4985096
  82.6656329 113.9276124  74.9219308  81.8448888 115.5060621  74.9668474
  83.7745482 118.9085536  72.9022913  84.7169074 119.5408722  72.4476196
  82.6023788 119.4358027  73.1936681  81.8929462 118.7423717  73.3832941
  82.1992932 120.8303282  73.1142150  83.0142433 121.4912218  73.4094694
  81.8231981 121.1349762  71.6405407  81.3742162 120.2079954  71.2838600
  81.0802745 121.9320938  71.6128249  82.9411360 121.4978634  70.7375779
  83.8699219 122.2026491  71.0774187  82.9076829 121.1042505  69.4985993
  83.6641877 121.3458829  68.8745687  82.1253537 120.5587608  69.1661799
  81.1459187 121.0592175  74.1846087  80.2242658 121.8665401  74.0480354
  81.1726620 120.3049925  75.2810313  81.9875425 119.7234386  75.4146884
  80.0253896 120.1620649  76.2498898  79.0565658 119.9716172  75.7881439
  80.2868576 119.0609539  77.3415847  81.1857309 119.3130891  77.9042159
  79.0551205 118.9901247  78.3235780  78.1558930 118.7375623  77.7617034
  79.2364804 118.2268271  79.0802720  78.9203428 119.9569573  78.8085227
  80.6882512 117.6674870  76.7656616  81.6057014 117.7642830  76.1851293
  80.8498659 116.9677362  77.5856183  79.8899914 117.2956077  76.1233317
  79.5888681 121.4890697  76.9377853  78.3706414 121.7042359  77.0409947
  80.5431249 122.3270754  77.1736614  81.4726734 121.9613008  77.0245046
  80.4090955 123.6180824  77.8026535  79.3759323 123.7734482  78.1133531
  81.3166052 123.7052260  79.0472604  82.2545680 123.3767347  78.5995791
  81.4381372 124.7122264  79.4463596  80.9286293 122.7461737  80.1857517
  79.7950450 122.8829574  80.6370097  81.8228703 122.0484653  80.6874350
  80.5600089 124.7600884  76.7676963  80.6733607 125.9146506  77.1575097
  80.3062689 124.5959816  75.4721879  80.5988184 123.6846423  75.1497364
  79.7735253 125.5185478  74.5115627  80.3403878 126.4483133  74.5595422
  79.8517056 124.9720561  73.0870011  80.8520326 124.5971069  72.8705338
  79.1248619 124.1735137  72.9382450  79.5504561 126.0600436  72.2090939
  79.5891020 125.7569833  71.2990056  78.3501491 125.9774842  74.7463044
  77.4495495 125.1457940  74.9292243  78.1908947 127.2827129  74.5625706
  79.0731839 127.7721404  74.6086778  76.9743095 128.0662483  74.4593153
  76.1391127 127.4457464  74.7841582  76.9958382 129.3527435  75.3151451
  77.4605386 130.2145198  74.8360893  75.9264707 129.5322312  75.4262186
  77.5924792 129.1814768  76.6681300  77.1833091 128.2681900  77.3268440
  78.6230077 129.8256518  77.1138424  78.9617885 129.6458440  78.0481853
  79.0834346 130.5050367  76.5251625  76.5358101 128.3982405  73.0801661
  75.4788878 129.0013314  72.9672916  77.2165063 127.9102466  72.0412799
  77.9111464 127.1960654  72.2071704  76.9875793 128.3741149  70.6134366
  75.9502180 128.6514048  70.4261105  77.8981598 129.6713804  70.4531892
  77.5665983 130.1113336  69.5126535  77.5925866 130.3115079  71.2808134
  79.4451455 129.5392406  70.4454114  79.8401896 129.3208057  71.4375441
  79.6865932 128.7185183  69.7699730  80.0584669 130.8044140  69.9319699
  80.9415839 130.6829226  69.0251888  79.6626564 131.9444732  70.3450328
  77.3651896 127.3844020  69.5236982  76.9594903 127.5568973  68.3628948
  78.0114666 126.2722603  69.7495321  78.4965613 126.1930713  70.6318651
  78.0470470 125.1435577  68.8427017  78.3192033 125.4672551  67.8380873
  79.0760951 124.1643750  69.3262121  78.9759807 124.0486999  70.4054228
  78.9064840 123.2031722  68.8410099  80.5191886 124.6727430  68.9873434
  80.5343391 125.6461831  69.4775329  81.2942732 124.0380891  69.4169483
  80.8125138 124.8664661  67.5246276  80.7046803 123.8991609  66.7427384
  81.2933812 125.9715282  67.1021714  81.4867185 126.0912645  66.1181056
  81.4780517 126.7204808  67.7541440  76.6816170 124.4589730  68.8517431
  76.0017841 124.4656661  69.8875044  76.2115152 123.8023022  67.7711703
  76.7788803 123.8079997  66.9356084  74.9798103 123.1112958  67.7396365
  74.2510332 123.7560076  68.2308899  74.7148971 122.9995768  66.6882378
  74.9577092 121.7614422  68.3948836  74.2507349 121.5200938  69.3602904
  75.7622802 120.8564035  67.9028892  75.9745916 120.9640810  66.9213451
  76.3145645 119.6821401  68.6158116  75.5444877 119.1410484  69.1656304
  76.8954186 118.7429427  67.5191331  77.2137468 117.8212452  68.0062061
  76.0948111 118.5223942  66.8130976  77.9665819 119.3005339  66.8422378
  78.2842125 118.6816497  66.1806540  77.3518139 119.9120527  69.6815817
  78.2388373 120.8019879  69.5872745  77.4446441 118.9769857  70.5947839
  76.7034438 118.2934325  70.5358235  78.3714147 118.9435335  71.8216235
  78.9241538 119.8768908  71.9285015  77.4836343 118.7570789  73.0540693
  77.0026812 117.8086050  72.8149447  78.0281360 118.6610960  73.9934336
  76.4051157 119.8626208  73.1928128  75.1334784 119.6603170  72.6859336
  74.8227838 118.7099867  72.2518361  74.2398001 120.7225413  72.7444795
  73.2781967 120.6196181  72.2416599  74.6014939 121.9750481  73.3581636
  73.6472543 122.9756287  73.5609919  72.7723128 122.7273932  73.2536547
  75.9253321 122.1289516  73.8507082  76.2204979 123.0427064  74.3664889
  76.8432798 121.1075853  73.6714991  77.8956349 121.2740312  73.9015959
  79.6020280 118.0261373  71.7774865  80.2931070 117.9757734  72.7589233
  79.8162139 117.2765737  70.6509001  79.2297947 117.4943275  69.8579341
  80.7813434 116.1684691  70.5235305  81.7956677 116.4383032  70.8175287
  80.3383744 114.9277868  71.3488153  80.3519891 115.2206584  72.3986439
  78.9787812 114.4053003  70.9937082  78.9645227 114.1117734  69.9440704
  78.7475445 113.5404132  71.6154802  78.2343664 115.1832983  71.1630225
  81.2539663 113.6674884  71.3911278  82.2235326 113.9360496  71.8105538
  80.7897718 112.9012012  72.0119556  81.3899273 113.2824345  70.3805097
  80.9388252 115.8002644  69.0876984  79.9276221 115.4594618  68.4568030
  82.1052586 115.9302560  68.5382674  82.7783868 116.3683129  69.1507247
  82.4128804 115.8611953  67.0932798  81.6520546 115.2304413  66.6335052
  82.3511446 117.2719118  66.4390691  81.4266550 117.7569160  66.7524209
  83.5517345 118.1410260  66.8529149  84.4766325 117.6568612  66.5394678
  83.4745446 119.1185502  66.3769017  83.5556440 118.2641559  67.9359317
  82.4372479 117.1390775  64.8638529  81.6020113 116.5387730  64.5031364
  82.3934892 118.1301365  64.4122037  83.3756102 116.6567325  64.5901370
  83.5582262 114.9327807  66.6873789  84.5806344 114.9401416  67.2870648
  83.3447972 114.0510479  65.6961432  82.3981696 113.8972115  65.3793941
  84.4089280 113.1890395  65.1585634  84.7612177 112.4925651  65.9194277
  83.7146711 112.4107393  64.0811178  83.3641476 113.0936676  63.3072688
  84.4100412 111.6938428  63.6445173  82.8644596 111.8781670  64.5072708
  85.7107603 113.9974393  64.7311954  85.6509731 115.1746456  64.3948655
  86.8769601 113.3943076  64.9135064  86.9256922 112.4268610  65.1994636
  88.1462499 114.1000433  64.5953312  87.9271106 115.1417903  64.3611508
  89.1447525 114.0579744  65.7866988  89.0981192 113.0606464  66.2240332
  90.1442336 114.2332321  65.3886757  88.8405829 115.0799319  66.8403020
  89.0119043 116.0305388  66.3352315  87.7734585 114.9531585  67.0227199
  89.7178948 115.0802855  68.4212504  91.2994412 115.6568705  67.8803267
  91.1923465 116.6434833  67.4295220  91.9752510 115.7191182  68.7332669
  91.7070821 114.9639581  67.1442542  88.7853702 113.3421831  63.5065189
  89.4733442 113.9715747  62.6835462  88.7242006 112.0308484  63.5377701
  87.9880947 111.6887325  64.1387727  89.5326323 111.1007580  62.8888856
  89.5788550 111.3108817  61.8203302  90.9566926 111.1901920  63.4703076
  91.3080506 112.2173288  63.3721403  90.9187534 110.9189847  64.5253466
  91.9273363 110.2401842  62.7284040  92.7867363 110.2810838  63.3976271
  91.6474544 109.2002059  62.5604445  92.2907266 110.8938467  61.3899486
  93.3438184 111.4936987  61.2136044  91.4055376 111.0161582  60.5083408
  88.8657628 109.7322099  63.1421959  88.7620683 109.3870305  64.3686593
  88.5138816 108.9573901  62.1148274  88.5607809 109.3114079  61.1700675
  87.9720600 107.5932732  62.3285224  87.7852998 107.4466261  63.3923431
  86.6903913 107.4926983  61.6069630  86.9162229 107.6531134  60.5527489
  85.9433257 106.1616254  61.7732032  85.7167263 106.0007307  62.8271791
  85.0148686 106.1917985  61.2029785  86.5672831 105.3460651  61.4076362
  85.7842625 108.4726628  62.0975035  84.9514723 108.4034586  61.6249872
  88.9982556 106.5417551  61.8717322  89.8992949 106.6855486  61.0320384
  88.7570575 105.3470279  62.4595751  87.8698608 105.2142321  62.9236298
  89.8041423 104.2355640  62.5640719  90.6051731 104.4544650  61.8580045
  90.4033161 104.0946533  63.9467739  89.6047137 103.9274445  64.6695288
  91.1479702 103.3040900  64.0395106  91.0825489 105.3736071  64.3451569
  90.3936038 106.2877190  65.1859310  89.4143345 106.0644845  65.6093667
  91.0250438 107.5310128  65.4700545  90.4769642 108.2309160  66.1008041
  92.3454493 107.8887511  64.9584654  92.8139345 108.8387710  65.2155330
  93.0352658 106.9501941  64.0915057  94.0074093 107.1429961  63.6377827
  92.3629777 105.7100402  63.8443357  92.8389656 104.9448472  63.2311351
  89.1419384 102.9370778  62.0570911  88.2897244 102.3843970  62.8074919
  89.4580013 102.5103169  60.8478581  90.1355439 103.0936637  60.3780265
  88.8216834 101.4730605  60.0987122  87.7385853 101.5940037  60.0794675
  89.3238942 101.4952011  58.7096394  89.0568672 102.4885139  58.3489089
  90.7795351 101.2349932  58.4303001  91.0472102 100.2416114  58.7903586
  90.9600117 101.2926648  57.3568937  91.3872274 101.9819624  58.9410325
  88.6385638 100.5544866  57.9364846  88.9716108 100.5763568  57.0363725
  88.8433664 100.1122460  60.7402913  89.7853330  99.7818862  61.3850209
  87.7775149  99.3618866  60.6923906  86.9711114  99.7521985  60.2260546
  87.6257895  98.0566089  61.3897746  88.6118446  97.6085076  61.5122478
  86.9763976  98.1981029  62.7725720  87.6240947  98.8050632  63.4051753
  86.0779053  98.7633672  62.5250080  86.5733487  96.9643170  63.5390536
  87.3017698  96.0136524  63.5485185  85.4942995  97.0229016  64.2464499
  85.1946194  96.2146172  64.7727274  84.9552847  97.8767220  64.2700000
  86.8779361  97.0005055  60.5038931  85.7097096  97.2837298  60.1417263
  87.4602228  95.8551679  60.1495475  88.4432785  95.7354371  60.3479545
  86.7551440  94.7756973  59.4405001  86.1729656  95.1583818  58.6022161
  87.8053125  93.8517012  58.9108303  88.3941297  93.6204960  59.7984888
  87.2867637  92.9535588  58.5753495  88.7456182  94.3573865  57.7837927
  89.3251270  95.2098903  58.1380634  89.6744086  93.2469460  57.4022912
  89.0956091  92.3941955  57.0474579  90.3421456  93.5868812  56.6106650
  90.2626665  92.9501209  58.2705929  88.0144372  94.8665959  56.5286377
  87.3648983  95.6992488  56.7986150  88.7453022  95.2005728  55.7921615
  87.4146026  94.0610660  56.1050589  85.7842740  94.0515692  60.3337139
  84.6968010  93.7077993  59.9115626  86.0690600  93.7354805  61.6030802
  86.9431649  94.1071804  61.9464157  85.2232189  92.8940423  62.5463451
  85.0220499  91.9385844  62.0618553  85.7965048  92.7250295  63.4578698
  83.8730122  93.5676175  62.9159291  83.7696249  94.7885340  62.8684425
  82.9087112  92.8075982  63.3336540  81.6655164  93.2820086  63.8762289
  81.1499416  93.8322032  63.0891020  81.9001238  93.9586497  64.6979437
  80.8743440  92.0323537  64.3462745  80.0390705  91.8439936  63.6717837
  80.4966444  92.1883044  65.3567812  81.9099475  90.8630545  64.3122893
  81.5234279  89.8838118  64.0298264  82.4089698  90.7911814  65.2786798
  82.8849512  91.3539825  63.2625839  83.8810472  91.0216666  63.5549146
  82.5244019  90.7490079  61.9023814  81.5178108  91.0680565  61.3034856
  83.3141609  89.7509492  61.4583131  84.2047281  89.5302088  61.8805254
  82.9780287  89.1236438  60.1889684  82.2761893  89.6458720  59.5387390
  84.2899040  88.8642694  59.4247169  84.9465669  88.3159652  60.1001847
  84.1207794  88.0609310  58.0987255  83.4645675  88.6088670  57.4225209
  85.0948120  87.9255101  57.6285951  83.6845853  87.0861499  58.3169814
  85.0667335  90.2167941  59.2485303  84.5594227  90.7927688  58.4745860
  85.0144575  90.7554839  60.1946698  86.5208932  90.0177152  58.8595275
  86.5739722  89.4794618  57.9131842  87.0050707  90.9883918  58.7524842
  87.0290067  89.4421746  59.6332675  82.0728012  87.9881628  60.3686095
  82.4096418  86.8392917  60.6554766  80.7697727  88.2122172  60.2340088
  80.4536988  89.1389196  59.9861796  79.7246186  87.1237507  60.4392666
  79.9037850  86.5511945  61.3493095  78.3548838  87.8141568  60.5545705
  77.5603633  87.0679582  60.5496721  78.3131316  88.5904390  61.8626748
  79.1071285  89.3371921  61.8681197  77.3476228  89.0867304  61.9605943
  78.4546950  87.9042483  62.6976621  78.1062801  88.7752771  59.3690563
  78.1333631  88.2149250  58.4345114  77.1298784  89.2465873  59.4813327
  78.8801082  89.5427909  59.3544464  79.6977505  86.1199772  59.2535673
  79.2789950  84.9840266  59.4543435  80.0879836  86.5603026  58.0653641
  80.3535045  87.5325838  58.0000402  80.0065064  85.7723876  56.8207672
  80.4716192  84.7968901  56.9628014  78.5179821  85.5603867  56.4287620
  77.9427949  85.3983741  57.3403600  78.1191619  86.4241409  55.8968116
  78.4181124  84.3188798  55.5343608  79.3087325  83.4211405  55.5313605
  77.4469836  84.2061888  54.7608186  80.8759602  86.3809681  55.6807063
  80.9165973  87.6014541  55.5857140  81.5023605  85.6230296  54.8257192
  81.3471367  84.6308453  54.9333075  82.4627036  86.0748978  53.7954918
  82.1291657  87.0243818  53.3767654  83.8866217  86.2717503  54.4070843
  84.3853228  86.9220918  53.6884382  83.6952622  86.8258535  55.3260245
  84.7603013  85.0991390  54.7063313  84.1503865  84.3260929  55.1737761
  85.1651878  84.7231270  53.7667655  86.0883586  85.5175395  55.7822536
  86.9268707  83.8802800  55.6092430  87.1842264  83.7119887  54.5635160
  87.8347598  83.8709216  56.2123603  86.2570095  83.0906492  55.9496406
  82.5603750  85.1863140  52.6061537  82.5102639  83.9465216  52.7462737
  82.9209813  85.7664724  51.4860018  83.1076507  86.7589168  51.4684540
  82.9457502  85.0440578  50.2383281  83.0254054  83.9785299  50.4537451
  81.6686926  85.2840597  49.3769433  81.7060059  84.6672178  48.4790496
  80.7793831  85.0310941  49.9542102  81.4360564  86.9436788  48.8214372
  80.3019971  86.7131970  48.1659330  84.1946047  85.3592541  49.4619964
  84.6961262  86.5184242  49.5811884  84.7421091  84.4328698  48.6617308
  84.6989714  83.4561490  48.9152166  85.6225925  84.8280411  47.5423075
  85.8994642  85.8822654  47.5495529  86.9253933  83.9707235  47.5120823
  86.6290754  83.0040430  47.9192968  87.6362467  83.7642506  46.1819085
  87.9332990  84.7305283  45.7742710  88.5216847  83.1471439  46.3344844
  86.9634756  83.2670274  45.4831597  87.9745106  84.5111794  48.5348171
  87.5551312  84.4740233  49.5402237  88.8732648  83.8958391  48.4936242
  88.2284423  85.5414448  48.2854727  84.9545234  84.9304532  46.2533621
  84.1915025  84.0217835  45.9802915  85.2334889  85.9731767  45.4732237
  85.7045011  86.7579142  45.9003466  84.6745952  86.1460413  44.1485688
  84.5947721  85.1563816  43.6987898  83.3070488  86.8687277  44.0041417
  83.4075948  87.9219085  44.2664392  82.8655294  86.7485650  42.5635201
  82.7643106  85.6956016  42.3006059  81.9057146  87.2486978  42.4342022
  83.6077254  87.2146205  41.9154159  82.2134290  86.2955609  44.9572654
  82.5386580  86.4052121  45.9918207  81.2809004  86.8404664  44.8104050
  82.0554121  85.2398973  44.7365712  85.7939912  86.6817718  43.2547756
  86.3191102  87.7971874  43.4621135  86.1581715  85.9243129  42.2377810
  85.9782798  84.9365449  42.3475657  86.9856593  86.3770155  41.0493677
  87.8076850  87.0238075  41.3560159  87.5744344  85.1031034  40.4030538
  87.9700043  84.4581895  41.1877256  86.8473091  84.5485706  39.8098571
  88.7015866  85.5618998  39.5147375  89.2167055  86.7271399  39.6132107
  89.1312291  84.7906833  38.6043423  86.3389559  87.3606769  40.0159240
  85.9228338  86.9595625  38.8925013  86.1784102  88.5944011  40.4715825
  86.6554579  88.8681241  41.3186956  85.3610466  89.6401587  39.7362934
  84.3124142  89.3615041  39.6322704  85.4526413  90.8998066  40.6414384
  86.4697172  90.7493200  41.0033910  85.3746402  91.8826566  40.1766569
  84.4642750  90.8113001  41.8292792  84.2589092  89.7531772  41.9914570
  84.9692297  91.4331446  43.1217138  85.1743877  92.4914441  42.9604339
  84.2117556  91.3245966  43.8979554  85.8840379  90.9297955  43.4345493
  83.0010947  91.2115245  41.5346642  82.5953698  90.5620663  40.7589769
  82.4059568  91.1085228  42.4420246  82.9683970  92.2466945  41.1948806
  86.0612037  89.9104679  38.3693710  87.2509500  90.1396010  38.2660953
  85.2324811  89.8164277  37.2752767  84.2988031  89.5206657  37.5219941
  85.5987879  89.8835820  35.8124686  84.6791074  89.8916289  35.2274711
  86.4464456  91.1648915  35.4388668  87.4410360  91.0573773  35.8716829
  86.5271423  91.2192178  34.3532164  85.7901821  92.4588248  35.9717503
  84.7561860  92.5414866  35.6369070  85.8117519  92.3260509  37.0534180
  86.5447195  93.7249535  35.6020416  87.7946360  93.7656655  35.8300332
  86.0035802  94.6773333  35.0076453  86.1990638  88.5818892  35.2800009
  86.8147255  88.6156795  34.1440490  86.1351457  87.4399428  35.9954056
  85.4915571  87.4362474  36.7737882  87.0423305  86.3104767  35.8441175
  87.1163768  85.7621050  36.7832154  86.5095161  85.3423323  34.7419042
  86.4854001  85.8385672  33.7717143  87.1329625  84.4505274  34.6778836
  85.0223622  84.9243869  35.1644535  84.8809522  84.9775309  36.2439348
  84.2744502  85.5439645  34.6696271  84.8736653  83.5075425  34.7119602
  84.9869986  83.5141458  33.6278888  85.6968359  82.9505269  35.1594234
  83.6515627  82.8560146  35.0386139  82.8794053  83.4566331  35.2898701
  83.4430549  81.5473356  34.9820561  84.4770597  80.7280478  34.6965028
  85.3942000  81.1167601  34.5296002  84.3289452  79.7300028  34.6510274
  82.2567606  81.1074577  35.2656863  81.5274834  81.7584161  35.5196707
  82.0675696  80.1159321  35.2312997  88.5239080  86.6694927  35.6561129
  89.1962095  86.1612061  34.7988823  89.0608384  87.5610153  36.5127939
  88.3902932  87.9647514  37.1511242  90.4026831  88.1427395  36.4565460
  90.6716369  88.3630246  35.4234741  90.4429558  89.4625661  37.2716489
  89.4920393  89.9594810  37.0794703  90.4910085  89.1636374  38.3187557
  91.5574170  90.3952899  36.9722755  91.6769715  91.1718702  37.7277427
  92.4200857  89.7294760  36.9967044  91.4896371  91.0706110  35.5709149
  90.6499565  90.7544215  34.7527330  92.2711252  92.0809597  35.3603799
  92.2581673  92.5474708  34.4646674  92.8901067  92.3979508  36.0928277
  91.5564850  87.1631672  36.7564528  92.6699217  87.5067956  36.3742690
  91.2592410  85.9697709  37.2924587  90.2899477  85.7336303  37.4499628
  92.2942316  84.9764918  37.6661285  91.8632891  83.9840449  37.5340794
  93.1343206  85.1010919  36.9828828  92.7892390  85.1109953  39.0801725
  93.7268419  84.4448952  39.5602073  92.1507132  85.9173993  39.8682787
  91.2782645  86.2644360  39.4961253  92.5783324  86.3941794  41.1235442
  93.0869361  85.6133078  41.6889300  93.5992615  87.5802909  40.8662710
  94.4417605  87.1565819  40.3196768  93.0854753  88.3057296  40.2355076
  94.1117167  88.2781294  42.1361305  93.5045349  89.1586230  42.3462782
  93.9337330  87.5234174  42.9021811  95.5868565  88.6800061  42.1793477
  96.0071990  89.3553891  41.2236490  96.3465454  88.4174354  43.2153643
  97.3169445  88.6974333  43.2100533  95.9577584  87.9364171  44.0138425
  91.4386140  86.8253333  41.9997994  90.9228259  87.9175407  41.8318988
  90.9272724  85.9134037  42.7623793  91.3162316  84.9908495  42.6293234
  89.8862357  86.0829709  43.7545192  88.9327805  86.0881889  43.2263193
  89.9281209  85.2200196  44.4190943  89.9993653  87.3532026  44.5846627
  91.0976313  87.6885471  45.0402434  88.8589444  87.9940780  44.8596971
  87.9881721  87.8251762  44.3766578  88.8897612  89.0793171  45.9496950
  89.9251944  89.1848321  46.2734911  88.3703873  90.4487740  45.5233880
  87.2846076  90.4133005  45.4343752  88.6490516  91.1912610  46.2711576
  88.9911728  90.8382595  44.1490400  90.0766256  90.8242101  44.0505735
  88.5554585  90.1088461  43.4662434  88.4942908  92.2005478  43.7747785
  88.2635547  93.0404550  44.6137676  88.4753336  92.5653628  42.4770968
  88.1413483  93.4827766  42.2184324  88.7952039  91.9196132  41.7694304
  88.0395590  88.4883261  47.0544999  87.0205004  87.8095720  46.7575448
  88.2951500  88.9033187  48.3148246  89.1014108  89.5016545  48.4245379
  87.5341017  88.5512755  49.4980930  86.9586150  87.6407125  49.3313917
  88.5179468  88.3061662  50.6554936  89.2235478  87.5255104  50.3712351
  89.0399978  89.2607752  50.7209493  87.9081893  87.9698867  52.0040636
  87.2511385  88.8010392  52.2601309  87.1164714  86.6542521  52.0640502
  87.7730185  85.8225327  51.8085355  86.7245745  86.5110236  53.0710274
  86.2894309  86.6946493  51.3551973  88.9496401  87.7179656  53.0997780
  89.5617380  88.6101248  53.2320191  88.4432447  87.4833424  54.0360562
  89.5857113  86.8809994  52.8116809  86.5796940  89.6810814  49.8291195
  86.9831642  90.8211778  49.8745610  85.2853243  89.3129170  50.0564123
  85.0780535  88.3474033  49.8444656  84.1954561  90.1851429  50.3927281
  84.5720141  91.1419139  50.7545186  83.3370069  90.4329258  49.1833110
  82.8225687  89.5059248  48.9300882  82.3076630  91.5324072  49.4402498
  82.8213965  92.4599019  49.6930984  81.7056006  91.6837476  48.5443048
  81.6606064  91.2390651  50.2669116  84.0823303  90.8597422  47.9178010
  84.7924213  90.0829003  47.6342706  83.3680612  91.0112960  47.1085107
  84.6184437  91.7896460  48.1074382  83.3674802  89.7795486  51.6129151
  82.6741196  88.7870254  51.6559933  83.5875698  90.5542655  52.6366808
  84.0841146  91.4225063  52.4963221  83.1061161  90.2223860  54.0274976
  82.8407987  89.1665958  54.0823876  84.1586372  90.5146540  55.0857455
  83.7606025  90.1439146  56.0303200  85.5357562  89.8867507  54.8295450
  85.9346615  90.2573977  53.8853019  86.2139958  90.1541312  55.6398522
  85.4378631  88.8022279  54.7812977  84.3008498  91.9449577  55.1399778
  84.9594257  92.1762761  55.7990453  81.8750854  91.0715851  54.3877912
  81.8733433  92.2704552  54.3686985  80.9358698  90.3805772  54.9906138
  80.7825812  89.4026749  54.7898426  80.0473550  91.0440243  55.9769491
  79.6005105  91.9349195  55.5356613  78.8997917  90.0702472  56.4089418
  79.2704960  89.2631890  57.0408711  78.0963915  90.5955805  56.9253457
  78.1553962  89.2927742  55.0075032  77.2736744  88.5757039  55.6983541
  80.8379439  91.4690932  57.1902984  81.8407575  90.8519553  57.5739421
  80.5298407  92.6663135  57.7790743  79.6081117  92.9410962  57.4708381
  81.2954672  93.6060374  58.6121170  81.7877781  93.0504157  59.4102484
  82.3899626  94.3774838  57.7878360  83.2137245  93.7214457  57.5065360
  81.9674299  94.8336171  56.8925660  82.8586255  95.3701815  58.6347128
  83.5358585  95.8808996  58.1851326  80.4175819  94.5743092  59.3974177
  79.2958436  94.9801342  59.0715127  80.8671841  94.8959390  60.6043287
  81.7594117  94.5295742  60.9040053  80.1144766  95.7753635  61.5411242
  80.7115214  95.9049925  62.4438052  79.9687169  96.7427618  61.0605059
  78.7790190  95.2118480  61.9169557  78.5599131  93.9784787  61.8892617
  77.9155405  96.0581963  62.5087516  78.3149624  96.9513281  62.7595046
  76.5335490  95.7611872  62.9438023  76.1131820  95.1776333  62.1247445
  76.5109622  94.9052579  64.2180781  76.9205034  95.4792798  65.0492669
  75.4842142  94.6189408  64.4459184  77.1121102  94.0089835  64.0650666
  75.6439701  97.0447022  63.0856047  76.1910287  98.1315462  63.3955014
  74.3248322  96.9117719  62.9776014  73.9803572  95.9780534  62.8055371
  73.3348070  98.0185613  63.1000239  72.3448804  97.6891349  62.7843930
  73.2625226  98.4497454  64.5856053  74.2335304  98.8351122  64.8966286
  72.4902212  99.1836597  64.8158670  72.9766809  97.2227777  65.4604474
  71.7785235  96.6045749  65.5663771  70.9520823  96.9976566  64.9742777
  71.5819491  95.5168525  66.3843150  70.6095817  95.0303364  66.4611552
  72.6735682  95.0327205  67.1336594  72.5440926  94.1608644  67.7749104
  73.9598724  95.6868771  67.0544593  74.8390062  95.3469239  67.6018675
  74.0432290  96.8009153  66.2302599  74.9705532  97.3712957  66.1770064
  73.8106637  99.2176704  62.2211566  74.0984564  98.9914976  61.0616450
  73.8294174 100.4432544  62.7186414  73.4479846 100.5969386  63.6411324
  74.2595598 101.6376264  61.9186714  73.7080405 101.6943347  60.9802100
  73.9637328 102.9083268  62.7418699  74.0810805 103.7749985  62.0913247
  72.9340993 102.8571787  63.0959020  74.9032003 103.0369842  63.9320589
  74.7221361 102.2215108  64.6322873  75.9371647 102.9980196  63.5892743
  74.6446122 104.3906239  64.6385898  74.4334596 105.1544625  63.8902154
  73.7895968 104.2917781  65.3073780  75.8900311 104.7995040  65.4533258
  76.2894117 103.9115871  65.9434271  76.6354714 105.2014257  64.7671211
  75.5577333 105.8224246  66.4772158  74.8673226 105.4500410  67.1134257
  76.3918374 106.0674970  66.9913266  75.1880405 106.6454334  66.0232523
  75.6962177 101.4964113  61.4746100  76.0517206 102.0264739  60.4423749
  76.5104268 100.7678754  62.2576642  76.2457546 100.6205142  63.2211644
  77.9214699 100.4261522  61.8425923  78.3515161 101.2251828  61.2386804
  78.7370203 100.2626626  63.0550669  78.4066230  99.3137460  63.4775525
  79.7565033 100.1590459  62.6835590  78.6960664 101.3474236  64.1402965
  77.6868896 101.3809251  64.5508335  79.3859628 100.9851428  64.9024610
  79.1019544 102.7106322  63.7134201  78.2914397 103.6393424  63.8059632
  80.2934908 102.8544148  63.3214333  78.0730572  99.3484675  60.7742207
  79.1215105  99.2317301  60.1143654  76.9816503  98.7030114  60.3083545
  76.1069068  99.0103432  60.7089419  76.9489731  97.6110710  59.2877153
  77.5707724  96.7863685  59.6360408  75.9208053  97.2674414  59.1741857
  77.4546412  98.0744205  57.9638558  76.9525024  99.0005643  57.3477426
  78.3755202  97.2234304  57.5204433  78.6402045  96.4867473  58.1586749
  79.1312980  97.3567395  56.2425565  78.5170056  97.8737265  55.5053533
  80.4530641  98.1784152  56.4598523  81.0550468  98.1212483  55.5529631
  80.1917000  99.2181092  56.6568939  81.2062801  97.6548549  57.5691255
  82.0078311  98.1706366  57.6835155  79.4666527  96.0823237  55.4415563
  79.3431946  95.0215679  55.9561400  80.0034885  96.2694666  54.1917471
  79.9554515  97.2119649  53.8319016  80.5606493  95.2722379  53.3744572
  80.7140517  94.3567779  53.9458589  79.6034388  94.9700047  52.2101453
  79.5497586  95.9632863  51.7644893  80.1447961  94.3009936  51.5412234
  78.1423893  94.4163233  52.4385727  77.5826454  95.1383430  53.0331105
  77.4543305  94.2003461  51.1527442  78.0132764  93.4780426  50.5578023
  76.4500327  93.8188814  51.3370573  77.3902385  95.1442038  50.6113337
  78.1583463  93.1374603  53.2925480  78.6031511  93.3540404  54.2638056
  77.1379775  92.7804922  53.4322708  78.7452369  92.3701316  52.7877065
  81.9093500  95.7999063  52.9079582  82.0907305  96.9738142  52.5856363
  82.8991308  94.8756701  52.8789182  82.7757979  93.8959832  53.0912904
  84.2632793  95.3838061  52.7113989  84.2150500  96.2842247  52.0990105
  84.9348487  95.7089201  53.9675078  85.2295837  94.7518529  54.3979180
  85.8259714  96.2700119  53.6861248  84.1037361  96.5377906  55.0390140
  83.8826605  97.5301530  54.6460213  83.1709749  96.0198966  55.2622726
  84.9143692  96.6663913  56.2903479  85.0485878  95.6746163  56.7221659
  85.8874753  97.0851142  56.0337642  84.2801045  97.5304687  57.2878786
  83.3958210  97.1565505  57.6014504  84.6862915  98.6887603  57.7813386
  85.8679970  99.2614709  57.5910004  86.5614405  98.8029594  57.0174122
  86.0685958 100.1532758  58.0205860  83.9071288  99.3447274  58.5448081
  82.9926515  98.9766332  58.7646671  84.2071078 100.2301588  58.9270678
  84.9963581  94.4087008  51.8361572  84.6958702  93.1947231  51.7244874
  85.9264807  94.9265276  51.0027297  86.2643267  95.8575113  51.2007919
  86.4045805  94.2438703  49.7416592  86.1218960  93.1936198  49.6698087
  85.8010640  95.0185197  48.5593906  86.1279939  96.0512108  48.6809077
  86.1736579  94.5292286  47.1669959  85.8466128  93.4966827  47.0445583
  85.6868842  95.1551030  46.4190431  87.2546649  94.5850263  47.0388955
  84.2934929  95.0663201  48.6352224  83.9493155  94.1363992  48.1825749
  84.0549358  95.0621830  49.6987885  83.6116236  96.2240135  47.9758459
  83.8493516  96.2285452  46.9120956  82.5332421  96.1335037  48.1062326
  83.9549740  97.1543296  48.4283081  87.9526983  94.1565271  49.7314348
  88.5759090  95.1503470  49.6583846  88.5281614  92.9788587  49.8871570
  87.9071548  92.1999403  49.7206150  89.9079521  92.6926584  50.3139827
  90.4592443  93.6329388  50.3209636  90.1083346  91.9898262  51.6134575
  89.6637066  90.9949887  51.5869107  91.6619950  91.8640720  51.8323594
  92.1072934  92.8585941  51.8594831  91.8564011  91.3536525  52.7756404
  92.0997120  91.2927638  51.0137570  89.3838033  92.7300455  52.8036540
  90.0140268  92.5723208  53.6788923  89.3861909  93.7878544  52.5407203
  87.9405821  92.2823056  53.1215888  87.9374564  91.2246375  53.3850813
  87.5544732  92.8656065  53.9575189  87.3096207  92.4401691  52.2469079
  90.5875607  91.8547943  49.2132930  90.3757132  90.6467295  48.9901380
  91.5019549  92.5981370  48.5080108  91.7361011  93.4897640  48.9206560
  92.2260829  92.1777789  47.2970633  91.8668208  91.2006467  46.9741971
  92.0092412  93.1636349  46.1794115  90.9332551  93.2069287  46.0106547
  92.3579158  94.1286291  46.5472595  92.7157562  92.8341341  44.8696169
  93.7820327  93.0290766  44.9843018  92.5622966  91.7795483  44.6407043
  92.1432225  93.7169284  43.6916787  91.0734620  93.5406226  43.5793057
  92.3171533  94.7729274  43.8983511  92.8294546  93.3587162  42.4002216
  92.3585686  92.5998188  41.9285856  93.9840396  93.8017618  41.8983381
  94.5443719  94.8440642  42.4067566  94.1073648  95.3208377  43.1825219
  95.4181213  95.1797010  42.0272705  94.5419632  93.3069312  40.7853700
  94.0835073  92.5599328  40.2834620  95.4184886  93.6831360  40.4532979
  93.7234258  92.2426463  47.6363054  94.2009466  93.1531981  48.3377498
  94.4921907  91.2373198  47.2648485  94.0386973  90.3770129  46.9922404
  96.0260091  91.2702807  47.3049075  96.4102730  91.2691243  48.3249267
  96.4742068  90.0206992  46.6253968  96.1060201  89.1603457  47.1842613
  95.9833007  90.0587578  45.6529448  97.9571537  89.8566201  46.4102886
  98.5002416  90.5524737  45.6086662  98.5778418  89.0131679  47.1537209
  99.5718790  88.8775792  47.0370781  98.0689832  88.4894487  47.8514901
  96.7247758  92.5376708  46.6762219  96.1780518  93.0754921  45.7200619
  97.8862493  92.9420260  47.2552342  98.1816115  92.3768469  48.0384539
  98.7064010  94.0542377  46.8717655  98.6332470  94.2732365  45.8065016
  98.1410562  95.2621564  47.6665446  98.2158686  95.0616004  48.7353198
  98.7139597  96.1572784  47.4243909  97.0958594  95.4168505  47.3987154
 100.1569862  93.8649871  47.1997486 100.4740386  92.8909046  47.8338322
 101.0493650  94.7958049  46.7520890 100.7027210  95.6207119  46.2836172
 102.4715659  94.6820320  46.9754419 102.9559760  93.8452399  46.4722272
 103.0750362  95.9938204  46.4407638 102.6063674  96.8407658  46.9418957
 104.1477119  96.0061662  46.6339340 102.8988359  96.0644721  45.3674227
 102.7864335  94.5788762  48.5344747 102.9260788  95.6072505  49.2103848
 103.0153547  93.3279302  48.9988131 102.7730401  92.6524015  48.2881487
 103.3477989  92.8420282  50.3249523 103.2799023  91.7549639  50.3671479
 104.7833627  93.2442357  50.5504623 104.8658939  94.3306833  50.5201271
 105.1139945  92.8822997  51.5240049 105.4094538  92.8108970  49.7705092
 102.2582140  93.2886596  51.3189575 102.5957642  93.8059042  52.4016218
 101.0053431  93.3160538  50.9203587 100.7405952  92.7046958  50.1612478
  99.9662839  94.2189820  51.4969511  99.9315755  94.2261368  52.5863745
 100.2426778  95.6164115  51.0158697 100.2713737  95.6271186  49.9263001
  99.4546252  96.2838225  51.3646330 101.2026925  95.9528067  51.4074170
  98.6320988  93.6950497  51.0368043  98.4815357  92.6777475  50.3047497
  97.6212654  94.4299304  51.4891495  97.7932950  95.1845687  52.1380148
  96.2076581  94.2301256  50.9770456  96.2451120  93.5793905  50.1034094
  95.2610672  93.5908282  52.0327717  95.3712850  94.2529669  52.8915637
  94.2195158  93.5836392  51.7114948  95.6836699  92.1723675  52.4248447
  96.7728475  92.1530922  52.3871424  95.2229588  91.7146563  53.7746480
  94.1337912  91.7332213  53.8129633  95.5750520  90.6988235  53.9541330
  95.6243046  92.3783831  54.5404735  95.2619993  91.1444725  51.3443788
  95.7351570  91.3987506  50.3959254  95.5752383  90.1461749  51.6499675
  94.1786065  91.1645137  51.2262368  95.4843703  95.5354167  50.6528114
  95.4112829  96.4036430  51.5257555  94.9399436  95.7180467  49.4453928
  95.3398654  95.2038294  48.6735492  93.9329279  96.7363497  49.1520984
  94.1981126  97.6338399  49.7109254  93.8012910  97.1098091  47.6413404
  94.7965227  97.5383837  47.5232860  93.6259854  96.3771530  46.8535695
  92.8161340  98.2343487  47.4133528  92.5791501  99.3512150  48.2481517
  91.8435377 100.2171570  47.5387871  91.4417372 101.0815045  48.0675202
  91.7371940  99.8499946  46.2836123  91.3902602 100.3987779  45.5099368
  92.1905358  98.5527571  46.1914281  92.0285447  97.9825282  45.2767155
  92.6146601  96.3998890  49.7497556  92.0540697  95.2891978  49.5777653
  92.1053711  97.4003058  50.4178707  92.6306370  98.2561546  50.5261204
  90.7910219  97.3091324  51.0508664  90.1619547  96.4818724  50.7222107
  91.0292648  97.2019158  52.5965516  91.4963177  98.1280808  52.9314850
  89.7330761  96.9787557  53.3681067  89.2656489  96.0524713  53.0340262
  89.9510945  96.9112662  54.4339463  89.0546249  97.8127820  53.1886542
  92.0632067  96.1536321  52.9304924  91.9050156  95.3804943  52.1786053
  93.0134623  96.6534413  52.7425972  92.0895038  95.5123561  54.3261863
  91.1396843  95.0119239  54.5146280  92.8993821  94.7846120  54.3770300
  92.2481288  96.2848719  55.0786206  89.8169809  98.4695166  50.7952094
  90.2226901  99.5810865  51.0354642  88.5782709  98.1305665  50.3994994
  88.3413364  97.1504311  50.3420885  87.5140337  99.1599103  50.0027217
  87.9274756 100.1621686  50.1151646  87.0554244  98.9776973  48.5445304
  86.8999058  97.9094638  48.3935653  86.1041512  99.5004576  48.4450263
  88.0528230  99.5110040  47.4796093  88.1978822 100.5698430  47.6938954
  88.9898196  98.9770954  47.6379791  87.6015608  99.3385656  46.0002407
  88.3918895  99.7344023  45.3624376  87.4822194  98.2718812  45.8103948
  86.3393564 100.0214987  45.6667614  86.4317469 100.9938107  45.9240020
  85.2735391  99.6496091  44.9686657  84.9896992  98.4189331  44.6129180
  85.6097440  97.6654412  44.8734835  84.1524950  98.2308559  44.0801745
  84.3345964 100.5402525  44.8140729  84.4432052 101.4594527  45.2182699
  83.5027864 100.3070518  44.2908060  86.3083314  98.9847484  50.9776542
  85.9733121  97.8464668  51.2460234  85.6101151 100.0678404  51.3930476
  85.8271108 101.0061294  51.0887025  84.4625996  99.8747781  52.3483618
  84.1947424  98.8318335  52.5175307  84.9218374 100.4934188  53.6950430
  85.2478059 101.5040298  53.4490547  83.8906879 100.5504168  54.8533197
  83.5645828  99.5400669  55.1001965  84.3520291 101.0069102  55.7290349
  83.0301358 101.1443650  54.5454622  86.0398920  99.8319971  54.2240705
  86.2918766 100.2432692  55.0541063  83.0808239 100.5239184  51.9890615
  83.0010449 101.7599912  51.8294547  82.0571751  99.7198118  51.8083633
  82.2500207  98.7301555  51.7492833  80.6734065 100.1667818  51.6551437
  80.6149321 101.1990791  51.3101187  79.9487505  99.2677147  50.6400860
  79.8459324  98.2981719  51.1274405  78.5520599  99.7484840  50.1400528
  78.6541514 100.7178239  49.6521405  78.1511082  99.0252815  49.4299004
  77.8732987  99.8388650  50.9881190  80.8072574  99.0735292  49.4160133
  81.7482112  98.6037114  49.7023335  80.2852834  98.4353487  48.7030138
  81.0098351 100.0409405  48.9564716  79.8068495 100.1877096  52.9391075
  79.6823407  99.1069862  53.5793024  79.2299837 101.3089875  53.3675729
  79.6945288 102.6445283  52.9055419  79.4525588 102.7812036  51.8515634
  80.7717311 102.7352240  53.0452149  78.9052754 103.5899410  53.8180899
  77.9225014 103.8271886  53.4106983  79.4481384 104.5139038  54.0173232
  78.7931994 102.7281839  55.0983412  77.9818978 103.1354134  55.7017091
  79.7008250 102.6745193  55.6995363  78.4220621 101.3508283  54.6013517
  78.7432224 100.5327342  55.2460814  76.8856391 101.2120624  54.3068059
  76.2585823 101.9321106  53.5342378  76.2847149 100.1683338  54.7850973
  76.8332393  99.5148403  55.3256217  74.8162271  99.9278463  54.6618597
  74.5020321 100.1239394  53.6367119  74.4626736  98.5015392  55.0105270
  74.7396324  98.4206184  56.0616431  73.3972352  98.3000052  54.8995084
  75.2744962  97.4680444  54.1800412  76.3368514  97.6128238  54.3763602
  74.8837406  96.0679742  54.5520885  73.8215418  95.9222850  54.3556011
  75.4627716  95.3591392  53.9601621  75.0826371  95.9039623  55.6111639
  75.2299165  97.6075345  52.6564234  75.6205006  98.5836679  52.3688350
  75.8375102  96.8252462  52.2014990  74.1999474  97.5131651  52.3123930
  73.9359624 100.7361623  55.6506339  72.8149740 101.0553113  55.2728472
  74.3978093 100.9423159  56.8611917  75.3075523 100.5145818  56.9587137
  73.7309220 101.4981502  58.0985722  74.4228279 101.4716947  58.9403950
  73.3124890 102.9395411  57.8589158  72.5632714 102.8369477  57.0739019
  72.8337528 103.2880247  58.7740501  74.3684300 103.9464903  57.4237633
  75.0909631 104.6513557  58.4057270  74.9702904 104.3036149  59.4316967
  75.9242036 105.7363829  58.1301781  76.2789843 106.3738939  58.9400006
  76.1534573 106.1177146  56.7601114  77.0546798 107.1031284  56.4345463
  77.4882364 107.4833860  57.2020308  75.5608162 105.3118461  55.7628043
  75.8407046 105.5094882  54.7280576  74.6128953 104.2539783  56.0697500
  74.1112568 103.7205269  55.2623539  72.6323761 100.6119872  58.6945865
  71.7682501 101.1185067  59.4327446  72.6664852  99.2641781  58.4670934
  73.3395749  99.0676948  57.7401519  71.8994469  98.1160993  59.0559070
  71.6397647  98.3294291  60.0928037  70.5792978  97.8926414  58.2455329
  70.0452018  97.0659581  58.7139722  69.9860113  98.8029904  58.3314154
  70.8212308  97.5660047  56.7249771  71.4022545  98.3834695  56.2980538
  71.4081635  96.6480973  56.6924947  69.5611549  97.3816130  55.9326045
  69.5963082  96.5325107  55.0922531  68.5454824  98.0793584  56.1683243
  72.7520118  96.8192415  59.0491377  73.7697895  96.6703505  58.3557243
  72.3953940  95.7817676  59.8440934  71.4977307  95.8608081  60.3002212
  73.2451929  94.5653741  60.1391185  74.2662274  94.8759632  60.3607534
  72.6960226  93.8005790  61.3411906  71.6903033  93.4645995  61.0887116
  73.3376337  92.9346153  61.5041078  72.6498400  94.5837923  62.5236035
  72.2982260  94.0554176  63.2438726  73.3385688  93.6144068  58.9099578
  72.3293291  92.9414969  58.6877652  74.5384660  93.5144769  58.2101994
  75.7282950  94.2922608  58.3446996  76.0284638  94.2960047  59.3925474
  75.5187422  95.3126181  58.0236739  76.7642533  93.5852485  57.4304442
  77.3569071  92.8740645  58.0058379  77.4254527  94.3178093  56.9675495
  75.9166262  92.8824403  56.3841202  76.4336585  91.9977348  56.0125387
  75.5864875  93.4903140  55.5417440  74.7155495  92.4652816  57.2272872
  73.8561332  92.4246600  56.5580699  74.8428132  91.1174917  57.9873908
  75.6879868  90.9895561  58.8521422  74.0849462  90.1057732  57.5290087
  73.5101586  90.2394732  56.7093484  73.9953552  88.8150642  58.2451823
  74.4756835  88.8756414  59.2217653  72.4564642  88.4755558  58.4560693
  71.9467092  88.6263221  57.5044819  72.3813134  87.4274747  58.7458596
  71.7930702  89.3616035  59.5440146  72.2163726  89.1637224  60.5287780
  71.8976505  90.4211216  59.3103774  70.3251782  88.9866547  59.5410509
  69.7994777  89.7165412  60.1566836  69.9711752  89.0573539  58.5125652
  70.0161778  87.5868384  60.0700187  69.4981706  86.9470557  59.4848299
  70.3550615  87.2011102  61.2562660  70.9444514  87.9007537  62.1615314
  71.1898556  88.8620600  61.9724096  71.1587835  87.4851817  63.0567751
  70.1554077  86.0198621  61.6266110  69.7254500  85.3610991  60.9931541
  70.4255231  85.7329324  62.5565613  74.7248464  87.6816379  57.5398452
  75.4345083  86.9813379  58.2597598  74.6188840  87.4936681  56.1831624
  74.4322859  88.3497369  55.6807416  75.0075366  86.2765376  55.3954559
  75.8620506  85.7984205  55.8743182  73.8430407  85.2460072  55.3118419
  72.8937206  85.7755555  55.2314106  73.9803298  84.6122507  54.4357114
  73.8375663  84.3580824  56.6025024  73.9069976  85.0531016  57.4392990
  72.8647198  83.8667487  56.6187137  74.9737051  83.2756518  56.7243329
  74.9227650  82.6124509  55.8608118  75.9402902  83.7792505  56.7385102
  74.8030414  82.4395763  58.0336520  74.7535953  83.1265390  58.8784821
  73.8706202  81.8790247  57.9667805  75.9323365  81.4984196  58.2277587
  76.7963868  82.0176695  58.2901795  75.7917135  80.9750697  59.0800674
  75.9780673  80.8615028  57.4452340  75.0565210  86.6327259  53.8739897
  74.3012452  87.5221553  53.4588610  75.9991688  86.0525802  53.0539629
  76.5339567  85.2731552  53.4097691  76.3255039  86.5683563  51.7237695
  75.5600778  87.1635314  51.2257848  77.6162794  87.4530210  51.9498955
  77.3576344  88.2446556  52.6531151  78.8261753  86.6334395  52.5095606
  79.0857162  85.8418519  51.8066180  79.6823944  87.2944527  52.6439152
  78.5543654  86.1923221  53.4685361  77.9513656  88.1919207  50.6107414
  78.2654069  87.4402975  49.8864891  77.0388430  88.6743218  50.2604682
  79.0645060  89.2503340  50.7691162  79.9775404  88.7685763  51.1189413
  79.2518724  89.7280114  49.8074419  78.7509771  90.0025998  51.4929226
  76.4969365  85.3615403  50.7133657  76.8203968  84.2358858  51.1084915
  76.1285117  85.6413957  49.4538840  75.6948248  86.5420690  49.3096534
  76.2502801  84.7295877  48.2980269  77.1482578  84.1248699  48.4247218
  75.0414988  83.7895693  48.1492178  75.1310717  83.1312605  47.2850966
  74.8672773  83.1920292  49.0440322  73.4931292  84.7818757  47.8827210
  72.6727068  83.7386899  47.7957220  76.4379513  85.5855602  47.0310381
  76.0362535  86.6985240  46.8888783  76.8459349  84.9567611  45.9221255
  77.0709737  83.9774532  46.0241690  77.0406005  85.5704239  44.6368581
  76.5591207  86.5447585  44.5534999  78.5372985  85.7621501  44.5486257
  78.7937021  86.5315469  45.2769010  79.0482564  84.8343423  44.8059092
  78.9642975  86.2045090  43.1853764  79.4240629  85.2596302  42.2605241
  79.4469916  84.2027209  42.5260735  79.8539543  85.6720923  40.9957778
  80.1762099  84.9028146  40.2940193  79.7897150  87.0286891  40.5818062
  80.2438451  87.3738529  39.3480019  80.5820145  86.6260235  38.8500137
  79.3450362  87.9588188  41.5264285  79.3032884  89.0080382  41.2340310
  78.9627179  87.5790393  42.8058598  78.6578292  88.3342450  43.5302957
  76.4879050  84.7634377  43.4851194  76.4956323  83.5909812  43.4899116
  75.9748969  85.4315053  42.4695947  76.0573644  86.4381121  42.4631731
  75.2323809  84.8073820  41.4244219  75.4960158  83.7549866  41.3192575
  73.7233211  84.9072501  41.8169140  73.6119536  84.5164469  42.8283335
  73.4403868  85.9597750  41.8014435  72.8046354  84.1100245  40.8498747
  72.9589224  84.4088201  39.8130442  73.0665083  83.0584764  40.9672252
  71.2908709  84.2906655  41.2023219  70.6031955  85.1287806  40.6179122
  70.6654820  83.5154717  42.0965815  69.6866133  83.6665421  42.2943064
  71.1753212  82.7830210  42.5695311  75.5402872  85.4309034  40.0491693
  75.0906590  86.5047281  39.6443828  76.4933314  84.6562923  39.3809355
  76.8902954  83.8602327  39.8592741  77.0863375  85.0715905  38.1532640
  77.6638993  85.9824801  38.3107493  78.0420659  83.9624944  37.6073437
  78.8592999  83.8246155  38.3153107  77.4819403  83.0320811  37.5141213
  78.6215434  84.3610087  36.2169293  77.8504183  84.0827191  35.4985827
  78.8020770  85.4343289  36.1578490  79.9324611  83.5975275  35.8898694
  80.6492352  84.0426770  34.9173829  80.1725997  82.5487072  36.5476280
  76.1334983  85.6005220  37.1456018  76.2458547  86.7094176  36.6718630
  75.0834766  84.7954379  36.8563288  74.8266717  84.0505944  37.4882772
  74.2014627  85.0680195  35.6952307  74.6953511  85.0979897  34.7240072
  73.0345483  83.9519172  35.6467392  72.2674863  84.2777531  34.9442110
  73.5998507  82.5728448  35.1948150  74.3666978  82.2461134  35.8971632
  72.7938323  81.8394627  35.1706152  74.0352218  82.6664229  34.1999297
  72.2103359  83.7736656  36.9120610  71.7131626  84.7120704  37.1576565
  71.4618963  82.9974826  36.7524435  72.8642848  83.4834874  37.7344042
  73.4574747  86.3980257  35.9357289  73.4512072  87.2333321  35.0233704
  72.9256214  86.6689315  37.1522876  72.9471767  85.8897564  37.7945655
  72.3329517  87.8997096  37.5947872  71.6615206  88.3255767  36.8491890
  71.5171266  87.5367387  38.8366908  72.1411984  87.1408982  39.6379049
  70.9390354  88.3816826  39.2108302  70.6100981  86.4971206  38.3694494
  70.0534128  86.2078815  39.0961145  73.3216308  89.0565184  37.9460264
  72.9019670  90.1840716  38.1317468  74.6685198  88.7883097  37.9460328
  74.8628912  87.8028982  38.0522562  75.7911555  89.7321386  38.0262458
  76.7326267  89.1921912  38.1271811  75.8442412  90.5765306  36.7424459
  74.8352781  90.9312350  36.5320237  76.4972164  91.4292756  36.9283205
  76.3733646  89.7773241  35.5278713  77.1765829  89.0445928  35.6056278
  75.4340426  89.2652187  35.3192463  76.6963703  90.7592168  34.3189230
  77.7442572  91.4129699  34.3153404  76.0407570  90.6482857  33.1669249
  76.2536935  91.2769464  32.4056462  75.3330088  89.9359009  33.0587512
  75.7977129  90.4915115  39.3548747  76.0601719  91.7120927  39.4210780
  75.6322440  89.8347365  40.5153908  75.7404932  88.8305634  40.5111658
  75.2315709  90.4811162  41.7582940  75.7590168  91.4238670  41.9036251
  73.7400476  90.7685601  41.6585282  73.3465333  91.3130744  42.5168696
  73.4601447  91.2862495  40.7410578  72.8671544  89.1833977  41.6266272
  71.6444741  89.6996833  41.5406023  75.6196483  89.5514072  42.9691544
  75.9345200  88.3557687  42.8330425  75.5802449  90.2060587  44.1370785
  75.6492464  91.2136175  44.1242932  75.5488003  89.5267368  45.4388926
  75.8170425  88.4781838  45.3097344  76.5575457  90.1808222  46.4360842
  76.3050986  91.1753173  46.8039825  76.5291535  89.4703400  47.2622252
  78.0306065  90.2457395  45.9573780  79.0239677  89.3198536  46.2762194
  78.6646935  88.4618032  46.8443492  80.3796876  89.4151717  45.9328015
  81.1348125  88.7534193  46.3570313  80.7565967  90.4156676  44.9986701
  81.7771753  90.4771167  44.6208563  79.7820775  91.3426622  44.5584378
  80.0382944  92.1839323  43.9144519  78.4753915  91.1586693  44.9673267
  77.6754920  91.7463324  44.5168683  74.1175785  89.4888474  46.0214641
  73.4626261  90.5613120  45.9553502  73.6905861  88.3715360  46.5985244
  74.1693669  87.5087619  46.3829107  72.5970377  88.3265463  47.5020308
  71.9017933  89.1515794  47.3469342  72.0567870  87.3814894  47.4463890
  73.2392870  88.4624764  48.9204073  74.1729167  87.7494006  49.2778881
  72.6500344  89.3159073  49.7941092  71.8670861  89.8192421  49.4020055
  73.0504267  89.6146665  51.1991522  73.7237868  88.8315955  51.5476993
  73.8670164  90.9927134  51.1146484  73.3176778  91.7317301  50.5313983
  74.0349791  91.4916346  52.5268128  74.5846723  90.7533027  53.1105974
  74.5874620  92.4311960  52.5174624  73.0544519  91.6517595  52.9751744
  75.2809551  90.7520354  50.5605100  75.2118316  90.3215151  49.5615224
  75.8184507  91.6990071  50.5110868  75.8163458  90.0647213  51.2155345
  71.7831704  89.6730110  51.9904060  70.9118283  90.6022915  51.8829548
  71.7057070  88.7425074  53.0023667  72.2310746  87.8802897  52.9765031
  70.8152380  88.9651218  54.1088629  69.8001680  89.1722056  53.7699701
  70.8013227  87.6714912  54.9410308  71.8438835  87.4835553  55.1976362
  70.2258243  87.8287724  55.8532611  70.2419859  86.4763869  54.1898870
  70.9147903  86.2106559  53.3745208  70.1086831  85.2830707  55.1547148
  69.4356188  85.5479033  55.9701576  69.7072317  84.4238467  54.6174331
  71.0887361  85.0318310  55.5602704  68.8547485  86.7813726  53.5125525
  68.9691775  87.5992430  52.8011500  68.5018646  85.8924321  52.9897149
  68.1309279  87.0640006  54.2769504  71.2705124  90.1613214  54.9112006
  72.4650167  90.1977899  55.3019327  70.3053463  90.9575340  55.3652465
  69.4266357  90.9151945  54.8690870  70.4609722  91.9720371  56.4309530
  71.2858405  91.7114064  57.0940994  70.7562797  93.2817456  55.7989799
  71.1587845  93.9709979  56.5412873  71.4799272  93.1520875  54.9942296
  69.5189388  93.8225026  55.2558873  69.6946490  94.6712271  54.8431010
  69.2865591  92.0512518  57.4098196  68.3050526  91.3366283  57.2598754
  69.4079977  92.8311037  58.4807298  70.3454203  93.1736381  58.6356763
  68.3491912  93.2209614  59.4426814  67.3575072  93.1342152  58.9986802
  68.4354985  92.2950316  60.5884152  68.4551382  91.2645043  60.2338353
  69.3385741  92.4979226  61.1640798  67.3083561  92.4879319  61.4030745
  67.3504557  91.8913925  62.1540526  68.4039391  94.6380285  59.9955615
  69.5295739  95.0825439  60.2862099  67.2704515  95.3421405  59.9912896
  66.4733657  94.9372118  59.5214105  67.1696235  96.7313746  60.4640795
  68.0934660  96.9970386  60.9779246  66.9444154  97.7254041  59.3127795
  67.3490343  98.6784023  59.6536275  67.5383510  97.3574975  58.4761283
  65.5031577  97.9177579  58.8652751  65.1119714  96.9267428  58.6351374
  64.9636131  98.3320004  59.7169774  65.3157051  98.8545923  57.6226666
  65.6554791  99.8646832  57.8515092  65.8713100  98.4699431  56.7674195
  63.8400888  98.9072950  57.2610812  63.3046402  99.6982054  57.5894937
  63.2625600  98.0493775  56.5096166  63.8442439  97.1617837  55.6964259
  64.8515240  97.1244572  55.6324452  63.2737360  96.5326401  55.1498011
  61.9449756  97.9866603  56.6031368  61.4575288  98.5975892  57.2428723
  61.4321798  97.3281190  56.0343990  66.1391130  96.9012236  61.6137983
  65.0592431  96.3781179  61.5190227  66.5215745  97.6150079  62.7169594
  67.5144999  97.7201582  62.8690840  65.6440233  98.0200337  63.7384544
  64.9322083  97.2305402  63.9795324  66.4743579  98.3935366  65.0315109
  67.0677227  99.2896757  64.8499805  65.4706419  98.6617205  66.1961063
  64.8771978  97.7658176  66.3785420  66.0224791  98.9215590  67.0994668
  64.8102307  99.4853561  65.9248489  67.4810598  97.3166570  65.4664727
  66.9365542  96.3885816  65.2924314  68.2772226  97.4140688  64.7284110
  68.0871078  97.2959245  66.8693472  67.2915313  97.1980595  67.6079813
  68.7704404  96.4513610  66.9580508  68.6321982  98.2235484  67.0439617
  64.6374044  99.0757223  63.2511004  65.0135661  99.9430206  62.4483153
  63.3762110  98.9464054  63.6582742  63.1750816  98.1513228  64.2477569
  62.2786764  99.8568286  63.3216062  62.6733067 100.7808015  62.8989476
  61.3711330  99.2085024  62.3021661  61.2138511  98.1705272  62.5953710
  60.4172741  99.7359560  62.3089579  61.9626229  99.2549456  60.9109445
  62.6648883 100.0877320  60.8736501  62.5128827  98.3145973  60.8784118
  60.9886425  99.3351321  59.6780112  61.3801246  99.8199524  58.6032833
  59.8387495  98.8275772  59.7713870  61.5024382 100.1379037  64.6496936
  61.8885365  99.7431979  65.7391928  60.4008325 100.9795123  64.5802203
  60.2503248 101.4771104  63.7142855  59.4232690 101.2168342  65.7321834
  59.5035993 100.4228421  66.4746272  59.6707553 102.5843026  66.4368426
  58.8064166 102.8451760  67.0475496  60.9213265 102.4678014  67.3376362
  61.7862257 102.2073858  66.7275264  61.1017325 103.4209150  67.8347566
  60.7592053 101.6928246  68.0867887  59.8573253 103.7468821  65.4811719
  58.9642446 103.8595397  64.8665035  60.0244058 104.6618606  66.0495010
  60.7176170 103.5560614  64.8396218  58.0621865 101.1541020  65.0598009
  57.8775872 101.3317489  63.8360907  57.0458952 100.8539235  65.8798807
  57.3180871 100.4555752  66.7671966  55.6368150 100.7237740  65.4566510
  55.5993382 100.1885890  64.5078245  54.8103892  99.9738039  66.4642636
  55.4797203  99.1773092  66.7893655  54.6879740 100.6966651  67.2708529
  53.4506245  99.3797838  66.1027596  53.5391412  99.1968117  65.0318782
  53.2939059  98.4336240  66.6207586  52.2149174 100.2933120  66.3508306
  52.2614415 101.5275243  66.4653280  51.0623871  99.6742634  66.5433135
  50.2246284 100.2134162  66.7093742  51.0251739  98.6651454  66.5233790
  54.9933743 101.9263404  64.8519064  55.1348277 102.9715262  65.4645227
  54.2674968 101.8201156  63.7470231  54.1112381 100.8690443  63.4451193
  53.8149330 102.9442850  62.8403085  54.2131033 103.9012624  63.1775827
  54.3418442 102.6646371  61.4372876  55.3581497 102.2777734  61.5118451
  53.7112761 101.9329957  60.9321295  54.3504536 103.9807492  60.6300883
  54.5703355 103.8983903  59.3882135  54.1680791 105.1224866  61.1460702
  52.3130833 103.1627894  62.9567781  51.6829822 103.5326033  61.9411304
  51.7276911 102.8972129  64.1148188  52.3061865 102.8224498  64.9393507
  50.3019022 102.5219838  64.2226624  50.1509747 101.8097994  65.0339043
  49.3629818 103.7622895  64.4611311  49.3944832 104.3162849  63.5229429
  47.8906561 103.5157287  64.8645636  47.8583426 102.9621461  65.8029675
  47.3826711 104.4719611  64.9897432  47.3916776 102.9390356  64.0857529
  49.9247896 104.5126967  65.4088261  49.3736607 105.2803679  65.5777586
  49.9126850 101.6664756  63.0523101  50.5603261 100.6241503  62.8334904
  48.8576361 101.9601780  62.3290462  48.3852944 102.8012501  62.6283625
  48.2854548 101.1972947  61.1755096  47.9611639 100.2269829  61.5515807
  47.0895352 101.8793327  60.4721174  46.5408521 101.1639072  59.8595716
  46.4138624 102.3255221  61.2018306  47.6284828 102.8977418  59.6417581
  46.9149970 103.3484779  59.1841831  49.3619275 100.9490306  60.1048007
  49.1224663 100.1182907  59.2872027  50.5412438 101.6376420  60.1659268
  50.7478271 102.1696098  60.9992532  51.5093578 101.6414462  59.0932224
  50.9997610 101.7842916  58.1403291  52.2238014 102.4500894  59.2473842
  52.2646803 100.3081619  59.0599385  52.9509682 100.0887920  58.0389381
  52.0672538  99.4813531  60.0434342  51.2277173  99.6549389  60.5774246
  52.9275162  98.3489159  60.4401493  52.3475050  97.5994497  60.9786532
  53.3853832  97.8919063  59.5628811  54.0110842  98.8696468  61.3420616
  53.8472788  99.1400547  62.5232158  55.1576453  99.1060900  60.6324835
  55.1905916  98.7822601  59.6763725  56.4433816  99.6693379  61.2550371
  56.2248500 100.3612001  62.0684680  57.3075734  98.5012664  61.8140751
  58.2253965  98.9055072  62.2410299  56.5239640  97.7418319  62.9052710
  55.6061726  97.3368794  62.4789236  57.1354060  96.9262178  63.2912911
  56.2760446  98.4252326  63.7174287  57.7005363  97.5877549  60.8297627
  58.2281329  96.8929459  61.2303656  57.2184937 100.6166444  60.3058302
  56.9799421 100.6420832  59.1068556  58.0765653 101.4503251  60.9607895
  58.0635612 101.4482470  61.9707033  58.9130631 102.4938113  60.2572292
  59.0783507 102.2253753  59.2138111  58.1459232 103.8226087  60.3062998
  57.1820767 103.6184832  59.8400028  57.9234767 104.4537028  61.6787778
  58.8869486 104.6585562  62.1455289  57.3698338 105.3857402  61.5652666
  57.3546275 103.7679635  62.3066893  58.8075209 104.8627606  59.5543573
  58.2963247 105.6733337  59.6113671  60.3606632 102.6044742  60.7416347
  60.6097489 102.3539907  61.8914374  61.2578722 103.0888331  59.8421952
  60.9637009 103.2172079  58.8845509  62.6063915 103.3145898  60.1601032
  62.9754736 102.4633226  60.7321362  63.3650862 103.3880225  58.8646580
  63.0129805 104.2410726  58.2846347  64.4288071 103.5045263  59.0720826
  63.2044490 102.4717976  58.2964795  62.8199320 104.5931132  61.0842993
  62.0246346 105.5324780  61.1231031  63.8871772 104.4506965  61.8189605
  64.2760278 103.5230496  61.9104259  64.4941676 105.5574680  62.6244408
  63.6850659 106.2371878  62.8917131  65.2145032 105.1411212  63.8900794
  65.7916107 104.3382729  63.4312974  65.8943031 105.8870283  64.3018982
  64.3313436 104.5579307  65.0317211  64.9953267 104.4194833  65.8849852
  63.0997785 105.4227129  65.4641388  62.4350607 105.5612109  64.6114563
  62.5618752 104.9150859  66.2648108  63.4438259 106.3947179  65.8176047
  63.9193118 103.0981283  64.9211201  64.8095757 102.4697598  64.8949914
  63.3084629 102.8262511  65.7819614  63.3441749 102.9506481  64.0070271
  65.4583089 106.4304433  61.7366330  65.6482439 107.6131771  62.0887189
  65.9722823 105.8224218  60.6550050  65.6058806 104.8827960  60.6006692
  66.9467557 106.2364696  59.6696435  66.7316330 107.2485107  59.3267235
  68.3876057 106.2179660  60.3147333  69.0985426 106.6349788  59.6014535
  68.3777700 106.8295599  61.2169285  68.8136476 104.7514234  60.6814625
  68.0667218 104.2947271  61.3307939  68.9211650 104.1541576  59.7760259
  70.1609447 104.8137381  61.4162533  70.0338583 105.3413054  62.3615685
  70.5146855 103.8012077  61.6105440  71.1914073 105.5341306  60.5987017
  71.0499749 105.3456524  59.6165753  72.2433975 106.2268909  60.9568478
  72.3541231 106.5882475  62.2078882  71.6361946 106.3309993  62.8700832
  73.1571044 107.1230750  62.5066861  73.0987811 106.6696584  60.0755959
  72.9533628 106.4781487  59.0946384  73.9019633 107.2016408  60.3788973
  66.8358720 105.3545908  58.4767288  66.6530614 104.1423052  58.6262413
  67.1413974 105.8595348  57.3121483  67.5950284 107.1995493  56.9935985
  68.5987255 107.3056910  57.4052129  66.9218694 107.8949549  57.4949637
  67.5653778 107.3505341  55.4989289  68.5672561 107.5684143  55.1289732
  66.8920545 108.1618253  55.2222637  67.0508866 106.0051385  54.9657286
  67.7086336 105.7054569  54.1498494  66.0224648 106.0448945  54.6067473
  67.1614452 105.0202912  56.1008984  66.2944003 104.3597411  56.1031256
  68.4458101 104.1780476  56.0773734  69.4020703 104.6268865  56.7423780
  68.4486972 103.0275822  55.3814803  67.5627905 102.7140712  55.0113728
  69.6322386 102.0993102  55.2848271  70.5275395 102.6685085  55.0347295
  69.8683650 101.3708280  56.6400643  70.6971275 100.6759411  56.5044766
  70.1431424 102.1234555  57.3790835  68.7179445 100.6564707  57.0936713
  68.9165139 100.2275873  57.9292723  69.4369949 101.2376375  54.0791016
  68.3193930 101.2105232  53.5204274  70.4769018 100.4682092  53.6644816
  71.3545754 100.6437412  54.1324314  70.4870854  99.6314411  52.4506688
  70.7463737 100.3104289  51.6383608  71.6561023  98.6819361  52.6836020
  71.4079186  97.9897926  53.4882400  71.8563077  98.1205653  51.7709790
  72.5414057  99.2553528  52.9584298  69.1252677  99.0705563  52.0053863
  68.7392572  99.3061428  50.8394995  68.3431322  98.3058446  52.8310262
  68.6753694  98.0817819  53.7581259  67.1102793  97.7750616  52.4194475
  67.1883503  97.3503670  51.4186285  66.7020271  96.6529012  53.4019561
  65.7506915  96.2284918  53.0811188  67.4671932  95.8766718  53.3925339
  66.5713738  97.1627194  54.6980784  66.3179840  96.4556900  55.2959937
  65.9507344  98.8036857  52.3193429  65.0185173  98.4349177  51.5591565
  65.9929187 100.1026479  52.7042726  66.7462708 100.2558627  53.3593185
  65.0401458 101.2079960  52.4599156  64.1443742 100.7530406  52.0371769
  64.6267084 102.0308511  53.7694559  63.5923763 102.3617116  53.6757080
  64.7734008 101.1045710  55.0597426  65.8076370 100.7736767  55.1544212
  64.4906619 101.6700598  55.9476504  64.1222877 100.2361087  54.9601156
  65.4209848 103.1638567  54.0441051  65.1022797 103.5922918  54.8418963
  65.4235338 102.1484167  51.3468372  64.5920200 102.6469659  50.5771857
  66.7284375 102.2984327  51.0715724  67.3845008 101.8127939  51.6664128
  67.2534909 103.1340543  50.0049808  66.5641796 103.9477819  49.7796005
  68.6386497 103.7573712  50.4773083  69.3519301 102.9552271  50.6667678
  69.0272689 104.4116277  49.6969086  68.4302191 104.5498738  51.7371505
  67.6955297 105.3216871  51.5077239  68.0543292 103.9191476  52.5427517
  69.6836006 105.2075210  52.1938187  70.6516115 104.6547777  52.6932341
  69.7862799 106.5345211  52.1158713  70.6329938 106.9913669  52.4232293
  69.0168812 107.0768617  51.7498198  67.4617723 102.3021060  48.6334783
  67.8464084 102.9228372  47.6051764  67.2174778 100.9832085  48.5939760
  67.0530083 100.5388729  49.4859485  67.1702039 100.1234356  47.3406864
  68.1664726  99.8668804  46.9805096  66.4368290  98.8253009  47.7260080
  65.4342400  99.0651793  48.0800892  66.3677379  98.1740691  46.8546735
  66.9886781  98.3165120  48.5163849  66.4057452 100.8377580  46.1659195
  65.3314871 101.4316866  46.3832609  66.8699087 100.6296100  44.9353413
  67.8130811 100.2799618  44.8443947  66.1646787 101.0584876  43.7177007
  65.8136799 102.0850418  43.8229877  67.1401324 100.9885466  42.5096198
  67.4172712  99.9366873  42.4397250  66.5768114 101.2751062  41.6215584
  68.3900447 101.8331902  42.6073810  69.0152469 101.4309511  43.4045176
  69.1726770 101.8340388  41.2999132  68.5482404 102.2366027  40.5023418
  70.0639583 102.4518175  41.4097681  69.4664561 100.8143032  41.0510487
  68.0016335 103.2972534  42.9900514  67.4872878 103.2978778  43.9510652
  68.9029169 103.9062064  43.0605194  67.3433193 103.7105901  42.2259347
  64.7840308 100.3567755  43.4359482  63.9084499 100.9383861  42.8498012
  64.6132304  99.1247645  43.9013858  65.4478727  98.6325103  44.1862674
  63.2999950  98.4201768  44.0187490  62.4677641  99.1219119  43.9634432
  63.1923103  97.4068759  42.7977809  63.9784963  96.6623528  42.9230647
  62.2187670  96.9210881  42.8635369  63.3237298  98.0145055  41.5538479
  63.2494882  97.3508952  40.8641310  63.1265339  97.6443979  45.3190406
  64.1375754  97.4373495  45.9617785  61.9897763  97.0893772  45.6219122
  61.2563966  97.2517748  44.9467229  61.6252822  96.4419051  46.9272849
  62.4422587  95.8504688  47.3406272  61.3371205  97.5848804  47.8637112
  62.2740564  98.0742552  48.1297234  60.6832090  98.3000131  47.3646270
  60.7330894  97.1280807  48.9848694  60.5540008  97.8642289  49.5744565
  60.5737727  95.3461149  46.7870648  59.8309783  95.3745285  45.7509224
  60.4838522  94.4203206  47.7102751  61.3457661  94.1813719  48.1794310
  59.3364470  93.5032233  47.8456378  58.4059674  94.0378155  47.6545407
  59.4581912  92.3713829  46.8468402  58.5841799  91.7449081  47.0249777
  59.3699791  92.8481157  45.8706003  60.6411460  91.5610106  46.8776402
  60.5853915  90.8873940  46.1959276  58.9662643  93.1817403  49.3434156
  59.9032350  93.1644050  50.1208810  57.7000747  92.9580534  49.6712526
  56.9790439  92.8395158  48.9739989  57.3011689  92.9426150  51.1151722
  58.1881431  92.8020052  51.7329138  56.6856441  94.3194848  51.4422210
  55.8270970  94.4894177  50.7925143  56.2289005  94.3669306  52.9264067
  57.0870509  94.1975289  53.5767773  55.7967228  95.3438595  53.1430466
  55.4820214  93.5927358  53.1021787  57.7248117  95.4407955  51.2698785
  58.0802652  95.4522347  50.2395271  57.2664861  96.4010908  51.5062471
  58.5649783  95.2646307  51.9415831  56.3264976  91.7630232  51.3158086
  55.3543681  91.5336680  50.5969147  56.7881412  90.8150607  52.1615173
  57.7463817  90.9175911  52.4637787  55.9958529  89.6980767  52.7132829
  55.8017070  88.9397250  51.9547915  56.8462025  89.0378556  53.8871464
  57.0708833  89.8095717  54.6234018  56.2420334  88.2583944  54.3513879
  58.0715313  88.4681198  53.4024151  58.5561111  88.0807208  54.1350161
  54.6688017  90.1254016  53.3489600  54.5811860  91.2715292  53.8322238
  53.6235570  89.3461108  53.1789761  53.7248919  88.4289762  52.7682514
  52.2583036  89.8356176  53.4747194  52.1912964  90.8930275  53.2188023
  51.1519918  89.0339599  52.6348052  50.1858846  89.4383722  52.9367767
  51.3326938  89.2706859  51.5862788  51.1498654  87.6642809  52.8030668
  50.4572553  87.2766296  52.2630505  51.9482694  89.7953503  55.0005315
  52.2421956  88.7332078  55.6440279  51.2996840  90.9157465  55.4115465
  50.9993306  91.5651670  54.6987069  51.2196805  91.3573557  56.8772097
  52.1593557  91.1237492  57.3777472  50.9624182  92.8840579  56.9923688
  51.0346980  93.2634606  58.0116472  51.5932034  93.4839408  56.3363577
  49.6206090  92.9615094  56.5552310  49.3288331  93.8758043  56.5782853
  50.2980134  90.5116205  57.7659773  50.4088822  90.4205299  58.9863983
  49.3254851  89.7912984  57.1553630  49.2463033  89.9261453  56.1575424
  48.3410454  89.0111530  57.8071272  48.2585208  89.2867444  58.8584779
  46.9778310  89.2772781  57.1164602  46.7672564  90.3467059  57.1255083
  47.0160770  88.9237328  56.0860996  45.8728343  88.5338493  57.8697078
  46.0915687  87.4678141  57.8078616  45.9122137  88.8524677  58.9113573
  44.5023721  88.7955671  57.3185616  44.5690155  88.8428158  56.2316277
  43.8496708  87.9714682  57.6065568  43.9274622  90.1135835  57.8530562
  43.7179177  90.0200613  58.9186289  44.6428121  90.9203582  57.6934054
  42.6641020  90.4186606  57.1235447  42.0009528  89.6714108  57.2717023
  42.2771451  91.2855149  57.4684042  42.8581233  90.5057832  56.1361925
  48.6922367  87.5364717  57.9289010  48.2969139  86.6593262  57.1271345
  49.5558646  87.2905217  58.9102417  49.9584316  88.0952201  59.3690442
  50.0428838  85.9388819  59.2999737  50.5272853  85.4315725  58.4656527
  51.1239123  86.1517490  60.4687333  51.9589968  86.6866185  60.0163531
  50.6636904  86.7775953  61.2333326  51.6411241  84.8382908  61.1174239
  50.8409495  84.4504552  61.7478245  52.0618493  83.7468297  60.0791190
  52.8623616  84.1337960  59.4486145  52.4119044  82.8591511  60.6059862
  51.2048981  83.4858305  59.4581403  52.8376393  85.1048956  61.9923194
  52.5614009  85.8009710  62.7843238  53.1805922  84.1695704  62.4346443
  53.6381346  85.5373759  61.3920969  48.7651750  85.0895375  59.6718115
  48.2046963  85.1053783  60.8142119  48.2743931  84.2319082  58.7303393
  48.7710646  84.1401838  57.8556946  47.0907817  83.4199553  58.9372755
  46.2308632  84.0464529  59.1742143  46.7951063  82.6522095  57.6567157
  47.6922517  82.0653512  57.4596709  45.9310961  81.9893737  57.7039922
  46.5755777  83.6070895  56.3712179  45.7295687  84.6979142  56.5279252
  45.2299677  84.9215529  57.4705197  45.5279761  85.5296247  55.4094861
  44.9358507  86.4349839  55.5429509  46.0553771  85.2266657  54.1712995
  45.8223780  85.9059355  53.3512971  46.8797681  84.0743760  53.9369795
  47.3175746  83.7770614  52.9840736  47.1019417  83.3098681  55.0692112
  47.7150113  82.4107012  55.0080194  47.3073277  82.4009710  60.0486476
  46.3317141  82.0255642  60.6660354  48.4968449  82.0856471  60.4828098
  49.2954221  82.4461863  59.9804301  48.7402923  81.1749162  61.6353950
  47.9771900  80.3968894  61.6565674  50.1542476  80.4901889  61.5149630
  50.9239633  81.2078722  61.2311185  50.4416411  79.9984953  62.4443404
  50.0124853  79.5162585  60.4877619  50.8471456  79.0585831  60.3633626
  48.6433662  81.8377093  62.9923875  49.3363776  81.4235327  63.9021473
  48.0009120  82.9942495  63.1189627  47.5124681  83.3268569  62.2998813
  47.8980137  83.7761264  64.3548876  47.7450676  83.1039841  65.1992402
  49.1574057  84.5783068  64.5975487  50.0127581  83.9039000  64.6381299
  49.2946914  85.2898244  63.7833034  49.0529201  85.2645713  65.7979528
  49.8541515  85.7718344  65.9473256  46.7504584  84.8036339  64.2153622
  46.1709023  84.9859561  63.1397306  46.4158532  85.3905462  65.3225133
  46.8082849  84.9053405  66.1166620  45.4030627  86.4067472  65.5663997
  45.0995153  86.8333717  64.6103925  44.1406853  85.8395673  66.2817041
  44.3561713  85.4951030  67.2931434  43.3214775  86.5580392  66.3099293
  43.7714216  84.7336476  65.4747096  42.9904275  84.3148196  65.8438047
  45.9252929  87.7661877  66.1555629  45.2588063  88.5145703  66.8145889
  47.2028139  88.0019228  66.0126893  47.7884624  87.2029823  65.8156885
  47.8633764  89.3420188  66.2021439  47.1345908  90.1049407  65.9284271
  48.3456026  89.6132015  67.6690313  47.5014215  89.4922555  68.3478763
  49.4560129  88.6350675  68.0573468  50.3007796  88.7557552  67.3791850
  49.7787258  88.8377467  69.0785601  49.0807952  87.6138150  67.9913506
  48.8710725  90.9119942  67.8199887  49.1543694  91.0389696  68.7284051
  49.0173710  89.4231994  65.2098092  49.3061771  88.4373048  64.5065164
  49.5241267  90.6284520  64.9866008  48.9590965  91.3340858  65.4370685
  50.6411120  91.0561310  64.1904655  50.3963239  91.0537848  63.1283108
  50.8469649  92.5044874  64.6418703  51.1017339  92.5226241  65.7015230
  51.6564987  92.9534053  64.0663462  49.9294310  93.0700792  64.4795846
  51.9258469  90.1543975  64.3355282  52.0725656  89.5122159  65.3538790
  52.8002843  90.1397539  63.2871624  52.8260258  90.9372018  62.1014979
  53.2300576  91.9205520  62.3420822  51.8097612  91.0453119  61.7225288
  53.7305591  90.1455230  61.1387859  54.2988009  90.8540395  60.5361212
  53.0988632  89.5406475  60.4882575  54.6278270  89.2858139  61.9565509
  55.6467101  89.6608804  62.0529941  54.6500913  88.2767846  61.5448910
  53.9398606  89.2758565  63.3372333  53.5826059  88.2525468  63.4525786
  54.8767286  89.6177266  64.4862447  55.2973267  88.7198938  65.1754852
  55.1366425  90.9321775  64.8046919  54.8636983  91.5542169  64.0572512
  55.9308786  91.4719949  65.8943907  56.8044559  90.8273685  65.9914405
  56.4025918  92.9124005  65.7522627  56.8890070  93.2509804  66.6670649
  57.1124223  92.9564129  64.9262461  55.3164376  93.9166702  65.4429319
  54.3655632  93.8288688  64.3762971  53.5763742  94.9324818  64.4811783
  52.7820742  95.1083298  63.7557377  53.9742139  95.6580056  65.5677052
  53.5243661  96.4900489  65.9218813  55.1049064  95.0692360  66.1167068
  55.6292098  95.5573697  66.9382497  55.2416269  91.1211435  67.1641739
  55.9769230  90.8555651  68.1616296  53.9393831  91.0830369  67.2212526
  53.3563302  91.2153448  66.4072236  53.2952060  90.7686396  68.4873759
  53.8429909  91.2123802  69.3187152  51.8312763  91.3633707  68.4724814
  51.4158958  91.3379456  67.4650531  51.1821620  90.8047284  69.1467733
  51.9299912  92.8095462  68.9447353  52.6855079  92.6488368  69.7138047
  52.3244171  93.4829262  68.1837578  50.6727270  93.4350318  69.5824276
  49.6431547  92.7195979  69.7321884  50.6034232  94.6695352  69.7602402
  53.1573857  89.2319351  68.6455054  52.8934208  88.7987006  69.7771394
  53.2481556  88.3854613  67.5916853  53.2682617  88.7577557  66.6530203
  53.2649084  86.8985755  67.7660410  52.6133052  86.5893824  68.5832999
  52.7563565  86.2409709  66.4474477  53.4042687  86.5632980  65.6323310
  52.7655229  84.7526218  66.5301939  52.1174232  84.4295031  67.3448475
  52.4040532  84.3337635  65.5910472  53.7818054  84.4047519  66.7152802
  51.4204381  86.5910556  66.0543269  51.1989456  86.1398357  65.2364381
  54.6115152  86.3868556  68.1164090  54.7497453  85.5131000  68.9780867
  55.6727393  87.0130645  67.5885265  55.4295974  87.6616403  66.8534545
  57.0634075  86.8494338  67.9217607  57.2598877  85.9400173  68.4896132
  57.7746686  86.7347473  66.5315778  57.1354985  86.1586932  65.8624572
  57.9106006  87.7383973  66.1287017  59.0306325  86.0993602  66.6450993
  59.4407479  86.0441287  65.7788692  57.5913809  87.9796272  68.7242847
  58.4582187  88.7324697  68.3536279  56.9474838  88.0676566  69.8684666
  56.1192557  87.5155375  70.0396453  57.3360648  89.0224791  70.8488551
  57.5166969  89.9952192  70.3914187  56.2067461  89.1626179  71.8601065
  55.3028557  89.5363150  71.3790329  56.0089833  88.1813402  72.2914812
  56.4913823  90.0727692  72.9913955  56.6011014  91.4844621  72.8300360
  56.3718419  91.9011527  71.8492665  56.9932402  92.3426263  73.8926043
  57.1582616  93.4037275  73.7057005  57.1701504  91.8157634  75.1999448
  57.3932034  92.4558667  76.0535343  57.0532712  90.4657805  75.3708232
  57.2846099  90.0473527  76.3503643  56.6448621  89.6165411  74.3186291
  56.4350231  88.5654499  74.5168079  58.6489452  88.6073731  71.4406880
  58.8076675  87.4965206  71.8107082  59.5168776  89.5845482  71.6375641
  59.2335553  90.5462710  71.5154289  60.9170037  89.3100527  72.0387878
  60.9986512  88.4379583  72.6875436  61.5773516  89.1867788  71.1803918
  61.3349826  90.5281416  72.8044797  60.5381290  90.9825434  73.5763452
  62.6041592  90.9844646  72.6122064  63.1159902  90.3051927  72.0674880
  63.3624339  92.1421623  73.2041696  62.6917772  92.6904635  73.8657469
  64.6033054  91.7096903  74.0091647  65.2754414  91.1718172  73.3405654
  65.1009014  92.6057848  74.3799918  64.2244460  90.7975464  75.2039187
  63.5060283  90.0791714  74.8090591  65.1119015  90.2691178  75.5521787
  63.5975888  91.5553302  76.3648531  64.0795771  92.7028573  76.6693230
  62.6950466  91.0799248  77.0211232  63.6390644  93.2353739  72.1571577
  64.5710185  93.9955035  72.4364261  62.9960137  93.2228372  70.9855189
  62.3094071  92.4907972  70.8724338  63.2080509  94.1559854  69.8725339
  63.2424412  95.1917579  70.2103088  64.6050553  93.7830817  69.2507819
  64.8949994  94.5408643  68.5229103  65.3547203  93.7328704  70.0404535
  64.5004469  92.3855045  68.5383522  63.4502510  92.3332632  68.2511932
  65.1250690  92.1900528  67.6667187  64.7856004  91.3425148  69.6110236
  63.8198084  90.5772623  69.9588101  65.8808857  91.3426300  70.2732111
  62.1447620  94.0871103  68.7987723  61.2953183  93.2173576  68.8295859
  61.9970625  95.1775221  67.9803085  62.3791371  96.0487134  68.3196373
  61.2142452  95.1933740  66.6838002  60.8445222  94.1794199  66.5311529
  60.0426840  96.1417323  66.6616636  60.4600324  97.1429225  66.7690780
  59.1700369  96.0883796  65.4220353  58.7519316  95.0875497  65.3141997
  58.3600977  96.8117760  65.5158244  59.7701389  96.3274200  64.5440609
  59.0592747  95.9114332  67.7660401  59.5569694  96.0344662  68.7279470
  58.2449812  96.6313766  67.6841422  58.6586162  94.9004830  67.6915204
  62.1555478  95.4778482  65.4613810  62.7824900  96.5284886  65.3734475
  62.3311565  94.5064257  64.6056977  61.9019164  93.6111347  64.7909171
  63.2560538  94.6058893  63.5057240  63.3711745  95.6398214  63.1804077
  64.5945557  94.0990888  63.9845097  65.2263689  93.9411798  63.1104524
  65.0375772  94.8671863  64.6184326  64.4801980  92.8110573  64.7611352
  64.2104951  93.2135951  65.7375186  63.6642451  92.1938200  64.3851855
  65.7041901  91.9868276  64.8882675  65.6314732  90.7460754  64.8838709
  66.8265885  92.4944126  65.1481141  62.7655336  93.9563182  62.1676289
  62.2254829  92.8333275  62.2422089  62.9851419  94.5867736  61.0117171
  63.3273108  95.5313964  61.1151940  62.6476664  94.1116412  59.6619825
  61.9401687  93.2912735  59.7825768  62.0354509  95.1485714  58.7349297
  62.7432994  95.9650056  58.5918038  61.6997784  94.4928565  57.3388305
  60.9915771  93.6765776  57.4811009  61.2614175  95.2429235  56.6805451
  62.6142238  94.1056374  56.8894392  60.7817326  95.6684629  59.3369665
  61.0037853  96.1274733  60.3003481  60.3408121  96.4125142  58.6735839
  60.0789108  94.8476053  59.4795671  63.9111341  93.4330465  59.0536828
  64.9037888  94.1286690  58.7869153  64.0260204  92.1110007  58.9931757
  63.4243266  91.5539182  59.5828560  65.0131047  91.4268723  58.1732476
  66.0117891  91.8486623  58.2864809  65.0300696  89.9361576  58.7063432
  63.9803033  89.6427773  58.7021034  65.5976820  89.2623858  58.0645117
  65.5326541  89.7194365  60.1105461  66.8320958  89.3636683  60.6038425
  66.7462351  89.2406008  61.8638363  67.6238224  88.8450323  62.3751729
  65.5731837  89.6273848  62.3300009  65.2797184  89.6857793  63.2946605
  64.7673063  89.9580319  61.2152238  63.7506169  90.3208822  61.3661662
  64.6519637  91.5483331  56.7015230  63.4920946  91.5629024  56.3208178
  65.6640705  91.3187094  55.8278789  66.4498935  90.7980525  56.1905052
  65.6636808  91.6662684  54.4451886  64.6568563  91.5711601  54.0385461
  66.1134830  93.0600989  54.2690508  67.1756152  93.0509002  54.5137748
  65.9832573  93.3612006  53.2295899  65.4355703  94.0519356  55.1381471
  64.3799862  94.5508303  54.9132353  66.2166496  94.3364293  56.1610123
  65.9093648  94.9996757  56.8579916  67.1188377  93.8898642  56.2430916
  66.6646007  90.8588300  53.6464316  67.5858148  90.2727519  54.2090915
  66.5120196  90.8402989  52.3226463  65.6392857  91.2190615  51.9835685
  67.4589276  90.2439230  51.3308626  68.4125265  90.0590758  51.8254127
  66.9487418  88.9281702  50.7472960  67.0549723  88.1473777  51.5004077
  65.8906602  89.1008420  50.5504510  67.6766452  88.4669162  49.3921845
  67.4640454  89.2570073  48.6720051  69.1809930  88.2135232  49.4395854
  69.3943435  87.4231779  50.1592622  69.5300357  87.9095209  48.4527457
  69.6944687  89.1266518  49.7406492  67.0612428  87.0932535  48.9789379
  65.9895375  87.2086533  48.8169809  67.5318119  86.7456695  48.0592362
  67.2320254  86.3648307  49.7716122  67.7205096  91.2756684  50.2562564
  66.8278689  91.5818556  49.4962677  68.9356891  91.8468433  50.2972948
  69.4836619  91.5322484  51.0852385  69.5296077  92.7903236  49.3858808
  68.8180601  93.5518726  49.0667535  70.6634331  93.4729631  50.1606209
  71.4077617  92.6794508  50.2270476  71.0335043  94.2638585  49.5082163
  70.3979594  94.0513275  51.5736359  70.0147665  93.2680089  52.2276054
  71.7592684  94.6106300  52.1613728  72.1428634  95.3943661  51.5081413
  71.5849156  95.0205399  53.1561973  72.4876782  93.8022233  52.2246042
  69.3610373  95.1401041  51.6445587  68.4058945  94.7568572  51.2854997
  69.2533463  95.4733201  52.6767752  69.6719166  95.9796929  51.0228323
  70.1080260  92.0840248  48.1540382  70.7602443  90.9922688  48.2760303
  70.0092991  92.7160219  46.9575272  69.5068003  93.5917416  46.9308930
  70.4929958  92.1502675  45.6879475  71.2650427  91.3829754  45.7454410
  69.3413530  91.6614582  44.7483942  68.5783460  92.4397879  44.7372822
  69.7986556  91.3726300  43.3106117  70.5613851  90.5940164  43.3208728
  68.9469748  91.0384306  42.7181160  70.2125562  92.2802081  42.8711944
  68.4323835  90.5946589  45.2417133  67.9565907  90.9735268  46.1462470
  67.6763038  90.4382678  44.4723078  69.1529684  89.2204270  45.5604828
  69.9089213  89.3759410  46.3301909  68.4178814  88.4977196  45.9146583
  69.6286366  88.8406831  44.6562515  71.3450272  93.2638379  45.1491475
  70.7885332  94.2966768  44.8449039  72.6299154  93.1150165  45.1421858
  72.9495824  92.1607144  45.2271560  73.6586754  94.2099895  45.0995622
  73.1094240  95.1401188  44.9536803  74.5091694  94.3124769  46.3751493
  74.8690426  93.3003555  46.5600869  75.7207424  95.3035199  46.3681903
  75.3615809  96.3159865  46.1837588  76.2255401  95.2678502  47.3335957
  76.4199950  95.0178274  45.5823628  73.5428112  94.8016916  47.4619708
  73.3649135  95.8598008  47.2699865  72.6138605  94.2474441  47.3279558
  74.0511263  94.6174892  48.9243002  74.9798684  95.1718671  49.0592186
  73.3005797  94.9921239  49.6203088  74.2288177  93.5595099  49.1171872
  74.5399154  94.0148387  43.9002135  75.1326868  92.9929966  43.7028357
  74.6027680  95.0619843  43.1312861  73.9704548  95.8261566  43.3218642
  75.4997940  95.1685652  41.9562222  75.1837174  94.4633950  41.1875027
  75.4581593  96.5829932  41.3698656  74.4631792  96.9509688  41.1194502
  75.8833811  97.1978640  42.1630997  76.3399593  96.6546574  40.1529568
  76.3273213  95.7262616  39.3583057  76.9348005  97.6950439  39.9355885
  76.9580415  94.8127229  42.1815920  77.6295686  95.5247244  42.8958161
  77.5446378  93.8948457  41.4166173  76.9370495  93.3562118  40.8159433
  78.9293861  93.5428801  41.4713270  79.2215756  93.3276273  42.4991357
  79.1852995  92.2795409  40.6083076  80.1453562  91.8822929  40.9378290
  78.3936915  91.5761465  40.8665578  79.2124628  92.4918457  39.0287261
  78.2462306  92.9443397  38.8056895  80.0088663  93.1286040  38.6435216
  79.2912508  91.1107466  38.3158006  79.4982523  90.0344657  38.9438633
  79.2787141  91.1613267  36.9848594  79.3268283  90.3061886  36.4495788
  79.2211491  92.0545860  36.5170182  79.9545172  94.6204939  41.1067384
  81.1030919  94.5003366  41.4425813  79.5344621  95.5788120  40.2990318
  78.5827380  95.5155908  39.9668819  80.4107950  96.6110953  39.7165527
  81.4601115  96.3220549  39.7756269  80.0383805  96.7477310  38.2942915
  80.5292395  95.8544631  37.9079896  78.9822745  96.7263810  38.0254338
  80.6507579  97.9330382  37.5606330  82.0479305  98.1154779  37.3298895
  82.1377764  99.0711009  36.3760811  83.1155789  99.3128605  35.9594834
  80.8888209  99.5820901  36.1041139  80.6701952 100.3587049  35.4965185
  79.9550488  98.8404075  36.8165195  78.8915574  99.0519779  36.7055007
  80.4879845  97.9489019  40.4724874  81.5048514  98.5679157  40.4802155
  79.3791426  98.4799824  41.0002368  78.5365516  97.9620012  40.7957005
  79.2682161  99.6926549  41.8111244  80.2108984 100.2272176  41.9281373
  78.2602125 100.6250637  41.2080717  78.1554473 101.4873716  41.8665165
  78.6801365 101.0954254  39.8163832  78.7846592 100.2336480  39.1572062
  77.9223329 101.7687812  39.4158526  79.6334250 101.6198854  39.8818290
  76.9990210  99.9789883  41.1999846  76.3420726 100.5643761  40.8161354
  78.8238455  99.5680829  43.3289075  78.6750859 100.5610210  44.0142464
  78.4918695  98.3662995  43.7864255  78.7187068  97.6280870  43.1355135
  77.7671534  98.0206375  44.9905327  77.3752465  97.0042630  44.9519174
  78.7955344  98.1135931  46.1567474  79.5688790  98.8746165  46.0524366
  78.1838355  98.3354058  47.0312322  79.5050262  96.8140181  46.4447877
  79.1735676  96.0841734  47.5851986  78.5748202  96.5581618  48.3629751
  79.5960351  94.7689546  47.7380602  79.2544220  94.1810830  48.5900039
  80.4979720  94.1751623  46.7564215  80.8048033  93.1309324  46.8159072
  80.9734130  94.9897765  45.7122197  81.7905612  94.6495752  45.0761127
  80.3895940  96.2460670  45.4921412  80.6136859  96.7989038  44.5798615
  76.4370645  98.8143024  45.3124542  76.1240498  98.9427854  46.4692182
  75.6713330  99.2053945  44.3219981  76.0454207  99.1395480  43.3861445
  74.3285694  99.6956078  44.4869948  74.2845634 100.4725761  45.2502005
  73.8825701 100.2979110  43.1477034  74.5890015 101.1008897  42.9372773
  74.0072788  99.5030047  42.4123996  72.4720765 100.8358695  43.0732485
  72.1039788 101.0894856  42.0791239  71.8774071 100.0194071  43.4829517
  72.3556787 102.0748368  43.9988734  72.2669228 101.9382894  45.2788399
  72.5127018 103.1980859  43.4509735  73.4105141  98.5212678  44.8524919
  73.5203124  97.3741825  44.3055570  72.4472116  98.8676652  45.7033750
  72.4643712  99.7921009  46.1098519  71.3649729  97.9330991  46.1200315
  71.7738626  96.9230807  46.1478025  70.8093016  98.2678575  47.4879855
  70.3702119  99.2653463  47.4702197  69.7154725  97.2262475  47.8673158
  70.1539459  96.2284987  47.8857396  69.3126936  97.4637852  48.8519200
  68.9131034  97.2563844  47.1301611  71.9044799  98.2334097  48.6138953
  72.6848395  98.9591047  48.3847497  71.4487133  98.4812473  49.5725157
  72.3407983  97.2359424  48.6666784  70.2805823  98.0365155  45.0160981
  69.4119017  98.9056832  45.1216572  70.2614106  97.0760940  44.1629861
  71.0051650  96.3958171  44.2274228  69.3197887  96.9584351  43.0779417
  69.1292389  97.9451698  42.6558700  69.8462594  96.0656633  41.9919458
  69.8628571  95.0526641  42.3940110  69.0758495  96.1387645  41.2243360
  71.2237781  96.3965242  41.3723117  71.9765672  96.4581290  42.1581960
  71.6098199  95.2707749  40.3727287  70.8576856  95.2088711  39.5862424
  72.5803271  95.4945145  39.9298325  71.6625740  94.3182931  40.9000767
  71.0870525  97.6976299  40.5929971  70.7762223  98.4950809  41.2679458
  72.0463259  97.9554680  40.1442038  70.3406030  97.5749835  39.8082232
  67.9024611  96.4861952  43.4141869  67.0227079  97.1184811  42.8559791
  67.7323541  95.5450009  44.3158803  68.5246024  94.9735476  44.5725572
  66.4318247  95.2631356  44.9514543  65.8264093  96.1689893  44.9830861
  65.6433017  94.1491405  44.1107782  65.6460086  94.5560262  43.0995730
  66.1607100  93.1897933  44.1172295  64.2167817  93.8677329  44.4544734
  63.0902756  94.2737267  43.7783638  62.0707099  93.7907488  44.4114579
  61.0803840  94.0629512  44.0464106  62.4526342  93.0041202  45.4533327
  61.8865111  92.4824499  46.1071405  63.8022133  93.0464836  45.4593116
  64.3622171  92.4730010  46.1979688  66.5323356  94.7678812  46.4171553
  67.3757396  93.9003636  46.6738439  65.6067412  95.1701260  47.2837597
  65.0677914  95.9704397  46.9852125  65.5024086  94.7387028  48.7075721
  66.2787326  93.9738417  48.7277642  65.9170039  95.8780792  49.6314882
  65.1452161  96.6477786  49.6289379  66.0456732  95.4966565  50.6444350
  66.8570003  96.3056753  49.2826793  64.1865690  93.9889759  49.1085718
  63.1995446  94.6921898  49.3403691  64.1623574  92.6784067  49.1329296
  64.8962902  92.1698287  48.6609228  63.0608696  91.9229236  49.7104207
  62.1042656  92.3165888  49.3668574  63.1727373  90.5036248  49.2804237
  63.1393384  90.4550746  48.1920181  64.0754842  90.0084719  49.6381549
  62.0366579  89.7122832  49.7714706  60.6952692  89.7211133  49.3128637
  60.0440520  88.7883637  50.0517300  58.9750820  88.6240229  49.9161047
  60.9534077  88.1857273  50.8996024  60.7627953  87.4227103  51.5332993
  62.1887457  88.8014983  50.7426463  63.0319919  88.4974141  51.3627833
  63.0237971  92.1016466  51.2235789  64.1326445  92.0765144  51.8458584
  61.8426372  92.2545775  51.8278919  61.0117451  92.2519820  51.2536872
  61.6855522  92.4395726  53.2916368  62.6650404  92.5492479  53.7571188
  60.8582989  93.6965432  53.5885324  59.8695064  93.5695857  53.1477713
  60.7632836  93.7983552  54.6695997  61.5203040  94.9638979  53.0092188
  62.5876425  94.8625263  53.2057210  61.3587037  95.0878983  51.9384194
  61.0164714  96.1899126  53.7158287  60.4391950  96.1990540  54.8258879
  61.1230297  97.3144622  53.0637578  60.8012654  98.1728978  53.4876180
  61.5268119  97.3215768  52.1380091  60.9488915  91.1117263  53.7935663
  59.8541476  90.8062119  53.3107137  61.4941384  90.2994547  54.6744810
  62.4934124  90.1632616  54.7292731  60.6321221  89.4926999  55.5492372
  59.8787497  88.9393923  54.9885413  61.5582585  88.4991238  56.2288166
  62.3681895  88.9759123  56.7808888  60.9370440  87.9270203  56.9179394
  62.2049670  87.4939911  55.2894458  61.5244013  86.3431975  54.8978589
  60.6506091  85.9711646  55.4328155  61.9990939  85.6608042  53.7769644
  61.3477079  84.9014405  53.3443401  63.2386862  85.9124652  53.2133097
  63.6334668  85.3098059  52.3953549  63.9918771  86.9793613  53.7254278
  64.9876467  87.1710676  53.3256882  63.4705365  87.8031506  54.7511901
  64.0455527  88.6569503  55.1096343  59.8065561  90.2943091  56.5582370
  59.8913889  91.4876643  56.7058877  58.8866750  89.5547895  57.2165375
  58.6920255  88.6153697  56.9007823  57.9867698  90.1571309  58.2657246
  57.5421727  91.0646588  57.8572814  56.8730389  89.2279884  58.7062102
  57.3673425  88.3170234  59.0437097  56.3691392  89.7009659  59.5491084
  55.8266273  88.8741771  57.6083125  56.3528390  88.3654509  56.8005998
  54.6977138  87.9794901  58.1241260  54.1707118  88.4877678  58.9316045
  54.0012063  87.7683117  57.3127188  55.1158338  87.0441024  58.4960479
  55.2063001  90.1811984  57.0482773  55.9920304  90.8007623  56.6159950
  54.4734931  89.9358923  56.2795641  54.7169127  90.7265665  57.8552300
  58.7377700  90.7699691  59.4682844  59.9215658  90.5788636  59.6776843
  58.1406391  91.6092409  60.2891805  57.2060332  91.9023385  60.0427967
  58.7046919  92.0890254  61.5322047  59.6798957  92.5463348  61.3650379
  57.7587289  93.1494551  62.1144873  56.8473474  92.6000330  62.3503229
  58.2414939  93.4653896  63.0392702  57.4044360  94.3970335  61.2644034
  57.1220131  95.1558156  61.9941896  58.2953986  94.7234085  60.7279640
  56.2688137  94.2358287  60.2670950  55.6830483  93.1938345  60.1253032
  55.9940483  95.2670246  59.5289351  55.2484365  95.2137696  58.8497235
  56.5270842  96.1180722  59.6370650  58.8058181  90.9817923  62.5573712
  57.8739515  90.2971941  62.9874920  60.0720479  90.7793015  62.8989112
  60.7352405  91.2673090  62.3139979  60.5672546  89.7802149  63.8009479
  61.6486152  89.8957166  63.8745548  59.9657565  89.8671650  65.2155594
  58.9260332  89.5707588  65.0769307  60.4603268  89.1567304  65.8779665
  59.9970532  91.2566247  65.8737813  60.6311896  92.1850896  65.4029204
  59.3868631  91.4305040  67.0187565  59.3998076  92.3381096  67.4616833
  58.9059620  90.6562463  67.4539115  60.5756461  88.3771417  63.1918130
  60.6609001  87.4257500  63.9346330  60.5932630  88.3668573  61.8631675
  60.4092146  89.2508526  61.4106436  60.7255195  87.1622971  61.0189899
  60.5680416  86.2883212  61.6510231  59.7413760  87.1079200  59.8602411
  58.7340324  87.0381467  60.2707162  59.8367247  88.0304747  59.2876144
  60.0088717  85.8818978  58.9227483  60.9192013  86.1397814  58.3815488
  60.1432001  84.9224345  59.4222331  58.8105877  85.7827065  57.9131991
  58.2215232  84.6916370  57.9193050  58.5392416  86.6670235  57.0758027
  62.2124029  87.1767471  60.6420087  62.6565291  87.9253252  59.7790129
  63.0545823  86.3587647  61.2349157  62.6941933  85.6191329  61.8207175
  64.4845837  86.4280531  61.0186305  64.7345720  87.4821236  60.8980469
  65.3809786  85.8301182  62.1378659  65.2475280  84.7503983  62.2049110
  66.3681254  86.0491026  61.7308191  65.2594055  86.4326646  63.5010929
  64.0591813  86.7000250  64.1644520  63.1052512  86.5448202  63.6604398
  64.0864081  87.1780034  65.5069327  63.1557411  87.5128146  65.9650397
  65.2888613  87.3385622  66.1812392  65.2889517  87.6466558  67.5417142
  64.4053096  87.7240247  67.9088522  66.4905678  87.0521730  65.4922343
  67.4391499  87.1996100  66.0085236  66.4773101  86.5917371  64.1839461
  67.4141404  86.3515936  63.6811735  64.8898956  85.6063367  59.8050624
  64.6690636  84.3625508  59.7930692  65.6572454  86.1433259  58.8764571
  65.7182594  87.1514000  58.8636807  66.4055732  85.3833245  57.8541516
  65.8898539  84.5610606  57.3581527  66.6727793  86.4734287  56.8341679
  67.1969429  87.3000061  57.3138785  67.2868986  86.0739419  56.0270942
  65.7268138  86.8309223  56.4274162  67.6687453  84.7687120  58.4625442
  68.4838414  85.4115878  59.0798789  67.8167678  83.4026096  58.3860681
  67.0686432  82.8583326  57.9808873  68.9621528  82.6880996  58.9685436
  69.5090071  83.3555696  59.6345266  68.4890148  81.4518830  59.7831564
  67.6712765  80.8803578  59.3441094  69.4122749  80.8767635  59.7129536
  68.1755366  81.7416388  61.2656455  69.1259003  82.0643397  61.6908204
  67.1038867  82.7567270  61.5984327  66.1530661  82.4344579  61.1739544
  67.0075339  82.8425442  62.6807692  67.3779905  83.7254461  61.1806400
  67.4548603  80.4876530  61.7364283  68.1093365  79.6245351  61.6148228
  67.1872106  80.5947882  62.7876118  66.5508443  80.3437183  61.1447048
  70.0567470  82.2560991  57.9721215  71.2498152  82.3747939  58.3619648
  69.6522659  81.7772120  56.7748145  68.7056524  82.0377762  56.5379000
  70.4668799  81.0516505  55.7487620  71.5273010  81.2183307  55.9380339
  70.1920180  79.5499020  55.8001176  70.6990947  79.1520675  54.9210840
  70.7061832  79.2115939  56.6997185  68.8952391  79.1042485  55.8202012
  68.8870698  78.1448216  55.8523450  70.0422361  81.4040398  54.3215506
  68.9452245  81.9363188  54.1197743  70.9031866  81.0962341  53.3696736
  71.5346527  80.3320881  53.5631443  71.0006728  81.7764639  52.0451507
  70.0226577  82.0956476  51.6850015  71.8633200  82.9982413  52.2446267
  71.3977542  83.5137304  53.0846379  72.8762778  82.7019544  52.5170797
  71.9142430  83.9394556  51.0310677  72.2355566  83.3482610  50.1735437
  70.5826460  84.6026499  50.7185176  70.2608876  85.1944365  51.5754652
  70.6945881  85.2522787  49.8504438  69.8362625  83.8374631  50.5052073
  72.9987531  84.9349250  51.3328697  73.9454153  84.4118307  51.4681560
  73.0878963  85.6381134  50.5048112  72.7507111  85.4779167  52.2448644
  71.6591183  80.8156100  51.0112938  72.8828001  80.4215884  51.2293646
  71.0360790  80.4310992  49.8590688  70.0531203  80.6465510  49.7726277
  71.6783117  79.6169026  48.7873598  72.7599814  79.5557988  48.6675424
  71.0980084  78.1465055  48.9068229  70.0490321  78.2410761  49.1875441
  71.2103148  77.3141470  47.6276764  72.2591117  77.2187424  47.3465645
  70.7893266  76.3236045  47.7999986  70.6626164  77.8063593  46.8240253
  71.4703734  77.2798162  50.1496776  71.1306927  77.7796716  51.0567959
  70.9892789  76.3049210  50.0707651  72.5516517  77.1485364  50.1909549
  71.4895186  80.2561587  47.4290823  70.3875801  80.7911844  47.1923463
  72.4455633  80.0664834  46.5366721  73.3211447  79.6706957  46.8478130
  72.3619757  80.5877564  45.1464604  71.2988643  80.6682904  44.9197280
  73.0110370  81.8927123  44.8511038  72.5748020  82.6998568  45.4395900
  74.0859800  81.8549926  45.0276675  72.7589209  82.1338549  43.4315983
  73.1555629  82.9691286  43.1735426  72.8245435  79.4446527  44.2066403
  74.0059438  79.0554953  44.2792201  71.9641427  78.9124920  43.3021269
  71.0860737  79.3737110  43.1114147  72.2052998  77.5710966  42.6944102
  73.1821345  77.5257625  42.2129145  72.1677133  76.5240556  43.8394794
  72.5596767  75.5696187  43.4880337  72.7619084  76.8711603  44.6847904
  70.5149376  76.1773765  44.4958054  70.9087442  75.2849143  45.3998662
  71.2622647  77.2543952  41.5165804  70.4571514  78.1275482  41.1433239
  71.3305652  76.0285082  40.9291707  72.1986843  75.5298579  41.0626484
  70.3269848  75.4675327  39.9552144  69.3544179  75.9393632  40.0951740
  70.8199373  75.7547307  38.4828357  70.0234059  75.4587195  37.8001833
  70.9954979  76.8266977  38.3924733  72.1333662  74.9779798  38.1211982
  72.9085568  75.3113448  38.8111606  71.9379659  73.9174554  38.2799712
  72.6177833  75.2071808  36.6346247  73.6267164  74.7950533  36.6171900
  71.9577294  74.5760458  36.0395643  72.6349102  76.6480480  36.0388316
  71.5982284  76.9706758  35.9423811  73.1490144  77.2884744  36.7555255
  73.2993989  76.7425799  34.7346079  72.8229107  76.1495497  34.0702482
  73.2726682  77.6992023  34.4117163  74.2601434  76.4440758  34.8238512
  70.0062010  74.0321811  40.3075345  70.9474023  73.2457354  40.5774908
  68.7442024  73.6703715  40.4066215  68.0673287  74.3898451  40.1961481
  68.2479418  72.3641408  40.9402139  69.0661268  71.7344638  41.2897556
  67.3375391  72.6952341  42.1349596  66.5083250  73.3121650  41.7886945
  66.9546667  71.7376167  42.4877734  68.0643141  73.4126138  43.2867037
  68.5630009  74.3002599  42.8974782  67.0504569  73.8283343  44.3792220
  66.5516700  72.9411107  44.7692794  67.5755052  74.3349214  45.1890334
  66.3089919  74.5022311  43.9500447  69.0942538  72.5481831  44.0091120
  69.8574548  72.2238450  43.3017024  69.5607999  73.1274582  44.8059033
  68.6010324  71.6750782  44.4363351  67.5739458  71.4021376  39.8601824
  66.7227429  71.8197162  39.0841980  68.1035184  70.1645032  39.8821618
  68.9403444  69.9080125  40.3861797  67.4252827  69.1528251  39.1368426
  68.0306188  68.2573844  39.2777444  66.4708361  69.0297873  39.6486949
  67.1738815  69.3434051  37.6829146  68.1257389  69.7737409  36.9673257
  65.9939995  68.9134593  37.1851504  65.3709687  68.3349670  37.7303830
  65.6084975  69.2341068  35.7486988  66.3811576  68.9149310  35.0492545
  64.3434579  68.4773196  35.4459830  64.1259738  68.7018504  34.4017675
  64.6161810  67.4263593  35.5419227  63.0955748  68.7641388  36.3033730
  63.3926089  68.5209488  37.3235348  62.9362356  69.8390743  36.2183629
  61.7595105  68.0057646  35.9505874  61.9355617  66.9337762  36.0397271
  60.9912694  68.3077011  36.6624438  61.2881492  68.3327473  34.5143768
  60.6250602  69.1971640  34.5489757  62.1589026  68.5676999  33.9022616
  60.5539841  67.1602062  33.9143885  59.7468459  66.9426038  34.4812014
  60.2550185  67.3934675  32.9782748  61.1683754  66.3592298  33.8818437
  65.4046254  70.6764662  35.3509896  65.4461967  70.9802540  34.2007393
  65.0555706  71.5475079  36.3227165  65.0043670  71.1981314  37.2689795
  64.7385540  72.9511507  36.0858531  64.1041339  73.0432262  35.2043019
  64.0158624  73.5255020  37.2542916  63.2662901  72.7891517  37.5441690
  64.7754718  73.5958104  38.0328482  63.3456586  74.8907621  37.0704526
  62.6549209  75.3513334  38.0660933  63.5594410  75.4698367  35.9364968
  66.0375028  73.8293335  35.8341410  66.8921005  73.7609531  36.6982960
  66.1819878  74.6057371  34.7419599  65.4339442  74.2994052  33.5895812
  64.4018492  74.6064224  33.7587572  65.4707483  73.2213474  33.4329417
  66.0899315  75.0660427  32.4686246  65.6995400  76.0823042  32.4147161
  65.9314064  74.5653387  31.5134981  67.5617764  75.0562341  32.8486999
  68.1337754  75.8712050  32.4051476  68.0318716  74.1050741  32.5988902
  67.5042290  75.2300344  34.3918171  68.2533431  74.6482570  34.9289032
  67.6827973  76.7093664  34.7151748  68.8074045  77.2373881  34.5691612
  66.6589110  77.3875982  35.1930841  65.7324633  77.0676591  34.9492953
  66.7851296  78.6260040  35.9627892  67.1814863  79.4398679  35.3556434
  65.3699866  79.0010901  36.4219644  65.0442255  78.1441775  37.0116080
  65.3654362  79.8942413  37.0467526  64.3790905  79.2062087  35.2643892
  64.2555356  80.3223773  34.7938055  63.5920322  78.2546700  34.8243173
  62.9582181  78.4407514  34.0602799  63.6231332  77.3399177  35.2513555
  67.8004287  78.5260137  37.1420329  67.9140003  77.4770764  37.8404461
  68.4763007  79.5912545  37.3469231  68.4297321  80.3184004  36.6475021
  69.3169857  79.8216905  38.5446710  69.5943616  78.9224112  39.0946333
  70.6197374  80.6430884  38.2359588  70.3171264  81.3957215  37.5078995
  71.3144094  81.3109239  39.3857603  71.6177499  80.5588234  40.1140658
  72.1954429  81.8392141  39.0213587  70.6354775  82.0206509  39.8584544
  71.5422908  79.8707730  37.4828424  72.3283718  80.3930641  37.3070897
  68.4374570  80.6189831  39.5543005  67.8829355  81.6474958  39.2449195
  68.4116505  80.1654833  40.7958020  69.1741390  79.5344835  40.9971719
  67.4581855  80.4822154  41.8813853  66.7814778  81.2783732  41.5710650
  66.6473383  79.2626052  42.2037312  67.2813225  78.3814656  42.3025043
  66.2175593  79.5109716  43.1741456  65.5568548  78.9811293  41.2376374
  64.5176923  79.8920537  40.9947854  64.4859801  80.8340740  41.5422263
  63.4893778  79.5849466  40.0210055  62.7665897  80.3488492  39.7344186
  63.5243405  78.3737808  39.3439694  62.4470912  77.9222413  38.6336182
  61.6994771  78.5237408  38.6631320  64.6300258  77.5602041  39.5407006
  64.6775473  76.6717973  38.9109582  65.6252364  77.8093571  40.4516916
  66.4525032  77.1080186  40.5605687  68.1460966  80.9077808  43.1985472
  69.1528574  80.2446982  43.5737342  67.6082532  81.9249561  43.9420268
  67.0880410  82.6102336  43.4129962  67.8847812  82.2003326  45.3439248
  68.8779173  81.8323475  45.6015423  67.8337345  83.7037753  45.6203293
  66.9312676  84.0283793  45.1023671  67.7762488  83.9978985  46.6683212
  69.0240065  84.5076837  44.9937124  70.3287636  84.4435533  45.5484754
  70.5487380  83.7469802  46.3574853  71.3269394  85.2730929  45.0562090
  72.3253192  85.2328632  45.4917775  71.0504172  86.1786880  43.9814806
  71.8207075  86.8544175  43.6098054  69.7502513  86.1896759  43.3971239
  69.5459303  86.7875918  42.5089518  68.7452361  85.4337225  43.9665024
  67.7168757  85.5472654  43.6234531  67.0170296  81.3233022  46.2633962
  65.8309477  81.1403280  45.8696348  67.5370779  80.7555517  47.3740835
  68.5306381  80.7612375  47.5554811  66.6300779  80.1095332  48.3876032
  65.5760351  80.3309186  48.2200285  66.8732117  78.5723765  48.2191798
  67.9141001  78.3251491  48.4278188  65.9536643  77.8417076  49.2366844
  64.9125109  78.0880970  49.0283758  66.0963857  76.7647388  49.1479744
  66.2061709  78.1590391  50.2484356  66.5512215  78.1638123  46.7360215
  65.5823861  78.5969176  46.4872676  67.3207035  78.6102727  46.1062040
  66.5108789  76.6663315  46.4995100  65.7412607  76.2192022  47.1286865
  66.2827627  76.4694304  45.4519928  67.4795781  76.2325569  46.7476253
  67.0381772  80.5940339  49.7968569  68.2346081  80.5762167  50.0520444
  66.1551878  80.9227888  50.6949899  65.2084461  80.6611556  50.4597716
  66.4104636  81.4893720  52.0241347  67.4998301  81.5125991  52.0531223
  65.8890597  82.9260148  52.0876357  64.8008624  82.8644095  52.0990744
  66.3622738  83.7245550  53.2862399  67.4504288  83.7869917  53.2752342
  65.9407859  84.7288672  53.2437473  66.0363317  83.2327708  54.2027615
  66.5652028  83.7860782  50.9364245  66.3194219  83.3532033  49.9667271
  66.1939238  84.8099123  50.9813170  67.6469901  83.7862530  51.0699800
  65.5543407  80.7353767  53.0223725  64.3496659  80.6767754  52.8597121
  66.2206051  80.2493255  54.0518806  67.2267059  80.1865243  53.9892977
  65.5652777  79.7906290  55.2964530  64.5943002  79.4000937  54.9918484
  66.1830402  78.9747133  55.6716201  65.3637152  80.8036482  56.4014556
  66.1255919  81.7150334  56.5855693  64.3661718  80.6177679  57.2613404
  63.8489698  79.7511958  57.3020124  63.9449746  81.7199749  58.1311896
  64.7813505  82.3401798  58.4535564  62.8662955  82.6393327  57.4722831
  62.6793611  83.4413817  58.1863372  63.2172780  83.2263383  56.1460717
  63.4039117  82.4248393  55.4313223  62.3919178  83.8437334  55.7915256
  64.1127554  83.8398443  56.2452250  61.6244204  81.9664623  57.3573368
  60.9803242  82.5507799  56.9507493  63.4271775  81.1585249  59.4471630
  63.5389946  79.9241740  59.6310514  62.9754665  82.0085130  60.3831904
  63.0183394  82.9956251  60.1737367  62.3959928  81.6010140  61.6377142
  61.7954639  80.7031129  61.4919821  63.4797379  81.2984169  62.6438232
  64.0840083  82.1907591  62.8071712  63.0259951  80.9900810  63.5857079
  64.1129349  80.4955845  62.2661714  61.5735145  82.6509233  62.2488213
  61.7144365  83.8447577  62.0261590  60.7530189  82.2564533  63.2191977
  60.3773803  81.3192109  63.1952896  60.2833011  83.1762589  64.2865045
  60.8466074  84.1075564  64.3454119  58.8460500  83.4974357  63.8219832
  58.4711181  82.5943189  63.3404179  58.2689091  83.6930307  64.7257260
  58.7087370  84.6737488  62.8689866  59.0583899  85.5683338  63.3843130
  59.3427546  84.4826107  62.0031979  57.0148112  84.9329402  62.3164604
  56.7547813  86.6758154  62.1200435  57.4532428  87.0668005  61.3801913
  55.7332018  86.8558279  61.7852727  56.9178192  87.1777750  63.0737502
  60.3962061  82.6003324  65.6991545  60.2234508  81.3893683  65.8444075
  60.4664306  83.4474716  66.7141761  60.5107381  84.4334372  66.4996813
  60.6118318  83.0348904  68.1072479  60.6557514  81.9483365  68.1818854
  61.8833940  83.6276759  68.7625526  61.7208468  84.6944838  68.9161708
  62.2152620  82.9383520  70.1519388  62.3784025  81.8715295  69.9990473
  63.1147447  83.3860335  70.5745648  61.3810283  83.0830988  70.8383819
  63.1318232  83.5098944  67.8720275  62.9632791  84.0436907  66.9367433
  63.9888043  83.9431861  68.3877224  63.3294143  82.4592134  67.6595941
  59.3430111  83.3558813  68.9307423  59.2004337  84.3621702  69.6418598
  58.3757166  82.4231641  68.8467008  58.4610725  81.7441167  68.1039301
  57.2133152  82.4163679  69.6190031  56.7838119  83.4175516  69.6544635
  56.1739524  81.4555331  69.0056049  56.6392083  80.4703199  68.9741243
  55.3266944  81.4349262  69.6910460  55.6892722  81.8331222  67.6102306
  54.8132659  80.9101888  67.0282185  54.5470349  79.9943821  67.5559672
  54.2709394  81.1718775  65.7439343  53.4644843  80.5444492  65.3643743
  54.7232450  82.2821191  64.9849749  54.3615750  82.4835269  63.6713236
  53.7789431  81.7993844  63.3335534  55.6239579  83.1652788  65.5805747
  55.9994991  84.0052018  64.9961103  56.0543628  82.9852368  66.9281230
  56.6638042  83.7483751  67.4121697  57.5121621  82.1186377  71.1329124
  58.1398246  81.0803468  71.5243529  56.9431200  82.9415102  72.1014231
  56.3742546  84.2715221  71.8434957  55.5348908  84.1896046  71.1529466
  57.1344514  84.9244669  71.4147034  55.9250626  84.7367770  73.3006901
  54.8644596  84.5355343  73.4514273  56.1144649  85.8021251  73.4320733
  56.7845447  83.9136717  74.2422750  56.2444393  83.6887620  75.1619493
  57.6921588  84.4681129  74.4808773  57.1337357  82.6439109  73.5345426
  58.1937759  82.4408006  73.6867238  56.3099511  81.4513838  74.0296053
  56.4587453  81.0242399  75.1388156  55.4109937  80.9217401  73.2064679
  55.3720681  81.2733132  72.2604339  54.4796136  79.8644176  73.5911318
  54.1525279  79.9902307  74.6232583  53.2093636  79.9525175  72.6418809
  53.6003264  79.8717108  71.6276237  52.6141766  79.0690297  72.8727527
  52.3105292  81.2316649  72.7546099  52.9870151  82.0656486  72.5676904
  51.5191172  81.2314409  72.0050993  51.6817238  81.3808468  74.1740692
  52.4358719  81.7905946  75.1562512  50.5022846  81.0113467  74.2698697
  55.1360988  78.4463496  73.4458931  54.4860340  77.4249293  73.8059452
  56.3465008  78.3388345  72.8622516  56.6882596  79.2308661  72.5342580
  57.1497675  77.1671111  72.6171106  56.7948699  76.3112138  73.1912069
  57.0218359  76.8425538  71.1237011  57.1849437  77.7694573  70.5738419
  57.8093739  76.1306715  70.8765016  55.6757732  76.2591592  70.7419645
  54.8966794  76.9904097  70.9573394  55.7096767  76.0705052  69.6689503
  55.3693550  74.9600906  71.4761400  54.1668007  74.7730163  71.8277482
  56.2522763  74.1376463  71.6804570  58.6509518  77.3646148  73.0291047
  59.2565936  78.3538307  72.5607684  59.1980980  76.4869157  73.8418532
  58.5951291  75.8173653  74.2981758  60.6681769  76.4920778  74.2033877
  61.0316735  77.4947166  74.4285206  60.8670089  75.6092448  75.4414842
  60.5160191  74.5995123  75.2285367  61.9254073  75.5784304  75.7002186
  60.3011235  76.0214123  76.2769426  61.4716486  76.0317765  72.9403335
  62.3504326  76.7389059  72.4256989  61.0862226  74.9396353  72.3450250
  60.5666782  74.2351586  72.8488956  61.5810929  74.6148887  71.0361980
  62.6701304  74.6421016  70.9993729  61.1160890  73.1854477  70.7327288
  61.4365699  72.5924216  71.5892983  60.0274578  73.2366766  70.7138137
  61.6238445  72.5240301  69.4287583  61.5186265  73.1394315  68.5352757
  62.6788908  72.4403087  69.6894634  61.0444748  71.1078294  69.1533455
  60.4220426  70.5152632  70.0347062  61.0795677  70.7440448  67.9821366
  61.2920774  75.6701158  69.9340252  60.2824213  76.3694011  70.1067177
  62.2191979  75.9663383  68.9933059  63.6400755  75.6080210  68.9578416
  63.6861294  74.5247482  68.8460413  64.0579216  75.8911451  69.9239392
  64.3110898  76.3539305  67.7851691  64.4115118  75.7110619  66.9106782
  65.2913703  76.7376046  68.0679159  63.3246536  77.5055903  67.5254820
  63.3160566  77.7230168  66.4574227  63.5239449  78.4221485  68.0807329
  61.9933211  76.9301148  67.9425560  61.4247980  77.7875903  68.3025776
  61.1657174  76.1770700  66.8607729  61.6710429  75.6079441  65.9081346
  59.8631374  76.2239840  67.0859361  59.4694089  76.8352819  67.7869297
  58.9559392  75.2851526  66.3819269  59.5001115  74.3861604  66.0924641
  57.8204230  74.8894442  67.2876773  57.4377912  75.8000493  67.7486442
  57.0448241  74.4449774  66.6639822  58.2275732  73.8965983  68.3805336
  59.0201246  73.2566617  67.9926622  58.6002016  74.4559572  69.2386524
  57.0234760  73.0208119  68.8176950  56.2709135  73.6636499  69.2743218
  56.6022957  72.5395221  67.9350474  57.4635839  71.9389419  69.8346666
  57.9521629  71.1490918  69.2641160  58.1886232  72.4073039  70.5002898
  56.3168981  71.3358959  70.6678060  55.6451667  70.9014746  70.0512391
  56.6893819  70.6432635  71.3015379  55.8643109  72.0675574  71.1968952
  58.4696147  75.8817012  65.0682042  57.6815769  75.1433184  64.3855759
  58.9016250  77.0200263  64.5728950  59.5864515  77.5375893  65.1050984
  58.3028461  77.6655299  63.3861621  57.8899816  76.9104677  62.7171904
  57.1618145  78.6161771  63.8234651  56.8723060  79.2176909  62.9618009
  56.3157144  78.0069920  64.1414401  57.6045728  79.5791054  65.0206557
  58.6134505  79.9592069  64.8600647  56.8909439  80.3991599  64.9409906
  57.5230612  79.0054769  66.4042207  56.7673499  78.1173291  66.7599987
  58.4398835  79.4644672  67.2417437  58.4596993  79.1324889  68.1954204
  59.1152855  80.1444913  66.9231517  59.3412628  78.3132500  62.4662413
  60.1231283  79.1495542  62.9402399  59.2065149  77.9452890  61.2123180
  58.4702584  77.3055439  60.9501120  60.1265046  78.4527564  60.1367108
  60.3719403  79.4976756  60.3264588  61.0418416  77.8610062  60.1272645
  59.4288611  78.3380313  58.7331276  58.3696140  77.7024666  58.6263239
  60.1341737  78.7993668  57.6834360  60.8501539  79.4813203  57.8893757
  59.8313364  78.5108554  56.2745170  59.6239535  77.4454698  56.1742929
  58.6706120  79.2653756  55.7729481  58.4938118  78.9968957  54.7314302
  57.7941228  79.0082487  56.3677190  58.9329370  80.7754430  55.8746435
  59.2784227  81.0114221  56.8811495  59.7005426  81.0544869  55.1528276
  57.6947216  81.5271463  55.5909558  57.3723245  81.2652106  54.5832114
  56.9402880  81.2046887  56.3085563  57.8396556  83.0674634  55.6812801
  57.9885819  83.4229332  56.6148547  57.6928223  83.9382911  54.6864017
  57.4866565  83.5788204  53.4670095  57.4307766  82.5972583  53.2356802
  57.3818348  84.2801791  52.7478376  57.8573562  85.1926212  54.9119935
  58.0965364  85.5083822  55.8410726  57.7467112  85.8567642  54.1591519
  61.0810597  78.6792615  55.3842692  61.8828583  79.5717888  55.6809556
  61.2639883  77.7513818  54.4316610  60.8323953  76.8504982  54.5807766
  62.0630300  77.9485220  53.2127897  62.9483847  78.4671451  53.5805892
  62.5068987  76.5817404  52.4784849  61.6322437  76.1089816  52.0317432
  63.5096683  76.8903754  51.4072545  64.3848654  77.3627660  51.8533238
  63.8088475  75.9666839  50.9118896  63.0652794  77.5663544  50.6767273
  63.2867129  75.5658088  53.4257302  64.3479290  75.8142378  53.4400179
  62.8869373  75.6234347  54.4381324  63.0996344  74.1218237  52.8758550
  63.4996210  74.0632955  51.8635878  63.6294498  73.4169878  53.5166368
  62.0386284  73.8724932  52.8617002  61.2889040  78.8009117  52.1512349
  60.1712723  78.4174601  51.9613395  61.8352657  79.8915633  51.6399258
  62.6158054  80.2804592  52.1494521  61.3366541  80.6282540  50.4308227
  60.5073429  80.2108303  49.8597713  60.9662118  82.0895636  50.8559964
  61.8854286  82.6715127  50.9228920  59.9854807  82.7704861  49.8164946
  59.0657845  82.1893170  49.7493942  59.7517220  83.7828308  50.1460634
  60.4626985  82.8088213  48.8372627  60.4906258  82.3881680  52.2534163
  61.2612619  82.1016399  52.9690445  60.2860818  83.4546132  52.3480529
  59.5798354  81.8246721  52.4559847  62.3869874  80.5990044  49.2614103
  63.5717448  80.5517820  49.5580954  61.9313830  80.8529474  48.0475056
  61.0412281  81.3273600  47.9959668  62.6159250  80.5444980  46.8125710
  63.6888302  80.4677376  46.9888701  62.1245008  79.2247357  46.1720402
  61.0470107  79.2638519  46.0120899  62.8218055  79.0559775  44.8492848
  63.8993879  79.0163101  45.0084814  62.4902616  78.1303959  44.3786705
  62.5815817  79.8988146  44.2011954  62.3111926  77.8764686  46.9382334
  61.7828708  77.9229486  47.8905032  61.9089819  77.0591136  46.3396877
  63.3721932  77.7051315  47.1199535  62.2858580  81.6938765  45.8551610
  61.1090962  82.0655031  45.7216537  63.3290750  82.4238301  45.3052153
  64.2448910  82.0832478  45.5609184  63.2443764  83.5996388  44.4793188
  62.2207753  83.7315294  44.1286840  63.6719596  84.8987513  45.3085476
  64.7613591  84.9341459  45.3159688  63.2860157  85.7286174  44.7165429
  63.2226363  85.1363103  46.7293067  62.2272128  86.0130528  47.0338453
  61.7849944  86.6505278  46.2682291  61.7671527  86.0890329  48.3706818
  60.9635302  86.7761442  48.6355773  62.3419129  85.2861822  49.3441449
  61.9141577  85.2951450  50.3466642  63.4277853  84.4904433  49.0674341
  63.9634613  83.9557999  49.8518497  63.8392453  84.3772981  47.7416781
  64.6474463  83.6950295  47.4782005  64.0861286  83.5516047  43.2119673
  64.9782151  82.7183642  43.0732661  63.8263764  84.3922230  42.2015102
  63.0247512  84.9919782  42.3348896  64.5807528  84.4615592  40.8445950
  65.6061666  84.1052182  40.9428124  63.8301572  83.5416740  39.8491777
  64.0040456  82.4958546  40.1024044  62.7606817  83.7497506  39.8812132
  64.3729913  83.8264007  38.4118521  64.0130882  84.8100977  38.1103378
  65.4628164  83.8177305  38.3942960  63.8747945  82.8205014  37.4399814
  63.2067712  81.8475077  37.7142060  64.2008761  82.9409062  36.1553342
  63.8667008  82.2615352  35.4868409  64.7810215  83.7111025  35.8547840
  64.6114649  85.9831705  40.4848121  63.7682321  86.7582056  40.9855996
  65.5700188  86.4184764  39.7006488  66.2391152  85.7395702  39.3667389
  65.8115527  87.8099987  39.4202136  65.0425395  88.4644307  39.8306241
  67.1447807  88.1109537  40.1310279  67.2741290  87.7822654  41.1622079
  67.8610100  87.5935393  39.4927506  67.3744072  89.5751633  40.0462271
  66.8518774  90.5223287  40.9487542  66.2495791  90.2093890  41.8016346
  67.1184192  91.8972424  40.7362878  66.6066257  92.6793304  41.2970975
  67.9059206  92.2375020  39.5857514  68.1787659  93.5957910  39.3754955
  67.7950558  94.1638738  40.0475432  68.5805253  91.2783272  38.8206323
  69.2696458  91.5439031  38.0189573  68.3419234  89.9397751  39.1183173
  68.9180994  89.1597014  38.6207168  65.7474996  88.1822990  37.9428035
  66.2365710  87.4325710  37.0589308  65.0933056  89.2711869  37.6239235
  64.7124870  89.8208646  38.3808455  64.8381782  89.7193227  36.2298298
  65.7645830  89.7642535  35.6572438  63.8669695  88.6601673  35.5439810
  64.4733558  87.7768332  35.3436923  63.1076183  88.4180011  36.2875140
  63.2566836  89.0691817  34.3830243  62.6960910  88.3642727  34.0507005
  64.2112017  91.1809957  36.2727901  63.7440796  91.7006226  37.2490789
  64.2484583  91.8185624  35.1018031  64.7875655  91.3687961  34.3757363
  63.7847959  93.1986582  34.8744032  64.4376202  93.6895402  34.1526315
  62.3807068  93.2108556  34.3380832  61.6915702  92.9539475  35.1425633
  62.2291462  94.2507712  34.0487648  62.1193869  92.3031648  33.1334778
  60.9245774  92.1850852  32.7876071  63.1355861  91.7833595  32.5158941
  64.0145593  94.1941705  36.0301152  63.0322701  94.8597235  36.4492204
  65.1791169  94.1916386  36.6775263  65.8425980  93.4863973  36.3902515
  65.5853106  95.1616032  37.8084257  66.6515500  95.0399809  37.9993203
  65.3905202  96.1805731  37.4739764  64.8224344  94.9100366  39.0934394
  64.7403007  95.8008856  39.9496988  64.2185321  93.6982025  39.2202672
  64.3995579  93.0546230  38.4632108  63.3102349  93.2721959  40.2952204
  63.4036675  93.9658148  41.1308414  61.8138202  93.2422023  39.8347020
  61.7333554  92.5819267  38.9711855  61.2108635  92.8460491  40.6517735
  61.3141266  94.6234577  39.4622697  62.1421493  95.1470090  38.9843856
  60.5058873  94.4900335  38.7432082  60.8014459  95.4576872  40.6680680
  59.8502527  95.0639530  41.0262634  61.5294308  95.4412858  41.4791589
  60.6121453  96.8670712  40.1956910  60.4831098  97.4884932  41.0818542
  61.5263210  97.1582124  39.6783721  59.4530854  97.0508244  39.2909170
  58.6058383  96.7815092  39.7702304  59.3907944  98.0207905  39.0163528
  59.5726613  96.4754106  38.4695160  63.7104893  91.8654025  40.8419331
  64.0735844  90.9346115  40.0444557  63.5388340  91.6346001  42.1610748
  63.6782621  92.4283381  42.7698761  63.3171278  90.3224624  42.7711854
  63.7574143  89.5527688  42.1372936  63.9436724  90.2332961  44.1465153
  64.7904148  90.9116494  44.0418093  63.3126194  90.5652666  44.9709349
  64.4893679  88.7257176  44.4524246  63.6131114  88.0933557  44.3096178
  65.6595308  88.1616398  43.6509384  66.5363437  88.7932561  43.7936227
  65.8810849  87.1506861  43.9929722  65.3979733  88.1375935  42.5930585
  64.7386022  88.6074410  45.9224933  63.8099916  88.7862931  46.4645207
  65.1044991  87.6062355  46.1501074  65.4832010  89.3434793  46.2256751
  61.8312751  89.9139949  42.7858543  61.0167230  90.7025735  43.2646419
  61.4236324  88.6602952  42.5140814  62.1597584  87.9849392  42.3653798
  60.0244524  88.1984658  42.4362550  59.4078686  88.8655562  43.0386785
  59.4724716  88.1785189  41.0080050  60.2040084  87.6470191  40.3993498
  58.5446158  87.6074840  41.0412126  59.1942922  89.5966428  40.3761846
  58.5555153  90.1685181  41.0492548  60.1587310  90.0953829  40.2801727
  58.5434384  89.5464598  39.0241965  58.4040845  88.4748883  38.4423923
  58.0930427  90.6157814  38.4560909  57.6591474  90.5559504  37.5460049
  58.1769540  91.5065336  38.9247280  60.1033765  86.7611289  43.0009396
  60.8298727  85.9626119  42.3750555  59.4662694  86.4598093  44.1018751
  59.1668803  87.2608016  44.6393477  59.1906662  85.0961608  44.6488292
  60.1130271  84.5871014  44.9284862  58.2325717  85.1055706  45.8814586
  57.4079443  85.7439295  45.5643027  57.6787541  83.8003849  46.4382050
  58.5028346  83.1616481  46.7560199  57.0346240  84.0130236  47.2914225
  57.1019345  83.2911742  45.6661401  58.9400906  85.7583213  46.8345843
  58.4195689  85.8113049  47.6394758  58.5838817  84.0656331  43.6801440
  57.7748729  84.4277232  42.8555522  58.9298237  82.8012722  43.9632335
  59.4935714  82.6498653  44.7874688  58.5577336  81.6193521  43.1346764
  57.8820085  81.9441350  42.3434680  59.7813435  80.8593380  42.4751104
  60.4233393  80.5659718  43.3056986  59.4599333  79.6141759  41.6050081
  58.8183059  79.9068586  40.7738931  60.3870238  79.1925450  41.2166382
  58.9485126  78.8677594  42.2128015  60.4437984  81.9846247  41.6163768
  60.7518616  82.8041216  42.2657026  61.3159492  81.5828957  41.1005604
  59.7262610  82.3527947  40.8831021  57.8039138  80.6187018  43.9929378
  56.8199144  80.0890645  43.4698035  58.3132847  80.3118974  45.1373023
  59.2204496  80.6958483  45.3603111  57.7266147  79.3251043  46.0601386
  56.6651025  79.5567994  46.1473645  57.8780691  77.9194755  45.3907089
  58.9355150  77.6694234  45.3047893  57.3763780  77.1693614  46.0020478
  57.4280022  77.9387764  44.3981534  58.2763554  79.4058048  47.4667326
  59.2884504  80.0478961  47.7652212  57.5563918  78.8726687  48.4457134
  56.6389359  78.6200933  48.1072173  57.7935169  78.8316709  49.8524785
  58.8736101  78.7905847  49.9932259  57.2444981  79.9983320  50.6518697
  57.7103379  80.0024795  51.6373012  57.4842545  80.9266164  50.1333093
  55.7158200  79.8770170  50.8071211  55.5007563  79.9950405  49.7450858
  55.2159854  78.9836175  51.1814229  55.1926327  81.1386112  51.5917662
  55.7090446  81.3233392  52.7054499  54.1373350  81.7097164  51.3051814
  57.4239205  77.3947865  50.3736298  56.6859822  76.7074397  49.6668693
  57.9079500  76.9898722  51.5418327  58.6689386  77.5233393  51.9373179
  57.5005430  75.7773772  52.2126027  56.4642026  75.5187155  51.9953655
  58.4096233  74.6656641  51.6642123  58.2261750  74.5827921  50.5929615
  59.4435705  74.9665815  51.8330375  58.1572340  73.3099250  52.3315721
  58.6664699  73.2826375  53.2949179  57.0860395  73.1774622  52.4835521
  58.6743636  72.2149147  51.4662170  58.1704480  72.2565011  50.5005883
  59.7461813  72.3512787  51.3223033  58.4126000  70.8336987  52.1274901
  58.9371574  70.0509615  51.5795278  58.7543968  70.8434487  53.1624679
  56.9388679  70.5665005  52.0911089  56.6220274  70.5569972  51.1321400
  56.7484791  69.6709275  52.5174905  56.4526486  71.2914576  52.5991709
  57.5378726  75.9904699  53.7024147  58.6248509  76.1308712  54.2983617
  56.3437701  75.9505692  54.3165996  55.4908299  75.8741660  53.7811045
  56.2474950  75.9942637  55.7399059  56.6586667  76.9219197  56.1380157
  54.7410947  75.9249116  56.1007358  54.2689718  76.6063213  55.3930070
  54.4594780  74.8997304  55.8603288  54.3012389  76.2441016  57.4456811
  54.8451793  75.5357710  58.0705789  54.5796667  77.2608161  57.7229331
  52.8255194  76.0574372  57.6465157  52.2068889  75.1990585  57.0110487
  52.1701096  76.8262282  58.3957736  56.9606166  74.8152373  56.4093919
  56.6652238  73.7146585  55.9951271  57.7314438  74.9853386  57.5005161
  57.9720957  75.9234316  57.7871647  58.2286182  73.8720968  58.2952509
  57.7183529  72.9290882  58.0991301  59.7271785  73.7001650  57.9652533
  60.2217487  73.1778871  58.7842316  59.8823575  72.8640230  56.6403507
  59.3884005  73.3859314  55.8207659  60.9404687  72.7431645  56.4081992
  59.4257917  71.8832456  56.7734860  60.4646653  74.9894967  57.8322383
  60.4009430  75.5434151  58.7688364  61.5104845  74.7882031  57.6001978
  60.0223688  75.5806002  57.0303211  58.1170709  74.0406588  59.8167909
  58.0778581  75.1494491  60.3679890  58.1138928  72.9466207  60.5885555
  58.0488551  72.0785068  60.0764543  58.0748873  72.8950939  62.0299481
  57.5884143  73.7779254  62.4447395  57.3015955  71.7187496  62.4036618
  56.4130322  71.6759265  61.7738042  57.9135535  70.8339434  62.2283752
  56.8722807  71.7661945  63.9086959  57.7489536  71.7586185  64.5563748
  56.2807873  72.6595281  64.1091769  56.0252915  70.5220344  64.1829475
  55.3845615  70.2677486  63.3386118  56.6370618  69.6593784  64.4468817
  55.1531020  70.9195422  65.3868507  55.7960105  71.3457686  66.1569807
  54.4310824  71.6685255  65.0615648  54.4364097  69.7513087  65.9356635
  55.1052792  69.0573441  66.2375353  53.8733791  70.0409496  66.7225591
  53.8402965  69.3564662  65.2223280  59.4614408  72.9401367  62.6898281
  59.8455138  72.1098178  63.5544248  60.2426036  73.9457623  62.3714154
  59.8655010  74.5409393  61.6477737  61.5749596  74.2872103  62.9436564
  61.4306798  74.4713591  64.0082557  62.2159283  73.4158111  62.8097833
  62.2487997  75.4969352  62.3197026  62.0820648  75.6920487  61.1506256
  63.1245792  76.2476377  62.9832099  63.0038490  76.1702541  63.9829776
  64.0681355  77.2404666  62.4741704  63.4636458  77.9791090  61.9477686
  64.6755773  77.8937763  63.6924474  65.2912100  77.1689733  64.2251359
  65.2933595  78.7368927  63.3832548  63.8812808  78.2477378  64.3496413
  65.1029161  76.7244692  61.4137885  65.8305611  75.7203952  61.6544089
  65.1863455  77.3458150  60.1976911  64.5849673  78.1303796  59.9905632
  66.0294876  76.8078834  59.1166554  66.1756355  75.7349194  59.2411072
  65.3327355  77.0601776  57.7438135  65.4338640  78.1211208  57.5151828
  65.9463448  76.2036363  56.5587659  65.8451598  75.1425007  56.7864800
  65.4148414  76.4285759  55.6341002  67.0014215  76.4502210  56.4399764
  63.8100761  76.7296804  57.7495436  63.3057709  77.3505718  58.4899977
  63.3908807  76.9285167  56.7632176  63.6668702  75.6784203  57.9994336
  67.4580427  77.3211196  59.1548781  67.8298545  78.3198358  58.5593716
  68.2596005  76.7056700  60.0513758  67.9330920  75.8721929  60.5191443
  69.6188753  77.1789883  60.3407076  69.6089739  78.2104547  60.6929549
  70.2002357  76.2884732  61.4471722  70.1705398  75.3459355  60.9005095
  71.2271268  76.5048417  61.7417557  69.2798305  76.1755412  62.7587574
  69.0721358  77.2541979  63.6881721  69.3152341  78.2854263  63.4321046
  68.5358157  76.9476098  64.9669397  68.2661673  77.7475683  65.6564743
  68.1050284  75.6323395  65.2132752  67.8704204  75.2993905  66.4911007
  68.0300166  76.0221702  67.1024257  68.1671512  74.6087985  64.2512406
  67.6786156  73.6434610  64.3837432  68.9051943  74.8744783  63.0676327
  69.1782063  74.0568454  62.4005187  70.5804335  77.0644861  59.1212155
  71.4655271  77.9497061  59.1023539  70.5423726  76.0200478  58.2284378
  69.7675830  75.3740882  58.2788023  71.6383258  75.7284925  57.2773841
  72.1035826  76.6564944  56.9450473  72.7272027  74.8447956  57.9763569
  72.9864189  75.2817513  58.9407095  72.3371091  73.8382318  58.1272091
  73.9128899  74.7839095  57.1380177  74.5800675  74.2424966  57.5662068
  71.0745251  75.1180025  56.0413608  70.1265331  74.3309910  56.1408194
  71.7033702  75.4141719  54.8958471  72.5770236  75.9180856  54.9496996
  71.1588152  75.0633675  53.5240519  70.7147210  74.0684604  53.5562894
  70.1010520  76.0513272  53.0776008  70.6295458  77.0033137  53.0274497
  69.8415268  75.7269020  52.0698831  68.8267576  76.2198198  53.9016701
  68.5953519  75.1978323  54.2018262  69.1715546  76.7833391  54.7686552
  67.3109162  77.0100793  53.2321026  68.2021747  78.3710024  52.4733961
  68.9104651  77.9798783  51.7430225  67.4962890  79.0351467  51.9746593
  68.7417456  78.9255607  53.2411392  72.2272444  75.0162013  52.4342920
  73.1816201  75.7197656  52.5702857  72.0847835  74.2408840  51.3398127
  71.2055861  73.7618476  51.2070150  73.1321411  73.9545618  50.4653559
  73.4633293  74.7936036  49.8534552  74.4209529  73.2760896  51.1482707
  74.8974559  74.0065669  51.8020649  74.0216797  72.0487042  51.9629786
  73.5454931  71.3175319  51.3097295  74.9099253  71.6072923  52.4149473
  73.3240760  72.3435189  52.7469014  75.6457345  72.9813163  50.2449127
  76.0100723  73.9123515  49.8107082  76.4361516  72.5252442  50.8410155
  75.3534060  72.2987905  49.4469130  72.5395211  73.1409361  49.3309363
  71.6414407  72.3588066  49.5898785  72.9900817  73.2789001  48.0812415
  73.4547533  74.1657555  47.9483234  72.7889399  72.4010382  46.8927242
  71.7896598  71.9663685  46.9172349  72.9432253  73.2389300  45.5596258
  72.1782379  74.0151337  45.5796582  73.9299797  73.7012779  45.5851270
  72.7966257  72.3979296  44.2525869  72.5012536  71.4918928  44.7816932
  72.0337792  72.6536628  43.5172197  74.1046134  72.1657030  43.5556621
  74.5624168  70.9806736  43.4477804  74.8680196  73.1656120  43.3851278
  73.7244372  71.1725832  46.9820449  74.9307217  71.3542436  46.9066048
  73.1473819  69.9925261  47.0912526  72.1419745  70.0507727  47.0146853
  73.7551540  68.6704990  47.2824529  74.8248568  68.7399365  47.4799712
  73.0639404  68.0522038  48.5183993  73.3870580  68.7139282  49.3220255
  71.9752264  68.0006237  48.5065118  73.5705483  66.6349642  48.8809659
  74.9486550  66.5141423  49.1489957  75.5514979  67.4183962  49.0652990
  75.5462775  65.3108797  49.5068512  76.6132001  65.2388020  49.7179947
  74.7544815  64.1959507  49.5908845  75.1471106  63.2516410  49.9680070
  73.3830994  64.2874196  49.1706864  72.7706532  63.3858001  49.1610797
  72.8477656  65.4764539  48.7887753  71.8292629  65.5166558  48.4025941
  73.5126149  67.7791820  46.0479113  72.3816976  67.3346197  45.8267114
  74.4472221  67.8105054  45.1112399  75.2708043  68.3472500  45.3430088
  74.3114045  67.2984490  43.7370777  74.9583796  67.8329495  43.0414976
  74.7471200  65.8094548  43.7752763  73.9051427  65.1624189  44.0212805
  75.0637811  65.6187282  42.7498743  75.9382823  65.4706984  44.7392065
  77.0809837  65.7565454  44.5424679  75.6659672  64.9056619  45.9208157
  76.4191314  64.6802149  46.5548638  74.7084514  64.7070949  46.1734723
  72.9660115  67.5236515  42.9940873  72.2564581  66.5759905  42.6367618
  72.6012222  68.7899705  42.7830876  73.3184475  69.4815274  42.9487265
  71.2859811  69.2480856  42.3441097  71.4628423  70.2973507  42.1077581
  71.1319120  68.6892320  41.4210471  70.0366530  69.1383094  43.2032385
  68.9285379  69.4045189  42.6955069  70.1429103  68.8148963  44.4479905
  71.0397388  68.4634213  44.7517394  69.0487185  68.8802941  45.4321146
  68.1522607  69.2641374  44.9451578  68.7334730  67.5058913  46.0225409
  69.6650701  67.0628088  46.3745411  68.0556695  67.6427077  46.8651344
  68.0800455  66.5710376  44.9839923  67.2339228  67.0964111  44.5410927
  68.8180472  66.3555020  44.2113346  67.5824018  65.2217723  45.6249259
  68.4569041  64.5852642  45.7598411  67.1559087  65.4634723  46.5984680
  66.5313056  64.4778207  44.7733827  66.3976837  63.4842285  45.2011915
  65.5945616  65.0310059  44.8411759  66.9402208  64.3501595  43.3126904
  67.8079866  63.8372223  43.2496214  66.2203061  63.8578162  42.8033567
  67.0636737  65.2707405  42.9159675  69.3576031  69.8390606  46.5798528
  70.4295691  69.8474001  47.1247476  68.3969108  70.7201037  46.9538627
  67.5921138  70.8968349  46.3697676  68.5365405  71.4807667  48.1800851
  69.4971620  71.9952007  48.1543307  67.3898576  72.5577327  48.3955556
  67.5706317  73.1856931  47.5231534  66.4408815  72.0350073  48.2759623
  67.3357168  73.4317544  49.6502698  67.5435065  72.8054567  50.5178385
  68.3758015  74.5854760  49.5833489  68.1683629  75.2125163  48.7162338
  68.3107594  75.1870327  50.4899909  69.3784879  74.1668637  49.4968381
  65.9518665  73.9848018  49.9408402  65.2537456  73.1604401  50.0862858
  65.9859991  74.5948802  50.8434701  65.6209855  74.5966781  49.1016596
  68.5695007  70.5171112  49.3534570  67.6488397  69.7554250  49.5532283
  69.5804929  70.6269311  50.1885188  70.4297915  70.9894637  49.7794205
  69.6275174  70.1456431  51.5430887  68.8070219  69.4616518  51.7599808
  70.9695597  69.3720368  51.6826472  71.0567845  68.6112614  50.9069463
  71.6764023  70.1772190  51.4822596  71.2813979  68.7457227  53.0515744
  70.6244339  69.1621269  53.8151886  71.0539342  67.2791524  52.9482403
  71.7109219  66.8619341  52.1850923  71.2684149  66.8091670  53.9080385
  70.0155709  67.0903073  52.6757709  72.7718574  68.9299549  53.2364609
  73.0123209  69.9929137  53.2165797  73.0746444  68.5073299  54.1944846
  73.3037956  68.4225232  52.4316915  69.3566185  71.4055995  52.5088991
  69.8664870  72.5159471  52.2877785  68.5681288  71.1396379  53.5949311
  68.0930581  70.2530582  53.5033692  68.3011011  71.9542494  54.7918561
  69.0474453  72.7486362  54.7874740  66.9040276  72.5922582  54.7190799
  66.1454957  71.8095910  54.7317885  66.7598790  73.2511497  55.5753412
  66.8149074  73.1689634  53.7984454  68.4011584  71.1933704  56.1240789
  67.9573609  70.0577806  56.2569304  68.9442249  71.7401241  57.2171975
  69.7656394  72.2798039  56.9845536  68.6469514  71.5029490  58.6312889
  68.1012959  70.5694228  58.7687228  69.9422653  71.4061763  59.3520107
  69.7183557  70.9730254  60.3268666  70.5595100  70.7132338  58.7802242
  70.6529715  72.6477854  59.5299785  71.4718573  72.4827764  60.0030513
  67.6350995  72.4062636  59.2806797  67.5050195  73.5619650  59.0396099
  66.8391777  71.8173746  60.2492230  67.3052387  70.9980566  60.6119965
  65.5550872  72.1918824  60.8234369  65.4157016  73.2665319  60.9409077
  64.3785107  71.6022881  59.9656068  64.4973193  70.5193170  59.9315692
  63.0114261  71.9443476  60.5387848  62.8916908  73.0272203  60.5727070
  62.2341360  71.5129555  59.9080537  62.9275735  71.5382949  61.5468468
  64.4831916  72.0002815  58.5155775  64.5326291  73.0891595  58.5167656
  65.4344636  71.5942790  58.1715673  63.3678256  71.5432897  57.5806769
  62.4162417  71.9493089  57.9238043  63.5710349  71.8991203  56.5706325
  63.3180749  70.4544277  57.5786079  65.4396461  71.5603771  62.2629578
  64.9158986  70.5017123  62.5128927  65.8500020  72.3729042  63.2144522
  66.3621091  73.2175968  63.0038815  65.7691158  71.9313316  64.6357646
  66.2596043  72.6955250  65.2386980  64.2960384  71.7004844  65.2047554
  63.7954021  71.0410012  64.4958518  64.4133858  71.1859018  66.1584505
  63.4084942  72.9593429  65.4249410  63.6511188  73.9490339  64.8512800
  62.4232124  72.8913469  66.2348362  61.8403834  73.7023464  66.3854678
  62.2316241  72.0269026  66.7207691  66.6972979  70.7443869  64.9115589
  67.9115220  70.9474618  64.9772441  66.0807957  69.5640119  65.1001002
  65.0838523  69.4893167  65.2437108  66.9094161  68.3144977  65.1937612
  67.9301328  68.5699405  65.4783408  66.3371591  67.3710795  66.2356811
  66.2144229  67.9591784  67.1451725  65.3581986  67.0659040  65.8660809
  67.1390685  66.1841973  66.5277602  66.6956632  65.6545626  67.1944525
  67.0429170  67.5981347  63.8104715  67.9135515  66.7083439  63.6817636
  66.1134548  67.9074591  62.8624101  65.4017573  68.5570986  63.1649901
  65.9912823  67.3219337  61.5504902  66.2081596  66.2551056  61.4962577
  64.5222902  67.5657075  61.0241201  64.2583759  68.6194149  61.1143985
  64.4781337  67.1666903  59.5994961  64.7415011  66.1129114  59.5084614
  63.4730327  67.3245616  59.2084108  65.1873051  67.7683297  59.0309836
  63.6667119  66.8555947  61.9093091  62.7544085  66.9704985  61.6334468
  67.0892681  67.8466887  60.5872553  67.2752871  69.0503622  60.3963963
  67.5899275  66.9555258  59.7570566  67.4137718  65.9834671  59.9672237
  68.4435528  67.2892953  58.5338188  68.4479842  68.3604076  58.3318337
  69.9251320  66.8166273  58.7730948  69.9355362  65.8148708  59.2026003
  70.6425897  66.7992762  57.4218660  70.6329976  67.8008550  56.9919255
  71.6735872  66.4742333  57.5614785  70.1330436  66.1103612  56.7481743
  70.6736832  67.6948068  59.7298539  70.1672681  67.6959449  60.6950712
  71.6885267  67.3166270  59.8530298  70.7103472  68.7113417  59.3381736
  67.6922659  66.5120401  57.3436678  67.5399602  65.2914920  57.3748157
  67.1337957  67.3125566  56.3844591  67.2965941  68.3047559  56.4800447
  66.2493454  66.8345905  55.2467728  66.3021203  65.7527400  55.1246515
  64.7838436  67.2237056  55.6202965  64.6935777  66.9125961  56.6610473
  64.7861149  68.3123469  55.5659357  63.5827415  66.6677678  54.8082129
  63.6549189  67.0285327  53.7821817  63.6283772  65.5787376  54.8139406
  62.2567857  67.1251745  55.4168369  62.3699362  68.1302180  55.8232647
  61.4849942  67.1298337  54.6471514  61.8261897  66.2010926  56.5268394
  62.4378860  65.4052564  56.6389640  60.7697704  66.2871049  57.2891229
  59.7915092  67.1657990  57.1006883  59.8430582  67.8167817  56.3301922
  59.0006689  67.1788654  57.7287811  60.6209666  65.5451734  58.3348495
  61.3355604  64.8750847  58.5806891  59.7906438  65.6382381  58.9023014
  66.7020747  67.4373108  53.9386068  67.4568108  68.3967310  53.8099352
  66.3598810  66.6906516  52.9085672  65.6824339  65.9990444  53.1963942
  66.8235461  66.6728621  51.5172987  67.5043444  67.5118374  51.3733079
  67.5571645  65.3686916  51.1274586  68.3897416  65.3775156  51.8309049
  66.8581666  64.5788445  51.4024926  68.0921026  65.1091448  49.6989130
  67.2995343  65.1867637  48.9546607  69.1369898  66.2085736  49.4506464
  69.9301714  66.1313035  50.1942801  69.5613171  66.0888353  48.4537964
  68.6615726  67.1864110  49.5275416  68.6815505  63.7034678  49.5774539
  67.9109587  62.9653253  49.7997899  69.0494527  63.5495990  48.5630212
  69.5050197  63.5920302  50.2828468  65.5921894  66.9051339  50.6095061
  64.5003425  66.4412085  51.0405520  65.6876148  67.6612441  49.4856021
  66.5831409  68.0581081  49.2393679  64.5122459  67.9687061  48.6140419
  63.6670304  67.3122701  48.8209274  64.1110520  69.3947419  48.9444101
  64.9766240  70.0023210  48.6803422  63.2652440  69.6761701  48.3171086
  63.7472294  69.6316019  50.4458856  62.4110498  69.3434208  50.9035489
  61.7220524  68.8980687  50.1858836  61.9806211  69.6146333  52.2208845
  60.9779748  69.3363409  52.5454696  62.8780137  70.1954796  53.1322763
  62.3848360  70.4510506  54.3978150  61.4658126  70.1935926  54.5013091
  64.1815444  70.5260740  52.6750236  64.8442798  71.0774370  53.3420177
  64.6249529  70.1559476  51.3869893  65.6732303  70.2795209  51.1150626
  64.8311640  67.8083041  47.1298221  65.6697251  68.5763020  46.6520404
  64.0779363  66.9720643  46.3837410  63.7488289  66.0579095  46.6596190
  63.8249934  67.4165550  45.0089330  64.7628572  67.5818477  44.4786604
  63.0133482  66.2954665  44.2582016  63.4664752  65.3328155  44.4950100
  61.9879926  66.3144821  44.6275041  63.0127603  66.4992609  42.7417028
  62.7049257  67.5115455  42.4797515  64.0626954  66.3610751  42.4835553
  62.1298592  65.4546236  41.9399145  62.1863919  65.5618960  40.6881906
  61.5362531  64.5569055  42.5232695  63.1285004  68.7614781  44.8403020
  62.0905811  69.0022858  45.4604512  63.7006921  69.6686119  43.9902791
  64.6654654  69.5831049  43.7039220  62.9234315  70.8132729  43.4899770
  62.1626067  71.0621005  44.2297943  63.7825199  72.0647015  43.2272917
  64.0435015  72.5162849  44.1844021  64.6890077  71.7207981  42.7291849
  63.2185294  73.1541883  42.3815540  63.4644158  73.4826884  41.1059657
  64.1367418  72.8244007  40.5557523  62.7916595  74.6127962  40.7668531
  62.9739776  75.0961882  39.8989868  61.9039942  75.0146082  41.7301384
  60.9562125  76.0394530  41.7618218  60.8334298  76.6685528  40.8802003
  60.2096457  76.1930644  42.9532577  59.4202824  76.9400409  43.0371126
  60.4893803  75.3598239  44.0671715  59.9033774  75.4324735  44.9833713
  61.5597834  74.3892136  44.0213236  61.8786123  73.9651550  44.9734912
  62.2103865  74.1115212  42.7996241  62.2196498  70.4481090  42.1923548
  62.8157211  69.7898441  41.3478713  60.9695643  70.9265610  41.9498843
  60.6228065  71.6193435  42.5978897  60.0900564  70.4953507  40.8543344
  60.6894968  69.9593878  40.1184578  59.0198704  69.4916177  41.4660336
  58.5265704  69.0822669  40.5844513  59.4625285  68.2926768  42.4358045
  59.9555220  68.7013030  43.3178939  58.5818243  67.7277973  42.7413699
  60.1514172  67.6331959  41.9079619  58.1548328  70.2530718  42.2982636
  57.4931806  69.6753678  42.6856584  59.3443882  71.6416556  40.1220469
  59.3034825  72.8039972  40.5379587  58.6279562  71.2358587  39.0371473
  58.5957672  70.2446497  38.8459201  57.9860997  72.1552073  38.0766582
  58.5222637  73.1035779  38.1115946  58.0837475  71.5909708  36.6599155
  57.3328685  72.0263320  36.0005661  59.5009228  71.9895399  36.1645269
  60.2524020  71.5541298  36.8231594  59.6492389  71.6193154  35.1501132
  59.5970380  73.0752673  36.1721795  57.9896291  70.1652994  36.5807334
  58.0593053  69.8904686  35.6635565  56.5382910  72.5351656  38.3552919
  55.8687161  73.4178966  37.7603091  56.0092581  72.0231846  39.4302517
  56.4215390  71.1553428  39.7416590  54.8683685  72.5582530  40.1784506
  54.0459579  72.7953562  39.5035269  54.3954132  71.5154014  41.1701592
  55.0759512  71.6242302  42.0146256  53.4010902  71.8557233  41.4593005
  54.3302948  70.0550391  40.7577887  55.2716766  69.8151987  40.2634431
  54.2705198  69.5180693  41.7044616  53.2023980  69.6522959  39.8911308
  53.0266509  68.4433405  39.6397630  52.4277092  70.5120681  39.4639364
  55.1759006  73.8793187  40.9306418  54.2209519  74.4498912  41.4789646
  56.4398715  74.2909948  41.0200075  57.1249900  73.7688808  40.4926472
  56.9183540  75.3183990  41.9632796  57.9927762  75.4615053  41.8482282
  56.2007589  76.6759764  41.6785642  55.1230451  76.5130287  41.6696096
  56.4541053  77.3839749  42.4676483  56.6624164  77.2660819  40.2645438
  57.7452535  77.3908394  40.2649514  56.3777312  76.5697097  39.4757966
  55.9737503  78.6594951  40.0080580  54.9167948  78.4588558  39.8328782
  56.0861305  79.2378258  40.9251206  56.5613592  79.4790775  38.7944611
  56.0622829  80.4475561  38.7617086  57.6278540  79.6260900  38.9649758
  56.3533508  78.7534802  37.4641822  55.3651558  78.6175389  37.3057834
  56.7414577  79.3075644  36.7142064  56.8160894  77.8562216  37.4941675
  56.8348617  74.8147863  43.4728203  56.2766575  75.4860520  44.3292644
  57.4213462  73.6086355  43.6647403  57.9170321  73.1817795  42.8952022
  57.3784144  72.8929794  44.9495290  57.1916047  73.6011491  45.7568065
  56.2683102  71.8471818  44.9520164  55.4136599  72.3062228  44.4550722
  56.6318105  71.0129219  44.3520347  55.8436555  71.3376420  46.3271915
  55.2086469  70.4536817  46.2682058  56.7832688  71.0775121  46.8145912
  55.1616978  72.3782289  47.1044343  54.0175028  72.7977641  46.7330569
  55.7206260  72.7458577  48.2003231  58.7148363  72.1287429  45.2719389
  59.2464067  71.4166752  44.4641552  59.2302984  72.3024022  46.4792525
  58.9761184  73.1259697  47.0057772  60.2799193  71.3748880  47.0583461
  60.9752609  71.0275367  46.2941822  61.0700338  72.1971099  48.1108874
  60.3438671  72.3893453  48.9007145  61.8194512  71.4921609  48.4707769
  61.7784898  73.5591128  47.7001710  61.2137591  74.0600217  46.9138693
  61.8219555  74.4539617  48.9485436  62.3869549  73.9538866  49.7351816
  62.3034761  75.4000973  48.7014282  60.8063115  74.6435803  49.2958367
  63.2276925  73.1618628  47.2192082  63.1557110  72.4821692  46.3701295
  63.7706918  74.0587072  46.9210086  63.7592853  72.6698793  48.0337389
  59.7533706  70.0905821  47.6192686  59.2748773  70.0832551  48.7698334
  59.7655325  68.9400921  46.9668609  60.0163086  69.0434158  45.9939606
  59.4377421  67.5808635  47.4692283  58.4924610  67.5716209  48.0118676
  59.3070065  66.6721005  46.2424737  58.9163745  67.2515461  45.4059638
  60.2886084  66.2759481  45.9824335  58.3557563  65.5151490  46.5488545
  58.7603194  64.9258675  47.3717620  57.3828806  65.9158687  46.8335275
  58.1961066  64.6090698  45.2908304  57.5613930  63.7597632  45.5436465
  57.7280215  65.1874018  44.4942578  59.5184289  64.0920369  44.7973998
  59.7156100  64.2968095  43.8282315  60.3601075  63.3127820  45.4635865
  60.1076858  62.7032225  46.5377203  59.1949032  62.7896705  46.9613413
  60.8194462  62.1313384  46.9695136  61.5791671  63.2598955  45.0593628
  61.8660855  63.8027821  44.2574575  62.2443121  62.6757048  45.5455747
  60.5280127  67.0043456  48.4653965  61.7060806  66.9478453  48.0585995
  60.1872897  66.5927314  49.6577738  59.2579904  66.8511798  49.9572844
  61.0454592  65.8341362  50.6019519  61.9220277  66.3996707  50.9180179
  60.0939403  65.6463585  51.8419895  59.1730780  65.1658872  51.5114440
  60.7500997  64.8005681  52.8855907  61.6708582  65.2806541  53.2169830
  60.0766659  64.6824260  53.7344890  60.9818631  63.8210814  52.4672701
  59.8214663  66.8304897  52.3976559  59.2412117  66.7040707  53.1519259
  61.5708044  64.4921557  50.0434978  60.8411538  63.6240050  49.5316918
  62.8879826  64.4148116  50.0015883  63.4290757  65.1397181  50.4508413
  63.6202296  63.3195267  49.2920517  62.9410330  62.8895754  48.5558907
  64.9081889  63.7685932  48.5713850  64.5956163  64.5065066  47.8325471
  65.5222508  64.2529532  49.3306105  65.7319883  62.6559151  47.8734946
  66.6702467  63.1174201  47.5656228  65.9354920  61.8717314  48.6027006
  64.9892369  62.0063427  46.5670284  65.6016037  61.4371383  45.6682062
  63.7578732  62.1663402  46.5606028  63.9724949  62.2412138  50.3727415
  63.9396050  61.0479205  50.1063897  64.4829176  62.6585253  51.5956179
  64.2801326  63.6075255  51.8755751  65.2210316  61.8029028  52.5265524
  64.6970614  60.8622585  52.6960885  66.5887719  61.4965083  51.8967301
  66.5044827  61.2198871  50.8457899  67.2837101  62.3301337  51.9978714
  67.3703057  60.0872206  52.7262425  68.4737289  60.0832877  51.9837197
  65.4877831  62.5634182  53.8419995  65.7727571  63.7813331  53.8501859
  65.5370978  61.8278321  54.9296401  65.5216408  60.8183577  54.9009728
  65.4382455  62.4838217  56.2273874  65.8496718  63.4914989  56.1689568
  63.9582928  62.5791829  56.6599603  63.3113510  63.0498484  55.9196634
  63.6777283  61.5320591  56.7736060  63.7598270  63.2905437  58.0094780
  63.5873379  64.5141236  57.9374998  63.6319778  62.6464431  59.1521582
  63.5037755  63.1652607  60.0091835  63.6627938  61.6370016  59.1655334
  66.3573368  61.8454312  57.3341243  66.3736855  60.6247687  57.4534803
  67.0613772  62.6545748  57.9909003  67.1242045  63.6079797  57.6635301
  67.8204444  62.2781256  59.2014113  67.6628113  61.2197629  59.4090634
  69.2867193  62.5184363  59.0306079  69.7266181  61.9026178  58.2461617
  69.3323678  63.5671688  58.7370499  70.1861222  62.3683619  60.2618386
  70.6049056  63.4005662  61.1133284  71.5105207  62.8297431  61.9333633
  72.0091751  63.4609660  62.6688906  71.6298718  61.5325072  61.6744033
  72.2227132  60.8705770  62.1544943  70.8039414  61.2303279  60.6314979
  70.7480349  60.2073878  60.2592489  67.2161844  63.1566201  60.3186160
  66.9080861  64.3372730  60.1082852  67.2912681  62.6895930  61.5520442
  67.7529051  61.8005653  61.6809645  66.6036643  63.2930044  62.7059786
  66.3810561  64.3460350  62.5337248  65.2786714  62.5334609  62.8841828
  64.6760486  62.7276281  61.9969150  65.5258052  61.4728333  62.9299414
  64.5021552  62.9197519  64.1109068  64.0884511  64.2821935  64.3117248
  64.3537590  65.0534011  63.5885719  63.3455691  64.6120094  65.4371655
  63.0858550  65.6577607  65.6016484  63.0975079  63.6465583  66.4574369
  62.3773481  64.0132147  67.5228152  62.0913322  64.9288439  67.4851641
  63.4293157  62.2871134  66.2543801  63.1396690  61.5095260  66.9611780
  64.1687537  61.9451018  65.0773506  64.4860647  60.9153279  64.9130958
  67.4594115  63.3900167  63.9638619  67.2766169  64.2467502  64.8261639
  68.4860799  62.5503106  64.1324047  68.8833381  62.1043748  63.3178947
  69.1016275  62.2908582  65.4355216  68.3992772  62.4007076  66.2618002
  69.5542481  60.8069441  65.3628400  68.7763881  60.1159723  65.0378924
  70.3429475  60.8447749  64.6114266  70.1450179  60.2953077  66.6585885
  69.4370156  60.4440570  67.6754417  71.2385445  59.6124967  66.6796054
  71.6085670  59.2843617  67.5602362  71.7199293  59.4090014  65.8153374
  70.3858072  63.1863481  65.6994405  71.5571775  62.8148861  65.5261093
  70.0995153  64.3372112  66.3229766  69.1251373  64.3979689  66.5818111
  70.9493481  65.4403904  66.6265549  71.9974008  65.1451697  66.6768496
  70.7685104  66.4858859  65.4236455  69.7448249  66.7881250  65.2026959
  71.3502355  67.3605148  65.7147128  71.3913319  65.8817830  64.1461483
  72.5686426  65.5064858  64.0157006  70.5443865  65.6497788  63.1824566
  70.8704137  65.2548345  62.3119251  69.5662252  65.8660828  63.3109627
  70.5593192  66.0297477  67.9571857  69.4512239  65.8119373  68.3954703
  71.4135060  66.7651641  68.6410422  72.3825037  66.5281399  68.4830476
  71.0975225  67.7108606  69.7062513  70.2257860  67.3391281  70.2447582
  72.2639544  67.9817274  70.7225075  73.1220366  68.4312480  70.2227810
  71.7185665  68.9440428  71.7471534  70.8606833  68.4950083  72.2476583
  72.4910036  69.1687909  72.4826327  71.4091792  69.8649934  71.2529584
  72.7135661  66.6406150  71.3342729  71.8262686  66.0500011  71.5622623
  73.3220973  66.1125892  70.6001217  73.5310418  66.8537333  72.6190578
  72.9229726  67.3813292  73.3539008  73.8316652  65.8872433  73.0235597
  74.4188007  67.4439196  72.3917604  70.5227854  68.8875945  68.9791242
  69.4032641  69.3227564  69.1697184  71.3059732  69.4799858  68.1121367
  72.2571708  69.1521843  68.0234309  70.9028975  70.6434334  67.3388918
  69.9012033  70.4946498  66.9356906  70.8918375  71.8654251  68.2137547
  70.3727630  71.5922598  69.1324722  71.9314448  72.1015074  68.4408708
  70.2229935  73.0755218  67.5973923  70.5954317  73.1375252  66.5748728
  69.1556967  72.8547437  67.5820144  70.4902609  74.6618934  68.4248730
  70.2852639  74.1218609  70.1187293  71.0291739  73.3595320  70.3501416
  70.4151779  74.9710568  70.7896162  69.2864039  73.7056119  70.2495599
  71.8039433  70.8486496  66.0902895  72.9207241  71.2873577  66.1842735
  71.3215894  70.5166026  64.8749046  70.3782513  70.1673781  64.9657606
  71.9512148  70.4044685  63.6367318  72.9055245  69.9343898  63.8742568
  71.1683459  69.4776779  62.7026721  70.2139854  69.9388766  62.4485230
  71.7433568  69.3083889  61.7922854  70.9895755  68.5250456  63.2013022
  72.3310183  71.8085144  63.0426254  71.8348821  72.2442641  61.9788956
  73.2638118  72.5425967  63.6583189  73.7643869  72.1575892  64.4465404
  73.3678113  73.9784266  63.4057251  72.3940361  74.3891753  63.1389923
  73.8599966  74.6738139  64.6638321  73.4478023  74.1516186  65.5272596
  74.9314251  74.4832287  64.6020392  73.6194296  76.1653680  64.8126642
  73.9423350  76.6779334  63.9065132  72.1477743  76.4186891  65.0365679
  71.8242176  75.9067845  65.9428590  71.9750424  77.4895980  65.1434258
  71.5802242  76.0428058  64.1852753  74.3260473  76.7045666  66.1059400
  75.3985435  76.5225012  66.0373575  74.1450873  77.7753277  66.1998839
  73.9260198  76.1909256  66.9801539  74.0597438  74.4110409  62.1035437
  73.5961076  75.2939497  61.3700538  75.1841224  73.7163782  61.8176197
  75.4316333  72.9354706  62.4083996  75.9721161  73.9597212  60.6515618
  75.5589223  74.7978910  60.0904544  77.3977151  74.2968024  61.0472166
  77.8227070  73.3603400  61.4084910  77.9043556  74.5949150  60.1293144
  77.5777239  75.3493089  62.0745145  76.8127458  76.5593182  62.0329114
  76.2685647  76.7926898  61.1177589  76.7512911  77.4379820  63.1325838
  75.9570751  78.1837314  63.1669432  77.5113281  77.1466228  64.3107415
  77.4626779  78.0348675  65.3220044  76.9028030  78.7908532  65.1306268
  78.5204532  76.1163585  64.2343745  79.2842041  76.0051708  65.0040643
  78.5013035  75.2467278  63.1352727  79.2276626  74.4367669  63.0684464
  76.1077484  72.6605334  59.8212130  76.5647744  71.6571688  60.3869300
  75.8199284  72.7758050  58.4842649  75.3085020  73.6202413  58.2710285
  76.0400321  71.8059053  57.4072970  76.4271581  70.8760270  57.8239010
  74.7235959  71.5037336  56.6693064  74.4972523  72.4527357  56.1832376
  74.9162775  70.7446581  55.9111651  73.4841533  71.0571303  57.5641944
  73.2047541  71.8303143  58.2798922  72.3381297  70.8411903  56.5739486
  72.6166268  70.0677628  55.8581637  71.4440016  70.5304112  57.1143671
  72.1360967  71.7713289  56.0427939  73.7468650  69.8076302  58.4519771
  74.5721400  70.0127700  59.1338410  72.8505478  69.5747981  59.0268735
  74.0023062  68.9582943  57.8183548  77.1631117  72.2596551  56.4704735
  77.2828761  73.4420287  56.0903088  77.9535606  71.3313887  55.9811330
  78.0558690  70.4566463  56.4755600  78.7682944  71.5470386  54.7458865
  78.3230425  72.3433230  54.1494126  80.2293259  71.9515243  55.1050011
  80.5499858  71.1830397  55.8083559  80.7728723  71.8348227  54.1674308
  80.5175640  73.3268314  55.6904301  79.9278183  73.4494125  56.5988765
  81.5780010  73.3859259  55.9355491  80.1523309  74.4634425  54.6730424
  80.8697939  74.5123229  53.8539230  79.1487598  74.3307395  54.2688959
  80.2105334  75.7852137  55.4928078  79.8545115  76.5968387  54.8582893
  79.5509578  75.6822705  56.3544701  81.5890570  76.0887318  55.9580213
  82.2003069  76.1845861  55.1597198  81.5846369  76.9508760  56.4841276
  81.9189814  75.3369838  56.5463444  78.7133719  70.2943594  53.9423859
  78.4610207  69.2316545  54.4556452  78.9952134  70.3529434  52.6130063
  79.0632321  71.2651374  52.1847833  79.0108805  69.1699667  51.7397585
  79.3015482  68.2407005  52.2297338  77.6249815  68.9698344  51.0828473
  77.6657631  67.9528605  50.6927176  76.3026096  69.1556116  51.9342439
  76.2608926  70.1725574  52.3243474  75.4339093  68.9738338  51.3014598
  76.3015865  68.4484907  52.7637495  77.5004588  69.7992110  49.8894896
  76.6361482  69.6635696  49.4943075  80.1800668  69.1032823  50.7022005
  80.8358826  70.1431226  50.4213041  80.3898302  67.9195006  50.1361774
  79.8241753  67.1409664  50.4428017  81.4460157  67.6653027  49.2220961
  81.4680655  68.4732260  48.4907460  82.7894368  67.5746466  49.8751622
  82.9550485  68.4454846  50.5094438  82.8499868  66.6692050  50.4789910
  83.8382795  67.5310124  48.8017699  83.6521012  66.5997825  48.2667471
  83.6082252  68.3751631  48.1517032  85.3693438  67.5969256  49.2350267
  85.4670200  68.3857611  49.9808798  85.6258853  66.6380294  49.6853645
  86.3146326  67.8803085  48.0672236  85.9503411  68.7506223  47.5213792
  87.3093457  68.0892014  48.4609354  86.3793172  66.7307531  47.1644073
  85.4577692  66.5372884  46.7991396  87.0075695  66.9371770  46.4010016
  86.7172615  65.9242977  47.6698995  81.0767777  66.4183389  48.4223519
  80.9720789  65.3528520  49.0224792  80.8619483  66.5436445  47.0744180
  81.0553914  67.3658373  46.5206327  80.2967176  65.3568699  46.3945825
  80.1204225  65.6785921  45.3681742  81.0966176  64.6165946  46.4104491
  79.0191380  64.7207070  46.9429640  78.0696047  65.3537653  47.3879950
  79.0635823  63.3919035  47.0596467  79.6713933  62.9140698  46.4097698
  78.0874338  62.5775202  47.8473705  77.0732498  62.9731226  47.7923370
  78.1093317  61.2063081  47.1959574  79.1596028  60.9466867  47.3287223
  77.4982844  60.5991955  47.8638913  77.6847317  60.9320943  45.6998292
  77.8985246  59.8188485  45.1384368  77.1649551  61.8194378  45.0150177
  78.1050023  62.6187003  49.4301802  77.4590954  61.7824495  50.0802840
  78.9537828  63.4731439  50.0633088  79.6926674  63.8020532  49.4583562
  79.1242643  63.6188726  51.5077811  78.2981209  63.1058150  52.0000800
  80.4502582  63.0406030  52.0398087  80.3661672  62.5346960  53.0016227
  80.6796063  62.3097978  51.2642939  81.6705394  63.9757851  52.1389050
  81.9812058  64.6942954  53.3407429  81.3218299  64.7121495  54.2085013
  83.2090511  65.4029021  53.3686256  83.3764431  66.0644244  54.2186073
  84.1941128  65.2835078  52.3606274  85.1730668  65.7605996  52.4068046
  83.8513025  64.4987406  51.2579146  84.6371296  64.3290658  50.5218533
  82.5583660  63.9305148  51.0640490  82.2975534  63.4840808  50.1044796
  78.6527149  64.9608099  52.1373408  78.5704710  66.0053271  51.5126842
  78.2397494  64.8228451  53.4612287  78.4162210  63.9221267  53.8827300
  77.5734037  65.8699272  54.2853232  77.7608527  66.8742596  53.9054831
  76.0002270  65.6298091  54.3991533  75.8368029  64.5888765  54.6781733
  75.3350988  66.5595918  55.4540797  75.4977129  67.6007617  55.1754712
  74.2647214  66.3575630  55.4937939  75.7761353  66.3728907  56.4332266
  75.2250567  65.7378585  53.1544636  74.8226342  66.7483256  53.0829583
  75.8925395  65.5527591  52.3128554  74.0863330  64.7375793  53.1253441
  73.4181282  64.9223573  53.9664501  73.5329058  64.8433429  52.1922677
  74.4880339  63.7267903  53.1963496  78.2076480  65.8064003  55.6799749
  78.1858913  64.7765754  56.2860033  78.8178190  66.9566308  56.0364439
  78.9521728  67.7179562  55.3864961  79.3857463  67.0949814  57.4275556
  79.4948837  66.1271249  57.9168837  80.7673653  67.7210366  57.2723594
  81.2828887  67.1027797  56.5374490  80.6503104  68.7307822  56.8788978
  81.5992553  67.7696175  58.5819169  80.9475254  67.9023119  59.4454799
  82.3378865  66.4332108  58.7007700  82.9902077  66.3000116  57.8377324
  82.9360648  66.4278754  59.6119533  81.6138115  65.6192825  58.7373304
  82.5811006  68.8885601  58.6723890  82.0548337  69.8407344  58.6052563
  83.1098995  68.8325781  59.6238821  83.2971832  68.8113251  57.8542451
  78.4784628  67.9082413  58.3120582  77.9052524  68.8623619  57.8810157
  78.2830129  67.4732609  59.5337568  78.8391691  66.6687140  59.7857367
  77.3062545  67.9746163  60.5049477  76.8212670  68.8807913  60.1419968
  76.1960773  66.8879831  60.7913389  76.6584308  65.9868138  61.1941073
  75.1771960  67.4619968  61.8333001  74.7140631  68.3629858  61.4310220
  74.4069890  66.7180762  62.0369268  75.7004804  67.7049597  62.7580942
  75.4854851  66.5097209  59.4698200  76.2144794  66.1054697  58.7675021
  74.7200501  65.7599543  59.6699676  75.0206677  67.3969103  59.0397729
  77.9418046  68.4268078  61.7957396  78.2952655  67.6039845  62.5864059
  78.0642784  69.7893589  62.0427126  77.8016343  70.3710841  61.2599526
  78.5156457  70.4410468  63.2686133  79.3027051  69.8655805  63.7559275
  78.8742427  71.4511804  63.0707810  77.2791313  70.5178543  64.2196296
  76.4782477  71.4061236  64.0678762  77.0361462  69.4201821  64.9638923
  77.4840758  68.5750215  64.6396056  76.0786397  69.3198652  66.0871019
  75.1007400  69.7235328  65.8246825  75.9262374  67.8200147  66.3884556
  76.0224625  67.2807732  65.4460870  76.7412415  67.5356555  67.0540442
  74.5762731  67.4658168  67.0480540  74.2230200  66.2318869  67.0277228
  73.8756003  68.3390914  67.5726244  76.4523921  70.1891681  67.2940130
  77.4833432  69.8719484  67.9507470  75.7756826  71.3441978  67.5634563
  74.9185851  71.4577457  67.0413546  76.1935223  72.4112630  68.4237677
  77.0061386  72.9544074  67.9413279  75.0292727  73.4216885  68.7358290
  74.7337842  73.7715786  67.7467069  74.2110517  72.8543564  69.1793928
  75.3546674  74.6149313  69.6184818  75.6231543  74.2171600  70.5971511
  76.4636110  75.4904869  69.1134476  76.1956336  75.8890268  68.1349524
  76.6226572  76.3140846  69.8095022  77.3792681  74.9052908  69.0284891
  74.1638457  75.5307209  69.8727332  73.3713523  74.9684509  70.3666017
  74.4718614  76.3596600  70.5099832  73.7951868  75.9201472  68.9237670
  76.8116991  72.0294300  69.7643821  77.7729580  72.6499429  70.2369053
  76.2532881  70.9881090  70.4372162  75.4379940  70.5658744  70.0163684
  76.6924586  70.4981684  71.8090957  77.5758508  71.0317792  72.1597764
  75.5146484  70.7811258  72.7945516  74.9611241  71.6491080  72.4363380
  74.8566184  69.9123025  72.8101292  76.0095379  71.0426194  74.1479368
  76.9146940  70.4504880  74.2827467  76.2576806  72.1025283  74.2037979
  74.7955258  70.6245345  75.5023549  74.9092136  68.8347025  75.4277182
  75.9352396  68.5265890  75.6288048  74.2460250  68.3965754  76.1735910
  74.6155100  68.4925297  74.4353689  77.1327238  69.0544696  71.8044735
  77.1313971  68.4430267  72.8319733  77.4801315  68.5570854  70.6311271
  77.4894972  69.1708947  69.8290986  77.7728891  67.1085746  70.4174227
  78.3442765  66.7210545  71.2608940  76.4735482  66.3049588  70.2955259
  75.6760375  66.8828656  70.7625374  76.2558357  66.1770864  69.2351722
  76.5681923  64.9307770  70.9664475  75.7031484  64.3385656  70.6679758
  77.4793862  64.4397923  70.6247431  76.5979526  65.0560690  72.4825222
  77.5346539  65.5445164  72.7510528  75.7611922  65.6909791  72.7737619
  76.4986613  63.7357149  73.2440728  75.5662190  63.3682004  73.1192376
  77.3346832  63.0634561  73.9620265  78.5439440  63.4885276  74.0919060
  78.8280785  64.3419351  73.6324899  79.2020656  62.9663351  74.6525223
  77.0234425  61.9473749  74.5828822  76.0869296  61.5763974  74.5092663
  77.7222624  61.4660124  75.1306410  78.6724283  66.8223749  69.2013335
  78.7578323  65.7384362  68.6356523  79.5088788  67.8326357  68.8646235
  79.2144201  68.7242094  69.2367657  80.6706002  67.8065847  67.9168943
  81.0570229  68.8135384  67.7593476  81.8263863  66.9105904  68.5357051
  81.4300207  66.1032493  69.1514924  82.4752900  66.4941828  67.7652321
  82.5698414  67.8019282  69.3476474  83.2953990  67.3285165  69.7612261
  80.2399868  67.3985225  66.4441641  79.2735635  67.9656547  65.9412217
  81.0662316  66.6619875  65.7837484  81.7920322  66.2044494  66.3166384
  81.0497698  66.4800535  64.3615505  80.4479378  67.2916425  63.9526239
  82.4567767  66.5984715  63.8153493  82.9995001  65.6601414  63.9297488
  82.3203615  66.9288131  62.3332274  81.7781076  67.8673185  62.2180347
  83.3111607  67.0254081  61.8892828  81.7741463  66.1302223  61.8312282
  83.3432784  67.7781385  64.3919111  83.4523189  67.6580371  65.4697738
  84.3270671  67.7566199  63.9230868  82.8612389  68.7325409  64.1801216
  80.4464945  65.1087533  64.0572505  80.7916389  64.0804245  64.6814254
  79.4607746  65.0673572  63.1906216  78.9900105  65.9357455  62.9799506
  78.9846560  63.8578704  62.5563404  79.4680832  62.9650827  62.9529857
  77.5088380  63.7915487  62.8780866  77.4924183  63.4678467  63.9187819
  77.1776854  64.8281264  62.8152797  76.5932105  62.9266860  62.0731240
  76.7806054  63.0954569  61.0126994  76.8308038  61.4876274  62.3976896
  76.6431473  61.3179752  63.4579263  76.1590316  60.8655237  61.8062423
  77.8637996  61.2281267  62.1660013  75.1397850  63.2891502  62.3873021
  74.9634757  64.3353233  62.1372295  74.4723914  62.6583128  61.8001640
  74.9469299  63.1323185  63.4485795  79.2513964  63.8742497  61.0394728
  79.1358730  64.8817425  60.3534104  79.7132833  62.7260157  60.4316996
  79.8659290  61.9146042  61.0134299  79.9582848  62.6026512  58.9762820
  79.9945336  63.5975588  58.5324981  81.2909042  61.8835305  58.6834593
  82.1418232  62.4861167  59.0011478  81.2259797  60.9909079  59.3056406
  81.4733514  61.4760865  57.2314719  80.5869442  60.9027138  56.9601292
  81.6575458  62.6137383  56.2507218  82.5440854  63.1873310  56.5211619
  81.7787133  62.2111519  55.2450662  80.7826993  63.2633317  56.2785142
  82.8067824  60.7110489  57.1650779  82.7574298  59.8368650  57.8142823
  82.9922161  60.3914246  56.1396239  83.6166080  61.3621560  57.4942298
  78.8043815  61.7475037  58.4379883  78.5435159  60.6236860  58.9682984
  78.0301445  62.2140858  57.4536895  78.2465964  63.1479891  57.1357703
  76.9408357  61.5115504  56.8208276  76.6463439  60.5752859  57.2949400
  75.8314830  62.5621858  57.0693005  76.1757763  63.0780325  57.9656618
  75.8420789  63.2531788  56.2263791  74.4012966  62.0487985  57.2919960
  74.2403537  61.2529092  56.5648382  74.1071119  61.5168204  58.7094926
  74.2674002  62.3123319  59.4372067  73.0723317  61.1786015  58.7637033
  74.7734046  60.6830362  58.9307581  73.3562217  63.0778893  56.9983626
  73.4360420  63.3907600  55.9572862  72.3678967  62.6534481  57.1748980
  73.5020921  63.9404305  57.6486269  77.1675637  61.2143121  55.3263207
  77.9244890  61.8902696  54.6157684  76.4703532  60.2134135  54.7740838
  75.9034942  59.6447012  55.3867310  76.4263801  59.9397757  53.3305660
  76.8175198  60.7505457  52.7159434  77.2363520  58.6981815  53.0619709
  76.8508107  57.8750291  53.6635340  77.1661122  58.4394137  52.0054645
  78.2789787  58.8805327  53.3223106  75.0008108  59.6439750  52.9059990
  74.2820477  59.0596114  53.6510070  74.5971368  59.9570297  51.6515477
  75.1463256  60.6885447  51.2233226  73.4163802  59.4700074  50.9400957
  72.6550794  59.0753933  51.6129999  72.8582638  60.6909732  50.2412755
  72.6878183  61.4465858  51.0081504  73.5754368  61.0688915  49.5126187
  71.5471748  60.3738812  49.5432073  70.4155352  59.9709514  50.2854285
  70.4446439  59.8956343  51.3724333  69.1977928  59.6546033  49.5706017
  68.2759291  59.4671946  50.1211897  69.1821246  59.6915849  48.1702971
  68.0225286  59.2525036  47.4966721  67.3301885  58.9595269  48.0936893
  70.3125542  60.0499629  47.5207996  70.2401653  60.0056256  46.4341098
  71.4959924  60.4494046  48.1205581  72.3268971  60.7985658  47.5075460
  73.7744024  58.2867304  50.0844796  74.6890228  58.4573321  49.2457219
  73.0415544  57.1890566  50.2677117  72.3215232  57.3120303  50.9652300
  73.1987895  55.8926799  49.6737575  73.9682803  55.9613605  48.9048193
  73.6081376  54.7847777  50.6903301  72.7939164  54.6967922  51.4096365
  73.6978431  53.8551267  50.1283674  74.9674727  55.0700869  51.4619114
  75.8119818  54.9409408  50.7849872  74.9663575  56.0884920  51.8504365
  75.0920217  54.0610977  52.6475039  75.9664490  54.3571008  53.2270365
  74.1963984  54.1752114  53.2581890  75.2358056  52.5881863  52.2172921
  74.5375856  52.3923543  51.4035113  76.2552461  52.4243598  51.8680054
  74.9551195  51.6962578  53.3167029  74.0103838  51.8476025  53.6402285
  75.0562902  50.7397690  53.0084926  75.6022710  51.8772661  54.0707122
  71.8727210  55.5438077  48.9558239  71.0130442  54.8301896  49.5436009
  71.7379088  55.9922335  47.6709418  72.7417481  56.8165997  46.9091904
  73.5918880  56.1655534  46.7054720  73.0533348  57.6232771  47.5727296
  72.0936508  57.3242934  45.6585974  72.7956090  57.2906449  44.8253978
  71.7458806  58.3477525  45.7989140  70.8928238  56.3542577  45.4314513
  71.1915227  55.5073234  44.8137295  70.0296038  56.8448136  44.9816672
  70.5464519  55.8762508  46.8295932  69.7644721  56.5021763  47.2595038
  70.0474095  54.4319307  46.7324999  68.8890943  54.2396700  46.7488589
  70.9566404  53.4197739  46.6745517  71.9332484  53.6629493  46.5896882
  70.5849364  52.0137442  46.5882645  69.8923447  51.8629112  45.7602154
  71.7689475  51.1908556  46.3617801  72.3943412  51.2744698  47.2505943
  71.4294668  50.1608390  46.2526070  72.5771252  51.5924042  45.1323378
  71.8688517  51.5746359  44.3040058  72.8925226  52.6191150  45.3180561
  74.0858625  50.5518300  44.6810850  74.6147422  51.3575583  43.1245304
  74.8507559  52.4038926  43.3183886  75.4987071  50.8523078  42.7353921
  73.8100899  51.2968654  42.3917602  69.7800394  51.4940646  47.7432602
  68.5914068  51.0974804  47.5579915  70.3390631  51.6351846  48.9684229
  71.3487578  51.6341690  48.9932214  69.6299600  51.5858749  50.2102326
  69.0667256  50.6599231  50.3263329  70.6882912  51.6438019  51.2827458
  71.6471127  51.3587846  50.8497032  70.7508792  52.6631671  51.6636360
  70.3547797  50.7218559  52.3929924  69.3750072  51.1432451  52.6178876
  70.2403444  49.6836759  52.0812457  71.2483265  50.7855802  53.6605248
  71.0979263  49.8880156  54.5523137  71.9391558  51.7514105  53.9400796
  68.4854247  52.5522748  50.3711182  67.5619480  52.2443691  51.0914396
  68.4730991  53.6579093  49.5968718  69.2685174  53.7699775  48.9846221
  67.4065428  54.7038962  49.5711826  67.6051124  55.4048266  48.7604015
  66.4376720  54.2304407  49.4123474  67.3749716  55.4760431  50.9055594
  66.2696433  55.7874552  51.3640668  68.5254159  55.8368987  51.5037326
  69.4164331  55.6282861  51.0763354  68.5198496  56.4703287  52.8611605
  67.8026017  57.2908372  52.8406578  68.1434159  55.5111914  54.0226468
  68.4323518  56.0852766  54.9030112  67.0708650  55.3189865  54.0507860
  68.8710730  54.1893274  54.0487363  68.2858532  53.1615064  54.4589298
  70.1226333  54.1486200  53.7578809  70.6132885  53.2659582  53.7741683
  70.6093186  54.9994939  53.5144639  69.9537900  57.0906350  53.0324094
  70.9332954  56.6597381  52.4905413  69.9772966  58.1715313  53.8314749
  69.1328584  58.7245416  53.8661612  71.1689575  58.6350142  54.6315609
  71.9409873  58.9416409  53.9258348  70.8879719  59.8015406  55.5884775
  70.0495089  59.5884374  56.2515507  71.7938817  59.9336725  56.1800590
  70.5938019  61.1516807  54.9306859  71.4394670  61.5369684  53.9072418
  72.3498771  60.9936714  53.6540982  71.0773348  62.6960038  53.1727030
  71.6742336  62.9366451  52.2929847  70.0091726  63.5132304  53.5342761
  69.7801578  64.4242655  52.9814042  69.2574155  63.1605587  54.5836331
  68.4669587  63.8460210  54.8892793  69.4608562  61.9261157  55.3040055
  68.7635299  61.6314689  56.0882371  71.7997121  57.5050654  55.4965184
  71.1639029  56.4495195  55.7660099  73.0302352  57.6195586  55.9546952
  73.4425722  58.5159783  55.7390351  73.8444059  56.6319157  56.7385074
  73.1830817  55.9835278  57.3132619  74.6811216  55.7700583  55.8082721
  73.9942419  55.2434492  55.1457177  75.3100113  56.4393532  55.2212099
  75.5600228  54.7569034  56.5395381  76.4326864  54.5176884  55.9318086
  75.8787123  55.2754460  57.4437780  74.7993657  53.4006458  56.9405570
  74.1286875  53.3037047  57.9869088  74.8718658  52.4728027  56.0977374
  74.7185191  57.5873692  57.6003459  75.4589946  58.5003719  57.1383696
  74.8062621  57.1265341  58.8573623  74.1072004  56.5545872  59.3093455
  75.9241269  57.6989918  59.7053296  76.1646052  58.7198126  59.4083546
  75.4358517  57.7139042  61.1514714  75.2445412  56.6769484  61.4275550
  76.2557232  58.1045044  61.7542501  74.1829004  58.5446276  61.3995860
  74.1871590  59.5427110  60.9615080  73.4327239  57.9320860  60.8994588
  73.8560573  58.6414659  62.8599342  73.0155310  59.4833535  63.2314954
  74.2396917  57.8317994  63.7141729  77.2583352  57.0024330  59.4270134
  77.4256548  55.8865923  59.8707167  78.1949725  57.7232114  58.7247470
  78.0266193  58.6457135  58.3495853  79.5037816  57.1220461  58.5165446
  79.4806854  56.0483997  58.3298653  80.2271200  57.8335112  57.3468353
  80.3123259  58.8824974  57.6305048  81.6368016  57.2762940  56.9910549
  81.5523366  56.2274019  56.7068162  82.0536982  57.8450005  56.1598683
  82.2926375  57.3658369  57.8570575  79.3374413  57.8778064  56.0618440
  78.5126074  58.5694161  56.2333837  79.9445070  58.2362002  55.2305049
  78.7707039  56.4698938  55.7204560  78.1631053  56.1110154  56.5511967
  78.1563333  56.5329592  54.8223075  79.5950056  55.7777985  55.5483201
  80.3722379  57.2593287  59.7913328  81.0601008  56.3077304  60.1062142
  80.3492562  58.4180852  60.4879061  79.7818350  59.1963897  60.1839742
  81.2214449  58.6116333  61.5884696  81.1783500  57.6549974  62.1091324
  82.6795909  58.8729191  61.1570708  82.7404683  59.8317507  60.6422544
  83.3216154  58.8925383  62.0377069  83.0082735  58.0793194  60.4860519
  80.7620457  59.7444816  62.6072441  80.1639107  60.7344200  62.2470312
  81.2172925  59.6938257  63.8436928  81.8529463  58.9401742  64.0629029
  80.7509155  60.5551172  64.9422876  80.6763770  61.5777336  64.5724243
  79.3612281  60.1267674  65.5071781  78.6343012  60.2946204  64.7125071
  79.4249165  59.0598887  65.7212191  78.9133636  60.8857299  66.7872310
  78.0934111  60.3129765  67.2205117  79.7627799  60.8768690  67.4702503
  78.4761499  62.2790748  66.5636950  78.8226612  62.8641570  67.4155798
  78.9713386  62.6288144  65.6578419  77.0482440  62.4739385  66.4168256
  76.5071873  61.6426447  66.2262800  76.4230238  63.6560729  66.4171236
  77.0119439  64.7657193  66.5434484  78.0156999  64.7917010  66.6525310
  76.4764450  65.6220287  66.5348100  75.0781014  63.6441477  66.3820444
  74.5844318  62.7633759  66.3569145  74.5682629  64.5160206  66.3809983
  81.7841560  60.6687231  66.0106404  82.1506037  59.7405542  66.7283844
  82.3142191  61.8592018  66.1224058  82.3909183  62.4885477  65.3361868
  82.8857889  62.2928843  67.4378945  83.2268791  61.4099243  67.9783927
  84.0747914  63.2647335  67.2803760  84.8280192  62.7328551  66.6991252
  83.7119687  64.1190266  66.7088489  84.6895831  63.7505993  68.5809726
  84.2604945  63.3467954  69.6800947  85.6307699  64.5709972  68.5321503
  81.7304428  62.9359323  68.2305393  81.0547432  63.7742562  67.6415979
  81.4160129  62.4838639  69.4137443  81.9836987  61.7609264  69.8323055
  80.2659780  63.0022606  70.1802576  79.4287759  63.3033802  69.5505602
  79.8283015  61.7761810  71.0382954  80.7973470  61.3576269  71.3100720
  79.2883244  62.0578367  71.9422837  79.0519676  60.6758901  70.4039021
  77.6552561  60.6218682  70.6016207  77.1862049  61.4371466  71.1524492
  76.8723885  59.5616239  70.1137729  75.7946437  59.5028904  70.2658162
  77.5459017  58.5363517  69.3943587  76.9982209  57.6570203  69.0553574
  78.9645978  58.6617365  69.1115049  79.4183121  57.9974522  68.3759984
  79.7503516  59.6213786  69.7700479  80.8363299  59.5278691  69.7727158
  80.5445908  64.1828090  71.1116988  79.6487401  64.6159629  71.7789694
  81.8310518  64.5659057  71.3920185  82.5324014  64.0713961  70.8594133
  82.2606390  65.4078659  72.4543861  82.0484642  64.9653949  73.4276797
  83.7895953  65.5679779  72.3078360  84.1127172  64.5270102  72.2990195
  84.0078440  66.0238069  71.3420785  84.5708652  66.3113830  73.3850082
  84.8149886  67.5270749  73.4042978  85.1037536  65.5546530  74.3117313
  85.6364337  65.9762806  75.0591146  84.9795194  64.5530081  74.2746612
  81.4878584  66.6858047  72.6274308  81.3585451  67.4793069  71.6827900
  81.0501186  67.0275566  73.8510233  81.0464332  66.2103870  75.0892100
  82.0865000  66.0346218  75.3639242  80.5691780  65.2603916  74.8487202
  80.2607330  67.0144882  76.1855797  80.9017565  67.6852041  76.7577056
  79.7107353  66.3675467  76.8690054  79.3179841  67.7811606  75.2949748
  78.8821916  68.6426437  75.8009696  78.5225949  67.1717047  74.8660003
  80.3093704  68.2722705  74.1433745  79.7084469  68.5247219  73.2697284
  81.2662198  69.4571576  74.4749038  81.5539143  69.7592472  75.6590755
  81.7846306  70.1619934  73.4257751  81.8631638  69.6935635  72.5344249
  82.3128691  71.5320840  73.5436428  82.5840820  71.7760622  74.5707832
  83.5910398  71.5793516  72.6695882  83.7058548  72.6628016  72.6371412
  84.4833930  71.1329193  73.1083410  83.4397674  71.0662285  71.2532121
  82.4513233  71.4366426  70.5907767  84.1961538  70.1167493  70.9041348
  84.1314574  69.7413617  69.9687214  84.8620014  69.7375242  71.5621137
  81.1192845  72.4810770  73.1027741  79.9911619  72.1535679  73.2897798
  81.4321730  73.6959397  72.5967422  82.3441262  74.0908657  72.7769478
  80.4555451  74.5149723  71.9694331  79.5859756  73.9452375  71.6417896
  80.0065650  75.5212017  73.0575697  80.8654889  76.1026892  73.3925640
  79.2610146  76.1900705  72.6276058  79.3807496  74.9150988  74.3009612
  80.0750692  74.4591896  75.3464180  81.1609290  74.5500508  75.3189867
  79.1987448  73.9466828  76.2768014  79.5523260  73.6727500  77.1823624
  77.8926987  74.0684191  75.9476861  76.6814052  73.9327935  76.5636665
  76.7216587  73.5337862  77.5772106  75.4601389  74.3014483  75.8896256
  74.4969273  74.1364040  76.3724132  75.4895511  74.8667767  74.6279408
  74.6097283  75.1688786  74.0598336  76.7840306  75.0675098  74.0278065
  76.7225962  75.6060435  73.0821279  77.9980606  74.7147900  74.6260865
  80.9712661  75.0733831  70.6659277  81.7061640  76.0835622  70.6747333
  80.4953708  74.5738673  69.5230032  79.8338403  73.8270636  69.6803593
  80.8892075  74.8660046  68.1614065  81.9709065  74.9489911  68.0558616
  80.4092436  73.6860306  67.3316433  80.4380250  72.7753417  67.9299047
  79.3896651  73.8631842  66.9893331  81.3459431  73.5284798  66.1053788
  81.4142836  74.5311722  65.6834328  82.3090332  73.2478681  66.5317784
  80.9042999  72.3365876  64.7681873  81.2569068  70.8458479  65.7332440
  80.6197301  70.8255954  66.6173790  81.0606913  69.9633421  65.1243238
  82.3028866  70.8498478  66.0398571  80.4393981  76.1959588  67.6562875
  79.2338829  76.4791477  67.4793517  81.4085701  76.9699399  67.0799614
  82.3658797  76.6871279  67.2338287  81.1591964  78.2434098  66.3719606
  80.1562314  78.6097210  66.5909961  82.1922544  79.3071579  66.8472207
  81.9166002  80.2859400  66.4546656  82.2051613  79.3436374  67.9365337
  83.4496264  78.9613138  66.3824578  84.0894055  79.6151450  66.6736406
  81.1431602  78.0168184  64.8230522  80.4846700  78.8185097  64.1746305
  81.9054114  77.0240705  64.2734371  82.4479136  76.4299216  64.8839924
  82.0247018  76.8266415  62.8253119  81.0286147  76.9836349  62.4114729
  82.9899136  78.0437493  62.3348461  83.9934006  77.8957086  62.7338422
  83.0311314  78.0591496  61.2457345  82.5919851  78.9919570  62.6963076
  82.5542730  75.4816000  62.2761191  83.3211197  74.8569026  62.9582161
  82.2347590  75.0418178  61.0849270  81.5660992  75.5887222  60.5615831
  82.7534418  73.8055769  60.4771093  83.7477506  73.5012545  60.8039688
  81.7538144  72.6440215  60.7732699  81.2180573  72.9831870  61.6598534
  80.7274342  72.1858220  59.6886327  81.2624946  71.8460583  58.8018566
  80.1222340  71.3692135  60.0823126  80.0803215  73.0219987  59.4237642
  82.5172838  71.4166998  61.2386148  83.0718152  71.6555672  62.1461054
  81.8158129  70.6081609  61.4442921  83.2130468  71.1041125  60.4599596
  82.9886161  73.8365191  58.9498733  82.3435053  74.6178038  58.1853760
  83.9392448  72.9656512  58.5073712  84.4221666  72.4600723  59.2362580
  84.4785271  72.9113756  57.1558118  83.6517503  72.8572298  56.4475692
  85.3447130  74.1599929  56.8151026  84.7737642  74.9797183  57.2511839
  86.2496646  73.9965506  57.4002942  85.7420226  74.5285506  55.3126235
  86.4349528  75.3661816  55.2331062  86.1837730  73.6469019  54.8482407
  84.4286962  74.8807892  54.5962335  83.7934477  73.9248386  54.0990364
  84.0562706  76.0644014  54.6105919  85.1399275  71.6031173  56.6552611
  85.5686447  70.7146639  57.3597695  85.1820668  71.4057140  55.3386643
  84.9015013  72.1402834  54.7047951  85.6995849  70.1413772  54.7639866
  85.8660541  69.4270150  55.5702581  84.5758598  69.6095450  53.8225247
  84.2853902  70.4280985  53.1639672  85.0166877  68.3790589  52.9615697
  85.3068824  67.5598857  53.6194776  84.1871300  68.0608459  52.3301623
  85.8634909  68.6582862  52.3346282  83.3716491  69.1037391  54.7009881
  83.6954492  68.1870392  55.1938528  83.1766048  69.8697614  55.4514993
  82.1227175  68.8373903  53.9254629  82.3168716  68.0710835  53.1750110
  81.3407913  68.4926898  54.6021255  81.7980285  69.7538059  53.4326554
  86.9805735  70.3821411  53.8904066  86.9496480  70.9293700  52.7619200
  88.1790566  70.1381792  54.4561442  88.2332526  69.8880520  55.4331797
  89.4159452  70.3686194  53.7360817  89.4546675  71.3746814  53.3184228
  90.5868718  70.2101934  54.7753276  90.5075533  69.1608972  55.0595551
  91.5630955  70.3914769  54.3256350  90.4214894  71.1197406  56.0625267
  89.4602501  70.9216382  56.5367368  91.5319770  70.7948134  57.0252975
  92.4935871  70.9931165  56.5519259  91.4324706  71.4129547  57.9175422
  91.4751735  69.7427382  57.3046029  90.3342583  72.6006471  55.7166542
  89.4745000  72.7730449  55.0692022  90.2216644  73.1820022  56.6317772
  91.2441013  72.9080944  55.2011343  89.6485216  69.5402294  52.4699884
  90.1788799  69.9891848  51.3497295  89.3019367  68.2781619  52.4280283
  88.9590396  68.0771857  53.3565375  89.2716718  67.2506395  51.4696908
  88.8191818  67.5937551  50.5393019  90.7519538  66.8244220  51.1794136
  90.8836772  66.0823660  50.3919486  91.1424169  67.7845732  50.8421476
  91.4979683  66.3844274  52.4142890  91.4871689  65.1808952  52.7018904
  92.2422723  67.2058631  52.9595761  88.5135685  65.9463977  51.9442884
  87.6836715  65.9767649  52.8789444  88.6577053  64.8222871  51.2261255
  89.3010709  64.8935493  50.4508180  87.8900320  63.5926413  51.3761220
  86.8204493  63.7909835  51.4450597  88.1579956  62.7408727  50.0952240
  89.2322060  62.9251410  50.1099355  87.9731128  61.6680943  50.1505856
  87.5695819  63.2887254  48.8113425  86.9367977  64.3552164  48.8745881
  87.4435163  62.5940430  47.7784684  88.1408532  62.8451397  52.6739891
  87.2009784  62.1924960  53.1704785  89.2313942  63.1606038  53.3730346
  89.7647528  63.9395264  53.0139976  89.7147635  62.4840620  54.5997955
  89.0792669  61.6392425  54.8653577  91.0651094  61.9840311  54.3153663
  91.5323925  62.8028218  53.7682580  91.7313985  61.6531021  55.1120124
  90.7997444  60.8348095  53.3713901  90.0124813  59.9213306  53.6668951
  91.5130557  60.6978039  52.3770514  89.7696926  63.4515664  55.8231131
  90.0670950  62.9841775  56.9586471  89.6058555  64.7869032  55.5721669
  89.3017967  65.1079705  54.6641122  89.9504422  65.7780577  56.5712499
  89.9604997  65.2944965  57.5480644  91.3473607  66.4390416  56.3261376
  91.2102859  66.6781428  55.2715569  91.6763773  67.3303116  56.8604462
  92.4383525  65.3622450  56.4480799  92.9840589  65.0418541  57.4671762
  92.9691381  65.0136962  55.3319225  93.6949029  64.3114178  55.3188729
  92.6583173  65.4434935  54.4724078  88.8437398  66.8177927  56.6148298
  88.6323203  67.5267668  55.6201130  88.3281237  67.0607157  57.8288753
  88.7536588  66.5270337  58.5733233  87.2811643  68.0072169  58.1716730
  87.0438172  68.6496001  57.3236698  86.0107692  67.2050371  58.5566263
  86.0448619  66.9624911  59.6187507  85.1022937  67.7677900  58.3419604
  85.8896729  65.8752182  57.8072782  85.6841171  65.8119997  56.3952845
  85.4157103  66.7210776  55.8571071  85.8251360  64.5854000  55.6919631
  85.8935377  64.6080524  54.6043470  85.8764062  63.3688800  56.3676260
  85.8802862  62.4167861  55.8369640  85.9243355  63.3909573  57.7835276
  85.9401038  62.4408801  58.3175733  85.9522612  64.6357583  58.5206196
  86.0203797  64.6236013  59.6084210  87.7068928  68.8686089  59.4065645
  88.0230555  68.2651589  60.4040209  87.6077546  70.2148452  59.3213568
  87.2233390  70.5064069  58.4340487  87.8989342  71.2256393  60.3042234
  88.6028064  70.9032792  61.0715219  88.5875915  72.3541423  59.4261743
  89.4691684  71.8122810  59.0836722  87.9943147  72.6628001  58.5654461
  89.0233267  73.5894856  60.2135457  88.1365367  74.0848263  60.6089468
  89.9595379  73.1961838  61.3834365  90.8468304  72.7011691  60.9887577
  90.2562514  74.0919944  61.9289503  89.4352038  72.5182588  62.0569288
  89.5695431  74.6518412  59.2989436  88.8008204  74.9477948  58.5850974
  89.8713312  75.5184134  59.8872274  90.4327765  74.2600915  58.7609294
  86.7281286  71.8816702  61.0155697  85.7805884  72.3652660  60.4068631
  86.8433779  71.9926861  62.3261673  87.6302236  71.5530913  62.7819410
  85.8557694  72.7449668  63.1760950  85.1822395  73.3070293  62.5291465
  85.2801655  72.0344338  63.7693254  86.5603540  73.7063788  64.1070025
  87.7859085  73.6068687  64.3541842  85.7040061  74.4923916  64.7422239
  84.7150059  74.4519389  64.5413719  86.1633140  75.4281893  65.7519684
  86.9763804  74.9618419  66.3083337  86.7151264  76.6823298  65.0260465
  85.9104421  77.1654258  64.4717888  87.1193279  77.3792814  65.7601990
  87.5040612  76.3851453  64.3351323  85.0805010  75.9283757  66.7548619
  83.8692718  75.7596410  66.4634472  85.4695005  76.3564857  67.9623180
  86.4310903  76.6342362  68.0975922  84.5772319  76.3704655  69.1153481
  83.5448201  76.5672204  68.8263626  84.6550625  74.9469782  69.7479516
  83.9171826  74.9325855  70.5500897  84.3530147  74.2518211  68.9646103
  86.0062415  74.5329074  70.2971682  86.0415147  73.4532003  70.4423895
  86.6588981  74.8091143  69.4690086  86.4834855  75.2441778  71.5906657
  85.8119057  75.0450911  72.6440507  87.5681968  75.9064983  71.6428645
  84.8015047  77.4236958  70.2168429  85.6193147  78.3135291  70.0314231
  83.9625399  77.4982356  71.2743262  83.2920695  76.7428763  71.2733142
  83.7398094  78.6229098  72.1851045  83.6793345  79.5404033  71.5997433
  82.4181520  78.4723535  73.0202444  81.6004806  78.1308483  72.3855106
  82.6411466  77.7096775  73.7663668  81.9630441  79.7893344  73.7649208
  81.6429891  80.7716906  73.1382891  81.8958872  79.6869721  75.0942721
  81.6128509  80.4845828  75.6454594  82.1284210  78.8123851  75.5427433
  84.9629669  79.1054880  73.0154616  84.9542370  80.2165828  73.5775907
  85.9730956  78.2555303  73.1129035  85.8314842  77.3529110  72.6824108
  87.1961060  78.4678065  73.9008485  87.0374996  79.3744583  74.4847370
  87.4370338  77.2983263  74.8662669  87.6065570  76.3848993  74.2961676
  88.3112978  77.5091348  75.4821586  86.5645167  77.1695886  75.5067664
  88.4137305  78.7620966  72.9712959  89.4663671  78.8971045  73.5490616
  88.1926158  78.9272202  71.6403626  87.3228131  78.5401326  71.3031599
  89.1671148  79.4750119  70.6338691  88.5871400  79.7436018  69.7509264
  89.9783729  80.6744970  71.0614925  90.8589845  80.3986275  71.6415947
  90.2889859  81.1970846  70.1567706  89.2212481  81.6545434  71.8791550
  88.0697130  82.2831089  71.3731171  87.7507804  82.0739082  70.3520309
  87.3253007  83.1821001  72.1782717  86.4249641  83.6453203  71.7746360
  87.7341484  83.4726490  73.4671464  87.2340581  84.2512039  74.0432209
  88.7859025  82.7671300  74.0245935  88.9842888  82.8573552  75.0925834
  89.5949242  81.9400331  73.2271089  90.5107255  81.5143996  73.6372845
  90.1008627  78.3777746  70.0864577  91.2294001  78.7232078  69.7005713
  89.6832734  77.1069178  70.0166568  88.8394191  76.8473230  70.5071870
  90.4646686  76.0434272  69.3585845  91.4930666  76.3554965  69.1766242
  90.4780641  74.8566515  70.3066841  89.4389949  74.5492998  70.4248757
  91.0362790  74.0643713  69.8078972  91.0806055  75.0808279  71.6903929
  92.2705469  74.8566865  71.8871491  90.3016279  75.4942014  72.5980785
  90.6573583  75.6563721  73.5293445  89.3279710  75.6599416  72.3868363
  89.9379317  75.6986985  67.9260307  88.7564746  75.5399190  67.6974214
  90.8277217  75.6363778  66.9200109  91.6265724  76.2447846  67.0285370
  90.7506333  74.7913154  65.7121823  89.7636485  74.8541182  65.2539074
  91.8212898  75.3167973  64.6780843  92.7709357  75.0627386  65.1489623
  91.6180843  74.6148611  63.8693241  91.8966602  76.7472765  64.1095084
  91.9863623  77.5055311  64.8873928  93.1955617  76.7139693  63.2701951
  93.1064279  75.9562166  62.4917578  93.3568687  77.6890701  62.8105655
  94.0399805  76.4731166  63.9159870  90.7690742  77.2019765  63.1459278
  89.8087993  77.1491929  63.6589439  90.9543472  78.2278003  62.8273988
  90.7506915  76.5488688  62.2734536  91.0407596  73.3338199  66.0418832
  92.1588770  73.0997312  66.5550195  90.3115730  72.3874514  65.4195749
  89.4863753  72.8225946  65.0325366  90.4315094  70.9348571  65.3368290
  91.4806295  70.6437998  65.3890965  89.6804270  70.2758806  66.5040458
  89.7091520  69.1879654  66.4430988  90.1400295  70.5992019  67.4380313
  88.2185954  70.6672643  66.5819762  87.3377773  69.7477546  65.8969344
  87.7916192  68.8637319  65.4490156  85.9288868  69.9578342  65.7926313
  85.2782033  69.3032470  65.2127801  85.3879075  71.0607708  66.4757274
  84.3107950  71.2252097  66.4459215  86.2313882  71.9634913  67.2047582
  85.7808902  72.8106408  67.7219521  87.6417219  71.7638567  67.2581907
  88.2692938  72.4562545  67.8192956  90.0553941  70.3416747  64.0463663
  89.0995812  70.6822408  63.3871415  90.7496888  69.2199310  63.6731116
  91.4061844  68.8150769  64.3251897  90.5106813  68.5308056  62.4232369
  89.5997254  68.8705897  61.9304841  91.6981394  68.6614943  61.4205506
  92.5469066  68.1373684  61.8598516  91.4123409  68.0932182  60.0336175
  90.5639267  68.6171985  59.5934595  92.2887573  68.2244197  59.3989671
  91.1798834  67.0315039  60.1162483  92.3216944  69.9775980  61.1311233
  92.7242309  70.3998596  62.0518630  93.1276793  69.8474128  60.4089462
  91.5715685  70.6530392  60.7197946  90.4264909  67.0612156  62.7698725
  91.3372134  66.5246072  63.3649001  89.3139999  66.4562486  62.3754912
  88.6593920  67.0468004  61.8827068  88.9288191  65.1115761  62.6633185
  89.6943170  64.6421741  63.2811970  87.5551947  65.0559821  63.4343524
  87.3013258  64.0467494  63.7585422  87.5324173  65.7289074  64.2915296
  86.1994827  65.5905560  62.3349972  85.2272797  65.4405075  63.2300979
  88.9275134  64.3702273  61.3127681  89.0652005  64.9731248  60.2352303
  88.9942624  63.0145771  61.3512284  88.9853168  62.4971555  62.2185773
  89.1687186  62.2779620  60.1118640  88.8224318  62.8537544  59.2535822
  90.6958804  62.0102876  59.9488045  91.1215258  62.9698845  59.6553783
  91.0454131  61.7485108  60.9475036  91.1256540  60.9580146  58.9794664
  91.0733172  60.1064993  59.6579083  90.3767870  60.8440006  58.1956928
  92.4811904  60.9820149  58.3458577  93.3399347  60.1460044  58.5673045
  92.7645853  62.0206173  57.6835938  93.6645073  62.0977080  57.2315995
  92.0897467  62.7684259  57.6095895  88.3261033  60.9852999  60.1156392
  88.2571823  60.3541189  61.1657313  87.7815965  60.5458050  58.9927637
  87.7505345  61.1344634  58.1726321  87.1344001  59.2696829  58.9373452
  86.6091519  59.0865573  59.8747238  86.1185361  59.2160106  57.7870411
  85.6554789  58.2296046  57.8131264  85.3641288  59.9764149  57.9889198
  86.7212611  59.4542692  56.4184600  87.1734067  60.4460682  56.4183169
  87.4942615  58.7031102  56.2561867  85.7039902  59.3691079  55.3208005
  85.0313375  58.5173388  55.4214331  85.1191388  60.2813680  55.2032002
  86.5937468  59.1730020  54.0936030  87.4256424  59.8700742  54.1943036
  86.9694940  58.1507920  54.1383227  85.9269812  59.3917442  52.8086079
  85.5791083  60.3390222  52.7667929  86.5855436  59.2414666  52.0577336
  85.1563586  58.7456321  52.7149120  88.3372534  58.2699628  58.8354747
  89.2265311  58.5008153  58.0896340  88.2788685  57.2121664  59.5839424
  87.4798311  57.0591955  60.1824727  89.3982015  56.3010666  59.6877920
  89.9001891  56.1973641  58.7258391  90.3730657  56.8488534  60.6783749
  90.3815651  57.8716610  60.3016897  89.9828226  56.8402555  61.6960862
  91.7905352  56.2954043  60.6743417  92.2155192  55.6433823  59.6847509
  92.4215987  56.3414515  61.7567093  88.8246555  54.8792085  60.0091741
  88.4584637  54.6663319  61.1610579  88.8247697  53.9975345  58.9776360
  88.9644919  54.3837935  58.0549329  88.2858007  52.6311633  59.0884341
  87.8600882  52.4535434  60.0760167  87.1902228  52.4880009  58.0574372
  86.3903656  53.1889941  58.2960505  87.5995946  52.7252076  57.0754760
  86.6712810  51.1615113  58.0473495  85.9782891  51.0940413  57.3864336
  89.3617659  51.5613019  59.2596928  89.1696962  50.3713815  59.0247641
  90.5742959  51.9717787  59.5934873  90.6131757  52.9747721  59.7057017
  91.7774423  51.2274467  59.7539483  92.0085074  50.6165959  58.8812689
  92.8895921  52.2534371  59.9386627  92.6769741  52.8668663  60.8142187
  93.8400731  51.7385395  60.0785429  92.9481108  52.8895916  59.0554967
  91.6567903  50.2546663  60.9388987  92.0379313  49.0536716  60.7852460
  91.0755644  50.6713837  62.0524462  90.9825682  51.6770493  62.0430768
  90.7518319  49.9540995  63.2915259  91.7240007  49.6922292  63.7091513
  90.0691198  51.0614850  64.2349084  89.0907413  51.3272993  63.8346354
  89.9524209  50.6599951  65.2415302  90.7004585  51.9493610  64.2693589
  90.0005473  48.6219110  63.1791231  89.4331782  48.2404779  62.1609143
  90.0284638  47.9269403  64.3391896  90.5109066  48.3147383  65.1372879
  89.4194040  46.5320861  64.4686692  89.0530411  46.2134051  63.4928005
  90.4560506  45.5022132  64.9668346  89.9866029  44.5228013  65.0588745
  91.5689066  45.4264602  63.9913947  92.0391726  46.4054609  63.8991602
  92.3058726  44.7009515  64.3358037  91.1814576  45.1171664  63.0206624
  90.9510263  45.9207541  66.2226485  91.5968873  45.2853186  66.5399585
  88.1589317  46.2790304  65.3645650  87.7039069  45.1947822  65.6748876
  87.5101144  47.3494998  65.7024961  88.0189562  48.2060873  65.5368543
  86.1561283  47.4380696  66.3608350  85.6162398  46.4911776  66.3569409
  86.3485891  47.8743132  67.7832152  85.3411791  48.0085587  68.1771739
  87.1284114  46.9730185  68.6991340  88.1361471  46.8386667  68.3060464
  87.1827156  47.4213420  69.6911805  86.6326718  46.0045330  68.7653055
  87.0015249  49.1777989  67.8113703  87.1236389  49.4549021  68.7223600
  85.2759607  48.4123983  65.5185153  85.7244128  49.5119742  65.1359233
  84.0149028  48.0960984  65.2876614  83.7334322  47.1488478  65.4964435
  83.0234835  49.0015768  64.6618774  83.3027319  49.2283534  63.6329498
  81.6636568  48.3041396  64.6564476  81.4997953  48.2412540  65.7322236
  80.8846714  48.9193711  64.2061455  81.6162704  46.8569530  64.0324856
  81.4157786  46.8330354  62.8188345  81.6091354  45.8190796  64.7231215
  82.9467167  50.3725829  65.3311331  82.9346123  51.3902648  64.6240306
  82.9247488  50.3954715  66.6290019  82.7335678  49.4734865  66.9943685
  82.9751359  51.5180512  67.5685449  82.0980631  52.1546991  67.4522604
  82.9949719  50.9691951  68.9964383  82.0102869  50.5289813  69.1536214
  83.7485818  50.1816851  68.9959795  83.3112580  52.0142127  70.1818324
  83.2926642  51.5385269  71.1623823  84.3373965  52.2782796  69.9260832
  82.4557995  53.2740914  70.2127920  82.8501384  54.2252781  70.9915382
  81.5127602  53.4192342  69.3991407  84.0944451  52.4781138  67.2320489
  83.8489538  53.7006033  67.0646375  85.3550328  52.0407751  67.2557012
  85.5332003  51.0942485  67.5597458  86.4671192  52.8535549  66.8898012
  86.4362293  53.7781335  67.4662552  87.8482269  52.1309517  67.1662778
  87.8203050  51.7071280  68.1701170  87.9696753  51.3296559  66.4373914
  89.0393285  53.1149837  67.0545869  89.3622180  53.0031077  66.0195376
  88.6552199  54.1234855  67.2078315  90.1986186  52.8807779  67.9651471
  90.6800402  53.8578729  68.6058232  90.6174118  51.7299497  67.9565553
  86.4461382  53.2322513  65.4439804  86.6742354  54.4274793  65.1216409
  86.1393068  52.2380945  64.5471790  85.9469831  51.2920213  64.8439221
  86.0716453  52.5496511  63.0905337  87.0569350  52.8261662  62.7152435
  85.5793311  51.2898434  62.3162507  84.8513170  50.8374581  62.9896320
  85.0640389  51.7015449  61.4484513  86.6173641  50.1860584  61.8406707
  87.5170743  50.6619366  61.4505910  86.8828003  49.5376178  62.6756380
  85.9616023  49.3530757  60.7366556  85.4421478  50.0203388  60.0488868
  86.7348609  48.8062294  60.1970912  84.9908136  48.3857537  61.2799412
  84.0052085  48.5198307  61.1047117  85.3852138  47.2614663  61.9164374
  86.5661794  46.8299150  62.1518533  87.3663266  47.3625626  61.8417711
  86.6928328  45.9585933  62.6466836  84.4102027  46.5607536  62.4533471
  83.4561385  46.8811907  62.3686030  84.6200786  45.7054914  62.9478948
  85.0904113  53.6962396  62.8258248  85.4219811  54.4651630  61.9342087
  84.0335178  53.8775862  63.6102250  83.7536148  53.0001433  64.0247698
  83.1095615  54.9468739  63.6173282  83.1721113  55.5096814  62.6859666
  81.6854270  54.3851203  63.7571378  81.0330458  55.0871822  63.2379008
  81.6853322  53.4314092  63.2293735  81.1752349  54.1767528  65.1897983
  80.2321560  53.6382534  65.2831873  81.9788493  53.5781491  65.6187267
  81.0695727  55.4901575  65.9751063  80.2829765  56.3482896  65.7056982
  81.7498672  55.5715838  67.0691621  81.7129350  56.4163663  67.6215025
  82.3158459  54.7901243  67.3676425  83.3628812  56.3005886  64.3385345
  82.6577573  57.2534646  64.0729829  84.3803114  56.4822750  65.1714132
  84.7355316  55.6735607  65.6612082  84.8899691  57.7805721  65.5360893
  84.1260849  58.4502173  65.9312545  85.8779338  57.4591390  66.6487832
  85.7863539  56.6075342  67.3229358  86.7781857  57.3482194  66.0443468
  86.0778531  58.6192593  67.4759216  85.0749450  59.4355830  67.9635546
  85.6863696  60.3777843  68.6831397  85.1193423  61.0986723  69.2721214
  87.0286956  60.2228565  68.5112518  87.7390785  60.7717513  68.9740374
  87.2641503  59.2512995  67.6521867  88.2675962  59.1102005  67.2505791
  85.4346852  58.6606917  64.3712517  85.9409468  58.1039600  63.3598724
  85.3922803  59.9802062  64.5530109  84.8373064  60.3698144  65.3015486
  86.1262415  60.8722840  63.7228855  86.3641394  60.4134155  62.7632274
  85.2271431  62.1268017  63.4679240  84.8073671  62.5386441  64.3856784
  85.9429224  62.8331622  63.0474304  84.1047926  61.8793788  62.4611131
  83.5292049  61.0030999  62.7593328  83.1911416  63.0996903  62.4269415
  83.7659603  63.9763401  62.1283326  82.3867657  62.9320403  61.7107197
  82.7666585  63.2642556  63.4173115  84.6334185  61.8104005  61.0357007
  85.3534594  60.9962068  60.9536691  83.8057634  61.6333757  60.3488598
  85.1201935  62.7521437  60.7821879  87.3578756  61.1926266  64.5597822
  87.3371321  62.0508785  65.4717342  88.5170190  60.6267669  64.2277908
  88.5218471  60.1114918  63.3591323  89.7933886  60.7053781  65.0164212
  89.5509561  60.5300041  66.0645479  90.8850876  59.6746944  64.5765788
  91.1629413  59.9025050  63.5475021  91.7510760  59.8097607  65.2245921
  90.4118489  58.2513761  64.6638278  89.4156045  58.3819783  64.2412866
  90.9807416  57.5581846  64.0441919  90.2752934  57.6599029  66.0516030
  90.4619991  58.2669062  67.1175551  90.1280680  56.3835903  66.2215908
  90.0386843  56.0085568  67.1551120  90.1034054  55.7699628  65.4197464
  90.4850948  62.1027662  64.8865629  90.6464899  62.6201880  63.7635846
  90.8677779  62.8409387  65.9503900  90.3025594  62.7725164  66.7846236
  91.8060436  63.9645858  65.8354438  91.3969835  64.6805140  65.1225512
  92.0555306  64.6742744  67.1413214  92.5735678  65.6128817  66.9444638
  91.1001708  64.8813543  67.6235096  92.9239884  63.7906874  68.0738288
  93.0895504  62.7662471  67.7403438  93.8671134  64.3366557  68.0507432
  92.3698976  63.7792719  69.5195975  91.2212340  63.4761550  69.7889323
  93.1798847  63.9183041  70.4409182  93.0533307  63.7177664  64.9756740
  93.7320226  62.7171104  65.2133075  93.3298057  64.6559169  64.0323203
  92.5174742  65.1738242  63.7290235  94.5477177  64.7742367  63.2582681
  95.4742247  64.3965693  63.6907623  94.3823626  64.1767399  61.8559549
  95.3625619  64.1269471  61.3817932  93.7420854  62.6996746  61.9212176
  92.7616027  62.7487311  62.3948715  93.6376704  62.3034178  60.9111788
  94.3932079  62.0461897  62.5018196  93.7421996  65.0736544  60.8852265
  94.3404060  65.9782810  60.7761304  93.6653380  64.5710425  59.9210827
  92.7450237  65.3383157  61.2369302  95.3040536  66.0854074  63.2497712
  96.5516105  65.9927572  63.0474479  94.6158455  67.2061500  63.3945703
  93.6111043  67.2834801  63.3266398  95.3878942  68.4181188  63.6745801
  96.3768906  68.1352937  64.0351287  95.4882655  68.9968109  62.7563534
  94.6919398  69.2906498  64.7460291  93.4839536  69.5548248  64.6367126
  95.3795117  69.7398485  65.8356600  96.3797897  69.6010924  65.8526886
  94.7527737  70.4801730  66.9585923  93.7147336  70.7283632  66.7372922
  94.7864000  69.5708245  68.1865380  95.8046621  69.3849489  68.5281400
  94.2641451  70.1852270  68.9199270  94.0511892  68.2358775  68.0224822
  94.5203124  67.6482436  67.2333620  94.1288285  67.4730276  69.3368571
  93.6594622  68.0598706  70.1264199  93.6095876  66.5200082  69.2356469
  95.1731295  67.2919924  69.5913410  92.5537765  68.4524256  67.8293029
  92.3854062  69.0543214  66.9362898  92.0583752  67.4881838  67.7156518
  92.1459355  68.9697433  68.6977193  95.5692748  71.7229717  67.2939419
  96.7980909  71.6289602  67.3469868  94.9590182  72.8471151  67.6184130
  93.9656393  72.7817468  67.7887797  95.5642795  74.1228122  67.6662640
  96.4374124  74.0783468  68.3172331  96.0174415  74.6047576  66.2596742
  96.6094631  73.8324678  65.7685753  95.1019974  74.7753306  65.6931347
  96.8088809  75.8637158  66.1795701  98.1508173  75.7370428  66.3045248
  98.5143962  74.7293435  66.5056527  99.0439234  76.7836160  66.1933488
 100.1172124  76.6575518  66.3356837  98.5206043  78.0493846  65.8837944
  99.1617109  78.9030433  65.6639102  97.1066454  78.1980307  65.8625650
  96.6643834  79.1912473  65.7849426  96.2800210  77.0655589  65.9415757
  95.2029262  77.1666531  65.8083592  94.6868788  75.1923320  68.2946615
  93.5785931  75.5824038  67.8892777  95.2328531  75.7857222  69.3389172
  96.0959098  75.4156296  69.7107557  94.5749790  76.8850792  70.0642364
  93.4912234  76.8199612  69.9676305  94.9465801  76.7706945  71.5661357
  95.2451095  75.8246311  72.0177367  95.8300307  77.3857620  71.3949430
  94.1043131  77.4981778  72.5986392  94.3479734  77.6413916  73.9892364
  93.2268613  78.1046529  74.5092389  93.2487191  78.4191227  75.5526611
  92.2033721  78.0992568  73.5890332  91.2220764  78.2967256  73.7238094
  92.7571278  77.7740820  72.4402103  92.1548776  77.7513447  71.5319819
  94.8773925  78.2905657  69.4876717  95.8966228  78.9844055  69.7645920
  93.9709897  78.7200750  68.5747508  93.2147028  78.0690563  68.4188527
  94.0254171  79.8973804  67.7727859  94.9489466  79.9806957  67.1998539
  92.8860113  79.7321202  66.8204579  93.1718214  78.7993710  66.3342576
  91.9354052  79.5960190  67.3361366  92.7401882  80.8424223  65.7576381
  92.5704607  81.7785937  66.2894994  93.9880047  80.9927361  64.8213574
  94.1580961  80.0570419  64.2887747  93.8091626  81.7921534  64.1022967
  94.8658315  81.2337023  65.4209037  91.4404511  80.6447721  64.9931259
  90.6000973  80.6924647  65.6856794  91.3370046  81.4284283  64.2426040
  91.4513737  79.6715611  64.5023715  93.9951643  81.1733608  68.6148640
  94.5503226  82.2017731  68.2179353  93.2571003  81.1786884  69.7376441
  92.7724662  80.3481143  70.0464736  93.1347210  82.4070333  70.5542948
  92.6511662  82.1579228  71.4988676  94.1311331  82.8031301  70.7501765
  92.2986943  83.4851119  69.8307544  92.4896354  84.7024747  69.9712869
  91.3039616  83.0349234  69.0468085  91.3111097  82.0523781  68.8130286
  90.2861191  83.8673323  68.4634587  89.9450412  84.6299259  69.1636130
  90.9095594  84.5585933  67.2556684  91.7331457  85.1416701  67.6677684
  91.3085038  83.7453364  66.6494040  90.0276287  85.4651358  66.3804107
  90.6758818  85.9885415  65.6776197  89.2791737  84.8960945  65.8289522
  89.3296415  86.4828371  67.2850321  89.9436856  87.1101620  68.1859179
  88.0896022  86.6324433  67.1166258  89.0539532  83.0207461  68.1168174
  89.0796642  81.8211349  67.7901082  87.9055949  83.6547215  68.1106182
  87.9530885  84.6456072  68.3003261  86.5802948  83.0420371  67.9289191
  86.6006777  82.0149630  68.2933400  85.4704544  83.8403485  68.7276068
  85.7540337  84.1023203  69.7469462  85.3588932  84.7496465  68.1369874
  84.1231849  83.2173415  68.8077776  83.1152223  83.5291907  67.7768409
  83.2957174  84.2048735  66.9407941  81.8584448  82.8969224  67.9161000
  81.1441800  83.1271098  67.1255683  81.5084022  82.0655690  68.9215196
  80.5094580  81.6320086  68.9688037  82.4519923  81.7626126  69.9138286
  82.1652291  81.1972715  70.8005397  83.8002582  82.2029771  69.7532918
  84.5931961  81.7620471  70.3573863  86.2033815  82.9416642  66.4370684
  85.5125293  83.8488278  65.8933429  86.6678310  81.8650667  65.8301001
  87.3362433  81.2628407  66.2890644  86.2629171  81.5362403  64.4095161
  86.7955556  82.2124996  63.7408840  86.6566033  80.1172242  64.0746362
  86.1504046  79.4579487  64.7797730  86.2751169  79.7014171  62.5980924
  86.7813389  80.3599995  61.8923237  86.5838355  78.6715331  62.4188373
  85.1967389  79.7855847  62.4634881  88.1701504  79.9638759  64.1637557
  88.5007530  80.1990819  65.1754286  88.4468402  78.9379174  63.9209561
  88.6469923  80.6447907  63.4587183  84.7410421  81.7338876  64.1724465
  83.9995527  81.1555956  64.9600649  84.2680091  82.3476566  63.0914722
  84.9605981  82.6246511  62.4105215  82.8525663  82.5859958  62.7813865
  82.2206960  82.2384721  63.5987398  82.6221061  84.0939605  62.5891768
  83.5571595  84.6030210  62.8229110  82.4011347  84.2101547  61.5281535
  81.5132863  84.7338424  63.3850273  80.7203227  84.1398032  64.0906187
  81.4460639  86.0650347  63.3146204  80.7269175  86.5589211  63.8235451
  82.1146524  86.5723640  62.7527420  82.4049617  81.9662548  61.4918757
  81.2009075  81.8803290  61.2395661  83.4059753  81.6177236  60.6549326
  84.3680224  81.7296134  60.9413679  83.1290792  81.3513069  59.2432068
  82.5118411  80.4627829  59.1103858  82.5441867  82.4924899  58.3803631
  81.5615692  82.7797710  58.7545711  83.4868515  83.6836310  58.4650671
  84.4696188  83.3972313  58.0905745  83.0935244  84.5024752  57.8626650
  83.5737494  84.0057977  59.5027371  82.1394427  82.2270241  56.9481427
  81.3673687  81.4579601  56.9248096  81.7519444  83.1437482  56.5036637
  83.0067828  81.8876884  56.3818623  84.4205012  80.6196282  58.6449891
  85.5478236  81.1328963  58.9163446  84.2527656  79.7187175  57.6981529
  83.3241960  79.3907913  57.4738269  85.4196418  79.1974238  56.8749476
  86.3610577  79.6718311  57.1520271  85.5126464  77.7353533  57.1808968
  84.4779554  77.3931501  57.2011628  86.0642682  77.1782654  56.4236211
  86.1123502  77.3676726  58.5060045  87.3620005  77.8895308  58.7713499
  87.7662145  78.6056672  58.0559064  88.1176911  77.5292954  59.9211674
  89.1167414  77.9427457  60.0592178  87.5913347  76.6580124  60.8635149
  88.1208534  76.3735139  61.7727841  86.2824844  76.1234709  60.5960482
  85.8376166  75.4337054  61.3132764  85.5774907  76.4781398  59.4298956
  84.5924159  76.0528151  59.2379932  85.0312065  79.4073767  55.3779808
  83.8526357  79.2694873  55.0476303  86.0074020  79.4559520  54.4805112
  86.9380822  79.2447099  54.8111323  85.8511795  79.8934024  53.1261875
  84.9559253  79.4483130  52.6920048  85.7134709  81.4122699  53.0771987
  84.8037518  81.6917230  53.6086273  86.5759603  81.8514310  53.5785465
  85.6168445  82.1883701  51.5049539  85.5127988  83.4303783  51.9691614
  86.9876306  79.3497309  52.3340876  88.1065340  79.7959727  52.5297955
  86.7849622  78.3253640  51.4984371  85.9071234  77.8283460  51.5481514
  87.7573672  77.9055769  50.5084673  88.7217669  77.8113138  51.0076134
  87.4270422  76.5662598  49.8170080  86.4184940  76.4386343  49.4237631
  88.1383854  76.5875132  48.9913937  87.7257554  75.3710362  50.5936829
  88.7263500  74.4149931  50.2823853  88.5069384  73.4337664  51.1357935
  89.1582322  72.5632090  51.0580417  87.4928175  73.6987236  51.9646996
  87.1830210  73.1135626  52.7274005  86.9306360  74.9014461  51.6166239
  86.0447627  75.2608359  52.1402350  87.8645054  78.9542858  49.3513242
  86.8407147  79.3020020  48.7343356  89.1373697  79.3600435  49.1713206
  89.9223258  78.9174912  49.6274901  89.3964711  80.4729464  48.2911708
  89.2186745  80.1287422  47.2723426  88.6804297  81.2563044  48.5396344
  90.7887337  81.0356376  48.3818439  91.3690192  80.9293924  49.4602607
  91.3209585  81.5418654  47.2757761  90.8276605  81.3887429  46.4078418
  92.6913323  82.0652938  47.2145601  93.0975108  82.1621151  48.2214085
  93.5913868  81.1083727  46.4106937  93.6111824  80.1219209  46.8739647
  93.2355249  81.0200605  45.3842127  94.9124812  81.6627231  46.4117704
  95.5010460  81.0880256  45.9168824  92.7722876  83.5634713  46.8311239
  92.0157826  84.0208398  45.9581340  93.7211594  84.3371932  47.4606808
  94.1741011  83.9229999  48.2627949  94.0745747  85.7041282  47.0965558
  93.2262584  86.2272939  46.6552439  94.4884098  86.4386761  48.3912646
  95.3458456  85.8500635  48.7175136  94.7950517  87.4737564  48.2406677
  93.4123530  86.3823561  49.4424182  93.2448548  85.3333842  49.6867602
  93.7683792  87.1426551  50.7016162  93.9355826  88.1918723  50.4581307
  92.9512132  87.0623164  51.4184747  94.6751291  86.7221468  51.1364469
  91.9551225  86.7597974  49.1028974  91.5813332  86.0999561  48.3199603
  91.3350495  86.6541363  49.9930921  91.9181977  87.7922865  48.7554758
  95.1806033  85.8502688  46.0550431  95.1930335  86.8764356  45.4091947
  95.9518895  84.7875252  45.8919367  95.7731117  84.0310112  46.5367811
  97.0998062  84.6484668  44.9303235  97.6553995  85.5859563  44.9073296
  98.0982519  83.4752502  45.3297607  97.5240914  82.5598495  45.4728715
  99.1626034  83.2504191  44.2210389  99.7375105  84.1653120  44.0776733
  99.8326594  82.4436613  44.5181370  98.6656046  82.9842865  43.2881577
  98.8668961  83.7292416  46.6246388  98.1629719  83.8471679  47.4484629
  99.5256344  82.8850357  46.8283047  99.4614976  84.6370747  46.5227119
  96.4677252  84.4752449  43.5671097  95.5172482  83.6502793  43.4221439
  96.9828364  85.1470532  42.5011200  97.6770802  85.8529964  42.7005415
  96.6355128  84.8788947  41.0735534  95.6001559  85.1149203  40.8277337
  97.5827409  85.8752687  40.2857542  97.2322017  86.8785536  40.5279131
  98.5813232  85.7304829  40.6980292  97.6276035  85.7101868  38.8158769
  98.2401578  86.5475779  38.4817296  98.1787476  84.7798978  38.6783829
  96.0938266  85.6528525  37.8215433  95.8494353  87.4612158  37.9563314
  96.7057433  87.9774479  37.5223497  94.9440092  87.7469184  37.4209080
  95.7527619  87.7380594  39.0061471  96.9291314  83.4569826  40.5919352
  97.9264803  82.8060699  40.9538440  96.0697635  82.9124448  39.7085580
  95.2911017  83.4645588  39.3784746  96.0966219  81.4718103  39.3795126
  96.5369384  80.9097900  40.2031350  94.6853994  80.9629284  39.1445652
  94.7537016  79.8789786  39.2366900  94.0970062  81.3609549  39.9712866
  93.9814999  81.3348649  37.7649679  92.9131381  81.4313252  37.9583572
  94.3597294  82.2667628  37.3447171  94.1964841  80.2048326  36.7332917
  95.1112423  79.4423398  36.7372010  93.3176867  80.1692795  35.7889231
  93.3812808  79.4622816  35.0704447  92.5704661  80.8486188  35.7727684
  97.0662396  81.1222340  38.3143586  97.0818626  81.8200083  37.3140526
  97.9155365  80.1478388  38.6086162  97.8060419  79.6075079  39.4548743
  99.1472380  79.9805483  37.8318058  99.0316465  80.4565891  36.8580897
 100.3270964  80.6110940  38.5417601  99.9815671  81.5183470  39.0373413
 100.6631700  79.8940537  39.2907647 101.5143431  80.9681694  37.6372114
 101.4782593  81.1796373  36.4266639 102.5921746  81.0589502  38.2208234
 103.4265245  81.2906518  37.7009442 102.6381975  80.9013996  39.2173977
  99.3770005  78.5264975  37.3873831  99.2269691  77.5519873  38.0930101
  99.7901280  78.3205186  36.1001514  99.6795414  79.1105261  35.4806694
 100.2375701  77.0483390  35.5296992  99.6148942  76.2710971  35.9727217
 100.1699901  76.9139858  33.9565145  99.2710575  77.2995323  33.4755016
 101.0379147  77.4703789  33.6026307 100.3426775  75.3927177  33.6008963
 100.1187022  74.8015548  34.4888504  99.4051683  74.9752886  32.4586248
  99.6288680  75.5657376  31.5701276  99.5496536  73.9178081  32.2373560
  98.3705570  75.1455927  32.7564104 101.7341947  75.1296363  32.9838265
 102.5080601  75.4140626  33.6968016 101.8321317  74.0705633  32.7453438
 101.8456545  75.7183873  32.0733058 101.6696585  76.6146397  35.9842195
 101.8856644  75.4251197  36.3488532 102.5947601  77.5435876  36.0982535
 102.3813199  78.5005151  35.8556995 103.9241196  77.2369221  36.5651900
 104.3492607  76.4823432  35.9034009 104.5209049  78.1472498  36.5081794
 103.9525085  76.7156185  37.9922407 103.1109391  77.0513479  38.8161191
 104.9217886  75.8803385  38.2961939 105.4809115  75.6106685  37.4994763
 105.2481447  75.2904169  39.6151329 104.3783532  74.7875660  40.0378658
 106.3524395  74.2735723  39.4316415 107.0760686  74.7811294  38.7937969
 106.7707116  74.1540610  40.4310741 106.0246241  72.8610058  38.8294977
 106.9069674  72.2212390  38.8459130 105.2553619  72.4347323  39.4734121
 105.4874742  72.9613587  37.3815494 106.1870069  73.5878065  36.5713333
 104.4306275  72.3835312  37.0520539 105.6952825  76.3614137  40.6770607
 106.7585516  76.9862496  40.5071377 104.9356342  76.6032087  41.6950016
 104.0056720  76.2218209  41.5959412 105.2317338  77.4172269  42.8812817
 105.4881649  78.4099754  42.5114266 104.0417415  77.5406767  43.8192515
 103.1515558  77.4899249  43.1922794 103.9491618  76.4575080  44.9444326
 104.8388475  76.5079608  45.5721376 103.0642534  76.6407106  45.5539185
 103.8797964  75.4681559  44.4922474 104.1720368  78.7613516  44.4991736
 103.4336776  78.8718739  45.1026724 106.4705443  76.8468053  43.6073930
 106.9786541  75.7614700  43.3073750 107.0502997  77.5865918  44.5561293
 106.6786627  78.5167272  44.6858726 108.1637603  77.1826932  45.3593862
 108.4732720  76.1752169  45.0813696 109.3389326  78.1261313  45.1543015
 109.0412008  79.1438675  45.4066266 110.1692841  77.8224210  45.7917781
 109.7334547  78.0764131  43.8281928 110.4754262  78.6702946  43.6926094
 107.9034980  77.1067937  46.8566483 108.6250695  76.3685867  47.5877529
 106.7672582  77.5951221  47.3034061 106.2673000  78.2617483  46.7326604
 106.3272778  77.3990550  48.6962165 107.2264412  77.5572601  49.2916790
 105.2576187  78.3564280  49.1723878 105.6514300  79.3667439  49.0615963
 103.8939776  78.2309540  48.3747260 103.4992945  77.2209700  48.4854386
 103.1738640  78.9472755  48.7702244 104.0695382  78.4381917  47.3191070
 104.8450026  78.1505514  50.4640599 104.1693606  78.7938412  50.6905249
 105.9873803  75.9132795  49.0499861 105.2929653  75.3214153  48.2269724
 106.2401757  75.3562926  50.2921194 107.0190345  75.9063362  51.4188851
 106.5628492  76.8378969  51.7538326 108.0409333  76.0995681  51.0925675
 106.9437827  74.8145406  52.4627992 106.0777560  74.9540654  53.1098152
 107.8496412  74.7932259  53.0686602 106.8150449  73.5265741  51.6170718
 106.5057406  72.5925919  52.0862274 107.7710262  73.3807757  51.1141381
 105.7685834  73.9717764  50.6180852 105.9292208  73.4255495  49.6886068
 104.3356195  73.7143306  51.1232683 103.9645506  72.8019037  51.8562288
 103.4242589  74.5765997  50.6033453 103.7230220  75.1333397  49.8153856
 102.0197465  74.7652138  51.1208573 101.6186699  74.0311662  51.8197213
 101.8879110  76.1575064  51.7444258 100.8199445  76.3369942  51.8682488
 102.6024091  76.3561291  53.0966756 103.6705571  76.1772529  52.9735377
 102.4432758  77.3763407  53.4458805 102.1990919  75.6553696  53.8276831
 102.2070287  77.2028603  50.7849780 102.1153942  78.0613242  51.2047913
 101.0221944  74.6040978  49.8996905 101.3678169  74.9096170  48.7603871
  99.7809949  74.1107309  50.1615412  99.5771554  74.0341730  51.1477906
  98.7560237  73.6513698  49.1944356  98.7735062  74.2521369  48.2851103
  99.0861786  72.1893138  48.8260542 100.1456512  72.2380422  48.5745734
  98.9622118  71.6682458  49.7753805  98.3293828  71.4264488  47.7182171
  97.9147223  72.0992076  46.9675153  99.0757764  70.7813893  47.2546475
  97.2023396  70.5530188  48.2668734  96.8552385  70.5548524  49.4473239
  96.5152416  69.8195628  47.3909141  95.7621226  69.2284638  47.7126520
  96.7509708  69.8583670  46.4095745  97.3984173  73.7941387  49.8187841
  97.1210561  73.5171998  50.9738536  96.4413891  74.2147122  48.9305455
  96.6204840  74.2580033  47.9374945  95.1341381  74.6110456  49.4101378
  94.4395727  74.6062314  48.5701051  94.8045934  73.8893062  50.1575278
  95.1472224  76.0095721  50.0387437  96.2066760  76.5838404  50.4195378
  93.9644527  76.6021266  50.1647759  93.2297280  76.0544985  49.7400615
  93.6081922  77.9417334  50.7502441  94.2696692  78.1592172  51.5888431
  93.7531544  79.0487981  49.7169273  94.7399279  78.9586943  49.2627704
  92.9880943  78.9006348  48.9548048  93.6092198  80.3525987  50.2898819
  93.7078885  81.0164370  49.6034542  92.1750186  77.7880723  51.3073184
  91.1994420  77.6361748  50.5524327  92.1105830  77.7957234  52.6727617
  92.9026697  77.3746361  53.1368560  90.8497428  78.1052901  53.5110818
  90.1130525  78.5247081  52.8258992  90.1819238  76.9620240  54.3172990
  90.7923441  76.7548507  55.1962561  88.7737093  77.3424555  54.7557516
  88.1625251  77.5493399  53.8772565  88.3331206  76.5195849  55.3186602
  88.8163089  78.2310744  55.3855478  90.1148345  75.6805632  53.5125367
  91.1232644  75.3677243  53.2417916  89.6408684  74.9008571  54.1087868
  89.5320247  75.8496329  52.6070815  91.0445044  79.4067298  54.3377218
  91.7637926  79.3893831  55.3060779  90.5183430  80.5561470  53.8334695
  90.3114985  80.5817037  52.8452077  90.4022952  81.8326469  54.6192010
  91.3303522  82.0211064  55.1589162  90.1448089  82.9623407  53.7216121
  89.1123789  82.8889054  53.3798596  90.2720990  83.8791543  54.2972422
  91.1193445  82.9866774  52.4633728  91.4702014  81.9657098  52.3129553
  90.4757472  83.4986918  51.1754424  90.1250348  84.5198416  51.3249508
  91.2099651  83.4815040  50.3700049  89.6325120  82.8604674  50.9113889
  92.2772410  83.9108842  52.8247489  92.7903369  83.5241269  53.7052321
  92.9766045  83.9613523  51.9902162  91.8935965  84.9087147  53.0374697
  89.4124601  81.5774307  55.6992700  88.3495700  81.0992624  55.3937023
  89.6393498  81.9750992  56.9491492  90.5935229  82.2807337  57.0765876
  88.7800658  81.8979587  58.1158580  87.7872430  81.5510590  57.8293921
  89.3446900  80.9538069  59.0847108  88.6837188  80.6455076  59.8947527
  89.5079047  80.1135327  58.4098774  90.7079900  81.2750678  59.7263200
  90.8116711  82.0024615  60.9120597  89.9518893  82.5414412  61.3100246
  92.0357099  82.0360837  61.5925445  92.1080245  82.6713091  62.4753581
  93.1444001  81.2891509  61.1744890  94.0578437  81.2113344  61.7641206
  93.0444455  80.6147481  59.9233652  93.9266306  80.1164568  59.5214255
  91.8312443  80.5850699  59.2077096  91.7659577  80.0362234  58.2682389
  88.4734564  83.2676675  58.7191768  89.3925093  84.0810012  58.8626516
  87.1691181  83.5749642  58.9587525  86.4544588  82.8665298  58.8722537
  86.7659964  84.9163378  59.3423521  87.5869863  85.6176508  59.1932384
  85.9042539  85.2367440  58.7568275  86.4040277  84.9047807  60.7481327
  85.9074134  83.9098346  61.2302588  86.7294852  86.0367384  61.3637740
  87.1335398  86.8261884  60.8804439  86.6375776  86.0897455  62.8202345
  85.9348971  85.3524945  63.2085646  87.9648766  85.9016155  63.5118221
  87.7465092  85.6841163  64.5573412  88.8482204  84.7771756  62.9257268
  89.0674064  84.9942274  61.8802864  89.7806555  84.7170617  63.4870201
  88.3205353  83.8260049  62.9958919  88.7351237  87.0568376  63.5629114
  89.5622521  86.8702857  64.0130862  85.9391565  87.3616754  63.3770677
  85.7848025  88.3844378  62.6632379  85.5076442  87.2896573  64.6752836
  85.4921903  86.4244546  65.1961337  84.8775981  88.4813135  65.2784739
  84.1261366  88.9999708  64.6831592  84.2198167  87.9869514  66.5780275
  84.9735992  87.4001330  67.1029612  83.6855674  89.1025094  67.5178051
  82.9313536  89.6895031  66.9936860  83.2414681  88.6496964  68.4042794
  84.5084745  89.7522140  67.8158144  83.1091927  86.9818872  66.3038662
  83.5203883  86.1192556  65.7795696  82.6707182  86.6576998  67.2476576
  82.3403505  87.4482527  65.6878421  85.7230304  89.7249109  65.4767128
  85.2555336  90.8513429  65.3479737  87.0548959  89.6194862  65.8037568
  87.4938327  88.7162234  65.9112287  87.8403242  90.8266726  66.1462655
  87.2088581  91.6177948  66.5505865  88.8706651  90.3912723  67.2522711
  89.2701802  89.4433356  66.8918506  89.6858244  91.1035868  67.3796416
  88.2280426  90.1644124  68.5719926  87.3883371  90.9932416  68.9402668
  88.5530241  89.2156231  69.4157579  88.0610229  89.1348593  70.2941153
  89.2939471  88.5696527  69.1836886  88.4334750  91.4325826  64.8973079
  89.4108845  92.1991701  64.9602638  88.0535070  91.1052226  63.6283304
  87.3264204  90.4059341  63.5789350  88.5774397  91.6484983  62.3784860
  87.7621542  91.5974925  61.6568163  88.8216952  92.6921074  62.5767749
  89.7708519  90.9727378  61.8080570  90.0618114  91.3272640  60.6779337
  90.3797746  90.0541543  62.5257627  90.1815120  89.9526538  63.5108967
  91.4271389  89.2844515  61.9701949  92.0779698  89.9088926  61.3581560
  92.2736089  88.6669122  63.1295946  92.7811220  89.4564872  63.6837617
  91.6285743  88.1059873  63.8059034  93.3074291  87.7295651  62.5208016
  93.5723539  88.1351160  61.5443569  94.1816040  87.7502224  63.1715655
  92.7538863  86.0214255  62.3240188  93.0308019  85.2476421  63.8913175
  92.4559067  85.7652023  64.6592537  92.7159084  84.2052303  63.8431485
  94.0913948  85.2952256  64.1382585  90.8290451  88.2734175  60.9794764
  89.7678369  87.7122041  61.1904352  91.5980624  88.0353905  59.9057052
  92.4840720  88.5163956  59.8447107  91.2889508  87.0351681  58.9037420
  90.5110859  86.3366957  59.2122251  90.9190180  87.6438851  57.5826098
  91.7773147  88.2559487  57.3054721  90.5547169  86.6764906  56.3877698
  89.6961594  86.0643852  56.6640063  90.3107818  87.2658280  55.5038706
  91.4055196  86.0309023  56.1699400  89.7864010  88.6911014  57.7323756
  89.0584207  88.2214494  58.3938682  90.2516425  89.5333377  58.2445161
  89.0701791  89.1966383  56.4508248  88.6042701  88.3549707  55.9383559
  88.3052751  89.9234762  56.7241884  89.7974929  89.6668573  55.7890025
  92.6031053  86.3434789  58.6807803  93.5898318  86.9907831  58.2941745
  92.6214088  85.0544732  58.9279306  91.7811253  84.6805488  59.3453076
  93.7623692  84.1091769  58.6482391  94.6094892  84.7436688  58.3876498
  93.9631010  83.6064580  59.5943257  93.5723668  83.0441703  57.5427627
  92.6629230  83.1531605  56.7685618  94.5182973  82.1445856  57.4011862
  95.2331287  82.1946783  58.1129490  94.6519718  81.1474075  56.3659781
  93.7133057  80.9824922  55.8370091  95.6970884  81.7035478  55.3606860
  95.4148697  82.6991503  55.0183009  96.5748779  81.7759850  56.0028218
  96.0197402  80.8241752  54.1559538  96.2022865  79.7966507  54.4705505
  94.8139853  80.8637005  53.2283797  94.6310854  81.8909124  52.9129719
  95.0081403  80.2443896  52.3526750  93.9378562  80.4841508  53.7541556
  97.0822505  81.3943116  53.3777730  97.9762611  81.4859635  53.9945748
  97.2945697  80.7500055  52.5246075  96.7840690  82.3806133  53.0222512
  95.0891052  79.7962408  56.8463311  96.0311473  79.7305512  57.6808679
  94.4397105  78.7410431  56.4161854  93.5626913  78.9295194  55.9520589
  94.8386536  77.3371157  56.6113599  95.6706821  77.3191803  57.3152819
  93.6596399  76.5359606  57.2179851  92.7961161  76.5079592  56.5534237
  94.2456831  75.0593283  57.3918626  95.1090150  75.0864572  58.0567107
  93.4796048  74.4116990  57.8182437  94.5487017  74.6712822  56.4193907
  93.1933135  77.0212573  58.6083159  92.8655659  78.0586049  58.5405402
  92.3653728  76.4008549  58.9514118  94.0194705  76.9472542  59.3154855
  95.3193249  76.7209398  55.2657045  94.5517779  76.9103428  54.3410374
  96.4780922  76.1214751  55.1602182  97.1290575  76.3594073  55.8948825
  96.9392525  75.2308218  54.0787018  96.0772510  75.0595530  53.4339385
  98.0911372  75.8510191  53.2194894  98.1853957  75.2455087  52.3180612
  97.8526457  77.3097224  52.8303461  97.7587411  77.9159686  53.7313162
  98.6927720  77.6699276  52.2365959  96.9361009  77.3850193  52.2452166
  99.2386235  75.8183581  54.0459168  99.9858888  76.1889386  53.5706641
  97.3903426  73.8571446  54.6209377  97.6445586  73.6794364  55.7850030
  97.4946122  72.8663820  53.7047093  96.8378105  72.8544951  52.9375265
  98.4090220  71.7254145  53.8570798  98.2868066  71.2066248  54.8078794
  97.9935027  70.7489819  52.6941773  96.9110905  70.6376684  52.7581479
  98.2520202  71.2525868  51.7626995  98.5910414  69.4930067  52.7232436
  98.2779453  68.9724205  51.9798993  99.9059028  72.0609543  53.9207112
 100.2729546  73.0892975  53.3982840 100.7675075  71.1709241  54.4234972
 100.3941895  70.3727697  54.9171392 102.2353581  71.3942986  54.4542320
 102.5556216  72.0996919  53.6874526 102.5607712  72.0186350  55.8915032
 102.0748490  72.9912701  55.9687031 102.1500712  71.3470198  56.6453987
 104.0824690  72.1828597  56.1213882 104.5228161  71.1859645  56.1015097
 104.7785929  73.0738001  55.0694159 104.3390657  74.0710615  55.0890219
 105.8424643  73.1416592  55.2967344 104.6462709  72.6383997  54.0789525
 104.3791172  72.8268049  57.4592759 103.9761882  72.2057681  58.2593139
 105.4574019  72.9253642  57.5845335 103.9176166  73.8135064  57.4984721
 102.9737911  70.1300811  54.0489461 102.6234121  69.0684290  54.5569672
 104.0121158  70.2458434  53.1461971 104.2440704  71.1473354  52.7542679
 104.8176182  69.0902056  52.7519178 104.2210736  68.4245091  52.1281535
 106.0437345  69.5264162  51.9634413 105.7353288  69.9487289  51.0070746
 106.5978112  70.2755265  52.5290674 106.8540355  68.4223182  51.7413294
 107.6302995  68.6899823  51.2439663 105.3166423  68.3367901  54.0579905
 106.0154773  68.8466332  54.8690458 105.0639085  67.0323956  53.9584595
 104.3473849  66.7116263  53.3230066 105.6794895  66.0487294  54.8752354
 105.4233443  66.2872520  55.9075124 105.1760212  64.6807693  54.5634247
 104.0891039  64.6778005  54.6452852 105.4638098  64.4228197  53.5442388
 105.7755171  63.6322231  55.5547448 106.8319588  63.5745064  55.2926370
 105.6707048  64.0820995  56.5420263 105.1690832  62.2068967  55.5701606
 105.4737726  61.3428055  56.4021586 104.3369737  61.9054574  54.7047017
 107.2612718  66.1980354  54.8699922 107.9058489  66.1433785  55.9119364
 107.8126340  66.4527292  53.6669790 107.2121344  66.3546157  52.8608318
 109.2874047  66.6952008  53.4370811 109.8548735  65.9627973  54.0112444
 109.6894205  66.5746126  51.9465665 109.5834043  67.5627281  51.4988081
 110.7360642  66.2719833  51.9141245 108.9122305  65.6496272  51.2288410
 109.2095776  65.6215964  50.3164821 109.7033938  68.0425220  54.1050539
 110.8911465  68.2837385  54.1440280 108.8652944  68.8997820  54.6549709
 107.8826235  68.6666576  54.6654746 109.3276947  70.2184844  55.3816034
 110.4135719  70.2531731  55.4697325 108.8507055  71.4554498  54.5174854
 107.8953333  71.4561512  53.9927352 108.8591747  72.2563810  55.2567670
 109.9061143  71.8010314  53.4939422 109.7238049  72.0038095  52.1432785
 108.7178982  71.8201607  51.7657541 110.9195108  72.4181483  51.5271935
 111.0509346  72.5219124  50.5311713 111.9026673  72.6068029  52.4975449
 113.2887940  73.0211348  52.4349768 113.6138578  73.4154794  51.4722076
 114.1061981  72.9087918  53.5359902 115.1752231  73.1192748  53.5046480
 113.5167367  72.4967088  54.7718530 114.1320299  72.4270707  55.6688838
 112.1757386  72.1774280  54.8781781 111.9067548  71.7242967  55.8323376
 111.2667486  72.2275720  53.7379309 108.6417069  70.3740091  56.7354202
 109.2400531  70.9996840  57.6057797 107.5278412  69.6829699  57.0099908
 107.1718896  69.1150937  56.2544020 106.7923922  69.6980174  58.2694373
 106.4579774  70.7115677  58.4907552 105.5503935  68.7749716  58.1805910
 105.0704267  69.1843389  57.2916874 105.8459467  67.7431324  57.9907062
 104.5548802  68.8170903  59.3718929 103.4925188  69.7610112  59.3411117
 103.3010173  70.3230458  58.4270309 102.6995908  69.9704233  60.4660050
 101.8753428  70.6832052  60.4916773 102.9322615  69.0969311  61.5887381
 102.1940344  69.2623443  62.7356750 101.5615459  69.9819085  62.6741502
 103.9593264  68.1327184  61.6444671 104.1276322  67.4749771  62.4971980
 104.7977074  68.0460248  60.5076495 105.6508098  67.3675629  60.5100814
 107.6283130  69.2422276  59.4684327 107.7912054  69.9778712  60.4283961
 108.2463520  68.0574883  59.4097597 107.9282266  67.4212334  58.6927692
 109.0917145  67.5069306  60.5300411 108.5750274  67.6817582  61.4737407
 109.3673753  65.9711291  60.3871746 109.9680726  65.7462665  59.5058695
 109.9463012  65.7561413  61.2853534 108.1243711  65.0693473  60.3769721
 107.4073329  65.0185005  61.3633984 107.8373226  64.4865482  59.2168792
 107.0320405  63.8811993  59.1449545 108.4258759  64.6518710  58.4129052
 110.2831471  68.4316609  60.8834138 110.4988037  68.7511312  62.0210082
 110.9531264  69.0066444  59.9097595 110.8499690  68.6196631  58.9825576
 111.9801003  70.0518495  60.1240347 112.6532350  69.7732433  60.9348167
 112.7999997  70.1981621  58.8339279 113.1364874  69.2154855  58.5034403
 112.1202349  70.6173264  58.0920915 114.0093769  71.1229565  58.9977327
 114.3439620  71.0165574  60.0296401 115.1691575  70.8442251  58.0588287
 114.8354363  70.9508910  57.0266700 115.9742683  71.5523733  58.2548480
 115.5317331  69.8289820  58.2198281 113.7966868  72.5477473  58.7418495
 113.0405350  72.9315107  59.4267287 114.7311319  73.0880856  58.8933358
 113.4597177  72.6865952  57.7145851 111.2932012  71.3556725  60.6942499
 111.9805818  71.9542385  61.5320826 110.1540679  71.7572077  60.1346164
 109.7665361  71.3182571  59.3116699 109.5431887  73.0629499  60.6087988
 110.3174704  73.7974781  60.8302830 108.6562062  73.6101463  59.4878260
 108.0368896  72.7990984  59.1047497 108.0167150  74.3989391  59.8840041
 109.5366235  74.1855420  58.3293105 110.3543243  73.4975073  58.1146605
 108.6591774  74.3600788  57.0574905 107.8414736  75.0483878  57.2712431
 109.2683847  74.7608485  56.2473357 108.2517231  73.3935206  56.7611010
 110.1378482  75.5435341  58.7176086 110.7609317  75.4254774  59.6041350
 110.7451262  75.9211794  57.8949916 109.3350074  76.2495902  58.9298120
 108.8718682  72.9699733  62.0274380 108.9396829  73.9043256  62.7461876
 108.3539723  71.7767352  62.4057933 108.1730399  71.0870505  61.6904627
 108.0047000  71.4300731  63.8491031 107.1503852  72.0190567  64.1827850
 107.6338423  69.9062543  63.9489531 106.7901687  69.6437459  63.3106715
 108.5459655  69.4691401  63.5426742 107.3895207  69.3555079  65.3834914
 108.1940359  69.6995281  66.0334962 106.0606588  69.8372404  65.9273018
 105.2555619  69.4931944  65.2780329 105.9124596  69.4391419  66.9311221
 106.0561911  70.9265899  65.9646952 107.1695735  67.8070769  65.3297893
 108.0529865  67.3285331  64.9070875 106.9991542  67.4286103  66.3376690
 106.3031622  67.5840216  64.7071524 109.1672659  71.7313134  64.8057900
 108.8573831  72.2288515  65.8832414 110.3849246  71.3057388  64.5042628
 110.4292505  70.7264992  63.6780570 111.6472664  71.5314487  65.2833437
 111.5143722  71.2308382  66.3226086 112.7826346  70.6780501  64.6621151
 112.4730967  69.6387966  64.7727388 112.8640811  70.9215620  63.6027905
 114.1218516  70.8771967  65.3280164 115.1047838  70.8962033  64.5621724
 114.2662833  70.9849944  66.5637672 111.9728512  73.0283445  65.2973994
 112.3894225  73.6232681  66.3078098 111.8915753  73.7647737  64.0873832
 111.7729776  73.2477190  63.2279134 112.0812732  75.2652557  64.0024495
 113.0530598  75.5614366  64.3974265 112.0119471  75.6612162  62.5307308
 112.7736593  75.0561145  62.0390543 111.0243001  75.3416403  62.1982780
 112.2178895  77.1226423  62.1727023 111.9737937  77.2050119  61.1135832
 111.4843826  77.6768999  62.7582519 113.8527455  77.8197725  62.4591727
 114.4766878  77.7510001  60.8200554 113.8425687  78.3473439  60.1640325
 115.4923146  78.1462454  60.8004592 114.4832059  76.7166392  60.4763169
 111.0508602  76.0538159  64.8980454 111.4878991  77.0338534  65.5001271
 109.7694029  75.6527896  65.0458500 109.3401631  75.0304762  64.3760899
 108.9162594  76.2053418  66.1545299 108.6865314  77.2570784  65.9837247
 107.5770250  75.3996300  66.1821995 107.3272126  75.2074394  65.1387649
 107.8100467  74.4577743  66.6788974 106.3830681  76.0631800  66.8794930
 106.5163167  76.0952065  67.9608440 106.3564075  77.0796967  66.4869564
 105.0559077  75.3896015  66.5735626 104.1494517  76.0257266  66.0941343
 104.8663321  74.0545399  66.7436731 103.9689883  73.6436266  66.5291367
 105.6236515  73.4793485  67.0838547 109.6933415  76.1687658  67.5209854
 109.7375706  77.1558083  68.2694243 110.2732821  75.0244194  67.9394234
 110.0303390  74.1404134  67.5156176 111.0762751  75.0094810  69.1798415
 110.5394933  75.4856056  70.0003717 111.3418081  73.5393532  69.5529774
 111.9860078  73.3646331  68.6912472 111.9152157  73.3982715  70.4691650
 110.2215207  72.5349829  69.5273741 109.1322407  72.7076373  70.1225190
 110.4608056  71.3243497  69.1140352 109.7144515  70.6441710  69.0937285
 111.3917369  71.0706834  68.8155036 112.2747286  75.8947764  69.2039520
 112.4213006  76.7561759  70.0895103 113.0154485  75.8415543  68.0789224
 112.7346503  75.2534182  67.3073347 114.2874164  76.5338697  67.9887510
 114.9434402  76.2771886  68.8205242 114.9509043  76.0773121  66.6816454
 114.1520827  76.1345411  65.9422482 115.6926876  76.8487226  66.4748042
 115.6292714  74.6686251  66.6083454 116.4172754  74.5874157  67.3570480
 114.8914244  73.8830941  66.7715171 116.2288211  74.5180079  65.2271360
 115.4742097  74.7516761  64.4760969 117.0710321  75.2016297  65.1201723
 116.7041854  73.1484871  65.0053441 115.9775124  72.5901237  64.5807547
 117.9186045  72.5830995  65.2082530 118.9012229  73.2530052  65.6185740
 118.7932821  74.2397634  65.8050066 119.7932689  72.8008160  65.7595654
 117.9450502  71.3124855  65.0262921 117.1020948  70.8265695  64.7553457
 118.8086830  70.8048616  65.1549580 114.0654895  78.0582862  68.1053867
 114.8780408  78.7880040  68.4710907 112.8719583  78.5507825  67.7746985
 112.3144919  77.8650202  67.2857602 112.3676553  79.8877912  67.8774757
 113.1913540  80.5983750  67.8089894 111.3814720  80.1763254  66.7538509
 110.7038545  79.3225755  66.7471510 110.8145559  81.0880177  66.9423273
 112.0943108  80.2844536  65.3714837 112.7170697  79.4018334  65.2256976
 111.0626406  80.3775735  64.2333957 110.4397696  81.2602665  64.3782529
 111.5811155  80.4522751  63.2775169 110.4352732  79.4862283  64.2371732
 113.0831498  81.4450261  65.2493364 113.8667947  81.3357861  65.9990475
 113.5292315  81.4398219  64.2548087 112.5590807  82.3876803  65.4069865
 111.8398904  80.1297674  69.2778287 112.2938242  81.0105094  69.9530811
 110.9991758  79.3204066  69.8433400 110.6257222  78.6226910  69.2157854
 110.4432920  79.4003851  71.2188525 109.9090763  80.3391455  71.3652819
 109.4592967  78.2403775  71.4169355 108.6846706  78.3931219  70.6654551
 109.9508187  77.2833485  71.2420022 108.8062641  78.2070535  72.7869113
 109.3117831  78.5820625  73.8395337 107.6435896  77.6765406  72.8472181
 107.1600851  77.6263177  73.7325434 107.2148019  77.3104981  72.0092116
 111.4876553  79.4806146  72.2890223 111.4353400  80.3702890  73.1437045
 112.5520398  78.7168002  72.0571792 112.4824487  78.1337085  71.2354368
 113.7414445  78.6199924  72.8647642 113.4877428  78.3410744  73.8874760
 114.6800927  77.5152081  72.2615493 114.5652417  77.4823536  71.1781154
 115.7184308  77.7350094  72.5098266 114.3022201  76.2052740  72.8372913
 114.4249604  76.2581030  73.9190698 113.2554640  76.0155962  72.5997499
 115.1376625  75.1060512  72.2987728 114.5636275  74.1826124  72.2223290
 115.5386517  75.3661353  71.3191487 116.2531700  74.9157549  73.2536504
 116.9678619  75.7336091  73.1618325 115.8706316  74.8810176  74.2737273
 116.9235438  73.6384998  72.9357942 117.2784622  73.6706419  71.9907548
 117.6889536  73.4910741  73.5780663 116.2615735  72.8804794  73.0212312
 114.5125793  79.9282371  72.9689414 115.2617821  80.0744223  73.9391507
 114.3920173  80.8636392  71.9762921 113.7537268  80.5735208  71.2493012
 115.2266516  82.0846704  71.7424683 115.8250312  82.3782363  72.6049415
 116.1563925  81.8695108  70.5556220 115.5862815  81.3711535  69.7715859
 116.7373583  83.1800869  70.0104045 117.3080315  83.6788228  70.7937918
 117.3920064  82.9644140  69.1659985 115.9255014  83.8297467  69.6833997
 117.2824748  80.8923130  70.8927172 116.8564332  79.9294157  71.1745316
 117.9254311  80.7637025  70.0219898 117.8696799  81.2860158  71.7223491
 114.4442285  83.4096074  71.7178740 114.9291300  84.3351990  72.3878806
 113.3259034  83.4963588  70.9789443 112.9278838  82.6572458  70.5819945
 112.7021594  84.8047127  70.6354583 113.3619748  85.6351563  70.3842485
 111.6307851  84.6078447  69.4730883 111.0107778  83.7454871  69.7181000
 110.7244679  85.8703735  69.3071027 111.3437626  86.7331057  69.0616078
 110.0059568  85.6996283  68.5054242 110.1907375  86.0601044  70.2383563
 112.2712891  84.0975664  68.2197213 112.7894625  83.1755356  68.4832667
 111.4644213  83.8735763  67.5219447 113.2698229  85.0792757  67.5562349
 114.0772781  85.3033885  68.2532926 113.6833609  84.6245661  66.6560545
 112.7522369  86.0014307  67.2919726 112.1031830  85.4350733  71.9003878
 111.5108946  84.7175355  72.6566107 112.2703891  86.7198735  72.1525395
 112.9187785  87.1826579  71.5316361 111.6651159  87.4934571  73.2101565
 111.8563457  87.0232939  74.1747688 112.2825495  88.9636576  73.2285242
 112.3238596  89.3705207  72.2181504 111.6824836  89.6193718  73.8594440
 113.6911678  88.8668413  73.7936563 113.6666184  88.2198477  74.6705243
 114.3369763  88.4250821  73.0347872 114.2303291  90.2274344  74.1853277
 113.4695047  90.8048351  74.7105453 115.1096925  90.1231152  74.8208881
 114.6216519  90.9578172  72.8809717 115.2975204  90.3115761  72.3209050
 113.7140612  91.1235978  72.3005450 115.2882294  92.2642493  73.1439080
 116.1294759  92.1108131  73.6813662 115.5250524  92.7040516  72.2660762
 114.6619629  92.8633758  73.6624992 110.1277865  87.5817833  73.0463676
 109.5841590  87.6559228  71.9132937 109.3541890  87.6617171  74.1462069
 109.6876263  87.2931115  75.0254388 107.9678264  88.1183721  74.0673409
 107.8291302  88.7389020  73.1820131 107.0113701  86.9010182  73.9741114
 107.3733095  86.2215375  73.2024864 106.9965223  86.3849599  74.9340923
 105.7293490  87.3204928  73.6555634 105.1477362  86.5586931  73.6009053
 107.5916326  89.0866990  75.1699879 107.9381504  88.8187145  76.2962173
 106.8571927  90.1294323  74.7454890 106.7102274  90.2642170  73.7553710
 106.2687252  91.1009346  75.6748104 107.0461952  91.6014495  76.2519796
 105.4924803  92.1800531  74.8361178 104.8910184  91.6321260  74.1107773
 104.5836111  93.1242136  75.6483189 105.1844769  93.6728634  76.3736082
 104.0957938  93.8284954  74.9744332 103.8271083  92.5397192  76.1719328
 106.4438528  93.1105234  74.0787411 107.0576540  92.5247276  73.3944945
 105.8650286  93.8403351  73.5126694 107.0870972  93.6298233  74.7891389
 105.3100475  90.4448704  76.6660479 104.5806135  89.5702476  76.2189494
 105.4135885  90.8235896  78.0048205 106.0778228  91.5675303  78.1643336
 104.7019514  90.2875330  79.1389501 104.8760821  90.9253144  80.0055599
 103.6355893  90.2636622  78.9144472 105.1796633  88.8535157  79.4654261
 104.7675957  88.3086460  80.4860770 106.1485584  88.2798042  78.7234421
 106.2372420  88.7072122  77.8126419 106.8994553  87.0408905  78.9895319
 107.5354368  86.8055850  78.1361515 107.7672411  87.1984501  80.2061102
 107.1402570  87.5804402  81.0117613 108.1415845  86.2106690  80.4749142
 108.9230344  88.1284789  79.9889158 109.6373264  87.7706541  79.2473977
 108.6229034  89.1467751  79.7417391 109.5749430  88.1108076  81.3758707
 108.7997023  88.3708909  82.0966047 109.9116469  87.0901758  81.5576415
 110.7548304  89.0710834  81.5282553 111.3614649  88.9830124  80.6269570
 110.3447895  90.0789675  81.5925606 111.6262897  88.7945293  82.7596941
 112.0066880  87.8608033  82.7000917 112.3815660  89.4641707  82.7948804
 111.0644559  88.8765071  83.5949914 106.0249921  85.8026649  78.9796181
 106.4368438  84.8185682  79.6254415 104.9303534  85.8254905  78.3347599
 104.5648780  86.7406046  78.1131901 104.0663166  84.6183616  78.0435806
 103.8801118  84.0329462  78.9439781 102.7116027  85.0955794  77.4464478
 102.8013205  85.4481799  76.4189635 101.8532960  83.7884942  77.4756150
 101.7627398  83.4355218  78.5028982 100.8612291  83.9956280  77.0743675
 102.3368772  83.0220717  76.8699377 102.0604522  86.2652411  78.2294041
 101.9608091  85.9594007  79.2708616 102.7269044  87.1254315  78.1660515
 100.7257051  86.6329034  77.6919031 100.0585207  85.7732881  77.7553562
 100.3129625  87.4563293  78.2747517 100.8246159  86.9393168  76.6505447
 104.8086043  83.5486679  77.2011144 105.7861683  83.8086920  76.4776464
 104.5614300  82.2681792  77.5242778 104.1489236  82.1846111  78.4424032
 104.8886191  81.0271859  76.7862081 105.9110721  81.0361685  76.4085730
 104.7442905  79.8424746  77.8290961 105.3899858  80.0957349  78.6699504
 103.7043552  79.8483055  78.1555937 105.1072296  78.4507173  77.3091849
 105.1810597  77.9158995  78.2560850 104.4404120  77.9095848  76.6378958
 106.4586084  78.5529296  76.6902590 106.6189111  77.9735112  75.5791711
 107.4949097  78.9664831  77.2963878 104.0159550  80.7922791  75.4582897
 102.7865219  80.5918287  75.5317116 104.6288188  80.8753831  74.3030938
 105.6097085  81.1119698  74.2585804 103.9313765  80.5537740  73.0485039
 103.1386185  81.2727354  72.8417951 104.9757885  80.6230702  71.9010839
 105.1670313  81.6847779  71.7451919 105.9165884  80.1106406  72.1021102
 104.4614705  80.0819561  70.5946868 104.6057548  78.7754194  70.1933230
 103.9437911  78.6633806  69.0818644 103.9070246  77.6909612  68.5907965
 103.4051103  79.8402236  68.7408577 102.8685788  80.0071447  67.9015894
 103.6871075  80.7838728  69.6945997 103.2996574  81.7972930  69.5898948
 103.3582256  79.0193707  73.0832967 102.2518666  78.7450464  72.5636845
 104.1062826  78.0861459  73.7293276 105.0564296  78.2712389  74.0175301
 103.6224756  76.7050908  73.7786803 103.2188926  76.4892581  72.7894199
 104.6232694  75.6222422  74.1412649 104.0704058  74.6959893  73.9847507
 105.3953925  75.7173376  73.3777972 105.2224079  75.6009234  75.4133154
 105.8239324  74.8549920  75.4712329 102.3423974  76.6108688  74.5850692
 101.3420312  76.1011350  73.9900323 102.2890505  77.2308124  75.7891311
 103.1330084  77.6466377  76.1564508 101.0924635  77.3080847  76.5791206
 100.7725898  76.3084672  76.8733058 101.3508948  78.1151953  77.8217690
 102.2528373  77.7913681  78.3411292 101.4544183  79.1610346  77.5326271
 100.2374897  78.0551161  78.8195092  99.4502171  79.1982734  79.0738246
  99.7625790  80.1440204  78.6310013  98.2995872  79.1437496  79.8670912
  97.6631710  80.0242085  79.9557884  97.9590978  77.9501156  80.5544834
  97.1206646  77.9048019  81.2495203  98.7267489  76.8218280  80.3213786
  98.4342573  75.8724956  80.7700622  99.8546824  76.8920317  79.5279945
 100.5024856  76.0216774  79.4234270  99.9453521  77.9470023  75.8085393
  98.8091521  77.5791065  76.0301524 100.1678894  78.9091357  74.9523609
 101.1321573  79.2083626  74.9249735  99.1896272  79.6666298  74.1903545
  98.3178862  79.9222027  74.7927243  99.8917112  80.9770028  73.7546831
  99.6498946  81.6431627  74.5828467 100.9744330  80.8991954  73.6558917
  99.3805251  81.6628114  72.4738172 100.1768222  81.7949873  71.3541483
 101.1446407  81.2936845  71.3652269  99.5609068  82.5428661  70.4582825
  99.9426651  82.7605867  69.5489102  98.3155962  82.9900733  70.9538520
  97.2774950  83.8427595  70.4789845  97.4542201  84.3200782  69.5151205
  96.1346171  84.0221052  71.2306941  95.3183648  84.6371228  70.8517674
  96.0007583  83.4063466  72.5163519  95.1352059  83.5364679  73.1659572
  97.0340358  82.5954446  72.9627448  96.8625297  82.1648965  73.9493119
  98.2186592  82.3713485  72.2182265  98.5014897  78.8862521  73.0323344
  97.2852220  78.9630011  72.9326576  99.2868543  78.1015721  72.2435760
 100.2811377  78.2563238  72.3304780  98.8196175  77.1877777  71.2165403
  97.9068721  77.5740307  70.7628845  99.9014405  77.0285043  70.1027266
 100.7531540  76.5641266  70.5997545  99.4711263  76.3264663  69.3885332
 100.3680028  78.2931197  69.3607518 101.1693271  78.7917813  69.9060195
 100.7098993  78.0509663  68.3544861  99.1046219  79.2588506  69.2737437
  98.1975395  78.6698612  69.1381269  99.0232621  79.8447842  70.1892555
  99.2407171  80.1650591  68.1538986 100.1932388  80.2562318  67.8306504
  98.3159004  80.9909769  67.6545550  97.0852327  81.0484875  68.0755379
  96.7822844  80.4429621  68.8249786  96.4392566  81.6983553  67.6507011
  98.5976950  81.6644594  66.5263835  99.4934741  81.5385952  66.0771195
  97.9124352  82.2934570  66.1328358  98.3574893  75.8599501  71.7559254
  97.8379114  75.0940995  70.9561869  98.5233716  75.4238941  72.9963819
  99.1156943  75.9809292  73.5955189  98.0698443  74.1137657  73.4873753
  98.2710690  73.3563408  72.7298034  98.7965203  73.7133882  74.7912472
  99.7922547  74.1564694  74.7741802  98.2332221  74.1191148  75.6315930
  98.9078882  72.3053625  74.9324057  99.3636588  72.1010224  75.7522338
  96.5682705  74.0165890  73.5772302  95.8911409  74.9136456  74.0384513
  96.0166490  72.8921165  73.1869016  96.6293672  72.1166752  72.9786550
  94.5503775  72.7285547  72.9265454  94.1450872  73.5770238  72.3752385
  94.3860929  71.4710549  72.0765508  95.1064554  71.5239325  71.2602291
  94.6565126  70.6551100  72.7467800  93.1001911  71.1120811  71.4775357
  92.2729499  70.0925419  71.8950857  92.5827046  69.4556189  72.7236271
  91.0077237  69.8650978  71.2459958  90.3475340  69.0762637  71.6065386
  90.6300385  70.6432533  70.1694765  89.6427068  70.4926873  69.7328921
  91.4811892  71.6020109  69.6437233  91.3150328  72.1235774  68.7011414
  92.6201329  71.8870341  70.4119029  93.2132469  72.7761771  70.1980329
  93.8247166  72.7178723  74.2830494  94.1703080  71.8982554  75.1152944
  92.8455838  73.5986220  74.4437008  92.7696667  74.3088464  73.7296158
  92.0406542  73.7305292  75.6206897  91.7691869  72.7484138  76.0077994
  92.8665843  74.5057023  76.7361408  93.7976513  74.0287164  77.0422420
  93.0671233  75.5346616  76.4375994  92.0256951  74.5724602  77.9183708
  92.1099190  75.6334183  78.8562270  91.2591847  75.3582957  79.8748818
  91.1834651  75.9938185  80.7571948  90.6260748  74.2520240  79.5516157
  89.8824241  73.8497600  80.1041256  91.0864071  73.7501102  78.4293333
  90.6975785  72.8027077  78.0560480  90.6672013  74.2819894  75.3336067
  90.4632785  75.4950059  75.3365107  89.8090784  73.3790267  74.8218396
  90.2014155  72.4788218  74.5856153  88.4218618  73.6337315  74.4860352
  88.2511075  74.5998520  74.0111106  87.8804311  72.5218031  73.5543474
  86.9712240  72.9214150  73.1051782  88.8400120  72.0385481  72.4357683
  89.7493159  71.6383475  72.8842162  88.3520610  71.2603813  71.8488616
  89.0939941  72.8768120  71.7869946  87.4111996  71.3375250  74.1879350
  87.1006217  70.7198431  73.5218939  87.5544373  73.8118775  75.7347901
  88.0383250  73.7932561  76.9137977  86.2498447  73.9448217  75.4546061
  85.9613603  74.2600938  74.5394670  85.2557362  73.8575157  76.4905173
  85.5033265  74.5291500  77.3125305  83.8719947  74.2705862  75.9103705
  83.6435291  73.6047047  75.0782019  83.1259423  74.1406934  76.6943562
  83.8514895  75.7578289  75.4105677  84.8850052  75.8193339  75.0697405
  83.1811103  75.9471794  74.5722138  83.6120046  76.8011628  76.4988399
  84.4363592  76.8523867  77.3697891  82.4933368  77.4496815  76.6132555
  85.1953658  72.5346696  77.3164104  84.5979722  72.5787170  78.3916865
  85.7216320  71.3826489  76.8145994  86.1698737  71.4485512  75.9119169
  85.6745820  70.0691758  77.4757633  85.4953711  70.1287409  78.5492784
  84.4688926  69.4042313  76.8160035  83.6931738  70.1690314  76.8539573
  84.7826136  69.2566276  75.7826147  83.9132609  68.0812146  77.3777259
  82.9888061  67.8603457  76.8441520  84.6469783  67.3023400  77.1700835
  83.6325502  68.1313263  78.8916318  83.0924884  67.2272353  79.1727932
  84.5860837  68.1630806  79.4187608  82.8580014  69.2657084  79.2789062
  82.4546473  69.7243056  78.4744850  82.6591748  69.7566159  80.4028287
  82.9724198  69.1888216  81.5645689  83.4115997  68.2793832  81.5765136
  82.7695928  69.6698375  82.4291986  82.0838082  70.8467234  80.4586936
  81.7936952  71.3054043  79.6069035  81.9058090  71.2749463  81.3559340
  86.9512824  69.2348651  77.2849472  87.0605170  68.1724308  77.9050786
  87.9514225  69.7247150  76.5381675  87.9667409  70.6723543  76.1891052
  89.1072333  68.8388783  76.2267580  89.2341374  68.0474272  76.9654052
  88.7605457  68.1809933  74.8389630  87.6902937  67.9768510  74.8703625
  88.9616710  68.9488773  74.0919672  89.4960496  66.9297028  74.4777260
  90.5622453  67.1552822  74.4987403  89.2684422  66.1816253  75.2371185
  89.1094976  66.3766016  73.0710585  88.0983101  66.0058032  73.2387107
  89.0678903  67.2845875  72.4694523  89.8995095  65.3486406  72.3579552
  90.9419144  65.6624838  72.3032272  89.8334270  64.4013687  72.8931265
  89.3618932  65.1796295  70.9863930  89.4234319  66.0571735  70.4901782
  89.8999710  64.4782005  70.4979570  88.3961101  64.8884030  71.0368833
  90.4593965  69.5909900  76.0979456  90.5269169  70.6238718  75.3835044
  91.4407442  68.9232686  76.6948297  91.3057443  67.9829960  77.0379942
  92.7549716  69.5221840  76.8289808  92.6743205  70.4725192  76.3012899
  93.0353841  69.8082597  78.3210754  92.7594534  68.9061435  78.8671056
  94.4632788  70.1783883  78.6492943  94.7397982  71.0807404  78.1039528
  94.5553164  70.3591578  79.7202521  95.1261280  69.3626202  78.3607569
  92.4019413  70.9737805  78.8161111  92.6202379  71.0870011  79.7440810
  93.8754665  68.5979272  76.3483327  93.9387383  67.4116156  76.7795096
  94.6209545  69.0440059  75.3321697  94.6002696  70.0267537  75.1000527
  95.4126049  68.1561637  74.4987791  95.7667113  67.3412411  75.1301342
  94.6591768  67.5532837  73.2898210  94.5230640  68.4190248  72.6416969
  95.4054827  66.8883581  72.8550778  93.3130207  66.7968841  73.4307796
  92.6613443  67.4588323  74.0010805  92.9222008  66.6861398  72.4192982
  93.3653246  65.4729704  74.0861313  92.2902289  65.0112499  74.4353265
  94.4611885  64.8463923  74.2831777  96.6734935  68.8272178  73.9582088
  96.6829469  70.0156678  73.6456130  97.7737442  68.1040707  73.8168409
  97.9287277  66.7988165  74.3966299  96.9690997  66.2833462  74.3578401
  98.2376766  66.9126647  75.4357104  98.9885916  66.1212309  73.5491098
  98.5289026  65.6375031  72.6872557  99.5239685  65.3777925  74.1396793
  99.9177814  67.2486096  73.1234906 100.3630770  67.0851831  72.1421127
 100.7058718  67.4354708  73.8529397  98.9380315  68.4742936  73.0675918
  99.3943832  69.3267646  73.5707167  98.6239406  68.8556718  71.5671227
  98.0388568  68.0187138  70.8677121  98.9828967  70.0929680  71.1988678
  99.3398515  70.7296740  71.8969281  98.8321668  70.5863178  69.8091170
  97.7724741  70.5234878  69.5617249  99.2663680  72.0528297  69.7327942
 100.3275661  72.1308701  69.9691590  99.0899196  72.4326331  68.7264565
  98.6911206  72.6403240  70.4483639  99.6246449  69.7872399  68.7547214
 100.7454510  69.3848116  69.0160928  99.1049281  69.4982240  67.5370276
  98.1923099  69.9055429  67.3910178  99.6597015  68.5863692  66.4715450
 100.7273948  68.7643987  66.3433429  99.4511902  67.1335105  66.8094985
  99.8727055  66.9408801  67.7960677  97.9379946  66.7697504  66.8122255
  97.5158600  66.9616911  65.8257871  97.8177869  65.7149579  67.0593329
  97.4190223  67.3774732  67.5534687 100.1114613  66.2379920  65.9035164
  99.9422326  65.3312790  66.1696622  99.0546976  68.9619269  65.0511490
  98.1564167  69.7618979  65.0360199  99.5225272  68.3577690  63.9514705
 100.2441435  67.6604128  64.0657666  99.0530635  68.6474647  62.6112343
  99.7044395  68.0699061  61.9553116  98.0439014  68.2372928  62.5731526
  99.0193462  70.0961294  62.1281403  98.5341838  70.2585962  61.0207975
  99.5964905  71.0851029  62.7747375 100.1808924  70.7627984  63.5328229
  99.5724097  72.5600768  62.4688128  99.4643209  72.6613008  61.3889194
  98.4401409  73.3804303  63.1624666  98.4376954  72.8697246  64.1254167
  98.5796274  74.4500171  63.3193983  97.0441044  73.2042540  62.5712238
  96.5257981  73.9489058  61.5138927  97.2486592  74.6172645  61.0460591
  95.2105456  73.8980606  61.0390762  94.8841057  74.4655364  60.1675781
  94.3008844  73.0822769  61.7248418  93.2652081  72.9938529  61.3967325
  94.7442315  72.3702291  62.8547959  94.0332184  71.7604618  63.4122405
  96.0840225  72.4384538  63.2663921  96.4116943  71.8890183  64.1489178
 100.7765340  73.1862725  63.0004045 101.2171676  72.8031877  64.0597897
 101.1996515  74.1927133  62.2063103 100.8009641  74.3543767  61.2925200
 102.3921782  74.9388917  62.5808268 102.5147931  74.7901282  63.6536428
 103.6893323  74.4684998  61.8367966 103.5931743  74.6045706  60.7596063
 104.8441933  75.3548916  62.3680279 104.9412712  75.2189994  63.4451582
 105.7762636  75.0686766  61.8807635 104.6284812  76.4013363  62.1523409
 104.0699929  72.9770772  62.1173195 104.3546037  72.9167734  63.1677770
 103.1697923  72.3854652  61.9507852 105.1983011  72.4355719  61.2552554
 106.0990293  73.0264327  61.4216052 105.3920869  71.3962112  61.5203505
 104.9142185  72.4951267  60.2046126 102.1441839  76.4131666  62.4797464
 101.5812404  76.8920783  61.4846302 102.5970171  77.2128319  63.4418356
 103.2946387  76.8678703  64.0855940 102.1393622  78.6267848  63.5849308
 101.0815624  78.7382864  63.3467583 102.3481181  78.9901965  65.0342182
 102.0414555  78.2521953  65.7754411 103.4355698  79.0639928  65.0240658
 101.7456210  80.3574020  65.3934832 101.0951479  81.0159845  64.5416394
 101.7214578  80.6896330  66.5576978 103.0106393  79.5609741  62.6844706
 104.1656845  79.8629771  63.0083188 102.3816911  80.0490511  61.5683115
 101.4440715  79.7441572  61.3492028 103.0198857  80.9975496  60.6805715
 103.9532204  80.5330180  60.3624586 102.3559131  81.1024164  59.8225257
 103.3270979  82.4052870  61.2562920 104.2617786  83.0515054  60.8375762
 102.5260843  82.7862699  62.2768105 101.6646556  82.3166172  62.5165320
 102.8784180  83.9780471  63.0028615 103.1048624  84.7997588  62.3234410
 101.6695488  84.3749761  63.8691251 101.4198304  83.5081949  64.4810321
 101.9999396  85.1903388  64.5126511 100.4516726  84.8095702  63.0927782
 100.4952837  85.0383383  61.8778217  99.3522730  84.9371675  63.7235384
 104.1699435  83.8215830  63.8599892 104.7846211  84.8912889  64.0300326
 104.6112457  82.7144966  64.4301278 103.9854906  81.9222919  64.3994423
 105.9092380  82.5748865  65.1978792 106.1040054  83.5162592  65.7116714
 105.8920039  81.4237958  66.2542443 105.0274494  81.6759539  66.8682971
 105.7202845  80.4668628  65.7614038 107.1383132  81.3245033  67.1428028
 107.9912788  81.2355887  66.4700141 107.3580766  82.4890773  68.0843719
 106.5056727  82.5783459  68.7578238 108.2641586  82.3204728  68.6663416
 107.4628795  83.4082428  67.5079594 107.0955875  80.0161463  67.9237546
 107.0755996  79.1774847  67.2278044 107.9797167  79.9412604  68.5568493
 106.2008501  79.9927836  68.5458464 107.0939305  82.4006108  64.3053477
 108.0910872  83.0702897  64.5069354 106.9661482  81.5504301  63.3044633
 106.0816668  81.0867121  63.1536074 108.1305720  81.1456567  62.4616105
 109.0966425  81.0015845  62.9453977 107.8004127  79.8900913  61.5612886
 106.7242745  79.9223349  61.3910317 108.5162884  79.7988367  60.2364560
 109.5925343  79.7660818  60.4059328 108.2033573  78.8940563  59.7153539
 108.2709360  80.6703463  59.6295192 107.8579415  78.6561150  62.4773202
 108.8825438  78.5408173  62.8308698 107.1983312  78.8308289  63.3273137
 107.4331085  77.4097485  61.7641487 108.0925864  77.2341117  60.9142426
 107.4886981  76.5625193  62.4476776 106.4083739  77.5241245  61.4106843
 108.7072194  82.2809613  61.5994526 109.8760078  82.2115046  61.2646280
 107.8701627  83.2887914  61.3430537 106.8828184  83.2644471  61.5543777
 108.4029376  84.4639560  60.6660130 108.8845331  84.2496308  59.7119534
 107.0939973  85.2786157  60.3938352 107.4219009  86.0919516  59.7464843
 106.4708973  84.5896906  59.8235469 106.3034092  85.8376496  61.5352841
 105.3268954  86.0273344  61.0897044 106.1880328  85.1766716  62.3942925
 106.9346177  87.1883987  61.9993945 107.7254516  87.1445887  62.9781858
 106.4668704  88.2283413  61.4326275 109.4495599  85.2244351  61.4808979
 110.2140188  85.8940868  60.8566038 109.5871192  85.0128702  62.7795402
 108.8541293  84.5412458  63.2898298 110.7155902  85.5503280  63.5294691
 110.7705095  86.6280774  63.3760440 110.5746615  85.2815898  64.9999969
 111.3642585  85.7898556  65.5534422 109.6033279  85.6261844  65.3547723
 110.6791893  83.9182881  65.1966349 110.5918320  83.7223332  66.1323540
 112.1631398  85.1046597  63.0767719 113.1889544  85.8213935  63.2220962
 112.2524072  83.9198088  62.3410031 111.4413305  83.3181613  62.3575628
 113.4982966  83.3818228  61.8238032 114.2369214  83.3153705  62.6226252
 113.2667829  81.9825626  61.2552144 112.8721610  81.2572881  61.9667969
 112.5634541  82.1019466  60.4310930 114.5425566  81.3645357  60.6588350
 115.4671016  80.7821014  61.5239459 115.3098132  80.7693676  62.6024625
 116.6219460  80.2031115  60.9765383 117.3829479  79.7699401  61.6256449
 116.7965552  80.1836498  59.5623170 117.6582839  79.6953276  59.1072733
 115.8476438  80.7995490  58.7632242 116.0694567  80.8705587  57.6983971
 114.6637995  81.3117406  59.2578397 113.8864872  81.6477924  58.5715784
 114.2205400  84.3692425  61.0099139 115.4513197  84.3526421  61.0139009
 113.4991190  85.1573231  60.2413446 112.5162615  85.1070075  60.4684100
 113.9013303  85.9454390  59.0827258 114.5479496  85.3491678  58.4389530
 112.6827704  86.3809462  58.2794587 112.1239829  87.1021626  58.8758670
 113.0313835  86.8595129  57.3642850 111.7446690  85.1617029  57.9120385
 111.5295717  84.5497417  58.7880165 110.4233164  85.7883391  57.3803822
 110.6375589  86.4001134  56.5040653 109.7281392  84.9944018  57.1074483
 109.9773405  86.4100801  58.1566837 112.3356514  84.2422732  56.8500969
 113.2798131  83.8321379  57.2084921 111.6404494  83.4278996  56.6461582
 112.5100000  84.8082149  55.9349950 114.8150096  87.1313770  59.4507138
 115.1895392  87.8998449  58.5150494 114.9675234  87.4141659  60.7666378
 114.3074769  86.9605583  61.3820060 115.8958474  88.4076347  61.3449590
 116.7063923  88.5920119  60.6398908 115.1901508  89.7451077  61.6450644
 114.6192664  89.9937677  60.7504369 114.5056250  89.5667217  62.4743429
 116.1184594  90.9027727  61.9930368 117.2780382  90.8494908  61.5785720
 115.6468869  91.8484376  62.6991610 116.7145434  87.9568543  62.6076743
 116.3259697  88.2884180  63.6981356 117.8290768  87.2153648  62.4767255
 118.0270270  86.9632676  61.5189353 118.7400968  86.8077539  63.4796472
 118.7583133  87.5333242  64.2928600 118.4007049  85.4156006  64.0420760
 118.4609522  84.7205505  63.2045940 119.3288203  84.9160638  65.2033308
 119.2687434  85.6104092  66.0414095 119.0054066  83.9269852  65.5277191
 120.3583034  84.8631078  64.8491283 116.9005074  85.2867978  64.5904403
 116.8530785  85.8884732  65.4980955 116.2568338  85.7273533  63.8290635
 116.4111640  83.8145296  64.9073794 117.0541200  83.3734570  65.6690633
 115.3841796  83.8429206  65.2715169 116.4578775  83.2123362  64.0000311
 120.0748118  86.7128835  62.8433520 120.2052859  86.1068461  61.7885818
 121.0769900  87.3025161  63.4442108 120.8253605  87.8221041  64.2729509
 122.5077589  87.2995939  63.0178802 122.6654459  87.9607750  62.1657807
 123.3363096  87.8019907  64.1793229 123.3966019  86.9900042  64.9039898
 124.3321884  88.0174260  63.7921368 122.8124308  88.9630990  64.8114325
 123.3885374  89.2211791  65.5346861 123.0291384  85.9423511  62.5929976
 122.8427065  84.9358602  63.2790736 123.8195998  85.8576812  61.4845456
 124.0038887  86.6842115  60.9341052 124.2375431  84.6082588  60.9766467
 123.3790502  83.9444369  60.8745210 124.9027151  84.7853561  59.5712327
 125.6634159  85.5613784  59.6562212 125.3763086  83.8408232  59.3035264
 123.8782078  85.1822271  58.4691582 123.3610037  86.0844928  58.7955281
 124.4296682  85.3915913  57.5525558 122.8276646  84.0450953  58.1998377
 123.3452990  83.1638898  57.8208516 122.3241029  83.7963191  59.1339872
 121.8239098  84.4545687  57.2220311 121.0662682  85.0512322  57.5221500
 121.8013908  83.9795941  55.9923104 122.6150574  83.0502524  55.4874850
 123.3336640  82.6429755  56.0687166 122.5085931  82.7583647  54.5264613
 121.0267974  84.4888475  55.1286351 120.4266801  85.2597025  55.3850369
 121.0131716  84.1214940  54.1879096 125.0922063  83.7385609  61.8909936
 124.7201549  82.5907739  62.1206425 126.0689611  84.3475675  62.6263637
 126.6651533  85.6568780  62.4434922 126.1220945  86.3824256  63.0491061
 126.5941411  85.9361244  61.3922654 128.1679011  85.4684116  62.9195071
 128.6414077  86.3736363  63.2995846 128.8207017  84.9990928  62.1835094
 127.8339577  84.4978970  64.0488822 127.4176222  85.0323156  64.9027911
 128.7371750  83.9707043  64.3560729 126.8340422  83.5282285  63.5221089
 127.2233115  82.7166477  62.9073698 126.1259755  82.9534459  64.7221441
 126.5838489  81.8945269  65.1829470 125.0092528  83.5641071  65.2217013
 124.9738728  84.5382219  64.9572245 123.9331912  83.0309638  66.1498083
 124.4141771  82.3934521  66.8916509 123.1439284  84.1168168  66.8777092
 122.7291333  84.7979682  66.1346904 122.3317013  83.6420326  67.4281336
 124.0556515  84.9241211  67.8793308 124.3245956  84.3268899  68.7505856
 124.9618566  85.2884984  67.3954678 123.2130191  86.0955798  68.3143540
 123.0099306  86.7280136  67.4501310 122.2723911  85.7252054  68.7219582
 123.9562964  86.9236472  69.3982978 123.9708456  86.3500583  70.3250581
 124.9788040  87.0973266  69.0630174 123.2691868  88.2573513  69.6392228
 122.3218288  88.0966345  69.9503219 123.7730658  88.7726769  70.3467859
 123.2559795  88.7891850  68.7806906 122.9441806  82.0711282  65.3989850
 122.8370061  80.9464842  65.8340569 122.2664727  82.4548009  64.2369866
 122.3932179  83.4234030  63.9803838 121.3820384  81.6231606  63.4060960
 120.4600257  81.3385189  63.9130191 121.0252997  82.5555538  62.2106524
 120.4613296  83.3979236  62.6112144 121.9628286  82.9153374  61.7867476
 120.2051987  81.8659868  61.1207282 120.7606203  80.9560468  60.8935348
 119.2654833  81.6054121  61.6076961 119.8539445  82.7441525  59.5868672
 118.4183408  83.7139493  60.1857548 118.7278750  84.3457850  61.0182638
 118.0388002  84.3390032  59.3774496 117.6334750  83.0345504  60.5181762
 121.9853064  80.2854006  62.9209168 121.2176695  79.3227367  62.8873631
 123.3077309  80.1818511  62.6153944 123.8652593  81.0234210  62.5834347
 123.9050777  78.9426368  62.1522076 123.2355626  78.4764324  61.4293645
 125.2873269  79.1709180  61.4745907 125.4975396  78.2630405  60.9091985
 125.1492593  80.0038632  60.7852143 126.5069119  79.4841434  62.4465806
 126.2371677  80.2586347  63.1645653 126.7255722  78.5575850  62.9774094
 127.7654866  79.9277818  61.6987646 127.7499546  80.0522760  60.4780582
 128.7844757  80.1990038  62.4595673 129.6549348  80.4992575  62.0445369
 128.7007358  80.1081514  63.4619818 123.9176804  77.9057714  63.2754708
 123.9613136  76.7035535  63.0454311 124.1259013  78.3952756  64.5142294
 124.4069958  79.3566500  64.6440158 124.0915398  77.5101937  65.6960256
 124.4394930  76.5131251  65.4260588 125.0061846  78.0678867  66.7980198
 125.9940458  78.1868268  66.3529548 124.6092549  79.0467214  67.0671467
 125.1119805  77.2133027  68.0320824 125.3336748  76.1789834  67.7691449
 126.0137499  77.6918202  68.4140931 124.0285887  77.2437090  69.1031546
 124.1912671  76.6379369  70.1697716 123.0627128  78.0647655  68.9584750
 122.6531606  77.2599479  66.1739904 122.2979978  76.2146927  66.6877783
 121.6759199  78.1063461  65.8786402 121.9708795  79.0152157  65.5514486
 120.2153900  77.8586602  66.0576656 120.0605166  77.5715392  67.0977016
 119.2412514  79.0397294  65.7131147 119.5695561  79.4608202  64.7628527
 117.7286758  78.6128862  65.6033600 117.3994988  78.1920981  66.5534551
 117.1209689  79.4852281  65.3629180 117.6175883  77.8655959  64.8176638
 119.3301807  80.0983282  66.7378806 120.3500138  80.4809753  66.7781771
 118.6481061  80.9095047  66.4831915 119.0581896  79.6873528  67.7101052
 119.8029563  76.6299128  65.2240498 119.1393763  75.7978717  65.8241141
 120.1784570  76.5617040  63.9642154 120.5762081  77.3899690  63.5448462
 119.9045112  75.4123567  63.1034758 119.2597673  74.6382852  63.5196703
 119.2608736  75.9387756  61.7710874 118.9343579  75.0732336  61.1946122
 118.0568861  76.8791847  62.0155130 118.3827418  77.7452508  62.5915758
 117.6539818  77.2107011  61.0585044 117.2844960  76.3450792  62.5689084
 120.2834497  76.6069541  60.8027462 121.0509910  75.8833287  60.5282491
 119.7665113  76.9457364  59.9049150 120.7489174  77.4596944  61.2969878
 121.1013411  74.4399178  62.8439555 121.2833044  73.8904022  61.7010141
 121.8277109  74.1565586  63.9502834 121.6802435  74.6746201  64.8046633
 122.9499269  73.2142444  63.8934926 123.5532565  73.5602797  63.0542357
 123.8054519  73.3075577  65.1943091 123.2178234  72.9558078  66.0422860
 124.6966209  72.6888514  65.0888544 124.1006357  74.3433171  65.3621427
 122.5308901  71.7372487  63.5649918 121.4171038  71.3445499  63.9175111
 123.4886474  70.9625745  63.0588191 124.3284189  71.3156960  62.6227131
 123.2106568  69.5649314  62.9601837 123.9272800  69.0870730  62.2922004
 123.3193214  68.9080814  64.3503970 124.2513181  69.3158166  64.7418475
 122.5019158  69.1567937  65.0272207 123.4413200  67.4350760  64.2774560
 123.8573234  66.8823612  63.2704742 122.9602658  66.6930858  65.2717756
 123.0389461  65.6869896  65.2307920 122.5186629  67.1393998  66.0629086
 121.8633927  69.1794559  62.2092662 121.0503635  68.5813504  62.8523768
 121.6088790  69.5053408  60.9444410 122.3706187  69.8764991  60.3948106
 120.2749676  69.4640391  60.3430829 119.7256294  68.5998679  60.7166265
 119.4651420  70.7782845  60.7125036 119.6824008  71.0761275  61.7382654
 119.8097049  71.5540630  60.0287316 117.9375863  70.5834661  60.5442847
 117.7775555  70.1839898  59.5428309 117.2992484  69.6507345  61.5722723
 117.4584756  70.0498180  62.5740097 116.2294294  69.5732417  61.3784091
 117.7537798  68.6627516  61.4988459 117.2693775  71.9449471  60.7389041
 117.6457936  72.6449519  59.9929794 116.1903067  71.8400953  60.6261500
 117.4950169  72.3217180  61.7365160 120.3310198  69.2334560  58.8304694
 121.2441839  69.5229033  58.1495680 119.3346948  68.5623331  58.2329383
 118.5558665  68.4037985  58.8561498 119.2327447  68.0766773  56.8612260
 119.9005641  68.5993395  56.1764335 119.6723402  66.6055355  56.9493369
 119.0148452  66.1802182  57.7075617 119.4134022  66.1954347  55.9731871
 121.1533822  66.2490868  57.2865505 121.4720751  66.9567114  58.0519283
 121.2929646  65.2317991  57.6522614 121.9698012  66.4336649  56.1240549
 121.7871471  65.6660353  55.1554104 122.9694692  67.3285485  56.0805089
 123.5201494  67.4254197  55.2393972 123.1663699  67.9008995  56.8890544
 117.7736598  68.1781590  56.3434473 116.8555308  68.1837589  57.1095575
 117.6188981  68.1520332  55.0316439 118.4217631  68.5204625  54.5419838
 116.3885072  67.8930451  54.2613209 115.8170850  67.1159564  54.7689712
 115.4934529  69.1511740  54.1156280 114.5189985  68.8005593  53.7756175
 115.3767760  69.6934452  55.0539395 116.1068903  70.0966401  53.0436086
 117.0669658  71.0667854  53.3976001 117.3738196  71.1193088  54.4421965
 117.6399486  71.9713868  52.4312761 118.4304477  72.6565844  52.7374085
 117.1598685  71.9957558  51.1050426 117.5524499  72.9384850  50.2604175
 118.1688382  73.5609381  50.6531225 116.2763467  70.9560537  50.7158039
 116.0433837  70.8171896  49.6600836 115.6834634  70.0798863  51.7120524
 114.8896824  69.3892985  51.4272713 116.7451004  67.1322916  52.9765418
 117.9277164  67.0432280  52.6394007 115.7611451  66.4801623  52.3115108
 114.9916573  66.3851423  52.9587813 115.7572567  65.6473485  51.0924689
 116.3561898  64.7431694  51.2012739 114.2817873  65.2410056  50.8998899
 113.8861962  64.8515223  51.8379249 113.8317036  66.2116230  50.6914995
 113.9515364  64.2772915  49.7722514 112.7832544  64.0006175  49.4278307
 114.9339272  63.8453190  49.1082092 116.6957942  66.1061936  49.8946085
 116.6899454  67.2635034  49.4801200 117.4281659  65.1569163  49.2834831
 117.5617398  64.3141607  49.8238721 118.2421026  65.3493032  48.0936040
 117.8812960  66.2263647  47.5563135 119.6945700  65.5525985  48.4247888
 119.6742153  66.2750559  49.2407179 120.0991904  64.6075182  48.7870121
 120.5963931  66.0965714  47.2701986 121.7047445  65.5600712  47.0586571
 120.2032557  67.0974946  46.6251764 117.9573643  64.3408565  46.9372151
 118.6495185  64.3768031  45.8839025 117.0139615  63.3870851  47.0967242
 116.6305053  63.2448798  48.0202167 116.5080250  62.5318431  45.9798278
 115.4215283  62.5104480  46.0644821 116.7898314  63.0258776  45.0499814
 117.0303407  61.1059022  45.9598312 118.2589900  60.9332040  46.0467635
 116.1298960  60.1278780  45.8786842 115.1604141  60.3917432  45.9815406
 116.4714861  58.6582048  45.8424778 115.5613863  58.0585233  45.8566076
 117.2598269  58.3373998  44.5343918 118.0873593  59.0467715  44.5434055
 117.6435496  57.3302048  44.6969190 116.6155794  58.3941366  43.3062928
 117.2363219  58.1712608  42.6087221 117.1346338  58.2311332  47.1489149
 117.8320220  57.2194690  47.1997804 116.8382005  58.9264502  48.2255646
 116.3130351  59.7873709  48.1697424 117.2797600  58.4491288  49.5774180
 116.4078497  58.5030617  50.2293097 117.5808379  57.4081834  49.4595871
 118.4294530  59.2307062  50.2177054 118.8583908  59.0292441  51.3816536
 118.9715637  60.1249443  49.3551191 118.7561660  59.9937984  48.3771089
 119.9079457  61.1654470  49.7172625 120.6549375  60.7821517  50.4123791
 120.6302367  61.6635469  48.4387453 119.8973789  61.7613298  47.6378351
 121.0750455  62.6371801  48.6443748 121.7223882  60.6852125  48.0122200
 122.6599693  61.1108463  48.3698208 121.5174266  59.7579899  48.5473378
 121.8649961  60.3341383  46.2545411 120.8253017  58.8365503  46.2051447
 119.8180495  59.0816174  46.5420186 120.7839820  58.4557955  45.1846452
 121.2516078  58.0759151  46.8592077 119.3119102  62.3522439  50.5067554
 118.1567284  62.6812242  50.3691731 120.1401069  62.9768709  51.3498451
 120.9593892  62.4625076  51.6402006 119.8425689  64.2958086  52.0299624
 118.9841427  64.7762538  51.5605202 119.5181386  64.0515018  53.5167149
 120.4015114  63.6024935  53.9707449 119.3316125  65.0246225  53.9709661
 118.2599218  63.1048813  53.7550784 117.4427093  63.4667975  53.1311542
 118.5334501  62.0961837  53.4455409 117.8061151  63.0852483  55.2439347
 118.7225192  63.0735714  55.8339908 117.2813814  64.0265597  55.4072959
 116.8777693  61.8796278  55.6867146 116.1817323  62.2155109  56.4553599
 116.3184767  61.5119647  54.8264153 117.7348338  60.7744449  56.2359943
 118.2528471  61.1148020  57.0334396 117.1481472  60.0029156  56.5199686
 118.3795805  60.4627728  55.5237715 120.9220433  65.3570255  51.7888078
 121.9907936  65.0649582  51.3091146 120.6838076  66.5840948  52.2268601
 119.7839289  66.6446002  52.6814553 121.4532013  67.8410169  52.0142614
 122.5170161  67.6035532  52.0171169 121.1066217  68.5343397  50.6810675
 121.8929224  69.2623263  50.4814033 121.1164703  67.7679141  49.9060869
 119.7308159  69.2480874  50.6838711 118.9761305  68.5343440  51.0142059
 119.7779390  70.0784252  51.3884423 119.3522703  69.7875144  49.2692631
 119.4202773  68.9983916  48.5204245 118.3446896  70.2033007  49.2677121
 120.3266677  70.8807559  48.9090192 121.2959806  70.7389879  49.1548521
 120.0056561  71.9482950  48.1919888 118.8466774  72.1119671  47.5535055
 118.1419632  71.3899090  47.5994391 118.6787547  72.9572586  47.0268330
 120.8877700  72.9073803  48.2653067 121.7152182  72.7860916  48.8316270
 120.7388359  73.7663890  47.7553839 121.2796826  68.7647329  53.3000304
 120.2499304  68.8046059  53.9541288 122.2840387  69.5593130  53.6296683
 123.0948001  69.5354230  53.0278423 122.3671748  70.3044594  54.8550532
 121.8759552  69.7314118  55.6414494 123.7981221  70.5921383  55.2846315
 123.7934998  70.7139181  56.3677971 124.3976966  69.7211702  55.0200091
 124.4052133  71.8560691  54.6258021 124.3601352  71.5598962  53.5777800
 123.8068005  72.7548306  54.7748964 125.8545572  72.1402686  55.0120392
 126.3026238  73.2522181  54.7891993 126.6527090  71.2179366  55.4012632
 121.5031897  71.5507374  54.8116601 121.3173824  72.1869650  53.7916856
 120.7385898  71.7826039  55.8866704 120.9266503  71.2069258  56.6949570
 119.5821040  72.6912295  55.9312274 119.2160933  72.8800131  54.9220218
 118.4582306  72.1694734  56.7546952 118.8069850  71.9841681  57.7706344
 117.6518353  72.9025319  56.7759602 118.0912986  71.2389135  56.3216612
 120.1728269  73.9965705  56.3687859 120.0271111  74.4732787  57.5176606
 121.0677898  74.5384082  55.5565308 121.3644569  74.0590064  54.7185201
 121.7667201  75.7065095  55.9444867 122.1041532  75.6030273  56.9757623
 122.9679563  76.0174773  55.0699275 123.6424770  75.1655830  55.1559406
 122.6452457  76.2795493  53.5517743 121.9710950  77.1316513  53.4649268
 123.5696428  76.4920481  53.0147143 122.1712072  75.3966868  53.1228898
 123.7338067  77.1602513  55.4751238 124.4694379  77.2831282  54.8706833
 120.8679822  76.9251267  56.1142605 119.8305360  76.9515239  55.4688881
 121.3159098  77.9560010  56.8608796 122.1177872  77.7202483  57.4279004
 120.7611212  79.2703953  56.9827823 119.8782807  79.2630426  57.6220301
 121.8379441  80.1069795  57.6519349 122.7253113  80.1313472  57.0194116
 121.4701792  81.1222756  57.8003366 122.0921749  79.6685063  58.6169257
 120.3167657  79.8409619  55.6525508 119.1717901  80.3110887  55.6896668
 121.1845506  79.8227348  54.5939427 122.1479752  79.5621306  54.7488551
 120.8065041  80.3446785  53.2689957 120.6203231  81.4162412  53.3410311
 121.9037395  80.1120347  52.2551982 122.1794587  79.0581990  52.2940366
 121.4424024  80.3311095  51.2922474 123.1738923  80.9852798  52.4302723
 124.3187196  80.5247039  52.1473865 123.0180208  82.1942220  52.8291769
 119.4014226  79.8121690  52.8139619 118.4715281  80.6002427  52.6538396
 119.2977034  78.5015915  52.6374801 120.1371716  78.0373275  52.9534730
 118.1822443  77.6664925  52.1231470 118.0252442  77.9667680  51.0871524
 118.3640149  76.1823575  52.1683688 118.7809737  75.9772065  53.1543493
 117.4231131  75.6442654  52.0532139 119.3722002  75.7112350  51.0675773
 119.8206181  76.4343335  50.1626723 119.6453975  74.5326066  51.0895632
 116.8861246  77.8400128  52.9233128 115.7497899  77.9779807  52.4467541
 117.0707533  77.9583001  54.2454707 118.0201922  77.8387424  54.5685357
 115.9945718  78.2220700  55.2695589 115.1409772  77.5669955  55.0953377
 116.5291217  77.9569524  56.6452312 117.4893278  78.4292960  56.8525835
 115.7646564  78.3907958  57.2898029 116.6290708  76.4863855  56.9100029
 117.2515149  75.9695032  56.1795942 117.3017727  76.4305986  58.2835097
 116.6796491  76.9469120  59.0145922 117.4283575  75.3907110  58.5846918
 118.2771095  76.9143848  58.2308848 115.3422969  75.7268455  57.1190341
 114.7179335  75.8172235  56.2301576 115.5656888  74.6754645  57.3001289
 114.8123243  76.1383437  57.9780436 115.4521885  79.6743402  55.2240570
 114.2028153  79.8583922  55.1318699 116.3678725  80.6276763  55.1095532
 117.3364903  80.4261336  55.3126775 115.9890278  82.0391036  54.7904238
 115.2965913  82.4607244  55.5190299 117.2099252  82.9990246  54.6164604
 118.0839503  82.3720890  54.4400165 117.0661410  84.0123412  53.4685015
 116.1925324  84.6399847  53.6444904 117.9580611  84.6370837  53.4207937
 116.9457781  83.4791510  52.5254637 117.5482567  83.6928767  55.9158668
 117.8999471  82.8945574  56.5693964 118.3807013  84.3508943  55.6665712
 116.4480272  84.5052457  56.6404194 115.6153907  83.8477553  56.8904648
 116.8565918  84.9368264  57.5541548 116.0961432  85.3040913  55.9876382
 115.0726589  82.0460673  53.5174739 114.1475182  82.8824628  53.4321607
 115.3061046  81.2081349  52.5462775 116.1063395  80.6081069  52.6865976
 114.6561644  81.1878097  51.2660436 114.4305399  82.2020286  50.9365701
 115.6047641  80.5250682  50.2231547 116.5827486  81.0034940  50.2756363
 115.7064118  79.4651229  50.4561435 115.0295549  80.6857603  48.8000994
 114.1181577  80.0983088  48.6889387 114.8132758  81.7337520  48.5926414
 116.1595542  80.1434887  47.7474033 116.9805687  80.8573440  47.6807339
 116.5439173  79.1782195  48.0769786 115.4937919  79.9864887  46.3484485
 116.3238696  79.7290832  45.6905625 114.8410225  79.1213106  46.4644576
 114.7396225  81.0887895  45.7690805 115.3444213  81.8904494  45.6611013
 114.3811165  80.8134181  44.8658950 113.9701535  81.3271814  46.3783308
 113.3297231  80.6144524  51.3783873 112.3410557  81.3533582  51.1074666
 113.2188298  79.3716830  51.9173463 114.0682710  78.8995752  52.1924156
 111.9522361  78.6081584  51.9434134 111.5002582  78.8714798  50.9871305
 112.1294915  77.0316317  52.0037805 112.8558772  76.7650182  51.2360694
 112.5816452  76.5150161  53.3081183 111.8554855  76.7808573  54.0763120
 112.6752476  75.4302370  53.2571920 113.5490437  76.9513791  53.5567728
 110.7951044  76.3436337  51.8674167 110.3432032  76.6121244  50.9125344
 110.9363916  75.2637111  51.9110598 110.1395058  76.6568994  52.6799164
 111.0610843  79.1710948  53.0390723 109.8686980  79.3722947  52.8233236
 111.6204974  79.7299230  54.1944805 112.5838952  79.5145513  54.4079730
 110.7907734  80.3487490  55.2489450 109.8945332  79.7284051  55.2438333
 111.3613107  80.3691113  56.6631421 112.2600762  80.9840576  56.6166573
 110.4312815  80.9048091  57.7611674 109.5324375  80.2900460  57.8085692
 110.9451750  80.8708078  58.7218223 110.1550691  81.9344045  57.5336994
 111.6191860  78.9345433  57.1160957 112.3313105  78.4618563  56.4396729
 112.0273988  78.9399087  58.1267554 110.6832675  78.3759279  57.1057864
 110.1664853  81.6760097  54.8867978 109.1335561  82.0619743  55.3860397
 110.7644965  82.4012493  53.9337757 111.7612724  82.2866439  53.8180052
 110.0995750  83.4558784  53.1833632 109.5781531  84.1391852  53.8536693
 111.2117545  84.2797709  52.3760139 112.0571694  84.4311285  53.0471799
 111.5242958  83.6653717  51.5316612 110.7091826  85.6579254  51.8563739
 111.3725095  85.9605682  51.0461236 109.7021098  85.5123105  51.4656056
 110.6854260  86.8008625  52.9831102 111.8686734  87.2120001  53.2655910
 109.6560959  87.2665187  53.5493766 108.9513745  83.0523154  52.3164131
 107.8265157  83.4990739  52.5578702 109.1630394  82.1304222  51.3694074
 110.1397273  81.9544625  51.1817420 108.1613159  81.4342233  50.5534453
 107.7381750  82.1207879  49.8201786 108.8017516  80.2635908  49.8127412
 109.3092103  79.6207134  50.5319724 108.0238004  79.6948415  49.3034119
 109.8053189  80.7730052  48.7934722 110.4974179  81.4990725  49.2200003
 110.3389546  79.8480256  48.5749663 109.2303871  81.3152681  47.5467255
 108.0517093  81.7056297  47.4663908 109.8879390  81.5422162  46.5890690
 107.0018945  80.9774160  51.3786448 105.8559974  81.3185410  51.0512328
 107.2220684  80.2510027  52.4402662 108.1688938  79.9287007  52.5807738
 106.2010831  79.8250027  53.3851334 105.4979855  79.1053587  52.9657702
 107.0181176  79.1281119  54.4922179 107.5428352  78.3335094  53.9617677
 107.7442326  79.8141359  54.9283694 106.1442816  78.5074579  55.6249969
 105.3942667  79.2150651  55.9783673 105.4624554  77.3211128  55.0135156
 106.2118751  76.6127977  54.6603038 104.8313108  76.8392976  55.7602494
 104.8475969  77.6472118  54.1746421 107.1274138  78.2329642  56.7946059
 107.5867220  79.1693884  57.1112208 106.5839114  77.7942896  57.6314279
 107.9028946  77.5422055  56.4635757 105.3307685  81.0176370  53.8909682
 104.1177909  80.9280212  53.9507560 105.9723563  82.0666938  54.4564297
 106.9813732  82.0324086  54.4279906 105.3343497  83.1681104  55.1849174
 104.3524437  82.9112278  55.5823731 106.1948979  83.6687543  56.3147676
 105.6734358  84.5070970  56.7766755 106.4839245  82.6206316  57.3586006
 107.0058258  81.7821174  56.8975014 107.1082430  83.0499515  58.1421884
 105.5470218  82.2707540  57.7920745 107.4610793  84.2709323  55.9350607
 107.9295438  84.5548816  56.7234223 104.9019487  84.3660360  54.3026666
 104.1384339  85.2619765  54.7394467 105.1363994  84.3265623  52.9993214
 105.7199676  83.5405610  52.7508268 104.8750439  85.3780772  51.9568322
 104.4496356  86.2704855  52.4158903 106.2113516  85.7628812  51.2704988
 106.9480439  85.9230367  52.0577306 106.5168525  84.9172711  50.6542905
 106.1125191  87.0304052  50.3925009 105.4823366  86.8246931  49.5272533
 105.6761092  87.8422212  50.9743972 107.5164279  87.4377984  49.9180679
 107.4565945  88.4230597  49.4557053 108.1780972  87.4825417  50.7831063
 108.0805700  86.4916980  48.9410809 107.4136455  85.8280497  48.5738180
 109.2643645  86.5307627  48.4192164 110.2881032  87.1903958  48.8860935
 110.1914785  87.7344443  49.7315371 111.1726896  87.1540628  48.4000005
 109.5637449  85.7512505  47.4356230 108.8715950  85.1105998  47.0742433
 110.4888313  85.7853902  47.0317066 103.6626325  84.9638027  51.0847603
 103.8169396  84.4810866  49.9512510 102.5216156  85.0617296  51.7268636
 102.6607697  85.2444862  52.7103958 101.2221352  84.8973957  51.2651071
 101.1210757  83.9957755  50.6609820 100.0987151  84.9206936  52.3620288
 100.0799682  85.9222745  52.7916619  98.7490971  84.5833332  51.8313007
  98.7669383  83.5816406  51.4018892  98.0205164  84.6179290  52.6412846
  98.4704256  85.3031082  51.0616480 100.4716910  84.0346447  53.5928072
 101.3651925  84.4981228  54.0110703  99.6407072  84.1563475  54.2876122
 100.7303012  82.5444356  53.3637340 101.5615125  82.4219244  52.6693431
 100.9768960  82.0678836  54.3125166  99.8370272  82.0801494  52.9458826
 100.9394426  85.9990365  50.2162051 100.4558305  85.6144117  49.1296766
 101.1352123  87.3023232  50.4987931 101.3996220  87.5135627  51.4504047
 100.8688522  88.4490362  49.5608855 100.0795763  88.1569192  48.8682020
 100.4281131  89.7359332  50.2984558 101.2320839  90.3186140  50.7481371
  99.8941287  90.3522124  49.5751573  99.4665637  89.4287344  51.3864441
  98.3076010  88.6263669  51.2432310  97.7004868  88.5287343  52.4469333
  96.8152531  87.9137445  52.6089448  98.4215540  89.3263519  53.3149940
  98.2101140  89.4504639  54.2947844  99.4656566  89.9245356  52.6523100
 100.0973534  90.6466385  53.1696375 102.0622669  88.7038058  48.6551240
 103.1623472  88.9803992  49.2350390 101.9245053  88.6365778  47.4512261
  53.2049092  46.7434005  86.5577699  52.2330686  47.2287599  85.6271948
  53.0950044  47.9628345  84.2775422  54.0185439  48.9662273  84.5170971
  54.7466006  49.4832532  83.4590217  52.8958217  47.4800835  82.9941327
  53.6338477  48.0101722  81.9493229  54.5667598  49.0129898  82.1655150
  55.4345446  49.5126666  81.0363265  56.5654319  48.6281656  80.7897478
  56.6582866  47.8786787  79.6885338  57.8443050  46.9704404  79.5825790
  58.8631697  46.9920418  80.5288232  59.9110632  46.0907167  80.4597832
  57.9060512  46.0238038  78.5643965  58.9556209  45.1235928  78.4989550
  59.9785015  45.1358321  79.4456711  61.0572551  44.1144422  79.4274945
  61.0937292  43.1172611  78.4522953  62.0569309  42.1227000  78.4790851
  63.0176866  42.0922712  79.4851808  64.0198132  41.0096510  79.5697328
  64.6892045  40.9361218  80.6618178  65.3101541  39.6479625  81.0059112
  65.9991696  39.7539809  82.3695225  65.8669508  41.1167138  82.9863031
  66.6525940  41.9984460  82.3756861  66.6065903  43.3507409  82.8866177
  65.1454191  41.3932470  83.9070926  64.2346874  38.5663593  80.9950116
  63.7769044  37.8530288  81.9996305  62.8442870  36.9580902  81.4842328
  62.7640091  37.1530554  80.1910019  61.8882009  36.4054275  79.2539392
  63.6263989  38.1662551  79.8232353  63.9186093  38.7802515  78.6002486
  64.1341660  40.1120204  78.4615727  64.4840940  40.4425410  77.1035449
  64.8085334  41.8255937  76.6234302  64.5107090  39.3503071  76.2929780
  64.8320344  39.2683727  74.8319753  64.1170032  37.8989802  77.1438552
  62.9897147  43.0857364  80.4584036  62.0267571  44.0780708  80.4277430
  55.8168158  47.9202414  78.7951641  51.4420242  48.4287354  86.4050743
  50.0880229  48.8501588  86.2503435  49.1558142  48.0960032  85.5408272
  47.8581657  48.5494318  85.3846736  47.4277098  49.7593140  85.9181460
  46.0132058  50.2245992  85.6863141  48.3520634  50.5263335  86.6445684
  49.6708545  50.0659804  86.8055222  50.3556420  50.9911196  87.5540171
  49.5131969  52.0289608  87.8752541  48.2704515  51.7872437  87.3365495
  47.1346984  52.6592262  87.4567137  46.2015172  53.3190402  87.5220768
  51.2614831  46.3254774  85.0914043  54.1662798  49.3158530  85.4196629
  55.3975064  50.1918768  83.6375525  52.2431703  46.7723320  82.8180904
  53.4905979  47.6661928  81.0443087  54.9086871  49.5803456  80.2129436
  55.7681756  50.4129058  81.2277441  57.2008146  48.6010409  81.4008796
  58.8602605  47.6443218  81.2586337  60.6137331  46.1312176  81.1406303
  57.2043063  45.9885928  77.8831482  58.9676258  44.4717856  77.7689295
  60.4314164  43.1112791  77.7314015  62.0477114  41.4397503  77.7780368
  65.9754395  39.4352077  80.3202869  66.9555641  39.5594458  82.3185363
  65.6434399  39.1011076  83.0058100  67.2922875  43.9024242  82.4569773
  65.7161587  43.7381618  82.7615670  66.7922369  43.3166423  83.8469711
  61.6831494  36.9635725  78.4760819  62.3350666  35.6010256  78.9202078
  61.0367036  36.1680687  79.6721165  65.0737635  41.8211291  75.6806290
  64.0364070  42.4218113  76.6926493  65.5343188  42.2103006  77.1552640
  64.8798018  38.3348107  74.5396225  64.1564994  39.7116680  74.2791086
  65.6977234  39.6912516  74.6593279  63.6566187  43.0881272  81.1749357
  62.0405158  44.7606431  81.1292947  51.7066180  48.4566795  87.2463604
  49.3927250  47.2356099  85.1413243  47.2315021  47.9920168  84.8804215
  45.6233249  50.6152199  86.4931532  45.9941194  50.9145335  84.9911160
  45.4563562  49.4692236  85.4073011  51.1436423  50.8303131  87.9184039
  49.8461209  52.7793429  88.4096343  92.6570030  57.1276683  72.2659668
 109.9554171  91.7979150  58.5940968  79.9252863  32.2166785  83.5424618
  73.8415017 123.8965525  79.6220553  57.6126776  97.0524621  77.8891997
  96.5916227  55.0008440  53.4322923  74.0298476  77.7057130 100.4591546
  92.9204960 116.7510499  57.3856000  77.3567627 105.9253262  46.4206726
  51.3011702  77.9982654  46.3903369 122.5795429  64.4194532  41.0004919
 112.2484456 114.6606310  73.8461509  80.1379126 131.3037746 102.8740074
  88.3295229  90.5238544  30.5855531 100.5760285  71.6430977  40.5175116
  55.2838073 104.8664274  55.1314444  98.6413089 120.1956193  81.6823837
  95.2502965  53.3453038  67.6331228  50.5034733  86.6747298  76.0482125
  80.1149987  83.0029249 111.0141645  61.6871068  49.1032634  51.2509404
 127.3365251  76.6703350  51.1276900  78.7663497  62.2785820 150.3978075
  77.8590558  62.0475073 150.5969224  79.2634529  61.4823439 150.5852057
  80.1149983  60.0091375 150.8405731  81.0609088  59.8797583 150.9094149
  79.7364228  59.2706037 151.3175159  81.0945713  43.6957835 141.3184010
  80.4433693  44.2811916 140.9318024  81.8890076  44.2264030 141.3779048
  87.3612437  40.1882771 142.5788847  86.5841880  39.8493931 142.1344009
  88.0403918  40.1935394 141.9043812  78.7663498  39.2847942 137.1223382
  77.8590560  39.0537196 137.3214531  79.2634530  38.4885562 137.3097364
  81.6731577  47.9945449 140.0420068  80.9993275  48.2977146 140.6505026
  82.0597399  48.7974530 139.6925525  79.6427819  40.9269281 138.9835451
  79.2047249  40.2105140 138.5241088  80.3838260  41.1545396 138.4220542
  79.8722792  48.1625122 142.2567147  80.0474548  47.6913165 143.0712770
  79.1855580  48.7890888 142.4848408  83.7639047  39.7853662 138.5767508
  83.1468217  39.0600491 138.4800561  83.2955535  40.5463023 138.2334583
  84.5876732  43.1092834 142.6960148  84.8636576  42.9949429 143.6054022
  83.7181231  42.7110319 142.6572321  81.5572961  46.2847370 143.6008010
  82.0860728  45.7739825 142.9878172  81.8201181  45.9689901 144.4653543
  84.6513145  46.2564169 144.2162993  84.8250022  45.6910591 143.4636846
  85.1442036  47.0565063 144.0342483  85.6388317  45.5730933 141.3159891
  86.3339222  46.1937626 141.5347206  85.9811468  44.7226284 141.5912269
  87.5379741  43.0230639 142.8447222  88.0631065  43.3617911 142.1196542
  87.4502093  42.0877654 142.6610357  79.7303186  45.6792685 140.2234985
  79.1577153  46.2982872 139.7705457  80.3035980  46.2292046 140.7574907
  82.9500446  45.9629835 141.3543567  83.8831119  45.8975396 141.5576443
  82.8623659  46.7986102 140.8958100  85.5788462  45.2795705 138.3147515
  85.5002094  44.9455569 139.2083273  86.3998129  45.7717473 138.3138987
  80.1149984  37.0153497 137.5651037  81.0609089  36.8859706 137.6339455
  79.7364229  36.2768159 138.0420466  83.1492414  42.5963701 137.9357493
  83.8528264  42.8013703 138.5515149  82.4255063  43.1640462 138.2006577
  85.0579112  43.0346230 139.9855953  85.8924715  42.6027428 139.8033428
  84.8963454  42.8628243 140.9132848  84.7125004  39.5378343 141.3512292
  84.6573808  39.3722614 140.4100737  84.0871059  40.2454376 141.5074482
  93.6863387  53.5515881 150.0811130  94.3241797  53.4322628 149.3774470
  93.5684230  54.4996725 150.1399082  90.4953093  53.5043309 150.0172655
  90.1571604  53.3884374 149.1293189  91.3642861  53.1034474 149.9973661
  86.3539909  55.3578785 146.0069546  85.7904774  55.2668722 145.2385833
  86.2392304  54.5378690 146.4872038  83.9004341  56.8529977 148.8453766
  84.6925632  56.5120802 148.4300065  84.1400991  56.9624952 149.7655919
  91.9339467  59.0249753 141.3184010  91.2827447  59.6103833 140.9318024
  92.7283830  59.5555948 141.3779048  85.8595094  56.1138890 141.7171145
  86.6325970  55.5667877 141.5784021  86.2120493  56.9783140 141.9285606
  88.6236344  54.8192121 151.5139404  89.2199916  54.5948143 150.7996367
  88.6811315  54.0776867 152.1164852  88.1961372  52.2731556 139.3489595
  88.4486893  51.7513078 138.5873058  87.2585931  52.1097702 139.4516278
  93.2404655  51.2767335 147.1564338  94.0267744  50.8586758 146.8054755
  93.5043359  52.1813427 147.3245986  93.4114732  56.7140185 141.8552995
  92.7760565  56.7874812 142.5673899  93.0812139  57.3033784 141.1772074
  87.9157661  54.1759662 141.5513970  87.7993919  53.5004566 142.2195054
  88.0259921  53.6892036 140.7346123  90.2589202  53.6369809 145.2560659
  89.8947409  53.1100430 145.9673580  91.1156318  53.2468278 145.0827144
  89.8994689  48.6659709 140.2522007  90.0669091  49.5339946 140.6192478
  89.7091858  48.8286991 139.3283297  86.1082504  53.5790485 147.9524542
  85.1833000  53.4466699 148.1602234  86.3566917  54.3584704 148.4494485
  89.8783910  51.1217367 141.2368674  89.7583535  51.5674417 142.0754155
  89.1836498  51.4702684 140.6782212  83.4691315  53.2223758 148.7868331
  83.5983696  53.4758237 149.7007743  82.7888766  53.8151466 148.4672986
  87.6390802  63.8921008 144.8858805  87.5614832  64.8428833 144.9647286
  87.0352446  63.5466881 145.5433732  95.5768976  51.5938840 142.0649008
  96.4886832  51.8266227 141.8896706  95.0678623  52.1775884 141.5024087
  89.7366520  56.3139066 146.7212675  90.2004866  56.5926769 145.9317297
  89.4723318  55.4122511 146.5385766  86.6290601  55.8610548 149.6592438
  87.1991958  56.2897816 149.0209923  87.2198713  55.5793133 150.3576624
  88.6735406  52.4362219 143.5302240  89.3759450  52.8883262 143.9976166
  88.3416035  51.7946038 144.1582133  84.3675486  51.0590351 145.7902850
  83.5706649  51.1709045 146.3086346  84.1401078  51.3977003 144.9243741
  89.9129171  59.2503161 143.6064345  89.7774846  60.0954697 144.0349193
  90.4538983  59.4522439 142.8430279  83.3658568  56.7678599 144.1792270
  83.8783089  57.5621850 144.3297835  84.0181281  56.0704890 144.1125872
  85.1753453  59.8844356 146.2615023  85.3520081  60.8062320 146.0736007
  85.9710286  59.5702775 146.6909403  81.3307485  55.0967254 144.9551841
  82.1682707  55.5064262 144.7385549  81.5085753  54.1566696 144.9252035
  93.2271917  52.7642334 140.6435674  92.7118541  53.5346939 140.8824061
  92.9549226  52.0907470 141.2668735  90.8119028  47.6092035 145.7020912
  89.9560625  47.2198885 145.5226551  91.2245980  47.6883996 144.8420698
  98.2006191  55.5174689 142.5788847  97.4235634  55.1785848 142.1344009
  98.8797672  55.5227312 141.9043812  93.0158220  50.6369426 142.4695455
  92.7108356  50.9515576 143.3205598  93.9688662  50.7150846 142.5122788
  91.4604652  56.7959650 144.1188409  90.9326014  56.0612409 143.8061646
  90.9592155  57.5734326 143.8728377  86.1923380  47.4579316 146.4795020
  86.7667132  47.2354497 145.7468213  86.7794362  47.5268011 147.2323622
  95.2502957  53.3453043 147.2859397  95.7634839  53.9783035 147.7881107
  95.9004181  52.7454238 146.9202757  86.5192967  49.4883777 140.4990906
  85.6830279  49.8258464 140.8200180  86.3797737  49.3532757 139.5618043
  88.4946047  44.3320565 145.2070090  87.8410460  44.0169582 144.5826705
  88.4526522  43.7096305 145.9329913  89.6057252  54.6139860 137.1223382
  88.6984314  54.3829113 137.3214531  90.1028284  53.8177479 137.3097364
  92.5125331  63.3237367 140.0420068  91.8387030  63.6269064 140.6505026
  92.8991153  64.1266448 139.6925525  91.7283788  50.8202498 149.5317738
  90.8106349  51.0417445 149.3739426  92.1443931  50.8948809 148.6729445
  92.5118836  52.2193914 144.6620418  93.2590655  52.7315311 144.3527540
  92.7810425  51.8977967 145.5224811  90.7845486  54.7152455 141.6447372
  89.8756705  54.4311488 141.7419842  90.8140570  55.1351533 140.7850679
  96.0164753  58.3259044 145.4138540  95.5627080  57.4849954 145.4703730
  95.3858720  58.9620443 145.7513320  94.9597673  49.2551030 146.6439207
  94.2220430  48.7428417 146.9749450  95.2124446  48.8151412 145.8322484
  94.4597692  60.1635541 146.3488358  94.7520667  60.7240598 145.6300723
  94.9696313  60.4564102 147.1041517  81.3533656  52.4357969 145.6262574
  81.1558056  51.8427330 144.9013641  80.7980320  52.1310179 146.3438513
  89.3330380  52.3281075 147.7457167  89.3878990  51.3754912 147.6699644
  88.5221582  52.4840515 148.2298466  90.4821574  56.2561199 138.9835451
  90.0441003  55.5397057 138.5241088  91.2232014  56.4837313 138.4220542
  87.2722740  50.9458135 145.5047546  86.4590605  51.2452306 145.9112738
  87.7681734  50.5513824 146.2222029  89.4231318  60.9415892 147.4381811
  89.3807496  61.1676738 146.5090343  90.3394016  60.7079267 147.5867612
  98.5994688  54.5318396 145.0411769  98.4612587  54.7219992 144.1132958
  98.2430907  55.2937778 145.4979820  87.5397118  57.8178921 147.2343774
  88.3337717  57.3229241 147.0326349  86.8288811  57.2896784 146.8711479
  83.8479882  51.9622003 143.3103526  82.9177470  51.9006458 143.5273489
  83.9437354  51.4397956 142.5140168  83.7665431  48.4876816 145.8981768
  84.0272248  49.4022149 145.7890929  84.5882603  48.0201258 146.0478381
  90.7116546  63.4917040 142.2567147  90.8868302  63.0205083 143.0712770
  90.0249334  64.1182806 142.4848408  91.6673610  57.7689546 148.3030449
  91.3323442  57.7290316 149.1988098  91.1677555  57.1034262 147.8300859
  94.6032801  55.1145580 138.5767508  93.9861972  54.3892408 138.4800561
  94.1349290  55.8754940 138.2334583  86.3931347  49.3331004 137.6988813
  85.5160813  49.2119805 137.3351059  86.8689100  48.5417083 137.4467701
  77.9133487  54.1208164 147.7930320  78.6004527  53.8069894 147.2051335
  77.7581616  55.0249529 147.5197571  89.5795273  61.6857295 144.9451333
  88.7962795  62.2278975 145.0389558  90.2788018  62.2031274 145.3445574
  92.8891923  47.4951924 147.5885538  93.3860623  46.7421887 147.2686609
  92.1178905  47.5316241 147.0228748  93.9721704  56.2523612 145.1623962
  93.0377983  56.3725074 144.9928666  94.1498372  55.3496078 144.8983972
  89.4726892  49.6369307 147.3157223  89.1024680  49.0840348 148.0038129
  89.9685984  49.0327441 146.7632223  97.3594255  52.0940931 145.6973996
  97.8254707  52.9268922 145.6234299  97.8101756  51.6285912 146.4019254
  95.4270486  58.4384752 142.6960148  95.7030330  58.3241347 143.6054022
  94.5574985  58.0402237 142.6572321  92.0624550  62.6871103 146.3392962
  92.2446945  61.8692759 146.8020714  92.8857536  62.9038795 145.9017852
  92.3966716  61.6139288 143.6008010  92.9254482  61.1031743 142.9878172
  92.6594935  61.2981818 144.4653543  82.8983809  59.6303157 151.3443344
  83.4837245  58.8846845 151.4771248  82.7008647  59.9407114 152.2280008
  85.7522464  62.6654405 146.3605786  85.0832839  63.1500532 145.8769826
  85.6135334  62.9123625 147.2749165  81.1210041  50.9272860 143.1401718
  81.4163482  50.0183538 143.0868772  80.2198077  50.9060599 142.8182721
  82.8497883  48.6086957 143.2641043  82.5210589  47.7284336 143.0816149
  83.2037253  48.5534626 144.1517433  92.0977461  60.2441860 147.7736029
  91.9502424  59.3158568 147.9543599  92.9230955  60.2661951 147.2893104
  85.9639706  48.8959927 143.6316521  86.3035778  49.4245848 142.9095129
  86.4111826  49.2340333 144.4075088  87.9507853  47.3934549 141.8309814
  88.6716215  47.7715802 141.3273531  87.3273157  48.1123426 141.9344792
  92.0938976  48.0979698 142.7668146  92.3102590  48.9804336 142.4656974
  91.6133043  47.7065911 142.0373788  95.4906899  61.5856086 144.2162993
  95.6643777  61.0202509 143.4636846  95.9835791  62.3856981 144.0342483
  88.0971476  46.9282339 144.6607350  88.2187387  45.9998985 144.8598238
  87.8073518  46.9421025 143.7485666 101.3446291  54.3492509 145.8353293
 101.7877437  53.5999834 145.4372416 100.4672801  54.3402646 145.4527025
  96.4782072  60.9022851 141.3159891  97.1732977  61.5229543 141.5347206
  96.8205222  60.0518202 141.5912269  98.3773495  58.3522556 142.8447222
  98.9024819  58.6909829 142.1196542  98.2895848  57.4169572 142.6610357
  82.5406495  60.6106080 147.2067103  83.3664515  60.3109852 146.8265747
  82.1900547  59.8413703 147.6556892  87.5088028  59.9632549 149.2764777
  86.8868037  59.3003254 148.9767005  88.1792895  59.9893680 148.5938425
  80.7415100  58.5292407 148.1656037  79.9047008  58.1014581 147.9840038
  80.7138745  58.7224850 149.1026828  87.0701535  58.5136472 142.7523238
  87.2189655  59.1971936 142.0989910  87.8767978  58.4941562 143.2672693
  84.8254168  54.5401650 143.7584306  84.5800210  53.6363980 143.9564517
  84.9950082  54.5418800 142.8163784  84.0949815  50.2730007 141.2570468
  83.4019060  50.3474362 140.6010504  83.8501567  49.5090351 141.7791985
  90.5696940  61.0084602 140.2234985  89.9970907  61.6274789 139.7705457
  91.1429734  61.5583964 140.7574907  93.7894200  61.2921752 141.3543567
  94.7224873  61.2267314 141.5576443  93.7017413  62.1278019 140.8958100
  96.4182217  60.6087623 138.3147515  96.3395848  60.2747486 139.2083273
  97.2391884  61.1009391 138.3138987  90.9543739  52.3445415 137.5651037
  91.9002844  52.2151623 137.6339455  90.5757984  51.6060077 138.0420466
  89.1386656  50.2695392 137.5005923  88.2318111  49.9728504 137.5768636
  89.4162637  49.9725210 136.6340209  90.7548722  44.8132281 143.6550164
  89.9449450  44.4679366 144.0305410  91.4433139  44.5039825 144.2437776
  92.6839270  43.8910328 145.2774461  93.2370309  44.3105781 145.9364484
  92.9209356  42.9646076 145.3197417  87.9085441  47.1282327 137.6417902
  88.7704605  47.4537225 137.9013719  88.0935785  46.3413823 137.1290968
  96.0618077  46.0010853 144.7853125  95.4816746  46.6595657 144.4031177
  95.7954010  45.1788198 144.3740542  81.8389599  55.1422920 147.7964106
  81.8160287  55.2410607 146.8445989  82.1490235  55.9888071 148.1181272
  94.8442955  48.1610944 143.8409473  93.9568810  48.4460594 143.6229668
  95.2596944  48.0004707 142.9936750  82.8527206  62.7418695 148.9280918
  82.7181674  61.9819096 148.3618916  82.4359268  63.4659595 148.4609707
  93.9886169  57.9255618 137.9357493  94.6922019  58.1305621 138.5515149
  93.2648817  58.4932380 138.2006577  94.8183979  53.6765479 144.0559763
  94.7619180  54.1334031 143.2167396  95.3712321  52.9156164 143.8782606
  95.8972866  58.3638147 139.9855953  96.7318470  57.9319346 139.8033428
  95.7357209  58.1920161 140.9132848  95.5518758  54.8670261 141.3512292
  95.4967562  54.7014532 140.4100737  94.9264813  55.5746294 141.5074482
  88.8614884  44.3678370 140.9297611  88.8493553  45.3120210 141.0865882
  89.7538306  44.1848515 140.6357072  99.0355127  67.6023474 139.3489595
  99.2880647  67.0804995 138.5873058  98.0979686  67.4389619 139.4516278
 100.7388443  63.9951627 140.2522007 100.9062846  64.8631863 140.6192478
 100.5485613  64.1578908 139.3283297  97.3586721  64.8175695 140.4990906
  96.5224034  65.1550381 140.8200180  97.2191491  64.6824674 139.5618043
  99.3339802  59.6612483 145.2070090  98.6804214  59.3461500 144.5826705
  99.2920276  59.0388223 145.9329913 100.4451007  69.9431778 137.1223382
  99.5378069  69.7121031 137.3214531 100.9422039  69.1469397 137.3097364
  94.6873636  67.2913921 143.3103526  93.7571224  67.2298376 143.5273489
  94.7831108  66.7689873 142.5140168  97.2325102  64.6622922 137.6988813
  96.3554568  64.5411723 137.3351059  97.7082855  63.8709000 137.4467701
  91.9603795  66.2564777 143.1401718  92.2557237  65.3475456 143.0868772
  91.0591831  66.2352517 142.8182721  93.6891637  63.9378875 143.2641043
  93.3604343  63.0576254 143.0816149  94.0431008  63.8826544 144.1517433
  98.7901607  62.7226466 141.8309814  99.5109970  63.1007719 141.3273531
  98.1666911  63.4415343 141.9344792  98.9365230  62.2574257 144.6607350
  99.0581142  61.3290903 144.8598238  98.6467273  62.2712943 143.7485666
  94.9343570  65.6021925 141.2570468  94.2412815  65.6766280 140.6010504
  94.6895322  64.8382268 141.7791985 101.7937493  67.6737333 137.5651037
 102.7396598  67.5443541 137.6339455 101.4151738  66.9351995 138.0420466
  99.9780411  65.5987309 137.5005923  99.0711866  65.3020422 137.5768636
 100.2556392  65.3017127 136.6340209 101.5942476  60.1424199 143.6550164
 100.7843205  59.7971284 144.0305410 102.2826893  59.8331743 144.2437776
  98.7479195  62.4574244 137.6417902  99.6098359  62.7829143 137.9013719
  98.9329539  61.6705740 137.1290968  99.7008638  59.6970287 140.9297611
  99.6887308  60.6412127 141.0865882 100.5932060  59.5140433 140.6357072
  81.0945714  20.7019958 128.0429317  80.4433694  21.2874038 127.6563331
  81.8890077  21.2326153 128.1024355  87.3612438  17.1944894 129.3034154
  86.5841881  16.8556053 128.8589316  88.0403919  17.1997517 128.6289119
  78.7663499  16.2910065 123.8468689  77.8590561  16.0599318 124.0459838
  79.2634531  15.4947684 124.0342670  81.6731578  25.0007572 126.7665375
  80.9993277  25.3039269 127.3750333  82.0597400  25.8036652 126.4170832
  79.6427820  17.9331403 125.7080757  79.2047250  17.2167262 125.2486395
  80.3838261  18.1607518 125.1465849  79.8722793  25.1687245 128.9812454
  80.0474549  24.6975288 129.7958077  79.1855581  25.7953011 129.2093715
  83.7639048  16.7915785 125.3012815  83.1468219  16.0662613 125.2045868
  83.2955536  17.5525145 124.9579889  84.5876733  20.1154957 129.4205455
  84.8636577  20.0011552 130.3299329  83.7181232  19.7172442 129.3817628
  81.5572963  23.2909493 130.3253317  82.0860729  22.7801948 129.7123479
  81.8201182  22.9752023 131.1898850  84.6513146  23.2626291 130.9408300
  84.8250024  22.6972714 130.1882152  85.1442037  24.0627186 130.7587790
  85.6388319  22.5793056 128.0405198  86.3339223  23.1999748 128.2592513
  85.9811469  21.7288407 128.3157576  87.5379742  20.0292761 129.5692529
  88.0631066  20.3680034 128.8441849  87.4502094  19.0939776 129.3855663
  79.7303187  22.6854807 126.9480292  79.1577154  23.3044994 126.4950763
  80.3035981  23.2354169 127.4820214  82.9500447  22.9691957 128.0788874
  83.8831120  22.9037519 128.2821749  82.8623660  23.8048224 127.6203407
  85.5788464  22.2857828 125.0392821  85.5002095  21.9517691 125.9328579
  86.3998130  22.7779596 125.0384294  80.1149986  14.0215620 124.2896344
  81.0609090  13.8921828 124.3584762  79.7364231  13.2830282 124.7665772
  83.1492415  19.6025823 124.6602800  83.8528266  19.8075826 125.2760455
  82.4255064  20.1702585 124.9251883  85.0579113  20.0408352 126.7101260
  85.8924717  19.6089551 126.5278735  84.8963456  19.8690366 127.6378154
  84.7125005  16.5440466 128.0757599  84.6573809  16.3784737 127.1346043
  84.0871060  17.2516499 128.2319789  93.6863388  30.5578003 136.8056437
  94.3241798  30.4384751 136.1019777  93.5684231  31.5058847 136.8644389
  90.4953094  30.5105432 136.7417961  90.1571606  30.3946496 135.8538496
  91.3642862  30.1096597 136.7218967  86.3539910  32.3640908 132.7314852
  85.7904775  32.2730845 131.9631140  86.2392305  31.5440812 133.2117345
  83.9004342  33.8592100 135.5699073  84.6925634  33.5182924 135.1545372
  84.1400992  33.9687075 136.4901226  91.9339469  36.0311876 128.0429317
  91.2827448  36.6165956 127.6563331  92.7283831  36.5618071 128.1024355
  85.8595096  33.1201013 128.4416451  86.6325972  32.5730000 128.3029327
  86.2120495  33.9845262 128.6530913  88.6236345  31.8254244 138.2384710
  89.2199917  31.6010266 137.5241673  88.6811317  31.0838989 138.8410158
  88.1961374  29.2793679 126.0734901  88.4486894  28.7575200 125.3118364
  87.2585933  29.1159824 126.1761585  93.2404656  28.2829457 133.8809645
  94.0267746  27.8648880 133.5300062  93.5043361  29.1875549 134.0491293
  93.4114734  33.7202308 128.5798301  92.7760567  33.7936934 129.2919206
  93.0812140  34.3095906 127.9017381  87.9157662  31.1821785 128.2759276
  87.7993920  30.5066688 128.9440361  88.0259922  30.6954159 127.4591429
  90.2589203  30.6431932 131.9805966  89.8947410  30.1162553 132.6918887
  91.1156319  30.2530401 131.8072451  89.8994690  25.6721832 126.9767314
  90.0669093  26.5402068 127.3437785  89.7091859  25.8349113 126.0528603
  92.6570023  34.1338811 138.6433144  92.3570746  35.0363849 138.5348952
  92.3121083  33.8670994 139.4954297  86.1082505  30.5852607 134.6769849
  85.1833001  30.4528822 134.8847541  86.3566918  31.3646827 135.1739791
  89.8783911  28.1279489 127.9613981  89.7583536  28.5736540 128.7999461
  89.1836499  28.4764807 127.4027519  83.4691316  30.2285881 135.5113638
  83.5983697  30.4820360 136.4253050  82.7888767  30.8213589 135.1918293
  87.6390803  40.8983131 131.6104112  87.5614833  41.8490956 131.6892593
  87.0352447  40.5529003 132.2679038  95.5768977  28.6000962 128.7894315
  96.4886833  28.8328349 128.6142012  95.0678624  29.1838007 128.2269394
  94.1838560  33.5826781 136.1807896  93.5547422  33.7472495 135.4783964
  93.7964222  33.9968390 136.9518860  98.0627791  34.5181219 133.5352260
  97.3778830  34.8980120 132.9849293  98.1471641  35.1276545 134.2684208
  89.7366521  33.3201189 133.4457982  90.2004867  33.5988892 132.6562604
  89.4723320  32.4184634 133.2631072  86.6290602  32.8672670 136.3837745
  87.1991960  33.2959939 135.7455229  87.2198714  32.5855255 137.0821930
  88.6735407  29.4424341 130.2547547  89.3759451  29.8945385 130.7221473
  88.3416036  28.8008160 130.8827440  84.3675487  28.0652473 132.5148157
  83.5706650  28.1771167 133.0331653  84.1401079  28.4039125 131.6489047
  90.1981154  34.5897176 140.4630672  90.2625587  35.0517584 141.2988843
  89.4892078  33.9594541 140.5912981  89.9129172  36.2565284 130.3309652
  89.7774847  37.1016820 130.7594500  90.4538985  36.4584562 129.5675586
  83.3658569  33.7740722 130.9037577  83.8783090  34.5683972 131.0543142
  84.0181282  33.0767012 130.8371178  85.1753454  36.8906478 132.9860330
  85.3520083  37.8124443 132.7981314  85.9710288  36.5764897 133.4154710
  86.2984770  38.4084652 138.9870672  86.8492195  38.2801715 138.2147666
  85.4596246  38.7079541 138.6365565  81.3307486  32.1029376 131.6797147
  82.1682708  32.5126385 131.4630855  81.5085754  31.1628818 131.6497341
  93.2271918  29.7704457 127.3680980  92.7118542  30.5409062 127.6069368
  92.9549227  29.0969593 127.9914042  90.8119029  24.6154158 132.4266219
  89.9560626  24.2261008 132.2471858  91.2245981  24.6946118 131.5666004
  98.2006193  32.5236812 129.3034154  97.4235635  32.1847971 128.8589316
  98.8797673  32.5289435 128.6289119  93.0158222  27.6431549 129.1940762
  92.7108357  27.9577698 130.0450905  93.9688664  27.7212969 129.2368095
  91.4604653  33.8021772 130.8433716  90.9326015  33.0674532 130.5306953
  90.9592156  34.5796449 130.5973684  96.4397499  31.9970793 135.9600762
  95.7821174  32.6870054 136.0480891  97.2437899  32.3867225 136.3034748
  86.1923381  24.4641439 133.2040327  86.7667133  24.2416620 132.4713520
  86.7794363  24.5330133 133.9568928  95.2502958  30.3515165 134.0104704
  95.7634840  30.9845157 134.5126413  95.9004182  29.7516361 133.6448064
  86.5192968  26.4945900 127.2236212  85.6830280  26.8320586 127.5445487
  86.3797738  26.3594879 126.2863349  88.4946049  21.3382687 131.9315397
  87.8410461  21.0231705 131.3072011  88.4526523  20.7158428 132.6575219
  89.6057254  31.6201983 123.8468689  88.6984315  31.3891236 124.0459838
  90.1028286  30.8239602 124.0342670  92.5125332  40.3299490 126.7665375
  91.8387031  40.6331187 127.3750333  92.8991154  41.1328570 126.4170832
  91.7283789  27.8264621 136.2563044  90.8106350  28.0479568 136.0984732
  92.1443933  27.9010932 135.3974752  92.5118837  29.2256037 131.3865724
  93.2590656  29.7377434 131.0772846  92.7810426  28.9040089 132.2470118
  90.7845487  31.7214577 128.3692679  89.8756706  31.4373610 128.4665148
  90.8140571  32.1413656 127.5095986  96.0164754  35.3321167 132.1383846
  95.5627082  34.4912077 132.1949037  95.3858721  35.9682565 132.4758626
  94.9597674  26.2613153 133.3684514  94.2220431  25.7490539 133.6994756
  95.2124448  25.8213535 132.5567791  94.4597694  37.1697664 133.0733664
  94.7520668  37.7302721 132.3546030  94.9696314  37.4626225 133.8286824
  81.3533657  29.4420092 132.3507881  81.1558057  28.8489452 131.6258947
  80.7980321  29.1372302 133.0683820  89.3330381  29.3343198 134.4702474
  89.3878991  28.3817034 134.3944951  88.5221583  29.4902637 134.9543772
  90.4821575  33.2623321 125.7080757  90.0441005  32.5459180 125.2486395
  91.2232016  33.4899436 125.1465849  87.2722741  27.9520258 132.2292853
  86.4590607  28.2514428 132.6358045  87.7681735  27.5575947 132.9467335
  89.4231319  37.9478015 134.1627118  89.3807498  38.1738861 133.2335650
  90.3394018  37.7141389 134.3112919  98.5994690  31.5380518 131.7657076
  98.4612588  31.7282114 130.8378265  98.2430908  32.2999901 132.2225127
  87.5397120  34.8241044 133.9589080  88.3337718  34.3291364 133.7571655
  86.8288812  34.2958907 133.5956786  92.3591964  37.2059139 138.3101448
  92.4128986  37.7750076 139.0779164  91.4906745  37.3761024 137.9455485
  83.8479883  28.9684125 130.0348833  82.9177471  28.9068581 130.2518795
  83.9437355  28.4460078 129.2385474  83.7665432  25.4938938 132.6227075
  84.0272249  26.4084272 132.5136235  84.5882604  25.0263381 132.7723688
  91.3180064  31.3719401 139.8688380  92.2472124  31.5230561 139.6957347
  90.8971094  31.4603422 139.0137026  90.1168396  35.3970066 137.6386917
  89.9779481  35.0288850 138.5112856  89.3282992  35.9117705 137.4670875
  90.7116548  40.4979162 128.9812454  90.8868303  40.0267205 129.7958077
  90.0249336  41.1244928 129.2093715  91.6673611  34.7751668 135.0275755
  91.3323443  34.7352438 135.9233405  91.1677556  34.1096384 134.5546165
  94.6032802  32.1207703 125.3012815  93.9861973  31.3954531 125.2045868
  94.1349291  32.8817063 124.9579889  85.2777633  43.6468525 135.7552314
  85.5174231  44.2787049 136.4331333  84.4346829  43.2956565 136.0417673
  86.3931348  26.3393127 124.4234119  85.5160815  26.2181928 124.0596366
  86.8689101  25.5479205 124.1713008  77.9133488  31.1270287 134.5175626
  78.6004528  30.8132017 133.9296642  77.7581617  32.0311651 134.2442878
  89.7905495  39.4547647 138.1593818  89.7175666  40.2602619 138.6713123
  89.3482888  39.6539613 137.3341840  89.5795274  38.6919417 131.6696640
  88.7962796  39.2341098 131.7634864  90.2788020  39.2093397 132.0690881
  92.8891924  24.5014047 134.3130845  93.3860624  23.7484009 133.9931915
  92.1178906  24.5378364 133.7474054  92.2504178  39.3534481 140.3151977
  92.9632150  39.9881946 140.2427878  91.7594207  39.4498347 139.4991979
  93.9721705  33.2585734 131.8869268  93.0377984  33.3787197 131.7173973
  94.1498374  32.3558201 131.6229278  89.4726893  26.6431430 134.0402530
  89.1024681  26.0902470 134.7283435  89.9685986  26.0389563 133.4877530
  97.3594257  29.1003053 132.4219303  97.8254709  29.9331045 132.3479605
  97.8101757  28.6348035 133.1264561  87.3016092  37.1028925 141.1357548
  88.0025551  37.7365408 141.2886942  86.8311207  37.4443656 140.3753187
  95.4270488  35.4446875 129.4205455  95.7030332  35.3303469 130.3299329
  94.5574986  35.0464360 129.3817628  92.0624552  39.6933226 133.0638268
  92.2446946  38.8754881 133.5266021  92.8857538  39.9100918 132.6263158
  92.3966717  38.6201411 130.3253317  92.9254484  38.1093865 129.7123479
  92.6594937  38.3043941 131.1898850  82.8983810  36.6365280 138.0688650
  83.4837247  35.8908968 138.2016554  82.7008648  36.9469237 138.9525314
  85.7522465  39.6716527 133.0851093  85.0832840  40.1562655 132.6015133
  85.6135335  39.9185748 133.9994471  89.8927734  41.7060271 139.6833751
  90.4446042  41.8691892 140.4482836  90.2333927  42.2964709 139.0113776
  81.1210042  27.9334982 129.8647025  81.4163483  27.0245661 129.8114079
  80.2198078  27.9122722 129.5428027  93.0296121  39.6542246 136.6697433
  92.9047260  38.8531986 136.1608379  93.6875212  40.1488440 136.1811403
  95.0931029  37.4551266 138.2976983  94.1461365  37.3356618 138.2255310
  95.4413802  36.5673765 138.3803245  82.8497884  25.6149080 129.9886350
  82.5210590  24.7346459 129.8061456  83.2037254  25.5596749 130.8762739
  92.0977463  37.2503983 134.4981336  91.9502425  36.3220690 134.6788906
  92.9230956  37.2724073 134.0138411  85.9639707  25.9022050 130.3561828
  86.3035779  26.4307971 129.6340436  86.4111827  26.2402456 131.1320394
  95.7011584  38.0732541 135.5846208  96.6258132  37.8675403 135.4470659
  95.5326888  37.8248943 136.4935550  87.9507854  24.3996671 128.5555120
  88.6716217  24.7777924 128.0518837  87.3273158  25.1185548 128.6590098
  92.0938977  25.1041820 129.4913453  92.3102591  25.9866458 129.1902281
  91.6133044  24.7128034 128.7619095  95.4906901  38.5918209 130.9408300
  95.6643778  38.0264631 130.1882152  95.9835792  39.3919104 130.7587790
  88.0971477  23.9344462 131.3852657  88.2187388  23.0061108 131.5843545
  87.8073520  23.9483148 130.4730972 101.3446292  31.3554632 132.5598599
 101.7877438  30.6061957 132.1617723 100.4672802  31.3464768 132.1772331
  96.4782073  37.9084973 128.0405198  97.1732978  38.5291666 128.2592513
  96.8205223  37.0580324 128.3157576  98.3773496  35.3584679 129.5692529
  98.9024820  35.6971952 128.8441849  98.2895849  34.4231694 129.3855663
  90.0393545  39.2718752 141.6982405  90.3480671  39.0267899 142.5705105
  90.8369027  39.4765391 141.2101276  90.0614157  41.4256662 133.9287782
  89.6219147  40.9333041 134.6220639  90.8122274  40.8829630 133.6879857
  82.5406496  37.6168203 133.9312410  83.3664516  37.3171975 133.5511054
  82.1900548  36.8475825 134.3802199  87.5088029  36.9694671 136.0010084
  86.8868038  36.3065376 135.7012311  88.1792896  36.9955803 135.3183731
  80.7415101  35.5354529 134.8901344  79.9047009  35.1076704 134.7085345
  80.7138747  35.7286973 135.8272135  87.0701536  35.5198595 129.4768544
  87.2189656  36.2034059 128.8235217  87.8767980  35.5003685 129.9918000
  84.8254169  31.5463772 130.4829613  84.5800211  30.6426102 130.6809823
  84.9950084  31.5480923 129.5409091  84.0949817  27.2792130 127.9815775
  83.4019062  27.3536485 127.3255811  83.8501569  26.5152473 128.5037291
  90.5696942  38.0146725 126.9480292  89.9970909  38.6336912 126.4950763
  91.1429735  38.5646087 127.4820214  93.7894201  38.2983875 128.0788874
  94.7224875  38.2329437 128.2821749  93.7017414  39.1340142 127.6203407
  96.4182218  37.6149745 125.0392821  96.3395850  37.2809609 125.9328579
  97.2391885  38.1071513 125.0384294  90.9543740  29.3507538 124.2896344
  91.9002845  29.2213746 124.3584762  90.5757985  28.6122200 124.7665772
  89.1386657  27.2757514 124.2251229  88.2318113  26.9790627 124.3013943
  89.4162638  26.9787332 123.3585516  90.7548723  21.8194404 130.3795471
  89.9449451  21.4741489 130.7550717  91.4433140  21.5101948 130.9683082
  92.6839271  20.8972451 132.0019767  93.2370310  21.3167904 132.6609790
  92.9209358  19.9708199 132.0442723  87.9085442  24.1344449 124.3663209
  88.7704606  24.4599348 124.6259026  88.0935786  23.3475945 123.8536274
  96.0618078  23.0072976 131.5098432  95.4816747  23.6657780 131.1276484
  95.7954011  22.1850320 131.0985849  81.8389600  32.1485043 134.5209412
  81.8160288  32.2472730 133.5691295  82.1490237  32.9950194 134.8426578
  94.8442956  25.1673066 130.5654780  93.9568811  25.4522717 130.3474975
  95.2596945  25.0066830 129.7182057  82.8527207  39.7480817 135.6526224
  82.7181675  38.9881218 135.0864223  82.4359269  40.4721717 135.1855013
  93.9886170  34.9317741 124.6602800  94.6922020  35.1367743 125.2760455
  93.2648819  35.4994503 124.9251883  94.8183980  30.6827602 130.7805070
  94.7619182  31.1396154 129.9412702  95.3712323  29.9218287 130.6027913
  86.0096333  40.6450134 135.8644667  85.8928717  41.5895567 135.7623357
  85.1888779  40.3423696 136.2530466  95.8972867  35.3700270 126.7101260
  96.7318471  34.9381469 126.5278735  95.7357210  35.1982284 127.6378154
  95.5518759  31.8732383 128.0757599  95.4967563  31.7076655 127.1346043
  94.9264815  32.5808416 128.2319789  88.8614885  21.3740492 127.6542918
  88.8493555  22.3182332 127.8111188  89.7538307  21.1910638 127.3602379
  87.0350847  41.2978396 139.0800596  87.9378094  41.3302006 139.3967090
  86.8088217  40.3678847 139.0946931  88.7904449  40.0509383 135.7410674
  87.8400080  40.0511244 135.6275046  89.0936935  39.3042117 135.2246709
 104.5257142  45.8869921 136.8056437 105.1635552  45.7676668 136.1019777
 104.4077985  46.8350765 136.8644389 101.3346849  45.8397349 136.7417961
 100.9965360  45.7238414 135.8538496 102.2036617  45.4388514 136.7218967
  97.1933664  47.6932826 132.7314852  96.6298529  47.6022763 131.9631140
  97.0786059  46.8732730 133.2117345  94.7398096  49.1884017 135.5699073
  95.5319388  48.8474842 135.1545372  94.9794746  49.2978992 136.4901226
 102.7733223  51.3603793 128.0429317 102.1221203  51.9457874 127.6563331
 103.5677586  51.8909988 128.1024355  96.6988850  48.4492931 128.4416451
  97.4719726  47.9021918 128.3029327  97.0514249  49.3137180 128.6530913
  98.5373893  49.7769313 141.6483351  98.2463759  50.6814944 141.5330017
  99.1730877  49.8185840 142.3627420  99.4630100  47.1546161 138.2384710
 100.0593672  46.9302184 137.5241673  99.5205071  46.4130907 138.8410158
  99.0355128  44.6085597 126.0734901  99.2880649  44.0867118 125.3118364
  98.0979687  44.4451742 126.1761585 104.0798411  43.6121375 133.8809645
 104.8661500  43.1940798 133.5300062 104.3437115  44.5167467 134.0491293
 104.2508488  49.0494225 128.5798301 103.6154321  49.1228852 129.2919206
 103.9205895  49.6387824 127.9017381  98.7551417  46.5113703 128.2759276
  98.6387675  45.8358606 128.9440361  98.8653677  46.0246077 127.4591429
 101.0982958  45.9723850 131.9805966 100.7341165  45.4454471 132.6918887
 101.9550074  45.5822319 131.8072451 100.7388445  41.0013749 126.9767314
 100.9062847  41.8693986 127.3437785 100.5485614  41.1641031 126.0528603
 103.4963778  49.4630728 138.6433144 103.1964501  50.3655767 138.5348952
 103.1514837  49.1962912 139.4954297  96.9476259  45.9144525 134.6769849
  96.0226756  45.7820739 134.8847541  97.1960673  46.6938744 135.1739791
 100.7177666  43.4571407 127.9613981 100.5977291  43.9028458 128.7999461
 100.0230254  43.8056725 127.4027519  94.3085070  45.5577799 135.5113638
  94.4377452  45.8112278 136.4253050  93.6282522  46.1505507 135.1918293
  98.4784558  56.2275049 131.6104112  98.4008587  57.1782874 131.6892593
  97.8746201  55.8820921 132.2679038 106.4162732  43.9292880 128.7894315
 107.3280588  44.1620267 128.6142012 105.9072379  44.5129924 128.2269394
 105.0232314  48.9118699 136.1807896 104.3941176  49.0764413 135.4783964
 104.6357976  49.3260308 136.9518860 108.9021546  49.8473136 133.5352260
 108.2172584  50.2272038 132.9849293 108.9865395  50.4568463 134.2684208
 100.5760276  48.6493107 133.4457982 101.0398621  48.9280810 132.6562604
 100.3117074  47.7476551 133.2631072  97.4684357  48.1964588 136.3837745
  98.0385714  48.6251857 135.7455229  98.0592469  47.9147173 137.0821930
  99.5129162  44.7716259 130.2547547 100.2153205  45.2237303 130.7221473
  99.1809790  44.1300078 130.8827440  93.2554496  43.0299812 135.5564680
  92.4653550  43.2857340 135.0804791  93.7465743  43.8448149 135.6616721
  95.2069241  43.3944391 132.5148157  94.4100405  43.5063085 133.0331653
  94.9794834  43.7331043 131.6489047 101.0374909  49.9189094 140.4630672
 101.1019341  50.3809501 141.2988843 100.3285833  49.2886459 140.5912981
  91.5392199  43.2830302 137.9879671  91.7900237  44.1677312 138.2537247
  92.0751747  43.1034904 137.2154763 100.7522927  51.5857202 130.3309652
 100.6168601  52.4308737 130.7594500 101.2932739  51.7876479 129.5675586
  94.2052324  49.1032640 130.9037577  94.7176845  49.8975890 131.0543142
  94.8575037  48.4058930 130.8371178  96.0147209  52.2198396 132.9860330
  96.1913837  53.1416361 132.7981314  96.8104042  51.9056815 133.4154710
  95.2999565  44.2663028 142.8622493  95.1853080  43.3648285 143.1629592
  94.4444083  44.5126725 142.5107310  97.1378524  53.7376570 138.9870672
  97.6885949  53.6093633 138.2147666  96.2990000  54.0371459 138.6365565
 100.9345695  50.0027698 143.3314904 101.4674032  49.2415986 143.1014212
 100.4059776  49.7101349 144.0739058  92.1701241  47.4321294 131.6797147
  93.0076463  47.8418302 131.4630855  92.3479508  46.4920736 131.6497341
 104.0665673  45.0996375 127.3680980 103.5512296  45.8700979 127.6069368
 103.7942981  44.4261511 127.9914042 101.6512784  39.9446075 132.4266219
 100.7954380  39.5552926 132.2471858 102.0639736  40.0238036 131.5666004
  99.4254816  37.5631148 135.8323960 100.2907813  37.3673957 135.4729850
  99.4932325  37.3341500 136.7593317 109.0399947  47.8528729 129.3034154
 108.2629390  47.5139889 128.8589316 109.7191428  47.8581352 128.6289119
 103.8551976  42.9723467 129.1940762 103.5502112  43.2869616 130.0450905
 104.8082418  43.0504887 129.2368095 102.2998408  49.1313690 130.8433716
 101.7719769  48.3966450 130.5306953 101.7985911  49.9088366 130.5973684
 107.2791254  47.3262710 135.9600762 106.6214928  48.0161972 136.0480891
 108.0831653  47.7159142 136.3034748  97.0317136  39.7933356 133.2040327
  97.6060887  39.5708538 132.4713520  97.6188118  39.8622051 133.9568928
 106.0896713  45.6807083 134.0104704 106.6028594  46.3137075 134.5126413
 106.7397937  45.0808279 133.6448064  97.3586723  41.8237817 127.2236212
  96.5224035  42.1612504 127.5445487  97.2191492  41.6886797 126.2863349
  99.3339803  36.6674605 131.9315397  98.6804216  36.3523622 131.3072011
  99.2920277  36.0450346 132.6575219 100.4451008  46.9493900 123.8468689
  99.5378070  46.7183154 124.0459838 100.9422040  46.1531520 124.0342670
 103.3519087  55.6591407 126.7665375 102.6780786  55.9623104 127.3750333
 103.7384909  56.4620488 126.4170832 102.5677544  43.1556539 136.2563044
 101.6500105  43.3771486 136.0984732 102.9837687  43.2302849 135.3974752
 103.3512591  44.5547954 131.3865724 104.0984410  45.0669352 131.0772846
 103.6204181  44.2332007 132.2470118 101.6239242  47.0506495 128.3692679
 100.7150461  46.7665528 128.4665148 101.6534325  47.4705574 127.5095986
 106.8558509  50.6613085 132.1383846 106.4020836  49.8203995 132.1949037
 106.2252476  51.2974483 132.4758626 105.7991428  41.5905071 133.3684514
 105.0614185  41.0782457 133.6994756 106.0518202  41.1505452 132.5567791
 105.2991448  52.4989581 133.0733664 105.5914423  53.0594638 132.3546030
 105.8090069  52.7918142 133.8286824  92.1927412  44.7712009 132.3507881
  91.9951812  44.1781370 131.6258947  91.6374076  44.4664219 133.0683820
 100.1724136  44.6635116 134.4702474 100.2272745  43.7108952 134.3944951
  99.3615338  44.8194555 134.9543772 101.3215329  48.5915239 125.7080757
 100.8834759  47.8751098 125.2486395 102.0625770  48.8191354 125.1465849
  98.1116495  43.2812175 132.2292853  97.2984361  43.5806346 132.6358045
  98.6075490  42.8867864 132.9467335 100.2625073  53.2769932 134.1627118
 100.2201252  53.5030779 133.2335650 101.1787772  53.0433307 134.3112919
 109.4388444  46.8672436 131.7657076 109.3006343  47.0574032 130.8378265
 109.0824663  47.6291819 132.2225127  97.6030570  40.8530531 137.8454088
  98.2429950  40.7119290 137.1477051  96.7708101  40.5665044 137.4692690
  98.3790874  50.1532961 133.9589080  99.1731473  49.6583282 133.7571655
  97.6682567  49.6250825 133.5956786 103.1985719  52.5351057 138.3101448
 103.2522741  53.1041993 139.0779164 102.3300500  52.7052942 137.9455485
  94.6873638  44.2976043 130.0348833  93.7571226  44.2360499 130.2518795
  94.7831110  43.7751996 129.2385474  94.6059187  40.8230856 132.6227075
  94.8666004  41.7376189 132.5136235  95.4276359  40.3555299 132.7723688
  96.0784112  42.2368613 139.7925899  96.7507165  42.0285975 139.1438548
  95.2513899  42.0390699 139.3531132 102.1573818  46.7011319 139.8688380
 103.0865878  46.8522479 139.6957347 101.7364848  46.7895340 139.0137026
 100.9562150  50.7261983 137.6386917 100.8173236  50.3580768 138.5112856
 100.1676746  51.2409623 137.4670875 101.5510302  55.8271080 128.9812454
 101.7262058  55.3559123 129.7958077 100.8643090  56.4536846 129.2093715
 102.5067365  50.1043586 135.0275755 102.1717198  50.0644356 135.9233405
 102.0071311  49.4388302 134.5546165  96.4811609  45.5111216 140.5528336
  96.3431407  44.7791455 141.1539875  97.3916533  45.4220116 140.2712524
 105.4426557  47.4499620 125.3012815 104.8255728  46.7246449 125.2045868
 104.9743045  48.2108981 124.9579889  99.1093910  45.2231175 140.0412016
  99.8193528  44.5824368 139.9998634  99.0663218  45.4744070 140.9638197
  96.1171387  58.9760443 135.7552314  96.3567986  59.6078967 136.4331333
  95.2740584  58.6248483 136.0417673  97.2325103  41.6685045 124.4234119
  96.3554569  41.5473846 124.0596366  97.7082856  40.8771123 124.1713008
  88.7527243  46.4562204 134.5175626  89.4398283  46.1423935 133.9296642
  88.5975372  47.3603569 134.2442878  93.5561965  41.3452401 138.9460650
  93.4720154  40.7378071 138.2111060  92.7344672  41.8361419 138.9470146
 100.6299249  54.7839565 138.1593818 100.5569421  55.5894537 138.6713123
 100.1876642  54.9831531 137.3341840 100.4189029  54.0211335 131.6696640
  99.6356551  54.5633015 131.7634864 101.1181774  54.5385315 132.0690881
 103.7285679  39.8305965 134.3130845 104.2254379  39.0775927 133.9931915
 102.9572660  39.8670281 133.7474054 103.0897933  54.6826399 140.3151977
 103.8025905  55.3173864 140.2427878 102.5987961  54.7790265 139.4991979
 104.8115460  48.5877652 131.8869268 103.8771738  48.7079114 131.7173973
 104.9892128  47.6850119 131.6229278 100.3120648  41.9723348 134.0402530
  99.9418435  41.4194388 134.7283435 100.8079740  41.3681481 133.4877530
 108.1988011  44.4294971 132.4219303 108.6648463  45.2622963 132.3479605
 108.6495512  43.9639953 133.1264561  98.1409846  52.4320843 141.1357548
  98.8419306  53.0657326 141.2886942  97.6704961  52.7735574 140.3753187
 106.2664242  50.7738792 129.4205455 106.5424086  50.6595387 130.3299329
 105.3968741  50.3756277 129.3817628 102.9018306  55.0225143 133.0638268
 103.0840701  54.2046799 133.5266021 103.7251292  55.2392835 132.6263158
 103.2360472  53.9493328 130.3253317 103.7648238  53.4385783 129.7123479
 103.4988691  53.6335859 131.1898850  93.7377564  51.9657198 138.0688650
  94.3231001  51.2200886 138.2016554  93.5402403  52.2761154 138.9525314
  96.5916220  55.0008445 133.0851093  95.9226595  55.4854573 132.6015133
  96.4529089  55.2477665 133.9994471  88.3295219  44.5362798 136.7893093
  88.3679319  44.0026389 137.5830212  87.8235512  44.0098003 136.1704071
 100.7321488  57.0352189 139.6833751 101.2839796  57.1983810 140.4482836
 101.0727682  57.6256626 139.0113776  95.7085981  39.3827338 140.2855636
  95.7727308  40.2442169 139.8733033  95.6453102  38.7701340 139.5527994
  91.9603797  43.2626900 129.8647025  92.2557238  42.3537578 129.8114079
  91.0591832  43.2414639 129.5428027 103.8689875  54.9834164 136.6697433
 103.7441015  54.1823904 136.1608379 104.5268967  55.4780357 136.1811403
  95.4898044  41.3382897 135.8474573  94.7684629  41.9518864 135.7082047
  96.2791299  41.8740661 135.7691219 105.9324784  52.7843184 138.2976983
 104.9855119  52.6648535 138.2255310 106.2807557  51.8965682 138.3803245
  93.6891638  40.9440998 129.9886350  93.3604344  40.0638377 129.8061456
  94.0431009  40.8888666 130.8762739 102.9371217  52.5795900 134.4981336
 102.7896180  51.6512608 134.6788906 103.7624711  52.6015991 134.0138411
  96.8033461  41.2313967 130.3561828  97.1429534  41.7599889 129.6340436
  97.2505582  41.5694374 131.1320394 106.5405339  53.4024459 135.5846208
 107.4651886  53.1967320 135.4470659 106.3720642  53.1540860 136.4935550
  98.7901609  39.7288589 128.5555120  99.5109971  40.1069842 128.0518837
  98.1666913  40.4477466 128.6590098 102.9332731  40.4333738 129.4913453
 103.1496346  41.3158376 129.1902281 102.4526799  40.0419951 128.7619095
  97.6731953  43.3919451 136.0684197  97.5276534  43.7059754 136.9608479
  97.1957156  44.0104352 135.5155096  99.5328336  40.3821999 136.1165087
  99.5189904  39.4863093 135.7797385 100.2500764  40.3892663 136.7503373
 106.3300655  53.9210127 130.9408300 106.5037533  53.3556549 130.1882152
 106.8229546  54.7211021 130.7587790  92.1477615  45.9324796 139.0071859
  91.6031083  46.7084604 139.1392133  93.0256965  46.2795600 138.8490980
  98.9365232  39.2636379 131.3852657  99.0581143  38.3353026 131.5843545
  98.6467274  39.2775065 130.4730972 101.8056422  36.9491290 134.5219377
 101.8278119  37.0130623 133.5671356 102.2224481  36.1095799 134.7159883
 112.1840046  46.6846549 132.5598599 112.6271192  45.9353875 132.1617723
 111.3066557  46.6756686 132.1772331 107.3175828  53.2376891 128.0405198
 108.0126732  53.8583584 128.2592513 107.6598978  52.3872242 128.3157576
  92.9343637  45.0594692 141.9002015  92.1925373  45.2077327 142.4866646
  92.6136381  45.3202958 141.0368765 109.2167251  50.6876596 129.5692529
 109.7418575  51.0263869 128.8441849 109.1289603  49.7523612 129.3855663
 100.8787299  54.6010670 141.6982405 101.1874426  54.3559817 142.5705105
 101.6762782  54.8057309 141.2101276 100.9007912  56.7548580 133.9287782
 100.4612902  56.2624958 134.6220639 101.6516028  56.2121547 133.6879857
  93.3800251  52.9460121 133.9312410  94.2058270  52.6463892 133.5511054
  93.0294303  52.1767743 134.3802199  98.3481784  52.2986589 136.0010084
  97.7261793  51.6357294 135.7012311  99.0186651  52.3247721 135.3183731
  91.5808856  50.8646447 134.8901344  90.7440764  50.4368621 134.7085345
  91.5532501  51.0578890 135.8272135  97.9095291  50.8490512 129.4768544
  98.0583411  51.5325977 128.8235217  98.7161734  50.8295602 129.9918000
  95.6647924  46.8755690 130.4829613  95.4193966  45.9718020 130.6809823
  95.8343838  46.8772840 129.5409091  94.9343571  42.6084047 127.9815775
  94.2412816  42.6828402 127.3255811  94.6895323  41.8444391 128.5037291
 101.4090696  53.3438643 126.9480292 100.8364663  53.9628830 126.4950763
 101.9823490  53.8938004 127.4820214 104.6287956  53.6275793 128.0788874
 105.5618629  53.5621354 128.2821749 104.5411169  54.4632060 127.6203407
 107.2575973  52.9441663 125.0392821 107.1789604  52.6101527 125.9328579
 108.0785639  53.4363431 125.0384294 101.7937495  44.6799455 124.2896344
 102.7396599  44.5505663 124.3584762 101.4151740  43.9414117 124.7665772
  99.9780412  42.6049432 124.2251229  99.0711867  42.3082544 124.3013943
 100.2556393  42.3079250 123.3585516  90.8958352  43.9255795 134.6750276
  90.5761137  43.0721103 134.3824650  90.3491780  44.1404373 135.4308243
  94.6738260  46.6418236 138.3919782  94.8924269  47.5735344 138.4107816
  95.0864034  46.2826211 139.1774586 101.5942478  37.1486321 130.3795471
 100.7843206  36.8033406 130.7550717 102.2826894  36.8393865 130.9683082
 103.5233026  36.2264368 132.0019767 104.0764064  36.6459822 132.6609790
 103.7603112  35.3000116 132.0442723  98.7479196  39.4636367 124.3663209
  99.6098360  39.7891265 124.6259026  98.9329541  38.6767863 123.8536274
  90.7646612  47.5458707 136.6443397  90.0710084  47.1312659 136.1313352
  91.5119603  47.5879243 136.0476816 106.9011833  38.3364893 131.5098432
 106.3210502  38.9949697 131.1276484 106.6347766  37.5142238 131.0985849
  92.6783355  47.4776960 134.5209412  92.6554043  47.5764648 133.5691295
  92.9883991  48.3242111 134.8426578  95.3370733  49.5353115 138.6356027
  96.2913986  49.5037058 138.5685958  95.1383256  49.0743739 139.4506253
  95.9270115  48.1054232 141.2026824  96.7463004  48.5998310 141.2261662
  96.2006922  47.1886200 141.1744392 105.6836711  40.4964984 130.5654780
 104.7962566  40.7814634 130.3474975 106.0990700  40.3358747 129.7182057
  93.6920961  55.0772735 135.6526224  93.5575429  54.3173136 135.0864223
  93.2753024  55.8013635 135.1855013 104.8279924  50.2609659 124.6602800
 105.5315774  50.4659661 125.2760455 104.1042573  50.8286420 124.9251883
 105.6577735  46.0119520 130.7805070 105.6012936  46.4688071 129.9412702
 106.2106077  45.2510204 130.6027913  96.8490087  55.9742052 135.8644667
  96.7322471  56.9187484 135.7623357  96.0282534  55.6715614 136.2530466
 106.7366622  50.6992188 126.7101260 107.5712226  50.2673386 126.5278735
 106.5750965  50.5274201 127.6378154 106.3912514  47.2024301 128.0757599
 106.3361318  47.0368572 127.1346043 105.7658569  47.9100334 128.2319789
  91.1805029  42.4392365 141.9019021  91.8263893  41.9291319 142.3906246
  90.9722180  43.1761047 142.4762447  99.7008639  36.7032410 127.6542918
  99.6887309  37.6474250 127.8111188 100.5932061  36.5202555 127.3602379
  97.8744601  56.6270314 139.0800596  98.7771848  56.6593924 139.3967090
  97.6481971  55.6970765 139.0946931  99.6298203  55.3801300 135.7410674
  98.6793834  55.3803162 135.6275046  99.9330690  54.6334035 135.2246709
 115.3650897  61.2161839 136.8056437 116.0029307  61.0968586 136.1019777
 115.2471740  62.1642683 136.8644389 112.1740603  61.1689267 136.7417961
 111.8359115  61.0530332 135.8538496 113.0430371  60.7680432 136.7218967
 108.0327419  63.0224743 132.7314852 107.4692284  62.9314680 131.9631140
 107.9179814  62.2024648 133.2117345 105.5791851  64.5175935 135.5699073
 106.3713143  64.1766760 135.1545372 105.8188501  64.6270910 136.4901226
 113.6126978  66.6895711 128.0429317 112.9614957  67.2749791 127.6563331
 114.4071340  67.2201906 128.1024355 107.5382605  63.7784848 128.4416451
 108.3113481  63.2313835 128.3029327 107.8908004  64.6429098 128.6530913
 110.3023854  62.4838079 138.2384710 110.8987426  62.2594101 137.5241673
 110.3598826  61.7422824 138.8410158 109.8748883  59.9377514 126.0734901
 110.1274403  59.4159036 125.3118364 108.9373442  59.7743660 126.1761585
 114.9192165  58.9413293 133.8809645 115.7055255  58.5232716 133.5300062
 115.1830870  59.8459385 134.0491293 115.0902243  64.3786143 128.5798301
 114.4548076  64.4520769 129.2919206 114.7599649  64.9679742 127.9017381
 109.5945171  61.8405620 128.2759276 109.4781429  61.1650524 128.9440361
 109.7047431  61.3537994 127.4591429 111.9376712  61.3015767 131.9805966
 111.5734919  60.7746388 132.6918887 112.7943828  60.9114236 131.8072451
 111.5782199  56.3305667 126.9767314 111.7456602  57.1985903 127.3437785
 111.3879368  56.4932949 126.0528603 107.7870014  61.2436443 134.6769849
 106.8620510  61.1112657 134.8847541 108.0354427  62.0230662 135.1739791
 111.5571420  58.7863325 127.9613981 111.4371045  59.2320375 128.7999461
 110.8624008  59.1348642 127.4027519 105.1478825  60.8869716 135.5113638
 105.2771206  61.1404195 136.4253050 104.4676276  61.4797424 135.1918293
 109.3178312  71.5566966 131.6104112 109.2402342  72.5074791 131.6892593
 108.7139956  71.2112839 132.2679038 117.2556486  59.2584798 128.7894315
 118.1674342  59.4912184 128.6142012 116.7466133  59.8421842 128.2269394
 111.4154030  63.9785024 133.4457982 111.8792376  64.2572727 132.6562604
 111.1510829  63.0768469 133.2631072 108.3078111  63.5256506 136.3837745
 108.8779469  63.9543774 135.7455229 108.8986223  63.2439091 137.0821930
 110.3522916  60.1008177 130.2547547 111.0546960  60.5529220 130.7221473
 110.0203545  59.4591996 130.8827440 104.0948250  58.3591729 135.5564680
 103.3047304  58.6149258 135.0804791 104.5859498  59.1740067 135.6616721
 106.0462996  58.7236309 132.5148157 105.2494159  58.8355003 133.0331653
 105.8188588  59.0622961 131.6489047 102.3785953  58.6122220 137.9879671
 102.6293992  59.4969230 138.2537247 102.9145502  58.4326821 137.2154763
 111.5916681  66.9149119 130.3309652 111.4562356  67.7600655 130.7594500
 112.1326494  67.1168397 129.5675586 105.0446078  64.4324557 130.9037577
 105.5570599  65.2267808 131.0543142 105.6968791  63.7350848 130.8371178
 106.8540963  67.5490314 132.9860330 107.0307592  68.4708278 132.7981314
 107.6497797  67.2348733 133.4154710 106.1393320  59.5954945 142.8622493
 106.0246835  58.6940203 143.1629592 105.2837837  59.8418642 142.5107310
 103.0094995  62.7613212 131.6797147 103.8470217  63.1710220 131.4630855
 103.1873263  61.8212654 131.6497341 114.9059427  60.4288292 127.3680980
 114.3906051  61.1992897 127.6069368 114.6336736  59.7553428 127.9914042
 112.4906538  55.2737993 132.4266219 111.6348135  54.8844843 132.2471858
 112.9033490  55.3529954 131.5666004 110.2648571  52.8923066 135.8323960
 111.1301568  52.6965875 135.4729850 110.3326080  52.6633418 136.7593317
 119.8793701  63.1820647 129.3034154 119.1023144  62.8431806 128.8589316
 120.5585182  63.1873270 128.6289119 114.6945731  58.3015384 129.1940762
 114.3895866  58.6161534 130.0450905 115.6476173  58.3796804 129.2368095
 113.1392162  64.4605608 130.8433716 112.6113524  63.7258367 130.5306953
 112.6379665  65.2380284 130.5973684 107.8710890  55.1225274 133.2040327
 108.4454642  54.9000455 132.4713520 108.4581872  55.1913968 133.9568928
 116.9290467  61.0099001 134.0104704 117.4422349  61.6428993 134.5126413
 117.5791691  60.4100196 133.6448064 108.1980477  57.1529735 127.2236212
 107.3617789  57.4904422 127.5445487 108.0585247  57.0178715 126.2863349
 110.1733558  51.9966523 131.9315397 109.5197970  51.6815540 131.3072011
 110.1314032  51.3742263 132.6575219 111.2844763  62.2785818 123.8468689
 110.3771824  62.0475071 124.0459838 111.7815795  61.4823437 124.0342670
 114.1912841  70.9883325 126.7665375 113.5174540  71.2915022 127.3750333
 114.5778663  71.7912405 126.4170832 113.4071298  58.4848456 136.2563044
 112.4893859  58.7063403 136.0984732 113.8231442  58.5594767 135.3974752
 114.1906346  59.8839872 131.3865724 114.9378165  60.3961269 131.0772846
 114.4597935  59.5623925 132.2470118 112.4632996  62.3798413 128.3692679
 111.5544215  62.0957446 128.4665148 112.4928080  62.7997491 127.5095986
 117.6952263  65.9905002 132.1383846 117.2414591  65.1495912 132.1949037
 117.0646230  66.6266401 132.4758626 116.6385183  56.9196988 133.3684514
 115.9007940  56.4074375 133.6994756 116.8911957  56.4797370 132.5567791
 116.1385203  67.8281499 133.0733664 116.4308177  68.3886556 132.3546030
 116.6483823  68.1210060 133.8286824 103.0321166  60.1003927 132.3507881
 102.8345566  59.5073288 131.6258947 102.4767830  59.7956137 133.0683820
 111.0117890  59.9927033 134.4702474 111.0666500  59.0400870 134.3944951
 110.2009092  60.1486472 134.9543772 112.1609084  63.9207156 125.7080757
 111.7228514  63.2043015 125.2486395 112.9019525  64.1483271 125.1465849
 108.9510250  58.6104093 132.2292853 108.1378116  58.9098264 132.6358045
 109.4469244  58.2159782 132.9467335 111.1018828  68.6061850 134.1627118
 111.0595007  68.8322696 133.2335650 112.0181527  68.3725225 134.3112919
 120.2782199  62.1964354 131.7657076 120.1400097  62.3865949 130.8378265
 119.9218417  62.9583736 132.2225127 108.4424325  56.1822449 137.8454088
 109.0823704  56.0411208 137.1477051 107.6101855  55.8956962 137.4692690
 109.2184629  65.4824879 133.9589080 110.0125227  64.9875199 133.7571655
 108.5076321  64.9542742 133.5956786 105.5267392  59.6267961 130.0348833
 104.5964980  59.5652416 130.2518795 105.6224864  59.1043914 129.2385474
 105.4452941  56.1522774 132.6227075 105.7059758  57.0668107 132.5136235
 106.2670113  55.6847216 132.7723688 106.9177866  57.5660531 139.7925899
 107.5900920  57.3577893 139.1438548 106.0907653  57.3682617 139.3531132
 112.3904057  71.1562998 128.9812454 112.5655812  70.6851041 129.7958077
 111.7036845  71.7828764 129.2093715 113.3461120  65.4335504 135.0275755
 113.0110952  65.3936274 135.9233405 112.8465065  64.7680220 134.5546165
 107.3205364  60.8403134 140.5528336 107.1825162  60.1083373 141.1539875
 108.2310287  60.7512034 140.2712524 116.2820311  62.7791538 125.3012815
 115.6649482  62.0538366 125.2045868 115.8136800  63.5400898 124.9579889
 109.9487664  60.5523093 140.0412016 110.6587283  59.9116285 139.9998634
 109.9056973  60.8035988 140.9638197 108.0718857  56.9976962 124.4234119
 107.1948324  56.8765763 124.0596366 108.5476610  56.2063041 124.1713008
  99.5920997  61.7854122 134.5175626 100.2792037  61.4715852 133.9296642
  99.4369126  62.6895487 134.2442878 104.3955720  56.6744319 138.9460650
 104.3113908  56.0669988 138.2111060 103.5738426  57.1653337 138.9470146
 111.2582783  69.3503253 131.6696640 110.4750305  69.8924933 131.7634864
 111.9575529  69.8677232 132.0690881 114.5679433  55.1597882 134.3130845
 115.0648133  54.4067845 133.9931915 113.7966415  55.1962199 133.7474054
 115.6509214  63.9169569 131.8869268 114.7165493  64.0371032 131.7173973
 115.8285883  63.0142036 131.6229278 111.1514402  57.3015265 134.0402530
 110.7812190  56.7486306 134.7283435 111.6473495  56.6973399 133.4877530
 119.0381766  59.7586889 132.4219303 119.5042218  60.5914880 132.3479605
 119.4889266  59.2931870 133.1264561 117.1057997  66.1030710 129.4205455
 117.3817841  65.9887305 130.3299329 116.2362495  65.7048195 129.3817628
 113.7412061  70.3517061 133.0638268 113.9234455  69.5338717 133.5266021
 114.5645047  70.5684753 132.6263158 114.0754226  69.2785246 130.3253317
 114.6041993  68.7677701 129.7123479 114.3382446  68.9627776 131.1898850
 104.5771319  67.2949115 138.0688650 105.1624756  66.5492803 138.2016554
 104.3796157  67.6053072 138.9525314 107.4309974  70.3300363 133.0851093
 106.7620349  70.8146490 132.6015133 107.2922844  70.5769583 133.9994471
  99.1688974  59.8654716 136.7893093  99.2073073  59.3318306 137.5830212
  98.6629266  59.3389921 136.1704071 106.5479736  54.7119256 140.2855636
 106.6121062  55.5734087 139.8733033 106.4846856  54.0993258 139.5527994
 102.7997551  58.5918818 129.8647025 103.0950992  57.6829496 129.8114079
 101.8985587  58.5706557 129.5428027 106.3291798  56.6674814 135.8474573
 105.6078384  57.2810782 135.7082047 107.1185054  57.2032579 135.7691219
 104.5285393  56.2732915 129.9886350 104.1998099  55.3930294 129.8061456
 104.8824763  56.2180584 130.8762739 113.7764972  67.9087818 134.4981336
 113.6289934  66.9804525 134.6788906 114.6018465  67.9307909 134.0138411
 107.6427216  56.5605885 130.3561828 107.9823288  57.0891806 129.6340436
 108.0899336  56.8986291 131.1320394 109.6295363  55.0580507 128.5555120
 110.3503726  55.4361759 128.0518837 109.0060667  55.7769384 128.6590098
 113.7726486  55.7625656 129.4913453 113.9890100  56.6450294 129.1902281
 113.2920553  55.3711869 128.7619095 108.5125707  58.7211369 136.0684197
 108.3670288  59.0351672 136.9608479 108.0350911  59.3396269 135.5155096
 110.3722090  55.7113917 136.1165087 110.3583659  54.8155010 135.7797385
 111.0894518  55.7184581 136.7503373 117.1694410  69.2502044 130.9408300
 117.3431287  68.6848467 130.1882152 117.6623301  70.0502939 130.7587790
 102.9871369  61.2616713 139.0071859 102.4424838  62.0376521 139.1392133
 103.8650719  61.6087518 138.8490980 109.7758986  54.5928297 131.3852657
 109.8974897  53.6644943 131.5843545 109.4861029  54.6066983 130.4730972
 112.6450177  52.2783208 134.5219377 112.6671873  52.3422541 133.5671356
 113.0618236  51.4387716 134.7159883 123.0233801  62.0138467 132.5598599
 123.4664947  61.2645792 132.1617723 122.1460311  62.0048604 132.1772331
 118.1569582  68.5668809 128.0405198 118.8520487  69.1875501 128.2592513
 118.4992732  67.7164160 128.3157576 103.7737391  60.3886610 141.9002015
 103.0319127  60.5369245 142.4866646 103.4530136  60.6494875 141.0368765
 120.0561005  66.0168514 129.5692529 120.5812329  66.3555787 128.8441849
 119.9683358  65.0815529 129.3855663 104.2194005  68.2752038 133.9312410
 105.0452025  67.9755810 133.5511054 103.8688057  67.5059661 134.3802199
 109.1875538  67.6278507 136.0010084 108.5655547  66.9649212 135.7012311
 109.8580405  67.6539638 135.3183731 102.4202610  66.1938365 134.8901344
 101.5834518  65.7660539 134.7085345 102.3926255  66.3870808 135.8272135
 108.7489045  66.1782430 129.4768544 108.8977165  66.8617894 128.8235217
 109.5555489  66.1587520 129.9918000 106.5041678  62.2047607 130.4829613
 106.2587720  61.3009937 130.6809823 106.6737593  62.2064758 129.5409091
 105.7737326  57.9375965 127.9815775 105.0806571  58.0120320 127.3255811
 105.5289078  57.1736309 128.5037291 112.2484451  68.6730560 126.9480292
 111.6758418  69.2920747 126.4950763 112.8217244  69.2229922 127.4820214
 115.4681710  68.9567710 128.0788874 116.4012384  68.8913272 128.2821749
 115.3804923  69.7923977 127.6203407 118.0969727  68.2733581 125.0392821
 118.0183359  67.9393444 125.9328579 118.9179394  68.7655349 125.0384294
 112.6331249  60.0091373 124.2896344 113.5790354  59.8797581 124.3584762
 112.2545494  59.2706035 124.7665772 110.8174166  57.9341349 124.2251229
 109.9105622  57.6374462 124.3013943 111.0950147  57.6371168 123.3585516
 101.7352107  59.2547713 134.6750276 101.4154891  58.4013021 134.3824650
 101.1885535  59.4696291 135.4308243 105.5132014  61.9710154 138.3919782
 105.7318024  62.9027262 138.4107816 105.9257788  61.6118128 139.1774586
 112.4336232  52.4778239 130.3795471 111.6236960  52.1325324 130.7550717
 113.1220649  52.1685783 130.9683082 114.3626780  51.5556286 132.0019767
 114.9157819  51.9751739 132.6609790 114.5996867  50.6292034 132.0442723
 109.5872951  54.7928285 124.3663209 110.4492115  55.1183183 124.6259026
 109.7723295  54.0059781 123.8536274 101.6040367  62.8750624 136.6443397
 100.9103838  62.4604577 136.1313352 102.3513358  62.9171161 136.0476816
 117.7405587  53.6656811 131.5098432 117.1604256  54.3241615 131.1276484
 117.4741520  52.8434156 131.0985849 103.5177109  62.8068878 134.5209412
 103.4947797  62.9056565 133.5691295 103.8277746  63.6534029 134.8426578
 106.1764487  64.8645033 138.6356027 107.1307741  64.8328975 138.5685958
 105.9777011  64.4035657 139.4506253 116.5230465  55.8256902 130.5654780
 115.6356320  56.1106552 130.3474975 116.9384454  55.6650665 129.7182057
 104.5314716  70.4064653 135.6526224 104.3969184  69.6465054 135.0864223
 104.1146778  71.1305553 135.1855013 115.6673679  65.5901576 124.6602800
 116.3709529  65.7951579 125.2760455 114.9436328  66.1578338 124.9251883
 116.4971489  61.3411437 130.7805070 116.4406691  61.7979989 129.9412702
 117.0499832  60.5802122 130.6027913 117.5760376  66.0284105 126.7101260
 118.4105980  65.5965304 126.5278735 117.4144719  65.8566119 127.6378154
 117.2306268  62.5316219 128.0757599 117.1755072  62.3660490 127.1346043
 116.6052324  63.2392252 128.2319789 102.0198783  57.7684283 141.9019021
 102.6657647  57.2583237 142.3906246 101.8115935  58.5052965 142.4762447
 110.5402394  52.0324328 127.6542918 110.5281064  52.9766168 127.8111188
 111.4325816  51.8494473 127.3602379 120.7142637  75.2669432 126.0734901
 120.9668158  74.7450953 125.3118364 119.7767196  75.1035577 126.1761585
 122.4175954  71.6597585 126.9767314 122.5850356  72.5277821 127.3437785
 122.2273123  71.8224866 126.0528603 119.0374232  72.4821653 127.2236212
 118.2011544  72.8196339 127.5445487 118.8979001  72.3470632 126.2863349
 121.0127312  67.3258441 131.9315397 120.3591725  67.0107458 131.3072011
 120.9707786  66.7034181 132.6575219 122.1238517  77.6077736 123.8468689
 121.2165579  77.3766989 124.0459838 122.6209549  76.8115355 124.0342670
 116.3661147  74.9559879 130.0348833 115.4358735  74.8944334 130.2518795
 116.4618619  74.4335831 129.2385474 118.9112612  72.3268880 124.4234119
 118.0342078  72.2057681 124.0596366 119.3870365  71.5354958 124.1713008
 113.6391306  73.9210735 129.8647025 113.9344747  73.0121414 129.8114079
 112.7379341  73.8998475 129.5428027 115.3679147  71.6024833 129.9886350
 115.0391853  70.7222212 129.8061456 115.7218518  71.5472502 130.8762739
 120.4689118  70.3872424 128.5555120 121.1897480  70.7653677 128.0518837
 119.8454422  71.1061301 128.6590098 120.6152741  69.9220215 131.3852657
 120.7368652  68.9936861 131.5843545 120.3254783  69.9358901 130.4730972
 116.6131080  73.2667883 127.9815775 115.9200325  73.3412238 127.3255811
 116.3682832  72.5028226 128.5037291 123.4725004  75.3383291 124.2896344
 124.4184108  75.2089499 124.3584762 123.0939249  74.5997953 124.7665772
 121.6567921  73.2633267 124.2251229 120.7499376  72.9666380 124.3013943
 121.9343902  72.9663085 123.3585516 123.2729986  67.8070157 130.3795471
 122.4630715  67.4617242 130.7550717 123.9614403  67.4977701 130.9683082
 120.4266705  70.1220202 124.3663209 121.2885869  70.4475101 124.6259026
 120.6117050  69.3351698 123.8536274 121.3796148  67.3616245 127.6542918
 121.3674818  68.3058085 127.8111188 122.2719570  67.1786391 127.3602379
  81.6731579   2.0069695 113.4910681  80.9993278   2.3101391 114.0995639
  82.0597401   2.8098775 113.1416138  79.8722794   2.1749367 115.7057761
  80.0474550   1.7037410 116.5203383  79.1855582   2.8015133 115.9339021
  93.6863389   7.5640126 123.5301743  94.3241799   7.4446873 122.8265083
  93.5684232   8.5120970 123.5889695  90.4953095   7.5167554 123.4663268
  90.1571607   7.4008619 122.5783803  91.3642864   7.1158719 123.4464274
  86.3539911   9.3703031 119.4560159  85.7904776   9.2792968 118.6876447
  86.2392306   8.5502935 119.9362651  83.9004343  10.8654222 122.2944379
  84.6925635  10.5245047 121.8790679  84.1400993  10.9749197 123.2146533
  91.9339470  13.0373998 114.7674624  91.2827450  13.6228079 114.3808638
  92.7283833  13.5680193 114.8269661  85.8595097  10.1263135 115.1661758
  86.6325973   9.5792123 115.0274634  86.2120496  10.9907385 115.3776219
  88.6236346   8.8316366 124.9630017  89.2199919   8.6072389 124.2486980
  88.6811318   8.0901112 125.5655465  88.1961375   6.2855802 112.7980208
  88.4486895   5.7637323 112.0363671  87.2585934   6.1221947 112.9006892
  93.4114735  10.7264430 115.3043608  92.7760568  10.7999057 116.0164513
  93.0812141  11.3158029 114.6262687  87.9157664   8.1883908 115.0004583
  87.7993922   7.5128811 115.6685667  88.0259923   7.7016281 114.1836736
  90.2589204   7.6494055 118.7051272  89.8947412   7.1224676 119.4164194
  91.1156320   7.2592524 118.5317758  92.6570025  11.1400933 125.3678451
  92.3570748  12.0425972 125.2594258  92.3121084  10.8733116 126.2199604
  86.1082506   7.5914730 121.4015155  85.1833003   7.4590944 121.6092847
  86.3566919   8.3708949 121.8985098  89.8783912   5.1341612 114.6859288
  89.7583538   5.5798663 115.5244768  89.1836501   5.4826929 114.1272826
  83.4691317   7.2348004 122.2358945  83.5983698   7.4882483 123.1498356
  82.7888768   7.8275712 121.9163600  87.6390804  17.9045254 118.3349419
  87.5614834  18.8553079 118.4137899  87.0352448  17.5591126 118.9924345
  94.1838561  10.5888903 122.9053203  93.5547423  10.7534618 122.2029271
  93.7964223  11.0030513 123.6764167  98.0627793  11.5243341 120.2597567
  97.3778831  11.9042243 119.7094600  98.1471642  12.1338668 120.9929515
  89.7366523  10.3263312 120.1703288  90.2004868  10.6051015 119.3807911
  89.4723321   9.4246756 119.9876379  86.6290604   9.8734793 123.1083051
  87.1991961  10.3022061 122.4700536  87.2198716   9.5917378 123.8067237
  88.6735409   6.4486464 116.9792853  89.3759452   6.9007508 117.4466780
  88.3416037   5.8070283 117.6072746  84.3675488   5.0714596 119.2393464
  83.5706651   5.1833290 119.7576959  84.1401080   5.4101248 118.3734354
  90.1981156  11.5959299 127.1875978  90.2625588  12.0579706 128.0234150
  89.4892080  10.9656664 127.3158288  89.9129173  13.2627407 117.0554958
  89.7774848  14.1078942 117.4839806  90.4538986  13.4646684 116.2920892
  83.3658571  10.7802845 117.6282884  83.8783091  11.5746095 117.7788448
  84.0181284  10.0829135 117.5616485  85.1753455  13.8968601 119.7105637
  85.3520084  14.8186566 119.5226621  85.9710289  13.5827020 120.1400017
  86.2984771  15.4146775 125.7115979  86.8492196  15.2863838 124.9392973
  85.4596247  15.7141664 125.3610872  81.3307488   9.1091499 118.4042454
  82.1682710   9.5188507 118.1876162  81.5085755   8.1690941 118.3742648
  93.2271920   6.7766579 114.0926287  92.7118543   7.5471184 114.3314674
  92.9549228   6.1031716 114.7159349  98.2006194   9.5298934 116.0279461
  97.4235637   9.1910094 115.5834623  98.8797675   9.5351557 115.3534426
  91.4604655  10.8083895 117.5679022  90.9326016  10.0736654 117.2552260
  90.9592157  11.5858571 117.3218991  96.4397501   9.0032915 122.6846069
  95.7821175   9.6932177 122.7726197  97.2437900   9.3929347 123.0280055
  95.2502959   7.3577288 120.7350010  95.7634841   7.9907280 121.2371720
  95.9004183   6.7578484 120.3693370  86.5192969   3.5008022 113.9481519
  85.6830282   3.8382709 114.2690794  86.3797739   3.3657002 113.0108656
  89.6057255   8.6264105 110.5713995  88.6984317   8.3953359 110.7705144
  90.1028287   7.8301724 110.7587977  92.5125334  17.3361612 113.4910681
  91.8387032  17.6393309 114.0995639  92.8991156  18.1390693 113.1416138
  91.7283790   4.8326744 122.9808351  90.8106352   5.0541691 122.8230039
  92.1443934   4.9073054 122.1220058  92.5118838   6.2318159 118.1111031
  93.2590657   6.7439557 117.8018153  92.7810428   5.9102212 118.9715425
  90.7845488   8.7276700 115.0937985  89.8756708   8.4435733 115.1910455
  90.8140572   9.1475779 114.2341292  96.0164756  12.3383290 118.8629153
  95.5627083  11.4974199 118.9194343  95.3858722  12.9744688 119.2003933
  94.4597695  14.1759786 119.7978971  94.7520669  14.7364843 119.0791337
  94.9696316  14.4688347 120.5532130  81.3533659   6.4482214 119.0753188
  81.1558058   5.8551575 118.3504254  80.7980323   6.1434424 119.7929126
  89.3330382   6.3405321 121.1947781  89.3878992   5.3879157 121.1190257
  88.5221584   6.4964760 121.6789079  90.4821576  10.2685444 112.4326064
  90.0441006   9.5521303 111.9731701  91.2232017  10.4961559 111.8711155
  87.2722742   4.9582380 118.9538160  86.4590608   5.2576551 119.3603352
  87.7681736   4.5638069 119.6712642  89.4231320  14.9540137 120.8872424
  89.3807499  15.1800984 119.9580956  90.3394019  14.7203512 121.0358225
  98.5994691   8.5442641 118.4902382  98.4612589   8.7344237 117.5623572
  98.2430910   9.3062024 118.9470434  87.5397121  11.8303166 120.6834387
  88.3337719  11.3353486 120.4816962  86.8288813  11.3021029 120.3202093
  92.3591965  14.2121262 125.0346755  92.4128988  14.7812198 125.8024471
  91.4906747  14.3823147 124.6700792  83.8479884   5.9746248 116.7594140
  82.9177472   5.9130704 116.9764102  83.9437356   5.4522201 115.9630781
  83.7665433   2.5001061 119.3472381  84.0272251   3.4146394 119.2381542
  84.5882606   2.0325503 119.4968994  91.3180065   8.3781524 126.5933686
  92.2472125   8.5292684 126.4202654  90.8971095   8.4665545 125.7382333
  90.1168397  12.4032188 124.3632224  89.9779483  12.0350973 125.2358162
  89.3282993  12.9179828 124.1916182  90.7116549  17.5041285 115.7057761
  90.8868305  17.0329328 116.5203383  90.0249337  18.1307051 115.9339021
  91.6673612  11.7813791 121.7521062  91.3323445  11.7414561 122.6478712
  91.1677558  11.1158507 121.2791472  94.6032804   9.1269825 112.0258122
  93.9861974   8.4016654 111.9291174  94.1349292   9.8879186 111.6825196
  85.2777634  20.6530648 122.4797621  85.5174232  21.2849172 123.1576639
  84.4346831  20.3018688 122.7662980  86.3931350   3.3455250 111.1479426
  85.5160816   3.2244050 110.7841672  86.8689103   2.5541328 110.8958314
  77.9133490   8.1332409 121.2420933  78.6004530   7.8194139 120.6541948
  77.7581618   9.0373774 120.9688184  89.7905496  16.4609770 124.8839125
  89.7175668  17.2664741 125.3958429  89.3482889  16.6601736 124.0587146
  89.5795276  15.6981540 118.3941946  88.7962798  16.2403220 118.4880171
  90.2788021  16.2155520 118.7936187  92.2504180  16.3596604 127.0397283
  92.9632152  16.9944069 126.9673185  91.7594208  16.4560470 126.2237285
  93.9721706  10.2647857 118.6114575  93.0377985  10.3849319 118.4419279
  94.1498375   9.3620323 118.3474585  87.3016093  14.1091047 127.8602854
  88.0025553  14.7427530 128.0132248  86.8311208  14.4505779 127.0998494
  95.4270489  12.4508997 116.1450761  95.7030333  12.3365592 117.0544635
  94.5574988  12.0526482 116.1062934  92.0624553  16.6995348 119.7883575
  92.2446947  15.8817004 120.2511327  92.8857539  16.9163040 119.3508465
  92.3966718  15.6263533 117.0498623  92.9254485  15.1155988 116.4368785
  92.6594938  15.3106063 117.9144156  82.8983811  13.6427403 124.7933957
  83.4837248  12.8971090 124.9261861  82.7008650  13.9531359 125.6770621
  85.7522466  16.6778650 119.8096399  85.0832842  17.1624778 119.3260439
  85.6135336  16.9247870 120.7239778  89.8927735  18.7122393 126.4079058
  90.4446043  18.8754015 127.1728143  90.2333928  19.3026831 125.7359083
  81.1210043   4.9397105 116.5892331  81.4163485   4.0307783 116.5359385
  80.2198079   4.9184844 116.2673334  93.0296122  16.6604369 123.3942740
  92.9047262  15.8594109 122.8853685  93.6875213  17.1550562 122.9056710
  95.0931031  14.4613389 125.0222290  94.1461366  14.3418740 124.9500617
  95.4413804  13.5735887 125.1048551  82.8497885   2.6211203 116.7131657
  82.5210591   1.7408581 116.5306763  83.2037256   2.5658871 117.6008046
  92.0977464  14.2566105 121.2226642  91.9502426  13.3282813 121.4034212
  92.9230957  14.2786196 120.7383717  85.9639708   2.9084172 117.0807134
  86.3035781   3.4370094 116.3585743  86.4111829   3.2464578 117.8565701
  95.7011586  15.0794664 122.3091515  96.6258133  14.8737525 122.1715966
  95.5326889  14.8311065 123.2180856  95.4906902  15.5980331 117.6653606
  95.6643779  15.0326754 116.9127459  95.9835793  16.3981226 117.4833096
  96.4782074  14.9147096 114.7650505  97.1732979  15.5353789 114.9837819
  96.8205225  14.0642447 115.0402883  98.3773498  12.3646801 116.2937835
  98.9024822  12.7034074 115.5687155  98.2895850  11.4293817 116.1100970
  90.0393546  16.2780875 128.4227712  90.3480673  16.0330022 129.2950412
  90.8369028  16.4827514 127.9346582  90.0614158  18.4318785 120.6533089
  89.6219149  17.9395163 121.3465945  90.8122275  17.8891752 120.4125164
  82.5406497  14.6230326 120.6557717  83.3664517  14.3234097 120.2756360
  82.1900549  13.8537948 121.1047505  87.5088030  13.9756794 122.7255390
  86.8868040  13.3127499 122.4257618  88.1792897  14.0017926 122.0429038
  80.7415102  12.5416652 121.6146650  79.9047011  12.1138826 121.4330652
  80.7138748  12.7349095 122.5517441  87.0701537  12.5260717 116.2013851
  87.2189658  13.2096181 115.5480524  87.8767981  12.5065807 116.7163307
  84.8254170   8.5525895 117.2074920  84.5800212   7.6488225 117.4055130
  84.9950085   8.5543045 116.2654398  84.0949818   4.2854252 114.7061081
  83.4019063   4.3598607 114.0501117  83.8501570   3.5214596 115.2282598
  90.5696943  15.0208848 113.6725598  89.9970910  15.6399035 113.2196070
  91.1429737  15.5708209 114.2065520  93.7894203  15.3045998 114.8034180
  94.7224876  15.2391559 115.0067056  93.7017416  16.1402265 114.3448713
  96.4182219  14.6211868 111.7638128  96.3395851  14.2871732 112.6573886
  97.2391886  15.1133636 111.7629600  90.9543741   6.3569660 111.0141651
  91.9002846   6.2275868 111.0830069  90.5757986   5.6184322 111.4911079
  89.1386659   4.2819637 110.9496536  88.2318114   3.9852749 111.0259250
  89.4162640   3.9849455 110.0830822  81.8389601   9.1547165 121.2454719
  81.8160290   9.2534853 120.2936602  82.1490238  10.0012316 121.5671885
  82.8527208  16.7542940 122.3771531  82.7181676  15.9943341 121.8109529
  82.4359270  17.4783840 121.9100320  93.9886171  11.9379863 111.3848106
  94.6922021  12.1429866 112.0005762  93.2648820  12.5056625 111.6497190
  94.8183981   7.6889725 117.5050377  94.7619183   8.1458276 116.6658009
  95.3712324   6.9280409 117.3273219  86.0096334  17.6512257 122.5889974
  85.8928718  18.5957689 122.4868664  85.1888780  17.3485818 122.9775773
  95.8972869  12.3762393 113.4346566  96.7318472  11.9443591 113.2524041
  95.7357211  12.2044406 114.3623461  95.5518761   8.8794506 114.8002906
  95.4967565   8.7138777 113.8591350  94.9264816   9.5870539 114.9565095
  87.0350848  18.3040519 125.8045902  87.9378095  18.3364129 126.1212397
  86.8088218  17.3740970 125.8192238  88.7904450  17.0571505 122.4655981
  87.8400081  17.0573367 122.3520353  89.0936936  16.3104240 121.9492015
 104.5257144  22.8932044 123.5301743 105.1635554  22.7738791 122.8265083
 104.4077987  23.8412888 123.5889695 101.3346850  22.8459472 123.4663268
 100.9965361  22.7300537 122.5783803 102.2036618  22.4450637 123.4464274
  97.1933666  24.6994948 119.4560159  96.6298531  24.6084885 118.6876447
  97.0786061  23.8794853 119.9362651  94.7398098  26.1946140 122.2944379
  95.5319389  25.8536964 121.8790679  94.9794748  26.3041115 123.2146533
 102.7733224  28.3665916 114.7674624 102.1221204  28.9519996 114.3808638
 103.5677587  28.8972111 114.8269661  96.6988851  25.4555053 115.1661758
  97.4719727  24.9084040 115.0274634  97.0514250  26.3199302 115.3776219
  98.5373894  26.7831435 128.3728657  98.2463760  27.6877066 128.2575324
  99.1730878  26.8247963 129.0872727  99.4630101  24.1608284 124.9630017
 100.0593673  23.9364306 124.2486980  99.5205072  23.4193029 125.5655465
  99.0355129  21.6147719 112.7980208  99.2880650  21.0929240 112.0363671
  98.0979688  21.4513865 112.9006892 104.0798412  20.6183498 120.6054951
 104.8661501  20.2002921 120.2545368 104.3437116  21.5229590 120.7736600
 104.2508489  26.0556348 115.3043608 103.6154322  26.1290974 116.0164513
 103.9205896  26.6449947 114.6262687  98.7551418  23.5175825 115.0004583
  98.6387676  22.8420729 115.6685667  98.8653678  23.0308199 114.1836736
 101.0982959  22.9785972 118.7051272 100.7341166  22.4516593 119.4164194
 101.9550075  22.5884441 118.5317758 100.7388446  18.0075872 113.7012621
 100.9062848  18.8756108 114.0683092 100.5485615  18.1703154 112.7773910
 103.4963779  26.4692851 125.3678451 103.1964502  27.3717890 125.2594258
 103.1514839  26.2025034 126.2199604  96.9476261  22.9206648 121.4015155
  96.0226757  22.7882862 121.6092847  97.1960674  23.7000867 121.8985098
 100.7177667  20.4633529 114.6859288 100.5977292  20.9090580 115.5244768
 100.0230255  20.8118847 114.1272826  94.3085072  22.5639921 122.2358945
  94.4377453  22.8174400 123.1498356  93.6282523  23.1567629 121.9163600
  98.4784559  33.2337171 118.3349419  98.4008589  34.1844996 118.4137899
  97.8746203  32.8883044 118.9924345 106.4162733  20.9355003 115.5139622
 107.3280589  21.1682389 115.3387319 105.9072380  21.5192047 114.9514700
 105.0232315  25.9180821 122.9053203 104.3941178  26.0826535 122.2029271
 104.6357977  26.3322431 123.6764167 108.9021547  26.8535259 120.2597567
 108.2172585  27.2334160 119.7094600 108.9865397  27.4630586 120.9929515
 100.5760277  25.6555229 120.1703288 101.0398623  25.9342932 119.3807911
 100.3117075  24.7538674 119.9876379  97.4684358  25.2026711 123.1083051
  98.0385715  25.6313979 122.4700536  98.0592470  24.9209295 123.8067237
  99.5129163  21.7778382 116.9792853 100.2153207  22.2299425 117.4466780
  99.1809792  21.1362200 117.6072746  93.2554497  20.0361934 122.2809987
  92.4653551  20.2919463 121.8050097  93.7465745  20.8510272 122.3862027
  95.2069243  20.4006513 119.2393464  94.4100406  20.5125208 119.7576959
  94.9794835  20.7393166 118.3734354 101.0374910  26.9251217 127.1875978
 101.1019343  27.3871624 128.0234150 100.3285834  26.2948582 127.3158288
  91.5392200  20.2892425 124.7124978  91.7900239  21.1739435 124.9782554
  92.0751749  20.1097026 123.9400069 100.7522928  28.5919324 117.0554958
 100.6168603  29.4370860 117.4839806 101.2932740  28.7938602 116.2920892
  94.2052325  26.1094762 117.6282884  94.7176846  26.9038012 117.7788448
  94.8575038  25.4121053 117.5616485  96.0147210  29.2260519 119.7105637
  96.1913838  30.1478483 119.5226621  96.8104043  28.9118938 120.1400017
  95.2999566  21.2725150 129.5867800  95.1853082  20.3710408 129.8874899
  94.4444084  21.5188847 129.2352617  97.1378525  30.7438692 125.7115979
  97.6885951  30.6155756 124.9392973  96.2990001  31.0433581 125.3610872
 100.9345696  27.0089820 130.0560210 101.4674033  26.2478108 129.8259518
 100.4059778  26.7163472 130.7984365  92.1701242  24.4383417 118.4042454
  93.0076464  24.8480425 118.1876162  92.3479510  23.4982859 118.3742648
 104.0665674  22.1058497 114.0926287 103.5512298  22.8763102 114.3314674
 103.7942983  21.4323633 114.7159349 101.6512785  16.9508198 119.1511525
 100.7954382  16.5615048 118.9717164 102.0639737  17.0300159 118.2911311
  99.4254818  14.5693271 122.5569267 100.2907814  14.3736080 122.1975156
  99.4932327  14.3403623 123.4838624 109.0399948  24.8590852 116.0279461
 108.2629391  24.5202011 115.5834623 109.7191429  24.8643475 115.3534426
 103.8551977  19.9785589 115.9186068 103.5502113  20.2931738 116.7696211
 104.8082419  20.0567009 115.9613401 102.2998409  26.1375813 117.5679022
 101.7719771  25.4028572 117.2552260 101.7985912  26.9150489 117.3218991
 107.2791255  24.3324833 122.6846069 106.6214930  25.0224094 122.7726197
 108.0831654  24.7221265 123.0280055  97.0317137  16.7995479 119.9285634
  97.6060889  16.5770660 119.1958827  97.6188119  16.8684173 120.6814235
 106.0896714  22.6869206 120.7350010 106.6028596  23.3199198 121.2371720
 106.7397938  22.0870401 120.3693370  97.3586724  18.8299940 113.9481519
  96.5224036  19.1674626 114.2690794  97.2191494  18.6948920 113.0108656
  99.3339804  13.6736728 118.6560703  98.6804217  13.3585745 118.0317318
  99.2920279  13.0512468 119.3820526 100.4451009  23.9556023 110.5713995
  99.5378071  23.7245276 110.7705144 100.9422041  23.1593642 110.7587977
 103.3519088  32.6653530 113.4910681 102.6780787  32.9685227 114.0995639
 103.7384910  33.4682610 113.1416138 102.5677545  20.1618661 122.9808351
 101.6500106  20.3833608 122.8230039 102.9837688  20.2364972 122.1220058
 103.3512593  21.5610077 118.1111031 104.0984412  22.0731474 117.8018153
 103.6204182  21.2394130 118.9715425 101.6239243  24.0568618 115.0937985
 100.7150462  23.7727651 115.1910455 101.6534327  24.4767696 114.2341292
 106.8558510  27.6675207 118.8629153 106.4020837  26.8266117 118.9194343
 106.2252477  28.3036606 119.2003933 105.7991430  18.5967193 120.0929820
 105.0614187  18.0844579 120.4240063 106.0518203  18.1567575 119.2813097
 105.2991449  29.5051704 119.7978971 105.5914424  30.0656761 119.0791337
 105.8090070  29.7980265 120.5532130  92.1927413  21.7774132 119.0753188
  91.9951813  21.1843493 118.3504254  91.6374077  21.4726342 119.7929126
 100.1724137  21.6697238 121.1947781 100.2272747  20.7171075 121.1190257
  99.3615339  21.8256677 121.6789079 101.3215331  25.5977361 112.4326064
 100.8834761  24.8813220 111.9731701 102.0625771  25.8253476 111.8711155
  98.1116497  20.2874298 118.9538160  97.2984362  20.5868469 119.3603352
  98.6075491  19.8929987 119.6712642 100.2625075  30.2832055 120.8872424
 100.2201253  30.5092901 119.9580956 101.1787773  30.0495430 121.0358225
 109.4388445  23.8734558 118.4902382 109.3006344  24.0636154 117.5623572
 109.0824664  24.6353941 118.9470434  97.6030571  17.8592654 124.5699395
  98.2429951  17.7181413 123.8722358  96.7708102  17.5727167 124.1937997
  98.3790875  27.1595084 120.6834387  99.1731474  26.6645404 120.4816962
  97.6682568  26.6312947 120.3202093 103.1985720  29.5413180 125.0346755
 103.2522742  30.1104116 125.8024471 102.3300501  29.7115065 124.6700792
  94.6873639  21.3038166 116.7594140  93.7571227  21.2422621 116.9764102
  94.7831111  20.7814119 115.9630781  94.6059188  17.8292979 119.3472381
  94.8666005  18.7438312 119.2381542  95.4276360  17.3617421 119.4968994
  96.0784113  19.2430736 126.5171206  96.7507167  19.0348098 125.8683855
  95.2513900  19.0452822 126.0776438 102.1573820  23.7073442 126.5933686
 103.0865880  23.8584601 126.4202654 101.7364850  23.7957462 125.7382333
 100.9562151  27.7324106 124.3632224 100.8173237  27.3642890 125.2358162
 100.1676748  28.2471745 124.1916182 101.5510303  32.8333202 115.7057761
 101.7262059  32.3621246 116.5203383 100.8643091  33.4598969 115.9339021
 102.5067367  27.1105709 121.7521062 102.1717199  27.0706479 122.6478712
 102.0071312  26.4450425 121.2791472  96.4811611  22.5173339 127.2773643
  96.3431408  21.7853578 127.8785182  97.3916534  22.4282239 126.9957831
 105.4426558  24.4561743 112.0258122 104.8255729  23.7308571 111.9291174
 104.9743047  25.2171103 111.6825196  99.1093911  22.2293298 126.7657323
  99.8193530  21.5886490 126.7243941  99.0663219  22.4806193 127.6883503
  96.1171389  35.9822565 122.4797621  96.3567987  36.6141089 123.1576639
  95.2740585  35.6310605 122.7662980  97.2325104  18.6747167 111.1479426
  96.3554570  18.5535968 110.7841672  97.7082857  17.8833246 110.8958314
  88.7527244  23.4624327 121.2420933  89.4398284  23.1486057 120.6541948
  88.5975373  24.3665692 120.9688184  93.5561966  18.3514524 125.6705957
  93.4720155  17.7440193 124.9356367  92.7344673  18.8423542 125.6715453
 100.6299251  31.7901688 124.8839125 100.5569422  32.5956659 125.3958429
 100.1876644  31.9893653 124.0587146 100.4189030  31.0273458 118.3941946
  99.6356552  31.5695138 118.4880171 101.1181775  31.5447437 118.7936187
 103.7285680  16.8368087 121.0376152 104.2254380  16.0838049 120.7177222
 102.9572662  16.8732404 120.4719361 103.0897934  31.6888522 127.0397283
 103.8025906  32.3235987 126.9673185 102.5987963  31.7852388 126.2237285
 104.8115461  25.5939774 118.6114575 103.8771740  25.7141237 118.4419279
 104.9892129  24.6912241 118.3474585 100.3120649  18.9785470 120.7647836
  99.9418437  18.4256511 121.4528742 100.8079741  18.3743604 120.2122836
 108.1988012  21.4357094 119.1464609 108.6648464  22.2685085 119.0724912
 108.6495513  20.9702075 119.8509868  98.1409848  29.4382965 127.8602854
  98.8419307  30.0719448 128.0132248  97.6704963  29.7797697 127.0998494
 106.2664243  27.7800915 116.1450761 106.5424087  27.6657510 117.0544635
 105.3968742  27.3818400 116.1062934 102.9018307  32.0287266 119.7883575
 103.0840702  31.2108922 120.2511327 103.7251293  32.2454958 119.3508465
 103.2360473  30.9555451 117.0498623 103.7648239  30.4447906 116.4368785
 103.4988692  30.6397981 117.9144156  93.7377566  28.9719320 124.7933957
  94.3231002  28.2263008 124.9261861  93.5402404  29.2823277 125.6770621
  96.5916221  32.0070568 119.8096399  95.9226596  32.4916695 119.3260439
  96.4529091  32.2539788 120.7239778  88.3295220  21.5424920 123.5138400
  88.3679320  21.0088511 124.3075518  87.8235513  21.0160126 122.8949377
 100.7321489  34.0414311 126.4079058 101.2839797  34.2045933 127.1728143
 101.0727683  34.6318749 125.7359083  95.7085983  16.3889461 127.0100942
  95.7727309  17.2504292 126.5978340  95.6453103  15.7763463 126.2773301
  91.9603798  20.2689023 116.5892331  92.2557239  19.3599701 116.5359385
  91.0591834  20.2476762 116.2673334 103.8689877  31.9896287 123.3942740
 103.7441016  31.1886027 122.8853685 104.5268968  32.4842480 122.9056710
  95.4898045  18.3445019 122.5719880  94.7684631  18.9580987 122.4327353
  96.2791301  18.8802784 122.4936526 105.9324785  29.7905307 125.0222290
 104.9855121  29.6710658 124.9500617 106.2807558  28.9027805 125.1048551
  93.6891640  17.9503120 116.7131657  93.3604346  17.0700499 116.5306763
  94.0431010  17.8950789 117.6008046 102.9371218  29.5858023 121.2226642
 102.7896181  28.6574730 121.4034212 103.7624712  29.6078114 120.7383717
  96.8033463  18.2376090 117.0807134  97.1429535  18.7662011 116.3585743
  97.2505583  18.5756496 117.8565701 106.5405340  30.4086582 122.3091515
 107.4651888  30.2029443 122.1715966 106.3720644  30.1602983 123.2180856
  98.7901610  16.7350712 115.2800427  99.5109972  17.1131964 114.7764144
  98.1666914  17.4539588 115.3835405 102.9332733  17.4395861 116.2158759
 103.1496347  18.3220498 115.9147588 102.4526800  17.0482074 115.4864401
  97.6731954  20.3981574 122.7929504  97.5276535  20.7121877 123.6853785
  97.1957158  21.0166474 122.2400403  99.5328337  17.3884122 122.8410394
  99.5189906  16.4925215 122.5042691 100.2500765  17.3954786 123.4748680
 106.3300656  30.9272249 117.6653606 106.5037534  30.3618672 116.9127459
 106.8229548  31.7273144 117.4833096  92.1477616  22.9386918 125.7317165
  91.6031084  23.7146726 125.8637439  93.0256966  23.2857723 125.5736287
  98.9365233  16.2698502 118.1097964  99.0581144  15.3415148 118.3088851
  98.6467275  16.2837188 117.1976279 101.8056423  13.9553413 121.2464684
 101.8278120  14.0192746 120.2916663 102.2224482  13.1157921 121.4405190
 112.1840048  23.6908672 119.2843906 112.6271194  22.9415997 118.8863029
 111.3066558  23.6818808 118.9017638 107.3175829  30.2439014 114.7650505
 108.0126734  30.8645706 114.9837819 107.6598979  29.3934365 115.0402883
  92.9343638  22.0656814 128.6247322  92.1925374  22.2139450 129.2111952
  92.6136382  22.3265080 127.7614071 109.2167252  27.6938719 116.2937835
 109.7418576  28.0325992 115.5687155 109.1289605  26.7585734 116.1100970
 100.8787301  31.6072793 128.4227712 101.1874427  31.3621939 129.2950412
 101.6762783  31.8119431 127.9346582 100.9007913  33.7610702 120.6533089
 100.4612903  33.2687081 121.3465945 101.6516030  33.2183670 120.4125164
  93.3800252  29.9522243 120.6557717  94.2058272  29.6526015 120.2756360
  93.0294304  29.1829866 121.1047505  98.3481785  29.3048711 122.7255390
  97.7261794  28.6419416 122.4257618  99.0186652  29.3309843 122.0429038
  91.5808857  27.8708570 121.6146650  90.7440765  27.4430744 121.4330652
  91.5532502  28.0641013 122.5517441  97.9095292  27.8552635 116.2013851
  98.0583412  28.5388099 115.5480524  98.7161735  27.8357725 116.7163307
  95.6647925  23.8817812 117.2074920  95.4193967  22.9780142 117.4055130
  95.8343839  23.8834963 116.2654398  94.9343572  19.6146170 114.7061081
  94.2412817  19.6890525 114.0501117  94.6895324  18.8506514 115.2282598
 101.4090697  30.3500765 113.6725598 100.8364664  30.9690952 113.2196070
 101.9823491  30.9000127 114.2065520 104.6287957  30.6337915 114.8034180
 105.5618630  30.5683477 115.0067056 104.5411170  31.4694182 114.3448713
 107.2575974  29.9503786 111.7638128 107.1789605  29.6163649 112.6573886
 108.0785641  30.4425554 111.7629600 101.7937496  21.6861578 111.0141651
 102.7396601  21.5567786 111.0830069 101.4151741  20.9476240 111.4911079
  99.9780413  19.6111554 110.9496536  99.0711868  19.3144667 111.0259250
 100.2556394  19.3141372 110.0830822  90.8958353  20.9317918 121.3995582
  90.5761138  20.0783226 121.1069956  90.3491782  21.1466496 122.1553550
  94.6738261  23.6480359 125.1165089  94.8924271  24.5797467 125.1353123
  95.0864035  23.2888333 125.9019893 101.5942479  14.1548444 117.1040777
 100.7843207  13.8095529 117.4796023 102.2826896  13.8455988 117.6928389
 103.5233027  13.2326491 118.7265074 104.0764066  13.6521944 119.3855097
 103.7603113  12.3062239 118.7688030  98.7479198  16.4698490 111.0908515
  99.6098362  16.7953388 111.3504332  98.9329542  15.6829985 110.5781581
  90.7646613  24.5520829 123.3688704  90.0710085  24.1374782 122.8558658
  91.5119604  24.5941366 122.7722123 106.9011834  15.3427016 118.2343738
 106.3210503  16.0011820 117.8521791 106.6347767  14.5204361 117.8231156
  92.6783356  24.4839083 121.2454719  92.6554044  24.5826770 120.2936602
  92.9883992  25.3304234 121.5671885  95.3370734  26.5415238 125.3601333
  96.2913987  26.5099180 125.2931265  95.1383257  26.0805862 126.1751559
  95.9270116  25.1116354 127.9272131  96.7463005  25.6060433 127.9506968
  96.2006924  24.1948322 127.8989698 105.6836712  17.5027106 117.2900086
 104.7962567  17.7876757 117.0720281 106.0990701  17.3420870 116.4427363
  93.6920963  32.0834858 122.3771531  93.5575431  31.3235258 121.8109529
  93.2753025  32.8075757 121.9100320 104.8279926  27.2671781 111.3848106
 105.5315776  27.4721784 112.0005762 104.1042574  27.8348543 111.6497190
 105.6577736  23.0181642 117.5050377 105.6012937  23.4750194 116.6658009
 106.2106078  22.2572327 117.3273219  96.8490088  32.9804175 122.5889974
  96.7322473  33.9249607 122.4868664  96.0282535  32.6777736 122.9775773
 106.7366623  27.7054310 113.4346566 107.5712227  27.2735509 113.2524041
 106.5750966  27.5336324 114.3623461 106.3912515  24.2086424 114.8002906
 106.3361319  24.0430695 113.8591350 105.7658570  24.9162457 114.9565095
  91.1805030  19.4454488 128.6264328  91.8263894  18.9353442 129.1151553
  90.9722181  20.1823170 129.2007753  99.7008641  13.7094533 114.3788224
  99.6887311  14.6536373 114.5356495 100.5932063  13.5264678 114.0847685
  97.8744603  33.6332436 125.8045902  98.7771849  33.6656047 126.1212397
  97.6481973  32.7032887 125.8192238  99.6298205  32.3863423 122.4655981
  98.6793836  32.3865285 122.3520353  99.9330691  31.6396158 121.9492015
 115.3650898  38.2223961 123.5301743 116.0029308  38.1030709 122.8265083
 115.2471741  39.1704805 123.5889695 112.1740604  38.1751390 123.4663268
 111.8359116  38.0592454 122.5783803 113.0430373  37.7742555 123.4464274
 108.0327420  40.0286866 119.4560159 107.4692285  39.9376803 118.6876447
 107.9179815  39.2086770 119.9362651 105.5791852  41.5238058 122.2944379
 106.3713144  41.1828882 121.8790679 105.8188502  41.6333033 123.2146533
 113.6126979  43.6957834 114.7674624 112.9614959  44.2811914 114.3808638
 114.4071342  44.2264029 114.8269661 107.5382606  40.7846971 115.1661758
 108.3113482  40.2375958 115.0274634 107.8908005  41.6491220 115.3776219
 109.3767649  42.1123353 128.3728657 109.0857515  43.0168984 128.2575324
 110.0124633  42.1539881 129.0872727 110.3023855  39.4900202 124.9630017
 110.8987428  39.2656224 124.2486980 110.3598827  38.7484947 125.5655465
 109.8748884  36.9439637 112.7980208 110.1274404  36.4221158 112.0363671
 108.9373443  36.7805782 112.9006892 114.9192167  35.9475415 120.6054951
 115.7055256  35.5294838 120.2545368 115.1830871  36.8521507 120.7736600
 115.0902244  41.3848266 115.3043608 114.4548077  41.4582892 116.0164513
 114.7599650  41.9741864 114.6262687 109.5945173  38.8467743 115.0004583
 109.4781431  38.1712646 115.6685667 109.7047432  38.3600117 114.1836736
 111.9376713  38.3077890 118.7051272 111.5734921  37.7808511 119.4164194
 112.7943829  37.9176359 118.5317758 111.5782200  33.3367790 113.7012621
 111.7456603  34.2048026 114.0683092 111.3879370  33.4995071 112.7773910
 114.3357534  41.7984769 125.3678451 114.0358257  42.7009807 125.2594258
 113.9908593  41.5316952 126.2199604 107.7870015  38.2498565 121.4015155
 106.8620512  38.1174780 121.6092847 108.0354428  39.0292785 121.8985098
 111.5571421  35.7925447 114.6859288 111.4371047  36.2382498 115.5244768
 110.8624010  36.1410765 114.1272826 105.1478826  37.8931839 122.2358945
 105.2771207  38.1466318 123.1498356 104.4676277  38.4859547 121.9163600
 109.3178313  48.5629089 118.3349419 109.2402343  49.5136914 118.4137899
 108.7139957  48.2174961 118.9924345 117.2556487  36.2646920 115.5139622
 118.1674344  36.4974307 115.3387319 116.7466135  36.8483965 114.9514700
 115.8626070  41.2472739 122.9053203 115.2334932  41.4118453 122.2029271
 115.4751732  41.6614348 123.6764167 119.7415302  42.1827177 120.2597567
 119.0566340  42.5626078 119.7094600 119.8259151  42.7922503 120.9929515
 111.4154032  40.9847147 120.1703288 111.8792377  41.2634850 119.3807911
 111.1510830  40.0830591 119.9876379 108.3078113  40.5318628 123.1083051
 108.8779470  40.9605897 122.4700536 108.8986225  40.2501213 123.8067237
 110.3522918  37.1070299 116.9792853 111.0546961  37.5591343 117.4466780
 110.0203546  36.4654118 117.6072746 104.0948252  35.3653852 122.2809987
 103.3047306  35.6211380 121.8050097 104.5859499  36.1802190 122.3862027
 106.0462997  35.7298431 119.2393464 105.2494160  35.8417125 119.7576959
 105.8188589  36.0685083 118.3734354 111.8768665  42.2543134 127.1875978
 111.9413097  42.7163542 128.0234150 111.1679589  41.6240499 127.3158288
 102.3785955  35.6184342 124.7124978 102.6293993  36.5031352 124.9782554
 102.9145503  35.4388944 123.9400069 111.5916682  43.9211242 117.0554958
 111.4562357  44.7662778 117.4839806 112.1326495  44.1230520 116.2920892
 105.0446080  41.4386680 117.6282884 105.5570600  42.2329930 117.7788448
 105.6968793  40.7412970 117.5616485 106.8540964  44.5552436 119.7105637
 107.0307593  45.4770401 119.5226621 107.6497798  44.2410855 120.1400017
 106.1393321  36.6017068 129.5867800 106.0246836  35.7002325 129.8874899
 105.2837839  36.8480765 129.2352617 107.9772280  46.0730610 125.7115979
 108.5279705  45.9447673 124.9392973 107.1383756  46.3725499 125.3610872
 111.7739451  42.3381738 130.0560210 112.3067788  41.5770026 129.8259518
 111.2453532  42.0455390 130.7984365 103.0094997  39.7675334 118.4042454
 103.8470219  40.1772343 118.1876162 103.1873264  38.8274776 118.3742648
 114.9059429  37.4350415 114.0926287 114.3906052  38.2055019 114.3314674
 114.6336737  36.7615551 114.7159349 112.4906540  32.2800116 119.1511525
 111.6348136  31.8906966 118.9717164 112.9033491  32.3592076 118.2911311
 110.2648572  29.8985189 122.5569267 111.1301569  29.7027997 122.1975156
 110.3326081  29.6695540 123.4838624 119.8793703  40.1882770 116.0279461
 119.1023146  39.8493929 115.5834623 120.5585184  40.1935393 115.3534426
 114.6945732  35.3077507 115.9186068 114.3895867  35.6223656 116.7696211
 115.6476174  35.3858927 115.9613401 113.1392164  41.4667730 117.5679022
 112.6113525  40.7320490 117.2552260 112.6379666  42.2442407 117.3218991
 118.1185010  39.6616751 122.6846069 117.4608684  40.3516012 122.7726197
 118.9225409  40.0513183 123.0280055 107.8710891  32.1287397 119.9285634
 108.4454643  31.9062578 119.1958827 108.4581874  32.1976091 120.6814235
 116.9290468  38.0161123 120.7350010 117.4422350  38.6491115 121.2371720
 117.5791692  37.4162319 120.3693370 108.1980478  34.1591858 113.9481519
 107.3617791  34.4966544 114.2690794 108.0585248  34.0240837 113.0108656
 110.1733559  29.0028645 118.6560703 109.5197971  28.6877663 118.0317318
 110.1314033  28.3804386 119.3820526 111.2844764  39.2847941 110.5713995
 110.3771826  39.0537194 110.7705144 111.7815796  38.4885560 110.7587977
 114.1912843  47.9945448 113.4910681 113.5174541  48.2977144 114.0995639
 114.5778665  48.7974528 113.1416138 113.4071299  35.4910579 122.9808351
 112.4893861  35.7125526 122.8230039 113.8231443  35.5656889 122.1220058
 114.1906347  36.8901995 118.1111031 114.9378166  37.4023392 117.8018153
 114.4597937  36.5686047 118.9715425 112.4632997  39.3860535 115.0937985
 111.5544217  39.1019568 115.1910455 112.4928081  39.8059614 114.2341292
 117.6952265  42.9967125 118.8629153 117.2414592  42.1558035 118.9194343
 117.0646231  43.6328523 119.2003933 116.6385184  33.9259111 120.0929820
 115.9007941  33.4136497 120.4240063 116.8911958  33.4859493 119.2813097
 116.1385204  44.8343622 119.7978971 116.4308178  45.3948679 119.0791337
 116.6483824  45.1272183 120.5532130 103.0321168  37.1066050 119.0753188
 102.8345567  36.5135410 118.3504254 102.4767832  36.8018260 119.7929126
 111.0117891  36.9989156 121.1947781 111.0666501  36.0462992 121.1190257
 110.2009093  37.1548595 121.6789079 112.1609085  40.9269279 112.4326064
 111.7228515  40.2105138 111.9731701 112.9019526  41.1545394 111.8711155
 108.9510251  35.6166216 118.9538160 108.1378117  35.9160386 119.3603352
 109.4469245  35.2221905 119.6712642 111.1018829  45.6123973 120.8872424
 111.0595008  45.8384819 119.9580956 112.0181528  45.3787347 121.0358225
 120.2782200  39.2026476 118.4902382 120.1400098  39.3928072 117.5623572
 119.9218419  39.9645859 118.9470434 108.4424326  33.1884571 124.5699395
 109.0823705  33.0473330 123.8722358 107.6101857  32.9019085 124.1937997
 109.2184630  42.4887002 120.6834387 110.0125228  41.9937322 120.4816962
 108.5076322  41.9604865 120.3202093 114.0379474  44.8705097 125.0346755
 114.0916497  45.4396034 125.8024471 113.1694256  45.0406982 124.6700792
 105.5267393  36.6330083 116.7594140 104.5964981  36.5714539 116.9764102
 105.6224865  36.1106036 115.9630781 105.4452942  33.1584896 119.3472381
 105.7059760  34.0730230 119.2381542 106.2670115  32.6909339 119.4968994
 106.9177868  34.5722653 126.5171206 107.5900921  34.3640016 125.8683855
 106.0907654  34.3744739 126.0776438 112.9967574  39.0365359 126.5933686
 113.9259634  39.1876519 126.4202654 112.5758604  39.1249380 125.7382333
 111.7955906  43.0616024 124.3632224 111.6566992  42.6934808 125.2358162
 111.0070502  43.5763663 124.1916182 112.3904058  48.1625120 115.7057761
 112.5655814  47.6913163 116.5203383 111.7036846  48.7890886 115.9339021
 113.3461121  42.4397626 121.7521062 113.0110954  42.3998396 122.6478712
 112.8465067  41.7742342 121.2791472 107.3205365  37.8465256 127.2773643
 107.1825163  37.1145495 127.8785182 108.2310288  37.7574157 126.9957831
 116.2820313  39.7853661 112.0258122 115.6649483  39.0600489 111.9291174
 115.8136801  40.5463021 111.6825196 109.9487666  37.5585216 126.7657323
 110.6587284  36.9178408 126.7243941 109.9056974  37.8098111 127.6883503
 106.9565143  51.3114483 122.4797621 107.1961741  51.9433007 123.1576639
 106.1134340  50.9602523 122.7662980 108.0718859  34.0039085 111.1479426
 107.1948325  33.8827886 110.7841672 108.5476612  33.2125163 110.8958314
  99.5920999  38.7916245 121.2420933 100.2792039  38.4777975 120.6541948
  99.4369127  39.6957609 120.9688184 104.3955721  33.6806441 125.6705957
 104.3113910  33.0732111 124.9356367 103.5738427  34.1715460 125.6715453
 111.4693005  47.1193605 124.8839125 111.3963176  47.9248577 125.3958429
 111.0270398  47.3185571 124.0587146 111.2582785  46.3565375 118.3941946
 110.4750307  46.8987056 118.4880171 111.9575530  46.8739355 118.7936187
 114.5679435  32.1660005 121.0376152 115.0648134  31.4129967 120.7177222
 113.7966416  32.2024321 120.4719361 113.9291689  47.0180439 127.0397283
 114.6419661  47.6527904 126.9673185 113.4381717  47.1144305 126.2237285
 115.6509215  40.9231692 118.6114575 114.7165494  41.0433155 118.4419279
 115.8285884  40.0204159 118.3474585 111.1514403  34.3077388 120.7647836
 110.7812191  33.7548428 121.4528742 111.6473496  33.7035521 120.2122836
 119.0381767  36.7649011 119.1464609 119.5042219  37.5977003 119.0724912
 119.4889267  36.2993993 119.8509868 108.9803602  44.7674883 127.8602854
 109.6813062  45.4011366 128.0132248 108.5098717  45.1089614 127.0998494
 117.1057998  43.1092833 116.1450761 117.3817842  42.9949427 117.0544635
 116.2362497  42.7110317 116.1062934 113.7412062  47.3579183 119.7883575
 113.9234456  46.5400839 120.2511327 114.5645048  47.5746876 119.3508465
 114.0754227  46.2847369 117.0498623 114.6041994  45.7739823 116.4368785
 114.3382447  45.9689899 117.9144156 104.5771320  44.3011238 124.7933957
 105.1624757  43.5554926 124.9261861 104.3796159  44.6115195 125.6770621
 107.4309975  47.3362485 119.8096399 106.7620351  47.8208613 119.3260439
 107.2922845  47.5831706 120.7239778  99.1688975  36.8716838 123.5138400
  99.2073074  36.3380429 124.3075518  98.6629268  36.3452044 122.8949377
 111.5715244  49.3706229 126.4079058 112.1233552  49.5337850 127.1728143
 111.9121437  49.9610667 125.7359083 106.5479737  31.7181379 127.0100942
 106.6121064  32.5796210 126.5978340 106.4846857  31.1055380 126.2773301
 102.7997552  35.5980940 116.5892331 103.0950994  34.6891619 116.5359385
 101.8985588  35.5768680 116.2673334 114.7083631  47.3188204 123.3942740
 114.5834771  46.5177944 122.8853685 115.3662722  47.8134398 122.9056710
 106.3291799  33.6736937 122.5719880 105.6078385  34.2872905 122.4327353
 107.1185055  34.2094702 122.4936526 116.7718540  45.1197224 125.0222290
 115.8248875  45.0002576 124.9500617 117.1201313  44.2319722 125.1048551
 104.5285394  33.2795038 116.7131657 104.1998100  32.3992417 116.5306763
 104.8824765  33.2242707 117.6008046 113.7764973  44.9149941 121.2226642
 113.6289935  43.9866648 121.4034212 114.6018466  44.9370031 120.7383717
 107.6427217  33.5668008 117.0807134 107.9823290  34.0953929 116.3585743
 108.0899338  33.9048414 117.8565701 117.3799095  45.7378499 122.3091515
 118.3045642  45.5321361 122.1715966 117.2114398  45.4894901 123.2180856
 109.6295364  32.0642629 115.2800427 110.3503727  32.4423882 114.7764144
 109.0060668  32.7831506 115.3835405 113.7726487  32.7687778 116.2158759
 113.9890102  33.6512416 115.9147588 113.2920554  32.3773992 115.4864401
 108.5125709  35.7273492 122.7929504 108.3670289  36.0413795 123.6853785
 108.0350912  36.3458392 122.2400403 110.3722091  32.7176039 122.8410394
 110.3583660  31.8217133 122.5042691 111.0894520  32.7246703 123.4748680
 117.1694411  46.2564167 117.6653606 117.3431288  45.6910589 116.9127459
 117.6623302  47.0565062 117.4833096 102.9871371  38.2678836 125.7317165
 102.4424839  39.0438644 125.8637439 103.8650721  38.6149640 125.5736287
 109.7758987  31.5990420 118.1097964 109.8974899  30.6707066 118.3088851
 109.4861030  31.6129106 117.1976279 112.6450178  29.2845330 121.2464684
 112.6671875  29.3484663 120.2916663 113.0618237  28.4449839 121.4405190
 123.0233802  39.0200590 119.2843906 123.4664948  38.2707915 118.8863029
 122.1460312  39.0110726 118.9017638 118.1569583  45.5730931 114.7650505
 118.8520488  46.1937624 114.9837819 118.4992734  44.7226282 115.0402883
 103.7737393  37.3948732 128.6247322 103.0319129  37.5431368 129.2111952
 103.4530137  37.6556998 127.7614071 120.0561007  43.0230637 116.2937835
 120.5812331  43.3617910 115.5687155 119.9683359  42.0877652 116.1100970
 111.7181055  46.9364710 128.4227712 112.0268182  46.6913857 129.2950412
 112.5156537  47.1411349 127.9346582 111.7401667  49.0902620 120.6533089
 111.3006658  48.5978999 121.3465945 112.4909784  48.5475588 120.4125164
 104.2194006  45.2814161 120.6557717 105.0452026  44.9817933 120.2756360
 103.8688058  44.5121783 121.1047505 109.1875539  44.6340629 122.7255390
 108.5655549  43.9711334 122.4257618 109.8580406  44.6601761 122.0429038
 102.4202611  43.2000487 121.6146650 101.5834520  42.7722662 121.4330652
 102.3926257  43.3932931 122.5517441 108.7489046  43.1844552 116.2013851
 108.8977167  43.8680017 115.5480524 109.5555490  43.1649643 116.7163307
 106.5041679  39.2109730 117.2074920 106.2587721  38.3072060 117.4055130
 106.6737594  39.2126881 116.2654398 105.7737327  34.9438088 114.7061081
 105.0806572  35.0182443 114.0501117 105.5289079  34.1798431 115.2282598
 112.2484452  45.6792683 113.6725598 111.6758419  46.2982870 113.2196070
 112.8217246  46.2292045 114.2065520 115.4681712  45.9629833 114.8034180
 116.4012385  45.8975395 115.0067056 115.3804924  46.7986100 114.3448713
 118.0969728  45.2795703 111.7638128 118.0183360  44.9455567 112.6573886
 118.9179395  45.7717471 111.7629600 112.6331250  37.0153496 111.0141651
 113.5790355  36.8859704 111.0830069 112.2545495  36.2768158 111.4911079
 110.8174168  34.9403472 110.9496536 109.9105623  34.6436585 111.0259250
 111.0950149  34.6433290 110.0830822 101.7352108  36.2609835 121.3995582
 101.4154892  35.4075144 121.1069956 101.1885536  36.4758414 122.1553550
 105.5132015  38.9772276 125.1165089 105.7318025  39.9089384 125.1353123
 105.9257789  38.6180251 125.9019893 112.4336233  29.4840362 117.1040777
 111.6236962  29.1387447 117.4796023 113.1220650  29.1747905 117.6928389
 114.3626782  28.5618409 118.7265074 114.9157820  28.9813862 119.3855097
 114.5996868  27.6354157 118.7688030 109.5872952  31.7990407 111.0908515
 110.4492116  32.1245306 111.3504332 109.7723296  31.0121903 110.5781581
 101.6040368  39.8812747 123.3688704 100.9103839  39.4666700 122.8558658
 102.3513359  39.9233283 122.7722123 117.7405589  30.6718934 118.2343738
 117.1604258  31.3303738 117.8521791 117.4741521  29.8496278 117.8231156
 103.5177110  39.8131001 121.2454719 103.4947799  39.9118688 120.2936602
 103.8277747  40.6596152 121.5671885 106.1764488  41.8707156 125.3601333
 107.1307742  41.8391098 125.2931265 105.9777012  41.4097779 126.1751559
 106.7663870  40.4408272 127.9272131 107.5856759  40.9352350 127.9506968
 107.0400678  39.5240240 127.8989698 116.5230467  32.8319024 117.2900086
 115.6356322  33.1168675 117.0720281 116.9384456  32.6712787 116.4427363
 104.5314717  47.4126775 122.3771531 104.3969185  46.6527176 121.8109529
 104.1146779  48.1367675 121.9100320 115.6673680  42.5963699 111.3848106
 116.3709530  42.8013701 112.0005762 114.9436329  43.1640461 111.6497190
 116.4971490  38.3473560 117.5050377 116.4406692  38.8042111 116.6658009
 117.0499833  37.5864245 117.3273219 107.6883843  48.3096092 122.5889974
 107.5716227  49.2541525 122.4868664 106.8676289  48.0069654 122.9775773
 117.5760378  43.0346228 113.4346566 118.4105981  42.6027426 113.2524041
 117.4144720  42.8628242 114.3623461 117.2306270  39.5378341 114.8002906
 117.1755073  39.3722613 113.8591350 116.6052325  40.2454374 114.9565095
 102.0198785  34.7746406 128.6264328 102.6657648  34.2645360 129.1151553
 101.8115936  35.5115087 129.2007753 110.5402395  29.0386450 114.3788224
 110.5281065  29.9828290 114.5356495 111.4325817  28.8556596 114.0847685
 108.7138357  48.9624354 125.8045902 109.6165604  48.9947964 126.1212397
 108.4875727  48.0324805 125.8192238 110.4691959  47.7155341 122.4655981
 109.5187590  47.7157202 122.3520353 110.7724445  46.9688075 121.9492015
 126.2044653  53.5515879 123.5301743 126.8423063  53.4322626 122.8265083
 126.0865496  54.4996723 123.5889695 123.0134359  53.5043307 123.4663268
 122.6752870  53.3884372 122.5783803 123.8824127  53.1034472 123.4464274
 118.8721175  55.3578784 119.4560159 118.3086040  55.2668721 118.6876447
 118.7573570  54.5378688 119.9362651 116.4185607  56.8529975 122.2944379
 117.2106898  56.5120800 121.8790679 116.6582257  56.9624950 123.2146533
 124.4520733  59.0249751 114.7674624 123.8008713  59.6103832 114.3808638
 125.2465096  59.5555946 114.8269661 118.3776360  56.1138888 115.1661758
 119.1507236  55.5667876 115.0274634 118.7301759  56.9783138 115.3776219
 120.2161403  57.4415271 128.3728657 119.9251269  58.3460902 128.2575324
 120.8518387  57.4831798 129.0872727 121.1417610  54.8192119 124.9630017
 121.7381182  54.5948142 124.2486980 121.1992581  54.0776865 125.5655465
 120.7142638  52.2731555 112.7980208 120.9668159  51.7513076 112.0363671
 119.7767197  52.1097700 112.9006892 125.7585921  51.2767333 120.6054951
 126.5449010  50.8586756 120.2545368 126.0224625  52.1813425 120.7736600
 125.9295998  56.7140183 115.3043608 125.2941831  56.7874810 116.0164513
 125.5993405  57.3033782 114.6262687 120.4338927  54.1759661 115.0004583
 120.3175185  53.5004564 115.6685667 120.5441187  53.6892034 114.1836736
 122.7770468  53.6369808 118.7051272 122.4128675  53.1100429 119.4164194
 123.6337584  53.2468277 118.5317758 122.4175955  48.6659707 113.7012621
 122.5850357  49.5339944 114.0683092 122.2273124  48.8286989 112.7773910
 125.1751288  57.1276686 125.3678451 124.8752011  58.0301725 125.2594258
 124.8302348  56.8608869 126.2199604 118.6263770  53.5790483 121.4015155
 117.7014266  53.4466697 121.6092847 118.8748183  54.3584702 121.8985098
 122.3965176  51.1217365 114.6859288 122.2764801  51.5674416 115.5244768
 121.7017764  51.4702683 114.1272826 115.9872581  53.2223757 122.2358945
 116.1164962  53.4758236 123.1498356 115.3070032  53.8151465 121.9163600
 120.1572068  63.8921007 118.3349419 120.0796098  64.8428832 118.4137899
 119.5533711  63.5466879 118.9924345 128.0950242  51.5938838 115.5139622
 129.0068098  51.8266225 115.3387319 127.5859889  52.1775882 114.9514700
 126.7019824  56.5764656 122.9053203 126.0728687  56.7410371 122.2029271
 126.3145486  56.9906266 123.6764167 130.5809056  57.5119094 120.2597567
 129.8960094  57.8917996 119.7094600 130.6652905  58.1214421 120.9929515
 122.2547786  56.3139065 120.1703288 122.7186132  56.5926768 119.3807911
 121.9904584  55.4122509 119.9876379 119.1471867  55.8610546 123.1083051
 119.7173224  56.2897814 122.4700536 119.7379979  55.5793131 123.8067237
 121.1916672  52.4362217 116.9792853 121.8940716  52.8883261 117.4466780
 120.8597301  51.7946036 117.6072746 114.9342006  50.6945770 122.2809987
 114.1441060  50.9503298 121.8050097 115.4253254  51.5094107 122.3862027
 116.8856752  51.0590349 119.2393464 116.0887915  51.1709043 119.7576959
 116.6582344  51.3977001 118.3734354 122.7162419  57.5835052 127.1875978
 122.7806852  58.0455459 128.0234150 122.0073343  56.9532417 127.3158288
 113.2179709  50.9476260 124.7124978 113.4687748  51.8323270 124.9782554
 113.7539258  50.7680862 123.9400069 122.4310437  59.2503160 117.0554958
 122.2956112  60.0954695 117.4839806 122.9720249  59.4522437 116.2920892
 115.8839834  56.7678598 117.6282884 116.3964355  57.5621848 117.7788448
 116.5362547  56.0704888 117.5616485 117.6934719  59.8844354 119.7105637
 117.8701347  60.8062319 119.5226621 118.4891552  59.5702773 120.1400017
 116.9787075  51.9308986 129.5867800 116.8640591  51.0294243 129.8874899
 116.1231593  52.1772683 129.2352617 118.8166034  61.4022528 125.7115979
 119.3673460  61.2739591 124.9392973 117.9777510  61.7017417 125.3610872
 122.6133205  57.6673655 130.0560210 123.1461542  56.9061944 129.8259518
 122.0847287  57.3747307 130.7984365 113.8488751  55.0967252 118.4042454
 114.6863973  55.5064260 118.1876162 114.0267019  54.1566694 118.3742648
 125.7453183  52.7642333 114.0926287 125.2299807  53.5346937 114.3314674
 125.4730492  52.0907469 114.7159349 123.3300294  47.6092033 119.1511525
 122.4741890  47.2198884 118.9717164 123.7427246  47.6883994 118.2911311
 121.1042327  45.2277106 122.5569267 121.9695323  45.0319915 122.1975156
 121.1719836  44.9987458 123.4838624 130.7187457  55.5174687 116.0279461
 129.9416900  55.1785847 115.5834623 131.3978938  55.5227310 115.3534426
 125.5339486  50.6369425 115.9186068 125.2289622  50.9515574 116.7696211
 126.4869928  50.7150845 115.9613401 123.9785918  56.7959648 117.5679022
 123.4507280  56.0612408 117.2552260 123.4773421  57.5734324 117.3218991
 128.9578764  54.9908668 122.6846069 128.3002439  55.6807930 122.7726197
 129.7619163  55.3805100 123.0280055 118.7104646  47.4579314 119.9285634
 119.2848398  47.2354496 119.1958827 119.2975628  47.5268009 120.6814235
 127.7684223  53.3453041 120.7350010 128.2816105  53.9783033 121.2371720
 128.4185447  52.7454237 120.3693370 119.0374233  49.4883775 113.9481519
 118.2011545  49.8258462 114.2690794 118.8979002  49.3532755 113.0108656
 121.0127313  44.3320563 118.6560703 120.3591726  44.0169580 118.0317318
 120.9707788  43.7096304 119.3820526 122.1238518  54.6139858 110.5713995
 121.2165580  54.3829112 110.7705144 122.6209550  53.8177477 110.7587977
 125.0306597  63.3237365 113.4910681 124.3568296  63.6269062 114.0995639
 125.4172419  64.1266446 113.1416138 124.2465054  50.8202497 122.9808351
 123.3287615  51.0417444 122.8230039 124.6625197  50.8948807 122.1220058
 125.0300102  52.2193912 118.1111031 125.7771921  52.7315310 117.8018153
 125.2991691  51.8977965 118.9715425 123.3026752  54.7152453 115.0937985
 122.3937971  54.4311486 115.1910455 123.3321836  55.1351532 114.2341292
 128.5346019  58.3259043 118.8629153 128.0808346  57.4849952 118.9194343
 127.9039986  58.9620441 119.2003933 127.4778939  49.2551029 120.0929820
 126.7401696  48.7428415 120.4240063 127.7305712  48.8151410 119.2813097
 126.9778958  60.1635539 119.7978971 127.2701933  60.7240596 119.0791337
 127.4877579  60.4564100 120.5532130 113.8714922  52.4357967 119.0753188
 113.6739322  51.8427328 118.3504254 113.3161586  52.1310177 119.7929126
 121.8511646  52.3281074 121.1947781 121.9060256  51.3754910 121.1190257
 121.0402848  52.4840513 121.6789079 123.0002840  56.2561197 112.4326064
 122.5622269  55.5397056 111.9731701 123.7413280  56.4837312 111.8711155
 119.7904006  50.9458133 118.9538160 118.9771871  51.2452304 119.3603352
 120.2863000  50.5513822 119.6712642 121.9412584  60.9415890 120.8872424
 121.8988762  61.1676737 119.9580956 122.8575282  60.7079265 121.0358225
 131.1175954  54.5318394 118.4902382 130.9793853  54.7219990 117.5623572
 130.7612173  55.2937777 118.9470434 119.2818080  48.5176489 124.5699395
 119.9217460  48.3765248 123.8722358 118.4495611  48.2311002 124.1937997
 120.0578384  57.8178919 120.6834387 120.8518983  57.3229240 120.4816962
 119.3470077  57.2896783 120.3202093 124.8773229  60.1997015 125.0346755
 124.9310251  60.7687951 125.8024471 124.0088010  60.3698900 124.6700792
 116.3661148  51.9622001 116.7594140 115.4358736  51.9006457 116.9764102
 116.4618620  51.4397954 115.9630781 116.2846697  48.4876814 119.3472381
 116.5453514  49.4022147 119.2381542 117.1063869  48.0201257 119.4968994
 117.7571622  49.9014571 126.5171206 118.4294676  49.6931933 125.8683855
 116.9301409  49.7036657 126.0776438 123.8361329  54.3657277 126.5933686
 124.7653389  54.5168437 126.4202654 123.4152359  54.4541298 125.7382333
 122.6349660  58.3907941 124.3632224 122.4960746  58.0226726 125.2358162
 121.8464257  58.9055581 124.1916182 123.2297812  63.4917038 115.7057761
 123.4049568  63.0205081 116.5203383 122.5430600  64.1182804 115.9339021
 124.1854876  57.7689544 121.7521062 123.8504708  57.7290314 122.6478712
 123.6858821  57.1034260 121.2791472 118.1599119  53.1757174 127.2773643
 118.0218917  52.4437413 127.8785182 119.0704043  53.0866074 126.9957831
 127.1214067  55.1145578 112.0258122 126.5043238  54.3892407 111.9291174
 126.6530556  55.8754939 111.6825196 120.7881420  52.8877133 126.7657323
 121.4981039  52.2470326 126.7243941 120.7450728  53.1390028 127.6883503
 117.7958898  66.6406401 122.4797621 118.0355496  67.2724925 123.1576639
 116.9528094  66.2894441 122.7662980 118.9112613  49.3331003 111.1479426
 118.0342079  49.2119803 110.7841672 119.3870366  48.5417081 110.8958314
 110.4314753  54.1208162 121.2420933 111.1185793  53.8069892 120.6541948
 110.2762882  55.0249527 120.9688184 115.2349475  49.0098359 125.6705957
 115.1507664  48.4024029 124.9356367 114.4132182  49.5007377 125.6715453
 122.3086759  62.4485523 124.8839125 122.2356931  63.2540495 125.3958429
 121.8664153  62.6477489 124.0587146 122.0976539  61.6857293 118.3941946
 121.3144061  62.2278973 118.4880171 122.7969284  62.2031273 118.7936187
 125.4073189  47.4951923 121.0376152 125.9041889  46.7421885 120.7177222
 124.6360171  47.5316239 120.4719361 124.7685443  62.3472357 127.0397283
 125.4813415  62.9819822 126.9673185 124.2775472  62.4436223 126.2237285
 126.4902970  56.2523610 118.6114575 125.5559249  56.3725072 118.4419279
 126.6679638  55.3496077 118.3474585 121.9908158  49.6369306 120.7647836
 121.6205946  49.0840346 121.4528742 122.4867250  49.0327439 120.2122836
 129.8775521  52.0940929 119.1464609 130.3435973  52.9268921 119.0724912
 130.3283022  51.6285911 119.8509868 119.8197357  60.0966801 127.8602854
 120.5206816  60.7303283 128.0132248 119.3492472  60.4381532 127.0998494
 127.9451752  58.4384750 116.1450761 128.2211596  58.3241345 117.0544635
 127.0756251  58.0402235 116.1062934 124.5805816  62.6871101 119.7883575
 124.7628211  61.8692757 120.2511327 125.4038802  62.9038793 119.3508465
 124.9147982  61.6139286 117.0498623 125.4435748  61.1031741 116.4368785
 125.1776201  61.2981816 117.9144156 115.4165075  59.6303156 124.7933957
 116.0018511  58.8846843 124.9261861 115.2189913  59.9407112 125.6770621
 118.2703730  62.6654403 119.8096399 117.6014105  63.1500531 119.3260439
 118.1316600  62.9123623 120.7239778 110.0082729  52.2008756 123.5138400
 110.0466829  51.6672346 124.3075518 109.5023022  51.6743961 122.8949377
 122.4108998  64.6998146 126.4079058 122.9627306  64.8629768 127.1728143
 122.7515192  65.2902584 125.7359083 117.3873492  47.0473296 127.0100942
 117.4514818  47.9088127 126.5978340 117.3240612  46.4347298 126.2773301
 113.6391307  50.9272858 116.5892331 113.9344748  50.0183536 116.5359385
 112.7379343  50.9060597 116.2673334 125.5477386  62.6480122 123.3942740
 125.4228525  61.8469862 122.8853685 126.2056477  63.1426315 122.9056710
 117.1685554  49.0028855 122.5719880 116.4472140  49.6164822 122.4327353
 117.9578810  49.5386619 122.4936526 127.6112294  60.4489142 125.0222290
 126.6642630  60.3294493 124.9500617 127.9595067  59.5611640 125.1048551
 115.3679149  48.6086956 116.7131657 115.0391855  47.7284335 116.5306763
 115.7218519  48.5534624 117.6008046 124.6158727  60.2441858 121.2226642
 124.4683690  59.3158566 121.4034212 125.4412221  60.2661949 120.7383717
 118.4820972  48.8959925 117.0807134 118.8217044  49.4245847 116.3585743
 118.9293092  49.2340332 117.8565701 128.2192849  61.0670417 122.3091515
 129.1439397  60.8613278 122.1715966 128.0508153  60.8186818 123.2180856
 120.4689119  47.3934547 115.2800427 121.1897481  47.7715800 114.7764144
 119.8454423  48.1123424 115.3835405 124.6120242  48.0979696 116.2158759
 124.8283856  48.9804334 115.9147588 124.1314309  47.7065909 115.4864401
 119.3519463  51.0565409 122.7929504 119.2064044  51.3705712 123.6853785
 118.8744667  51.6750310 122.2400403 121.2115846  48.0467957 122.8410394
 121.1977415  47.1509050 122.5042691 121.9288274  48.0538621 123.4748680
 128.0088165  61.5856084 117.6653606 128.1825043  61.0202507 116.9127459
 128.5017057  62.3856979 117.4833096 113.8265125  53.5970754 125.7317165
 113.2818593  54.3730562 125.8637439 114.7044475  53.9441558 125.5736287
 120.6152742  46.9282337 118.1097964 120.7368653  45.9998984 118.3088851
 120.3254784  46.9421023 117.1976279 123.4843932  44.6137248 121.2464684
 123.5065629  44.6776581 120.2916663 123.9011991  43.7741757 121.4405190
 133.8627557  54.3492507 119.2843906 134.3058703  53.5999833 118.8863029
 132.9854067  54.3402644 118.9017638 128.9963338  60.9022849 114.7650505
 129.6914243  61.5229542 114.9837819 129.3386488  60.0518200 115.0402883
 114.6131147  52.7240650 128.6247322 113.8712883  52.8723285 129.2111952
 114.2923891  52.9848915 127.7614071 130.8954761  58.3522554 116.2937835
 131.4206085  58.6909827 115.5687155 130.8077114  57.4169570 116.1100970
 122.5574810  62.2656628 128.4227712 122.8661936  62.0205775 129.2950412
 123.3550292  62.4703267 127.9346582 122.5795422  64.4194538 120.6533089
 122.1400412  63.9270916 121.3465945 123.3303539  63.8767505 120.4125164
 115.0587761  60.6106079 120.6557717 115.8845781  60.3109850 120.2756360
 114.7081813  59.8413701 121.1047505 120.0269294  59.9632547 122.7255390
 119.4049303  59.3003252 122.4257618 120.6974161  59.9893679 122.0429038
 113.2596366  58.5292405 121.6146650 112.4228274  58.1014579 121.4330652
 113.2320011  58.7224848 122.5517441 119.5882801  58.5136470 116.2013851
 119.7370921  59.1971935 115.5480524 120.3949244  58.4941560 116.7163307
 117.3435434  54.5401648 117.2074920 117.0981476  53.6363978 117.4055130
 117.5131348  54.5418798 116.2654398 116.6131081  50.2730005 114.7061081
 115.9200326  50.3474360 114.0501117 116.3682833  49.5090349 115.2282598
 123.0878206  61.0084601 113.6725598 122.5152173  61.6274788 113.2196070
 123.6611000  61.5583962 114.2065520 126.3075466  61.2921751 114.8034180
 127.2406139  61.2267312 115.0067056 126.2198679  62.1278018 114.3448713
 128.9363483  60.6087621 111.7638128 128.8577114  60.2747485 112.6573886
 129.7573150  61.1009389 111.7629600 123.4725005  52.3445413 111.0141651
 124.4184110  52.2151621 111.0830069 123.0939250  51.6060075 111.4911079
 121.6567922  50.2695390 110.9496536 120.7499377  49.9728502 111.0259250
 121.9343903  49.9725208 110.0830822 112.5745862  51.5901753 121.3995582
 112.2548647  50.7367061 121.1069956 112.0279291  51.8050331 122.1553550
 116.3525770  54.3064194 125.1165089 116.5711780  55.2381302 125.1353123
 116.7651544  53.9472169 125.9019893 123.2729988  44.8132279 117.1040777
 122.4630716  44.4679364 117.4796023 123.9614405  44.5039823 117.6928389
 125.2020536  43.8910326 118.7265074 125.7551575  44.3105780 119.3855097
 125.4390622  42.9646074 118.7688030 120.4266707  47.1282325 111.0908515
 121.2885871  47.4537223 111.3504332 120.6117051  46.3413821 110.5781581
 112.4434122  55.2104665 123.3688704 111.7497594  54.7958617 122.8558658
 113.1907113  55.2525201 122.7722123 128.5799343  46.0010851 118.2343738
 127.9998012  46.6595655 117.8521791 128.3135276  45.1788196 117.8231156
 114.3570865  55.1422918 121.2454719 114.3341553  55.2410606 120.2936602
 114.6671501  55.9888069 121.5671885 117.0158243  57.1999073 125.3601333
 117.9701496  57.1683016 125.2931265 116.8170766  56.7389697 126.1751559
 117.6057625  55.7700189 127.9272131 118.4250514  56.2644268 127.9506968
 117.8794433  54.8532158 127.8989698 127.3624221  48.1610942 117.2900086
 126.4750076  48.4460592 117.0720281 127.7778210  48.0004705 116.4427363
 115.3708472  62.7418693 122.3771531 115.2362940  61.9819094 121.8109529
 114.9540534  63.4659593 121.9100320 126.5067435  57.9255616 111.3848106
 127.2103285  58.1305619 112.0005762 125.7830083  58.4932378 111.6497190
 127.3365245  53.6765478 117.5050377 127.2800446  54.1334029 116.6658009
 127.8893587  52.9156162 117.3273219 118.5277597  63.6388010 122.5889974
 118.4109982  64.5833442 122.4868664 117.7070044  63.3361571 122.9775773
 128.4154132  58.3638146 113.4346566 129.2499736  57.9319344 113.2524041
 128.2538475  58.1920159 114.3623461 128.0700024  54.8670259 114.8002906
 128.0148828  54.7014530 113.8591350 127.4446079  55.5746292 114.9565095
 112.8592539  50.1038323 128.6264328 113.5051403  49.5937277 129.1151553
 112.6509690  50.8407005 129.2007753 121.3796150  44.3678368 114.3788224
 121.3674819  45.3120208 114.5356495 122.2719572  44.1848513 114.0847685
 119.5532112  64.2916272 125.8045902 120.4559358  64.3239882 126.1212397
 119.3269482  63.3616723 125.8192238 121.3085714  63.0447258 122.4655981
 120.3581345  63.0449120 122.3520353 121.6118200  62.2979993 121.9492015
 133.8528113  68.8335225 123.4663268 133.5146625  68.7176290 122.5783803
 134.7217882  68.4326390 123.4464274 129.7114929  70.6870701 119.4560159
 129.1479794  70.5960638 118.6876447 129.5967324  69.8670606 119.9362651
 127.2579361  72.1821893 122.2944379 128.0500653  71.8412718 121.8790679
 127.4976011  72.2916868 123.2146533 135.2914488  74.3541669 114.7674624
 134.6402468  74.9395749 114.3808638 136.0858851  74.8847864 114.8269661
 129.2170115  71.4430806 115.1661758 129.9900991  70.8959793 115.0274634
 129.5695514  72.3075055 115.3776219 131.9811364  70.1484037 124.9630017
 132.5774937  69.9240059 124.2486980 132.0386336  69.4068782 125.5655465
 131.5536393  67.6023472 112.7980208 131.8061913  67.0804994 112.0363671
 130.6160952  67.4389618 112.9006892 136.5979676  66.6059251 120.6054951
 137.3842765  66.1878674 120.2545368 136.8618380  67.5105343 120.7736600
 136.7689753  72.0432101 115.3043608 136.1335586  72.1166727 116.0164513
 136.4387159  72.6325700 114.6262687 131.2732682  69.5051578 115.0004583
 131.1568940  68.8296482 115.6685667 131.3834941  69.0183952 114.1836736
 133.6164222  68.9661725 118.7051272 133.2522430  68.4392346 119.4164194
 134.4731338  68.5760194 118.5317758 133.2569709  63.9951625 113.7012621
 133.4244112  64.8631861 114.0683092 133.0666878  64.1578907 112.7773910
 129.4657524  68.9082401 121.4015155 128.5408021  68.7758615 121.6092847
 129.7141937  69.6876620 121.8985098 133.2358930  66.4509283 114.6859288
 133.1158555  66.8966333 115.5244768 132.5411519  66.7994600 114.1272826
 126.8266335  68.5515674 122.2358945 126.9558716  68.8050153 123.1498356
 126.1463786  69.1443382 121.9163600 130.9965822  79.2212924 118.3349419
 130.9189852  80.1720749 118.4137899 130.3927466  78.8758797 118.9924345
 133.0941541  71.6430982 120.1703288 133.5579886  71.9218685 119.3807911
 132.8298339  70.7414427 119.9876379 129.9865622  71.1902464 123.1083051
 130.5566979  71.6189732 122.4700536 130.5773734  70.9085048 123.8067237
 132.0310427  67.7654135 116.9792853 132.7334470  68.2175178 117.4466780
 131.6991055  67.1237953 117.6072746 125.7735761  66.0237687 122.2809987
 124.9834815  66.2795216 121.8050097 126.2647008  66.8386025 122.3862027
 127.7250506  66.3882267 119.2393464 126.9281669  66.5000961 119.7576959
 127.4976098  66.7268919 118.3734354 124.0573464  66.2768178 124.7124978
 124.3081502  67.1615188 124.9782554 124.5933012  66.0972779 123.9400069
 133.2704191  74.5795077 117.0554958 133.1349866  75.4246613 117.4839806
 133.8114004  74.7814355 116.2920892 126.7233589  72.0970515 117.6282884
 127.2358109  72.8913766 117.7788448 127.3756302  71.3996806 117.5616485
 128.5328473  75.2136272 119.7105637 128.7095102  76.1354236 119.5226621
 129.3285307  74.8994691 120.1400017 127.8180830  67.2600903 129.5867800
 127.7034345  66.3586161 129.8874899 126.9625348  67.5064600 129.2352617
 124.6882505  70.4259170 118.4042454 125.5257727  70.8356178 118.1876162
 124.8660773  69.4858612 118.3742648 136.5846938  68.0934250 114.0926287
 136.0693561  68.8638855 114.3314674 136.3124246  67.4199386 114.7159349
 134.1694049  62.9383951 119.1511525 133.3135645  62.5490801 118.9717164
 134.5821000  63.0175912 118.2911311 131.9436081  60.5569024 122.5569267
 132.8089078  60.3611833 122.1975156 132.0113590  60.3279376 123.4838624
 136.3733241  65.9661342 115.9186068 136.0683376  66.2807491 116.7696211
 137.3263683  66.0442762 115.9613401 134.8179673  72.1251566 117.5679022
 134.2901034  71.3904325 117.2552260 134.3167175  72.9026242 117.3218991
 129.5498400  62.7871232 119.9285634 130.1242152  62.5646413 119.1958827
 130.1369383  62.8559926 120.6814235 129.8767987  64.8175693 113.9481519
 129.0405300  65.1550379 114.2690794 129.7372757  64.6824673 113.0108656
 131.8521068  59.6612481 118.6560703 131.1985480  59.3461498 118.0317318
 131.8101542  59.0388221 119.3820526 132.9632273  69.9431776 110.5713995
 132.0559335  69.7121029 110.7705144 133.4603305  69.1469395 110.7587977
 135.8700352  78.6529283 113.4910681 135.1962050  78.9560980 114.0995639
 136.2566174  79.4558363 113.1416138 135.0858808  66.1494414 122.9808351
 134.1681370  66.3709361 122.8230039 135.5018952  66.2240725 122.1220058
 135.8693856  67.5485830 118.1111031 136.6165675  68.0607227 117.8018153
 136.1385446  67.2269883 118.9715425 134.1420506  70.0444371 115.0937985
 133.2331726  69.7603404 115.1910455 134.1715590  70.4643449 114.2341292
 124.7108677  67.7649885 119.0753188 124.5133076  67.1719246 118.3504254
 124.1555341  67.4602095 119.7929126 132.6905400  67.6572991 121.1947781
 132.7454010  66.7046828 121.1190257 131.8796602  67.8132430 121.6789079
 133.8396594  71.5853114 112.4326064 133.4016024  70.8688973 111.9731701
 134.5807035  71.8129229 111.8711155 130.6297760  66.2750051 118.9538160
 129.8165626  66.5744222 119.3603352 131.1256754  65.8805740 119.6712642
 132.7806338  76.2707808 120.8872424 132.7382517  76.4968654 119.9580956
 133.6969037  76.0371183 121.0358225 130.1211835  63.8468407 124.5699395
 130.7611214  63.7057166 123.8722358 129.2889366  63.5602920 124.1937997
 130.8972139  73.1470837 120.6834387 131.6912737  72.6521157 120.4816962
 130.1863831  72.6188700 120.3202093 127.2054902  67.2913919 116.7594140
 126.2752490  67.2298374 116.9764102 127.3012374  66.7689872 115.9630781
 127.1240451  63.8168732 119.3472381 127.3847269  64.7314065 119.2381542
 127.9457624  63.3493174 119.4968994 128.5965377  65.2306489 126.5171206
 129.2688430  65.0223851 125.8683855 127.7695163  65.0328575 126.0776438
 134.0691567  78.8208955 115.7057761 134.2443323  78.3496999 116.5203383
 133.3824355  79.4474722 115.9339021 135.0248630  73.0981462 121.7521062
 134.6898463  73.0582232 122.6478712 134.5252576  72.4326178 121.2791472
 128.9992874  68.5049092 127.2773643 128.8612672  67.7729331 127.8785182
 129.9097797  68.4157992 126.9957831 131.6275175  68.2169051 126.7657323
 132.3374793  67.5762243 126.7243941 131.5844483  68.4681946 127.6883503
 129.7506368  64.6622920 111.1479426 128.8735834  64.5411721 110.7841672
 130.2264121  63.8708999 110.8958314 121.2708508  69.4500080 121.2420933
 121.9579548  69.1361810 120.6541948 121.1156636  70.3541445 120.9688184
 126.0743230  64.3390277 125.6705957 125.9901419  63.7315946 124.9356367
 125.2525936  64.8299295 125.6715453 132.9370294  77.0149211 118.3941946
 132.1537815  77.5570891 118.4880171 133.6363039  77.5323190 118.7936187
 136.2466944  62.8243840 121.0376152 136.7435643  62.0713803 120.7177222
 135.4753925  62.8608157 120.4719361 137.3296724  71.5815527 118.6114575
 136.3953003  71.7016990 118.4419279 137.5073393  70.6787994 118.3474585
 132.8301912  64.9661223 120.7647836 132.4599700  64.4132264 121.4528742
 133.3261005  64.3619357 120.2122836 135.4199571  78.0163019 119.7883575
 135.6021965  77.1984675 120.2511327 136.2432557  78.2330711 119.3508465
 135.7541736  76.9431204 117.0498623 136.2829503  76.4323659 116.4368785
 136.0169956  76.6273734 117.9144156 126.2558829  74.9595073 124.7933957
 126.8412266  74.2138761 124.9261861 126.0583668  75.2699030 125.6770621
 129.1097484  77.9946321 119.8096399 128.4407860  78.4792448 119.3260439
 128.9710354  78.2415541 120.7239778 120.8476484  67.5300673 123.5138400
 120.8860583  66.9964264 124.3075518 120.3416777  67.0035879 122.8949377
 128.2267246  62.3765214 127.0100942 128.2908573  63.2380045 126.5978340
 128.1634366  61.7639216 126.2773301 124.4785061  66.2564776 116.5892331
 124.7738502  65.3475454 116.5359385 123.5773097  66.2352515 116.2673334
 128.0079308  64.3320772 122.5719880 127.2865894  64.9456740 122.4327353
 128.7972564  64.8678537 122.4936526 126.2072903  63.9378873 116.7131657
 125.8785609  63.0576252 116.5306763 126.5612274  63.8826542 117.6008046
 135.4552482  75.5733776 121.2226642 135.3077444  74.6450483 121.4034212
 136.2805975  75.5953867 120.7383717 129.3214726  64.2251843 117.0807134
 129.6610799  64.7537764 116.3585743 129.7686847  64.5632249 117.8565701
 131.3082873  62.7226465 115.2800427 132.0291236  63.1007717 114.7764144
 130.6848177  63.4415341 115.3835405 135.4513996  63.4271614 116.2158759
 135.6677611  64.3096252 115.9147588 134.9708063  63.0357827 115.4864401
 130.1913218  66.3857327 122.7929504 130.0457798  66.6997630 123.6853785
 129.7138421  67.0042227 122.2400403 132.0509600  63.3759875 122.8410394
 132.0371169  62.4800968 122.5042691 132.7682029  63.3830539 123.4748680
 124.6658880  68.9262671 125.7317165 124.1212348  69.7022479 125.8637439
 125.5438230  69.2733476 125.5736287 131.4546496  62.2574255 118.1097964
 131.5762408  61.3290901 118.3088851 131.1648539  62.2712941 117.1976279
 134.3237687  59.9429166 121.2464684 134.3459384  60.0068499 120.2916663
 134.7405746  59.1033674 121.4405190 125.4524902  68.0532568 128.6247322
 124.7106638  68.2015203 129.2111952 125.1317646  68.3140833 127.7614071
 125.8981515  75.9397996 120.6557717 126.7239535  75.6401768 120.2756360
 125.5475567  75.1705619 121.1047505 130.8663048  75.2924464 122.7255390
 130.2443058  74.6295169 122.4257618 131.5367915  75.3185596 122.0429038
 124.0990120  73.8584323 121.6146650 123.2622029  73.4306497 121.4330652
 124.0713766  74.0516766 122.5517441 130.4276555  73.8428388 116.2013851
 130.5764676  74.5263852 115.5480524 131.2342999  73.8233478 116.7163307
 128.1829188  69.8693565 117.2074920 127.9375230  68.9655895 117.4055130
 128.3525103  69.8710716 116.2654398 127.4524836  65.6021923 114.7061081
 126.7594081  65.6766278 114.0501117 127.2076588  64.8382267 115.2282598
 133.9271961  76.3376518 113.6725598 133.3545928  76.9566705 113.2196070
 134.5004755  76.8875880 114.2065520 134.3118759  67.6737331 111.0141651
 135.2577864  67.5443539 111.0830069 133.9333004  66.9351993 111.4911079
 132.4961677  65.5987307 110.9496536 131.5893132  65.3020420 111.0259250
 132.7737658  65.3017125 110.0830822 123.4139617  66.9193671 121.3995582
 123.0942401  66.0658979 121.1069956 122.8673045  67.1342249 122.1553550
 127.1919524  69.6356112 125.1165089 127.4105534  70.5673220 125.1353123
 127.6045298  69.2764086 125.9019893 134.1123742  60.1424197 117.1040777
 133.3024471  59.7971282 117.4796023 134.8008159  59.8331741 117.6928389
 136.0414291  59.2202244 118.7265074 136.5945329  59.6397697 119.3855097
 136.2784377  58.2937992 118.7688030 131.2660461  62.4574243 111.0908515
 132.1279625  62.7829141 111.3504332 131.4510805  61.6705739 110.5781581
 123.2827877  70.5396582 123.3688704 122.5891348  70.1250535 122.8558658
 124.0300868  70.5817119 122.7722123 125.1964619  70.4714836 121.2454719
 125.1735308  70.5702523 120.2936602 125.5065256  71.3179987 121.5671885
 127.8551997  72.5290991 125.3601333 128.8095251  72.4974933 125.2931265
 127.6564521  72.0681615 126.1751559 126.2102226  78.0710611 122.3771531
 126.0756694  77.3111011 121.8109529 125.7934288  78.7951510 121.9100320
 123.6986294  65.4330241 128.6264328 124.3445157  64.9229195 129.1151553
 123.4903445  66.1698923 129.2007753 132.2189904  59.6970286 114.3788224
 132.2068574  60.6412126 114.5356495 133.1113326  59.5140431 114.0847685
 135.3178816  81.5856693 116.5892331 135.6132257  80.6767372 116.5359385
 134.4166852  81.5644433 116.2673334 137.0466657  79.2670791 116.7131657
 136.7179364  78.3868170 116.5306763 137.4006028  79.2118460 117.6008046
  98.4784560  10.2399294 105.0594725  98.4008590  11.1907119 105.1383206
  97.8746204   9.8945166 105.7169652  97.1378527   7.7500815 112.4361286
  97.6885952   7.6217878 111.6638280  96.2990003   8.0495704 112.0856179
 103.3519089   9.6715653 100.2155988 102.6780788   9.9747349 100.8240946
 103.7384911  10.4744733  99.8661445 101.5510305   9.8395325 102.4303067
 101.7262060   9.3683368 103.2448690 100.8643093  10.4661091 102.6584328
  96.1171390  12.9884688 109.2042927  96.3567988  13.6203212 109.8821946
  95.2740586  12.6372728 109.4908287 100.6299252   8.7963810 111.6084431
 100.5569423   9.6018782 112.1203736 100.1876645   8.9955776 110.7832453
 100.4189031   8.0335580 105.1187253  99.6356553   8.5757260 105.2125477
 101.1181777   8.5509560 105.5181494 103.0897935   8.6950644 113.7642590
 103.8025907   9.3298109 113.6918492 102.5987964   8.7914510 112.9482592
  93.7377567   5.9781443 111.5179264  94.3231004   5.2325131 111.6507168
  93.5402405   6.2885400 112.4015927  96.5916222   9.0132690 106.5341706
  95.9226597   9.4978818 106.0505746  96.4529092   9.2601911 107.4485084
 100.7321491  11.0476434 113.1324364 101.2839799  11.2108055 113.8973450
 101.0727684  11.6380872 112.4604389 100.8787302   8.6134915 115.1473019
 101.1874428   8.3684062 116.0195718 101.6762784   8.8181554 114.6591889
 100.9007914  10.7672825 107.3778395 100.4612904  10.2749204 108.0711252
 101.6516031  10.2245793 107.1370470  93.3800253   6.9584366 107.3803023
  94.2058273   6.6588138 107.0001667  93.0294305   6.1891988 107.8292812
  91.5808858   4.8770692 108.3391957  90.7440766   4.4492867 108.1575958
  91.5532504   5.0703136 109.2762748  93.6920964   9.0896980 109.1016838
  93.5575432   8.3297381 108.5354836  93.2753026   9.8137880 108.6345627
  96.8490090   9.9866297 109.3135280  96.7322474  10.9311730 109.2113971
  96.0282536   9.6839859 109.7021080  97.8744604  10.6394559 112.5291209
  98.7771851  10.6718169 112.8457704  97.6481974   9.7095010 112.5437545
  99.6298206   9.3925546 109.1901287  98.6793837   9.3927407 109.0765660
  99.9330692   8.6458280 108.6737322 115.3650899  15.2286084 110.2547050
 116.0029309  15.1092831 109.5510390 115.2471742  16.1766928 110.3135002
 112.1740606  15.1813512 110.1908575 111.8359117  15.0654577 109.3029109
 113.0430374  14.7804677 110.1709581 108.0327421  17.0348989 106.1805465
 107.4692286  16.9438925 105.4121753 107.9179816  16.2148893 106.6607958
 105.5791853  18.5300180 109.0189686 106.3713145  18.1891005 108.6035985
 105.8188503  18.6395155 109.9391839 113.6126980  20.7019956 101.4919930
 112.9614960  21.2874037 101.1053944 114.4071343  21.2326151 101.5514968
 107.5382607  17.7909093 101.8907065 108.3113483  17.2438080 101.7519941
 107.8908006  18.6553343 102.1021526 109.3767650  19.1185476 115.0973964
 109.0857516  20.0231106 114.9820630 110.0124634  19.1602003 115.8118034
 110.3023857  16.4962324 111.6875324 110.8987429  16.2718347 110.9732287
 110.3598828  15.7547070 112.2900772 109.8748885  13.9501760  99.5225515
 110.1274406  13.4283281  98.7608978 108.9373444  13.7867905  99.6252198
 115.0902245  18.3910388 102.0288915 114.4548078  18.4645015 102.7409819
 114.7599652  18.9803987 101.3507994 109.5945174  15.8529865 101.7249890
 109.4781432  15.1774769 102.3930974 109.7047434  15.3662239 100.9082043
 111.9376715  15.3140013 105.4296579 111.5734922  14.7870634 106.1409500
 112.7943831  14.9238482 105.2563064 114.3357535  18.8046891 112.0923758
 114.0358258  19.7071930 111.9839565 113.9908594  18.5379074 112.9444911
 107.7870016  15.2560688 108.1260462 106.8620513  15.1236902 108.3338154
 108.0354430  16.0354907 108.6230405 111.5571423  12.7987570 101.4104594
 111.4371048  13.2444621 102.2490074 110.8624011  13.1472887 100.8518132
 105.1478827  14.8993962 108.9604251 105.2771209  15.1528440 109.8743663
 104.4676279  15.4921670 108.6408906 109.3178315  25.5691212 105.0594725
 109.2402344  26.5199037 105.1383206 108.7139958  25.2237084 105.7169652
 115.8626071  18.2534861 109.6298510 115.2334933  18.4180576 108.9274578
 115.4751733  18.6676471 110.4009474 119.7415303  19.1889299 106.9842873
 119.0566341  19.5688201 106.4339907 119.8259152  19.7984626 107.7174821
 111.4154033  17.9909269 106.8948595 111.8792378  18.2696972 106.1053217
 111.1510831  17.0892714 106.7121685 108.3078114  17.5380751 109.8328358
 108.8779471  17.9668019 109.1945843 108.8986226  17.2563336 110.5312544
 110.3522919  14.1132422 103.7038160 111.0546962  14.5653466 104.1712086
 110.0203547  13.4716241 104.3318053 104.0948253  12.3715974 109.0055293
 103.3047307  12.6273503 108.5295404 104.5859500  13.1864312 109.1107334
 106.0462998  12.7360554 105.9638770 105.2494162  12.8479248 106.4822266
 105.8188591  13.0747206 105.0979661 111.8768666  19.2605257 113.9121285
 111.9413098  19.7225664 114.7479457 111.1679590  18.6302622 114.0403595
 102.3785956  12.6246465 111.4370284 102.6293994  13.5093475 111.7027860
 102.9145504  12.4451066 110.6645376 111.5916684  20.9273364 103.7800265
 111.4562358  21.7724900 104.2085113 112.1326496  21.1292642 103.0166199
 105.0446081  18.4448802 104.3528190 105.5570602  19.2392053 104.5033755
 105.6968794  17.7475093 104.2861792 106.8540966  21.5614559 106.4350943
 107.0307594  22.4832523 106.2471927 107.6497799  21.2472978 106.8645323
 106.1393322  13.6079191 116.3113107 106.0246837  12.7064448 116.6120206
 105.2837840  13.8542887 115.9597923 107.9772281  23.0792733 112.4361286
 108.5279706  22.9509796 111.6638280 107.1383757  23.3787622 112.0856179
 111.7739452  19.3443860 116.7805517 112.3067789  18.5832149 116.5504825
 111.2453533  19.0517512 117.5229671 103.0094998  16.7737457 105.1287761
 103.8470220  17.1834465 104.9121468 103.1873265  15.8336899 105.0987955
 114.9059430  14.4412537 100.8171594 114.3906053  15.2117142 101.0559981
 114.6336738  13.7677674 101.4404655 119.8793704  17.1944892 102.7524767
 119.1023147  16.8556052 102.3079929 120.5585185  17.1997515 102.0779732
 113.1392165  18.4729853 104.2924329 112.6113526  17.7382612 103.9797566
 112.6379668  19.2504529 104.0464297 118.1185011  16.6678873 109.4091375
 117.4608685  17.3578135 109.4971504 118.9225410  17.0575305 109.7525362
 116.9290470  15.0223246 107.4595317 117.4422351  15.6553238 107.9617027
 117.5791694  14.4224442 107.0938677 108.1980480  11.1653980 100.6726826
 107.3617792  11.5028667 100.9936100 108.0585249  11.0302960  99.7353963
 111.2844765  16.2910063  97.2959302 110.3771827  16.0599317  97.4950451
 111.7815797  15.4947682  97.4833283 114.1912844  25.0007570 100.2155988
 113.5174543  25.3039267 100.8240946 114.5778666  25.8036651  99.8661445
 113.4071301  12.4972702 109.7053657 112.4893862  12.7187649 109.5475346
 113.8231444  12.5719012 108.8465365 114.1906348  13.8964117 104.8356338
 114.9378167  14.4085514 104.5263460 114.4597938  13.5748170 105.6960731
 112.4632999  16.3922658 101.8183292 111.5544218  16.1081691 101.9155762
 112.4928082  16.8121737 100.9586599 117.6952266  20.0029247 105.5874460
 117.2414593  19.1620157 105.6439650 117.0646233  20.6390646 105.9249240
 116.1385205  21.8405744 106.5224278 116.4308180  22.4010801 105.8036643
 116.6483826  22.1334305 107.2777437 103.0321169  14.1128172 105.7998494
 102.8345569  13.5197533 105.0749561 102.4767833  13.8080382 106.5174433
 111.0117893  14.0051279 107.9193087 111.0666502  13.0525115 107.8435564
 110.2009095  14.1610718 108.4034386 112.1609086  17.9331402  99.1571371
 111.7228516  17.2167261  98.6977008 112.9019527  18.1607516  98.5956462
 108.9510252  12.6228338 105.6783466 108.1378118  12.9222509 106.0848658
 109.4469247  12.2284027 106.3957948 111.1018830  22.6186095 107.6117731
 111.0595009  22.8446942 106.6826263 112.0181529  22.3849470 107.7603532
 120.2782201  16.2088599 105.2147689 120.1400100  16.3990195 104.2868878
 119.9218420  16.9707982 105.6715740 109.2184631  19.4949124 107.4079694
 110.0125230  18.9999444 107.2062269 108.5076324  18.9666987 107.0447399
 114.0379476  21.8767220 111.7592061 114.0916498  22.4458156 112.5269777
 113.1694257  22.0469105 111.3946098 105.5267395  13.6392206 103.4839446
 104.5964983  13.5776662 103.7009408 105.6224867  13.1168159 102.6876088
 105.4452944  10.1647019 106.0717688 105.7059761  11.0792352 105.9626848
 106.2670116   9.6971461 106.2214301 106.9177869  11.5784776 113.2416513
 107.5900922  11.3702138 112.5929161 106.0907656  11.3806862 112.8021745
 112.9967575  16.0427482 113.3178993 113.9259635  16.1938641 113.1447960
 112.5758605  16.1311503 112.4627640 111.7955907  20.0678146 111.0877531
 111.6566993  19.6996931 111.9603469 111.0070503  20.5825786 110.9161489
 112.3904059  25.1687243 102.4303067 112.5655815  24.6975286 103.2448690
 111.7036847  25.7953009 102.6584328 113.3461122  19.4459749 108.4766369
 113.0110955  19.4060519 109.3724018 112.8465068  18.7804465 108.0036779
 107.3205366  14.8527379 114.0018950 107.1825164  14.1207618 114.6030489
 108.2310290  14.7636279 113.7203137 116.2820314  16.7915783  98.7503428
 115.6649485  16.0662611  98.6536481 115.8136802  17.5525144  98.4070502
 109.9487667  14.5647338 113.4902629 110.6587285  13.9240531 113.4489248
 109.9056975  14.8160233 114.4128810 106.9565144  28.3176606 109.2042927
 107.1961743  28.9495130 109.8821946 106.1134341  27.9664646 109.4908287
 108.0718860  11.0101208  97.8724732 107.1948326  10.8890008  97.5086979
 108.5476613  10.2187286  97.6203621  99.5921000  15.7978367 107.9666240
 100.2792040  15.4840097 107.3787255  99.4369129  16.7019732 107.6933491
 104.3955722  10.6868564 112.3951263 104.3113911  10.0794233 111.6601673
 103.5738429  11.1777582 112.3960760 111.4693006  24.1255728 111.6084431
 111.3963178  24.9310699 112.1203736 111.0270399  24.3247694 110.7832453
 111.2582786  23.3627498 105.1187253 110.4750308  23.9049178 105.2125477
 111.9575531  23.8801478 105.5181494 113.9291690  24.0242562 113.7642590
 114.6419662  24.6590027 113.6918492 113.4381718  24.1206428 112.9482592
 115.6509217  17.9293815 105.3359882 114.7165495  18.0495277 105.1664586
 115.8285885  17.0266281 105.0719892 108.9803603  21.7737005 114.5848161
 109.6813063  22.4073488 114.7377555 108.5098718  22.1151737 113.8243800
 117.1057999  20.1154955 102.8696068 117.3817843  20.0011550 103.7789942
 116.2362498  19.7172440 102.8308241 113.7412063  24.3641306 106.5128882
 113.9234458  23.5462962 106.9756634 114.5645049  24.5808998 106.0753772
 114.0754229  23.2909491 103.7743930 114.6041995  22.7801946 103.1614092
 114.3382448  22.9752021 104.6389463 104.5771321  21.3073360 111.5179264
 105.1624758  20.5617048 111.6507168 104.3796160  21.6177317 112.4015927
 107.4309977  24.3424608 106.5341706 106.7620352  24.8270736 106.0505746
 107.2922846  24.5893828 107.4485084  99.1688976  13.8778961 110.2383707
  99.2073076  13.3442551 111.0320825  98.6629269  13.3514166 109.6194684
 111.5715245  26.3768351 113.1324364 112.1233553  26.5399973 113.8973450
 111.9121439  26.9672789 112.4604389 102.7997554  12.6043063 103.3137638
 103.0950995  11.6953741 103.2604692 101.8985589  12.5830802 102.9918640
 114.7083632  24.3250327 110.1188046 114.5834772  23.5240067 109.6098992
 115.3662724  24.8196520 109.6302016 106.3291801  10.6799059 109.2965187
 105.6078386  11.2935027 109.1572660 107.1185056  11.2156824 109.2181833
 116.7718541  22.1259347 111.7467597 115.8248876  22.0064698 111.6745923
 117.1201314  21.2381845 111.8293858 104.5285395  10.2857161 103.4376963
 104.1998101   9.4054539 103.2552069 104.8824766  10.2304829 104.3253352
 113.7764974  21.9212063 107.9471949 113.6289937  20.9928771 108.1279519
 114.6018468  21.9432154 107.4629024 107.6427218  10.5730130 103.8052441
 107.9823291  11.1016052 103.0831049 108.0899339  10.9110536 104.5811007
 117.3799096  22.7440622 109.0336822 118.3045643  22.5383483 108.8961273
 117.2114399  22.4957023 109.9426163 108.5125710  12.7335614 109.5174811
 108.3670291  13.0475917 110.4099092 108.0350913  13.3520514 108.9645709
 117.1694412  23.2626289 104.3898913 117.3431290  22.6972712 103.6372765
 117.6623303  24.0627184 104.2078403 102.9871372  15.2740958 112.4562472
 102.4424840  16.0500766 112.5882746 103.8650722  15.6211763 112.2981593
 118.1569585  22.5793054 101.4895811 118.8520489  23.1999746 101.7083126
 118.4992735  21.7288405 101.7648189 103.7737394  14.4010855 115.3492629
 103.0319130  14.5493490 115.9357259 103.4530138  14.6619120 114.4859378
 120.0561008  20.0292759 103.0183142 120.5812332  20.3680032 102.2932462
 119.9683360  19.0939775 102.8346277 111.7181056  23.9426833 115.1473019
 112.0268183  23.6975980 116.0195718 112.5156539  24.1473471 114.6591889
 111.7401669  26.0964743 107.3778395 111.3006659  25.6041121 108.0711252
 112.4909786  25.5537710 107.1370470 104.2194008  22.2876283 107.3803023
 105.0452027  21.9880055 107.0001667 103.8688060  21.5183906 107.8292812
 109.1875541  21.6402752 109.4500697 108.5655550  20.9773457 109.1502925
 109.8580408  21.6663884 108.7674345 102.4202613  20.2062610 108.3391957
 101.5834521  19.7784784 108.1575958 102.3926258  20.3995053 109.2762748
 108.7489048  20.1906675 102.9259157 108.8977168  20.8742139 102.2725830
 109.5555491  20.1711765 103.4408613 106.5041681  16.2171853 103.9320226
 106.2587723  15.3134183 104.1300436 106.6737595  16.2189003 102.9899704
 105.7737328  11.9500210 101.4306388 105.0806573  12.0244565 100.7746424
 105.5289080  11.1860554 101.9527905 112.2484453  22.6854805 100.3970905
 111.6758420  23.3044993  99.9441377 112.8217247  23.2354167 100.9310827
 115.4681713  22.9691956 101.5279487 116.4012386  22.9037517 101.7312363
 115.3804926  23.8048222 101.0694020 118.0969730  22.2857826  98.4883435
 118.0183361  21.9517690  99.3819193 118.9179396  22.7779594  98.4874907
 112.6331252  14.0215618  97.7386957 113.5790356  13.8921826  97.8075375
 112.2545497  13.2830280  98.2156386 110.8174169  11.9465595  97.6741843
 109.9105624  11.6498707  97.7504556 111.0950150  11.6495413  96.8076129
 101.7352109  13.2671958 108.1240889 101.4154894  12.4137266 107.8315263
 101.1885537  13.4820536 108.8798856 105.5132017  15.9834399 111.8410396
 105.7318026  16.9151507 111.8598429 105.9257791  15.6242373 112.6265199
 101.6040369  16.8874870 110.0934011 100.9103841  16.4728822 109.5803965
 102.3513360  16.9295406 109.4967429 103.5177112  16.8193123 107.9700025
 103.4947800  16.9180811 107.0181909 103.8277748  17.6658274 108.2917192
 106.1764490  18.8769278 112.0846640 107.1307743  18.8453221 112.0176571
 105.9777013  18.4159902 112.8996866 106.7663872  17.4470394 114.6517438
 107.5856761  17.9414473 114.6752275 107.0400679  16.5302363 114.6235005
 104.5314718  24.4188898 109.1016838 104.3969186  23.6589299 108.5354836
 104.1146781  25.1429798 108.6345627 115.6673681  19.6025821  98.1093413
 116.3709531  19.8075824  98.7251069 114.9436330  20.1702583  98.3742497
 116.4971492  15.3535683 104.2295683 116.4406693  15.8104234 103.3903316
 117.0499834  14.5926367 104.0518526 107.6883844  25.3158215 109.3135280
 107.5716228  26.2603647 109.2113971 106.8676291  25.0131776 109.7021080
 117.5760379  20.0408351 100.1591873 118.4105983  19.6089549  99.9769348
 117.4144722  19.8690364 101.0868768 117.2306271  16.5440464 101.5248212
 117.1755075  16.3784735 100.5836657 116.6052326  17.2516497 101.6810402
 102.0198786  11.7808528 115.3509635 102.6657650  11.2707482 115.8396860
 101.8115937  12.5177210 115.9253060 108.7138358  25.9686477 112.5291209
 109.6165605  26.0010087 112.8457704 108.4875728  25.0386928 112.5437545
 110.4691960  24.7217463 109.1901287 109.5187591  24.7219325 109.0765660
 110.7724447  23.9750198 108.6737322 126.2044654  30.5578002 110.2547050
 126.8423064  30.4384749 109.5510390 126.0865497  31.5058846 110.3135002
 123.0134360  30.5105430 110.1908575 122.6752872  30.3946494 109.3029109
 123.8824128  30.1096595 110.1709581 118.8721176  32.3640906 106.1805465
 118.3086041  32.2730843 105.4121753 118.7573571  31.5440811 106.6607958
 116.4185608  33.8592098 109.0189686 117.2106900  33.5182922 108.6035985
 116.6582258  33.9687073 109.9391839 124.4520735  36.0311874 101.4919930
 123.8008714  36.6165954 101.1053944 125.2465097  36.5618069 101.5514968
 118.3776362  33.1201011 101.8907065 119.1507238  32.5729998 101.7519941
 118.7301761  33.9845260 102.1021526 120.2161404  34.4477393 115.0973964
 119.9251270  35.3523024 114.9820630 120.8518389  34.4893921 115.8118034
 121.1417611  31.8254242 111.6875324 121.7381183  31.6010264 110.9732287
 121.1992583  31.0838987 112.2900772 120.7142640  29.2793677  99.5225515
 120.9668160  28.7575198  98.7608978 119.7767199  29.1159823  99.6252198
 125.7585922  28.2829456 107.3300258 126.5449012  27.8648879 106.9790675
 126.0224627  29.1875548 107.4981906 125.9296000  33.7202306 102.0288915
 125.2941833  33.7936932 102.7409819 125.5993406  34.3095905 101.3507994
 120.4338928  31.1821783 101.7249890 120.3175186  30.5066687 102.3930974
 120.5441188  30.6954157 100.9082043 122.7770469  30.6431930 105.4296579
 122.4128676  30.1162551 106.1409500 123.6337585  30.2530399 105.2563064
 122.4175956  25.6721830 100.4257927 122.5850359  26.5402066 100.7928398
 122.2273125  25.8349112  99.5019217 125.1751289  34.1338809 112.0923758
 124.8752012  35.0363848 111.9839565 124.8302349  33.8670992 112.9444911
 118.6263771  30.5852606 108.1260462 117.7014267  30.4528820 108.3338154
 118.8748184  31.3646825 108.6230405 122.3965177  28.1279487 101.4104594
 122.2764802  28.5736538 102.2490074 121.7017765  28.4764805 100.8518132
 115.9872582  30.2285879 108.9604251 116.1164963  30.4820358 109.8743663
 115.3070033  30.8213587 108.6408906 120.1572069  40.8983129 105.0594725
 120.0796099  41.8490954 105.1383206 119.5533713  40.5529002 105.7169652
 128.0950243  28.6000961 102.2384928 129.0068099  28.8328347 102.0632626
 127.5859890  29.1838005 101.6760007 126.7019826  33.5826779 109.6298510
 126.0728688  33.7472493 108.9274578 126.3145488  33.9968389 110.4009474
 130.5809057  34.5181217 106.9842873 129.8960096  34.8980118 106.4339907
 130.6652907  35.1276544 107.7174821 122.2547787  33.3201187 106.8948595
 122.7186133  33.5988890 106.1053217 121.9904586  32.4184632 106.7121685
 119.1471868  32.8672669 109.8328358 119.7173226  33.2959937 109.1945843
 119.7379980  32.5855253 110.5312544 121.1916673  29.4424340 103.7038160
 121.8940717  29.8945383 104.1712086 120.8597302  28.8008158 104.3318053
 114.9342007  27.7007892 109.0055293 114.1441061  27.9565421 108.5295404
 115.4253255  28.5156230 109.1107334 116.8856753  28.0652471 105.9638770
 116.0887916  28.1771166 106.4822266 116.6582345  28.4039124 105.0979661
 122.7162420  34.5897175 113.9121285 122.7806853  35.0517582 114.7479457
 122.0073344  33.9594540 114.0403595 113.2179710  27.9538383 111.4370284
 113.4687749  28.8385393 111.7027860 113.7539259  27.7742984 110.6645376
 122.4310438  36.2565282 103.7800265 122.2956113  37.1016818 104.2085113
 122.9720251  36.4584560 103.0166199 115.8839835  33.7740720 104.3528190
 116.3964356  34.5683970 104.5033755 116.5362548  33.0767011 104.2861792
 117.6934720  36.8906476 106.4350943 117.8701349  37.8124441 106.2471927
 118.4891554  36.5764896 106.8645323 116.9787077  28.9371108 116.3113107
 116.8640592  28.0356366 116.6120206 116.1231594  29.1834805 115.9597923
 118.8166036  38.4084650 112.4361286 119.3673461  38.2801714 111.6638280
 117.9777512  38.7079539 112.0856179 122.6133207  34.6735778 116.7805517
 123.1461543  33.9124066 116.5504825 122.0847288  34.3809430 117.5229671
 113.8488752  32.1029374 105.1287761 114.6863974  32.5126383 104.9121468
 114.0267020  31.1628817 105.0987955 125.7453184  29.7704455 100.8171594
 125.2299808  30.5409060 101.0559981 125.4730493  29.0969591 101.4404655
 123.3300295  24.6154156 105.8756832 122.4741892  24.2261006 105.6962471
 123.7427247  24.6946117 105.0156618 121.1042328  22.2339229 109.2814574
 121.9695325  22.0382038 108.9220463 121.1719837  22.0049581 110.2083930
 130.7187459  32.5236810 102.7524767 129.9416901  32.1847969 102.3079929
 131.3978939  32.5289433 102.0779732 125.5339488  27.6431547 102.6431375
 125.2289623  27.9577696 103.4941518 126.4869930  27.7212967 102.6858708
 123.9785919  33.8021771 104.2924329 123.4507281  33.0674530 103.9797566
 123.4773422  34.5796447 104.0464297 128.9578765  31.9970791 109.4091375
 128.3002440  32.6870052 109.4971504 129.7619165  32.3867223 109.7525362
 118.7104647  24.4641437 106.6530940 119.2848399  24.2416618 105.9204133
 119.2975629  24.5330131 107.4059542 127.7684224  30.3515164 107.4595317
 128.2816106  30.9845156 107.9617027 128.4185448  29.7516359 107.0938677
 119.0374234  26.4945898 100.6726826 118.2011546  26.8320584 100.9936100
 118.8979004  26.3594878  99.7353963 121.0127315  21.3382686 105.3806010
 120.3591727  21.0231703 104.7562625 120.9707789  20.7158426 106.1065833
 122.1238520  31.6201981  97.2959302 121.2165581  31.3891234  97.4950451
 122.6209552  30.8239600  97.4833283 125.0306598  40.3299488 100.2155988
 124.3568297  40.6331185 100.8240946 125.4172420  41.1328568  99.8661445
 124.2465055  27.8264619 109.7053657 123.3287616  28.0479566 109.5475346
 124.6625199  27.9010930 108.8465365 125.0300103  29.2256035 104.8356338
 125.7771922  29.7377432 104.5263460 125.2991692  28.9040088 105.6960731
 123.3026753  31.7214576 101.8183292 122.3937972  31.4373608 101.9155762
 123.3321837  32.1413654 100.9586599 128.5346020  35.3321165 105.5874460
 128.0808348  34.4912075 105.6439650 127.9039987  35.9682564 105.9249240
 127.4778940  26.2613151 106.8175127 126.7401697  25.7490537 107.1485370
 127.7305714  25.8213533 106.0058404 126.9778960  37.1697662 106.5224278
 127.2701934  37.7302719 105.8036643 127.4877580  37.4626223 107.2777437
 113.8714923  29.4420090 105.7998494 113.6739323  28.8489451 105.0749561
 113.3161587  29.1372300 106.5174433 121.8511647  29.3343196 107.9193087
 121.9060257  28.3817033 107.8435564 121.0402849  29.4902635 108.4034386
 123.0002841  33.2623319  99.1571371 122.5622271  32.5459178  98.6977008
 123.7413282  33.4899434  98.5956462 119.7904007  27.9520256 105.6783466
 118.9771873  28.2514427 106.0848658 120.2863001  27.5575945 106.3957948
 121.9412585  37.9478013 107.6117731 121.8988764  38.1738859 106.6826263
 122.8575284  37.7141388 107.7603532 131.1175956  31.5380516 105.2147689
 130.9793854  31.7282112 104.2868878 130.7612174  32.2999899 105.6715740
 119.2818082  25.5238612 111.2944701 119.9217461  25.3827371 110.5967664
 118.4495612  25.2373125 110.9183303 120.0578386  34.8241042 107.4079694
 120.8518984  34.3291362 107.2062269 119.3470078  34.2958905 107.0447399
 124.8773230  37.2059137 111.7592061 124.9310252  37.7750074 112.5269777
 124.0088011  37.3761023 111.3946098 116.3661149  28.9684124 103.4839446
 115.4358737  28.9068579 103.7009408 116.4618621  28.4460076 102.6876088
 116.2846698  25.4938937 106.0717688 116.5453515  26.4084270 105.9626848
 117.1063870  25.0263379 106.2214301 117.7571623  26.9076694 113.2416513
 118.4294677  26.6994056 112.5929161 116.9301410  26.7098780 112.8021745
 123.8361330  31.3719400 113.3178993 124.7653390  31.5230559 113.1447960
 123.4152360  31.4603420 112.4627640 122.6349662  35.3970064 111.0877531
 122.4960747  35.0288848 111.9603469 121.8464258  35.9117703 110.9161489
 123.2297814  40.4979160 102.4303067 123.4049569  40.0267204 103.2448690
 122.5430602  41.1244927 102.6584328 124.1854877  34.7751667 108.4766369
 123.8504709  34.7352437 109.3724018 123.6858822  34.1096383 108.0036779
 118.1599121  30.1819297 114.0018950 118.0218919  29.4499536 114.6030489
 119.0704044  30.0928197 113.7203137 127.1214068  32.1207701  98.7503428
 126.5043239  31.3954529  98.6536481 126.6530557  32.8817061  98.4070502
 120.7881421  29.8939256 113.4902629 121.4981040  29.2532448 113.4489248
 120.7450730  30.1452151 114.4128810 117.7958899  43.6468523 109.2042927
 118.0355497  44.2787047 109.8821946 116.9528095  43.2956563 109.4908287
 118.9112614  26.3393125  97.8724732 118.0342081  26.2181926  97.5086979
 119.3870367  25.5479204  97.6203621 110.4314754  31.1270285 107.9666240
 111.1185794  30.8132015 107.3787255 110.2762883  32.0311650 107.6933491
 115.2349477  26.0160482 112.3951263 115.1507665  25.4086151 111.6601673
 114.4132183  26.5069500 112.3960760 122.3086761  39.4547646 111.6084431
 122.2356932  40.2602617 112.1203736 121.8664154  39.6539611 110.7832453
 122.0976540  38.6919416 105.1187253 121.3144062  39.2341096 105.2125477
 122.7969286  39.2093395 105.5181494 125.4073190  24.5014045 107.7621458
 125.9041890  23.7484007 107.4422529 124.6360172  24.5378362 107.1964668
 124.7685444  39.3534480 113.7642590 125.4813416  39.9881944 113.6918492
 124.2775473  39.4498346 112.9482592 126.4902971  33.2585732 105.3359882
 125.5559250  33.3787195 105.1664586 126.6679640  32.3558199 105.0719892
 121.9908159  26.6431428 107.4893143 121.6205947  26.0902468 108.1774049
 122.4867252  26.0389562 106.9368143 129.8775523  29.1003052 105.8709916
 130.3435975  29.9331043 105.7970219 130.3283023  28.6348033 106.5755174
 119.8197358  37.1028923 114.5848161 120.5206817  37.7365406 114.7377555
 119.3492473  37.4443655 113.8243800 127.9451754  35.4446873 102.8696068
 128.2211598  35.3303467 103.7789942 127.0756252  35.0464358 102.8308241
 124.5805818  39.6933224 106.5128882 124.7628212  38.8754880 106.9756634
 125.4038804  39.9100916 106.0753772 124.9147983  38.6201409 103.7743930
 125.4435750  38.1093863 103.1614092 125.1776203  38.3043939 104.6389463
 115.4165076  36.6365278 111.5179264 116.0018513  35.8908966 111.6507168
 115.2189914  36.9469235 112.4015927 118.2703731  39.6716526 106.5341706
 117.6014106  40.1562653 106.0505746 118.1316601  39.9185746 107.4485084
 110.0082731  29.2070878 110.2383707 110.0466830  28.6734469 111.0320825
 109.5023023  28.6806084 109.6194684 122.4109000  41.7060269 113.1324364
 122.9627308  41.8691891 113.8973450 122.7515193  42.2964707 112.4604389
 117.3873493  24.0535419 113.7346249 117.4514819  24.9150250 113.3223647
 117.3240613  23.4409421 113.0018608 113.6391308  27.9334981 103.3137638
 113.9344749  27.0245659 103.2604692 112.7379344  27.9122720 102.9918640
 125.5477387  39.6542245 110.1188046 125.4228526  38.8531984 109.6098992
 126.2056478  40.1488438 109.6302016 117.1685555  26.0090977 109.2965187
 116.4472141  26.6226945 109.1572660 117.9578811  26.5448742 109.2181833
 127.6112295  37.4551265 111.7467597 126.6642631  37.3356616 111.6745923
 127.9595068  36.5673763 111.8293858 115.3679150  25.6149078 103.4376963
 115.0391856  24.7346457 103.2552069 115.7218520  25.5596747 104.3253352
 124.6158729  37.2503981 107.9471949 124.4683691  36.3220688 108.1279519
 125.4412222  37.2724072 107.4629024 118.4820973  25.9022048 103.8052441
 118.8217045  26.4307969 103.0831049 118.9293093  26.2402454 104.5811007
 128.2192850  38.0732540 109.0336822 129.1439398  37.8675401 108.8961273
 128.0508154  37.8248941 109.9426163 120.4689120  24.3996670 102.0045734
 121.1897483  24.7777922 101.5009451 119.8454424  25.1185546 102.1080712
 124.6120243  25.1041819 102.9404066 124.8283857  25.9866456 102.6392894
 124.1314310  24.7128032 102.2109708 119.3519464  28.0627532 109.5174811
 119.2064045  28.3767835 110.4099092 118.8744668  28.6812432 108.9645709
 121.2115847  25.0530080 109.5655700 121.1977416  24.1571173 109.2287998
 121.9288275  25.0600744 110.1993986 128.0088167  38.5918207 104.3898913
 128.1825044  38.0264630 103.6372765 128.5017058  39.3919102 104.2078403
 113.8265126  30.6032876 112.4562472 113.2818595  31.3792684 112.5882746
 114.7044476  30.9503681 112.2981593 120.6152743  23.9344460 104.8343270
 120.7368654  23.0061106 105.0334158 120.3254786  23.9483146 103.9221586
 123.4843934  21.6199370 107.9709990 123.5065630  21.6838704 107.0161970
 123.9011993  20.7803879 108.1650496 133.8627558  31.3554630 106.0089213
 134.3058704  30.6061955 105.6108336 132.9854068  31.3464766 105.6262945
 128.9963339  37.9084971 101.4895811 129.6914244  38.5291664 101.7083126
 129.3386489  37.0580323 101.7648189 114.6131148  29.7302772 115.3492629
 113.8712884  29.8785408 115.9357259 114.2923893  29.9911038 114.4859378
 130.8954762  35.3584677 103.0183142 131.4206086  35.6971950 102.2932462
 130.8077115  34.4231692 102.8346277 122.5574811  39.2718751 115.1473019
 122.8661937  39.0267897 116.0195718 123.3550293  39.4765389 114.6591889
 122.5795423  41.4256660 107.3778395 122.1400413  40.9333039 108.0711252
 123.3303540  40.8829628 107.1370470 115.0587762  37.6168201 107.3803023
 115.8845782  37.3171973 107.0001667 114.7081814  36.8475824 107.8292812
 120.0269295  36.9694669 109.4500697 119.4049304  36.3065374 109.1502925
 120.6974162  36.9955801 108.7674345 113.2596367  35.5354528 108.3391957
 112.4228275  35.1076702 108.1575958 113.2320012  35.7286971 109.2762748
 119.5882802  35.5198593 102.9259157 119.7370922  36.2034057 102.2725830
 120.3949246  35.5003683 103.4408613 117.3435435  31.5463770 103.9320226
 117.0981477  30.6426100 104.1300436 117.5131350  31.5480921 102.9899704
 116.6131083  27.2792128 101.4306388 115.9200328  27.3536483 100.7746424
 116.3682835  26.5152472 101.9527905 123.0878208  38.0146723 100.3970905
 122.5152175  38.6336910  99.9441377 123.6611001  38.5646085 100.9310827
 126.3075467  38.2983873 101.5279487 127.2406141  38.2329435 101.7312363
 126.2198680  39.1340140 101.0694020 128.9363484  37.6149744  98.4883435
 128.8577116  37.2809607  99.3819193 129.7573151  38.1071512  98.4874907
 123.4725006  29.3507536  97.7386957 124.4184111  29.2213744  97.8075375
 123.0939251  28.6122198  98.2156386 121.6567923  27.2757512  97.6741843
 120.7499379  26.9790625  97.7504556 121.9343904  26.9787330  96.8076129
 112.5745864  28.5963876 108.1240889 112.2548648  27.7429184 107.8315263
 112.0279292  28.8112454 108.8798856 116.3525771  31.3126317 111.8410396
 116.5711781  32.2443425 111.8598429 116.7651545  30.9534291 112.6265199
 123.2729989  21.8194402 103.8286084 122.4630717  21.4741487 104.2041330
 123.9614406  21.5101946 104.4173695 125.2020537  20.8972449 105.4510381
 125.7551576  21.3167902 106.1100404 125.4390624  19.9708197 105.4933337
 120.4266708  24.1344448  97.8153822 121.2885872  24.4599346  98.0749639
 120.6117052  23.3475943  97.3026888 112.4434124  32.2166787 110.0934011
 111.7497595  31.8020740 109.5803965 113.1907115  32.2587324 109.4967429
 128.5799344  23.0072974 104.9589045 127.9998013  23.6657778 104.5767097
 128.3135277  22.1850319 104.5476462 114.3570866  32.1485041 107.9700025
 114.3341554  32.2472728 107.0181909 114.6671503  32.9950192 108.2917192
 117.0158244  34.2061196 112.0846640 117.9701498  34.1745138 112.0176571
 116.8170768  33.7451820 112.8996866 117.6057626  32.7762312 114.6517438
 118.4250515  33.2706391 114.6752275 117.8794434  31.8594280 114.6235005
 127.3624222  25.1673064 104.0145393 126.4750077  25.4522715 103.7965588
 127.7778211  25.0066828 103.1672670 115.3708473  39.7480816 109.1016838
 115.2362941  38.9881216 108.5354836 114.9540535  40.4721715 108.6345627
 126.5067436  34.9317739  98.1093413 127.2103286  35.1367742  98.7251069
 125.7830085  35.4994501  98.3742497 127.3365246  30.6827600 104.2295683
 127.2800448  31.1396152 103.3903316 127.8893589  29.9218285 104.0518526
 118.5277599  40.6450133 109.3135280 118.4109983  41.5895565 109.2113971
 117.7070045  40.3423694 109.7021080 128.4154133  35.3700268 100.1591873
 129.2499737  34.9381467  99.9769348 128.2538476  35.1982282 101.0868768
 128.0700025  31.8732382 101.5248212 128.0148829  31.7076653 100.5836657
 127.4446081  32.5808414 101.6810402 112.8592540  27.1100446 115.3509635
 113.5051404  26.5999400 115.8396860 112.6509692  27.8469128 115.9253060
 121.3796151  21.3740491 101.1033531 121.3674821  22.3182330 101.2601802
 122.2719573  21.1910636 100.8092992 119.5532113  41.2978394 112.5291209
 120.4559360  41.3302005 112.8457704 119.3269483  40.3678845 112.5437545
 121.3085715  40.0509381 109.1901287 120.3581346  40.0511243 109.0765660
 121.6118201  39.3042116 108.6737322 133.8528115  45.8397347 110.1908575
 133.5146626  45.7238412 109.3029109 134.7217883  45.4388513 110.1709581
 129.7114930  47.6932824 106.1805465 129.1479795  47.6022761 105.4121753
 129.5967325  46.8732728 106.6607958 127.2579362  49.1884015 109.0189686
 128.0500654  48.8474840 108.6035985 127.4976012  49.2978991 109.9391839
 135.2914489  51.3603792 101.4919930 134.6402469  51.9457872 101.1053944
 136.0858852  51.8909986 101.5514968 129.2170116  48.4492929 101.8907065
 129.9900992  47.9021916 101.7519941 129.5695515  49.3137178 102.1021526
 131.0555159  49.7769311 115.0973964 130.7645025  50.6814942 114.9820630
 131.6912143  49.8185839 115.8118034 131.9811366  47.1546160 111.6875324
 132.5774938  46.9302182 110.9732287 132.0386337  46.4130905 112.2900772
 131.5536394  44.6085595  99.5225515 131.8061915  44.0867116  98.7608978
 130.6160953  44.4451740  99.6252198 136.5979677  43.6121373 107.3300258
 137.3842766  43.1940796 106.9790675 136.8618381  44.5167465 107.4981906
 136.7689754  49.0494224 102.0288915 136.1335587  49.1228850 102.7409819
 136.4387161  49.6387822 101.3507994 131.2732683  46.5113701 101.7249890
 131.1568941  45.8358604 102.3930974 131.3834943  46.0246075 100.9082043
 133.6164224  45.9723848 105.4296579 133.2522431  45.4454469 106.1409500
 134.4731340  45.5822317 105.2563064 133.2569711  41.0013748 100.4257927
 133.4244113  41.8693984 100.7928398 133.0666880  41.1641029  99.5019217
 136.0145044  49.4630727 112.0923758 135.7145767  50.3655765 111.9839565
 135.6696103  49.1962910 112.9444911 129.4657525  45.9144523 108.1260462
 128.5408022  45.7820737 108.3338154 129.7141939  46.6938743 108.6230405
 133.2358932  43.4571405 101.4104594 133.1158557  43.9028456 102.2490074
 132.5411520  43.8056723 100.8518132 126.8266336  45.5577797 108.9604251
 126.9558718  45.8112276 109.8743663 126.1463788  46.1505505 108.6408906
 130.9965824  56.2275047 105.0594725 130.9189853  57.1782872 105.1383206
 130.3927467  55.8820919 105.7169652 137.5413580  48.9118697 109.6298510
 136.9122442  49.0764411 108.9274578 137.1539242  49.3260306 110.4009474
 133.0941542  48.6493105 106.8948595 133.5579887  48.9280808 106.1053217
 132.8298340  47.7476549 106.7121685 129.9865623  48.1964586 109.8328358
 130.5566980  48.6251855 109.1945843 130.5773735  47.9147171 110.5312544
 132.0310428  44.7716257 103.7038160 132.7334471  45.2237301 104.1712086
 131.6991056  44.1300076 104.3318053 125.7735762  43.0299810 109.0055293
 124.9834816  43.2857338 108.5295404 126.2647009  43.8448148 109.1107334
 127.7250507  43.3944389 105.9638770 126.9281671  43.5063083 106.4822266
 127.4976099  43.7331041 105.0979661 133.5556175  49.9189092 113.9121285
 133.6200607  50.3809500 114.7479457 132.8467099  49.2886457 114.0403595
 124.0573465  43.2830300 111.4370284 124.3081503  44.1677310 111.7027860
 124.5933013  43.1034902 110.6645376 133.2704193  51.5857200 103.7800265
 133.1349867  52.4308736 104.2085113 133.8114005  51.7876477 103.0166199
 126.7233590  49.1032638 104.3528190 127.2358111  49.8975888 104.5033755
 127.3756303  48.4058928 104.2861792 128.5328475  52.2198394 106.4350943
 128.7095103  53.1416359 106.2471927 129.3285308  51.9056813 106.8645323
 127.8180831  44.2663026 116.3113107 127.7034346  43.3648283 116.6120206
 126.9625349  44.5126723 115.9597923 129.6559790  53.7376568 112.4361286
 130.2067215  53.6093631 111.6638280 128.8171266  54.0371457 112.0856179
 133.4526961  50.0027696 116.7805517 133.9855298  49.2415984 116.5504825
 132.9241042  49.7101348 117.5229671 124.6882507  47.4321292 105.1287761
 125.5257729  47.8418301 104.9121468 124.8660774  46.4920734 105.0987955
 136.5846939  45.0996373 100.8171594 136.0693562  45.8700977 101.0559981
 136.3124247  44.4261509 101.4404655 134.1694050  39.9446074 105.8756832
 133.3135646  39.5552924 105.6962471 134.5821002  40.0238034 105.0156618
 131.9436082  37.5631147 109.2814574 132.8089079  37.3673955 108.9220463
 132.0113591  37.3341498 110.2083930 136.3733242  42.9723465 102.6431375
 136.0683378  43.2869614 103.4941518 137.3263684  43.0504885 102.6858708
 134.8179674  49.1313688 104.2924329 134.2901035  48.3966448 103.9797566
 134.3167177  49.9088365 104.0464297 129.5498401  39.7933355 106.6530940
 130.1242153  39.5708536 105.9204133 130.1369384  39.8622049 107.4059542
 129.8767989  41.8237816 100.6726826 129.0405301  42.1612502 100.9936100
 129.7372758  41.6886795  99.7353963 131.8521069  36.6674603 105.3806010
 131.1985482  36.3523621 104.7562625 131.8101543  36.0450344 106.1065833
 132.9632274  46.9493898  97.2959302 132.0559336  46.7183152  97.4950451
 133.4603306  46.1531518  97.4833283 135.8700353  55.6591406 100.2155988
 135.1962052  55.9623102 100.8240946 136.2566175  56.4620486  99.8661445
 135.0858810  43.1556537 109.7053657 134.1681371  43.3771484 109.5475346
 135.5018953  43.2302847 108.8465365 135.8693857  44.5547953 104.8356338
 136.6165676  45.0669350 104.5263460 136.1385447  44.2332005 105.6960731
 134.1420507  47.0506493 101.8183292 133.2331727  46.7665526 101.9155762
 134.1715591  47.4705572 100.9586599 124.7108678  44.7712007 105.7998494
 124.5133078  44.1781368 105.0749561 124.1555342  44.4664218 106.5174433
 132.6905402  44.6635114 107.9193087 132.7454011  43.7108950 107.8435564
 131.8796604  44.8194553 108.4034386 133.8396595  48.5915237  99.1571371
 133.4016025  47.8751096  98.6977008 134.5807036  48.8191352  98.5956462
 130.6297761  43.2812174 105.6783466 129.8165627  43.5806344 106.0848658
 131.1256756  42.8867862 106.3957948 132.7806339  53.2769931 107.6117731
 132.7382518  53.5030777 106.6826263 133.6969038  53.0433305 107.7603532
 130.1211836  40.8530529 111.2944701 130.7611216  40.7119288 110.5967664
 129.2889367  40.5665043 110.9183303 130.8972140  50.1532960 107.4079694
 131.6912739  49.6583280 107.2062269 130.1863833  49.6250823 107.0447399
 135.7166985  52.5351055 111.7592061 135.7704007  53.1041991 112.5269777
 134.8481766  52.7052940 111.3946098 127.2054904  44.2976041 103.4839446
 126.2752492  44.2360497 103.7009408 127.3012376  43.7751994 102.6876088
 127.1240453  40.8230854 106.0717688 127.3847270  41.7376187 105.9626848
 127.9457625  40.3555297 106.2214301 128.5965378  42.2368611 113.2416513
 129.2688431  42.0285974 112.5929161 127.7695164  42.0390697 112.8021745
 134.6755084  46.7011317 113.3178993 135.6047144  46.8522477 113.1447960
 134.2546114  46.7895338 112.4627640 133.4743416  50.7261982 111.0877531
 133.3354502  50.3580766 111.9603469 132.6858012  51.2409621 110.9161489
 134.0691568  55.8271078 102.4303067 134.2443324  55.3559121 103.2448690
 133.3824356  56.4536844 102.6584328 135.0248631  50.1043584 108.4766369
 134.6898464  50.0644354 109.3724018 134.5252577  49.4388300 108.0036779
 128.9992875  45.5111214 114.0018950 128.8612673  44.7791453 114.6030489
 129.9097799  45.4220114 113.7203137 131.6275176  45.2231174 113.4902629
 132.3374794  44.5824366 113.4489248 131.5844484  45.4744069 114.4128810
 128.6352653  58.9760441 109.2042927 128.8749252  59.6078965 109.8821946
 127.7921850  58.6248481 109.4908287 129.7506369  41.6685043  97.8724732
 128.8735835  41.5473844  97.5086979 130.2264122  40.8771121  97.6203621
 121.2708509  46.4562203 107.9666240 121.9579549  46.1423933 107.3787255
 121.1156638  47.3603567 107.6933491 126.0743231  41.3452399 112.3951263
 125.9901420  40.7378069 111.6601673 125.2525938  41.8361418 112.3960760
 133.1480515  54.7839563 111.6084431 133.0750687  55.5894535 112.1203736
 132.7057908  54.9831529 110.7832453 132.9370295  54.0211333 105.1187253
 132.1537817  54.5633014 105.2125477 133.6363040  54.5385313 105.5181494
 136.2466945  39.8305963 107.7621458 136.7435645  39.0775925 107.4422529
 135.4753926  39.8670279 107.1964668 135.6079199  54.6826397 113.7642590
 136.3207171  55.3173862 113.6918492 135.1169227  54.7790263 112.9482592
 137.3296726  48.5877650 105.3359882 136.3953004  48.7079112 105.1664586
 137.5073394  47.6850117 105.0719892 132.8301914  41.9723346 107.4893143
 132.4599701  41.4194386 108.1774049 133.3261006  41.3681479 106.9368143
 130.6591112  52.4320841 114.5848161 131.3600572  53.0657324 114.7377555
 130.1886227  52.7735572 113.8243800 135.4199572  55.0225141 106.5128882
 135.6021967  54.2046797 106.9756634 136.2432558  55.2392834 106.0753772
 135.7541738  53.9493327 103.7743930 136.2829504  53.4385781 103.1614092
 136.0169957  53.6335857 104.6389463 126.2558830  51.9657196 111.5179264
 126.8412267  51.2200884 111.6507168 126.0583669  52.2761153 112.4015927
 129.1097486  55.0008443 106.5341706 128.4407861  55.4854571 106.0505746
 128.9710355  55.2477664 107.4485084 120.8476485  44.5362796 110.2383707
 120.8860585  44.0026387 111.0320825 120.3416778  44.0098002 109.6194684
 133.2502754  57.0352187 113.1324364 133.8021062  57.1983808 113.8973450
 133.5908948  57.6256625 112.4604389 128.2267247  39.3827337 113.7346249
 128.2908574  40.2442167 113.3223647 128.1634368  38.7701338 113.0018608
 124.4785063  43.2626898 103.3137638 124.7738504  42.3537577 103.2604692
 123.5773098  43.2414638 102.9918640 136.3871141  54.9834162 110.1188046
 136.2622281  54.1823902 109.6098992 137.0450233  55.4780356 109.6302016
 128.0079310  41.3382895 109.2965187 127.2865895  41.9518862 109.1572660
 128.7972565  41.8740660 109.2181833 126.2072904  40.9440996 103.4376963
 125.8785610  40.0638375 103.2552069 126.5612275  40.8888665 104.3253352
 135.4552483  52.5795899 107.9471949 135.3077446  51.6512606 108.1279519
 136.2805977  52.6015989 107.4629024 129.3214727  41.2313966 103.8052441
 129.6610800  41.7599887 103.0831049 129.7686848  41.5694372 104.5811007
 131.3082875  39.7288587 102.0045734 132.0291237  40.1069840 101.5009451
 130.6848179  40.4477464 102.1080712 135.4513997  40.4333736 102.9404066
 135.6677612  41.3158374 102.6392894 134.9708065  40.0419950 102.2109708
 130.1913219  43.3919449 109.5174811 130.0457800  43.7059753 110.4099092
 129.7138422  44.0104350 108.9645709 132.0509602  40.3821997 109.5655700
 132.0371170  39.4863091 109.2287998 132.7682030  40.3892661 110.1993986
 124.6658881  45.9324794 112.4562472 124.1212349  46.7084602 112.5882746
 125.5438231  46.2795598 112.2981593 131.4546498  39.2636378 104.8343270
 131.5762409  38.3353024 105.0334158 131.1648540  39.2775064 103.9221586
 134.3237688  36.9491288 107.9709990 134.3459385  37.0130621 107.0161970
 134.7405747  36.1095797 108.1650496 125.4524903  45.0594690 115.3492629
 124.7106639  45.2077325 115.9357259 125.1317647  45.3202956 114.4859378
 133.3968565  54.6010668 115.1473019 133.7055692  54.3559815 116.0195718
 134.1944048  54.8057307 114.6591889 133.4189178  56.7548578 107.3778395
 132.9794168  56.2624957 108.0711252 134.1697294  56.2121546 107.1370470
 125.8981517  52.9460119 107.3803023 126.7239536  52.6463891 107.0001667
 125.5475569  52.1767741 107.8292812 130.8663050  52.2986587 109.4500697
 130.2443059  51.6357292 109.1502925 131.5367917  52.3247719 108.7674345
 124.0990122  50.8646445 108.3391957 123.2622030  50.4368620 108.1575958
 124.0713767  51.0578889 109.2762748 130.4276557  50.8490510 102.9259157
 130.5764677  51.5325975 102.2725830 131.2343000  50.8295600 103.4408613
 128.1829190  46.8755688 103.9320226 127.9375232  45.9718018 104.1300436
 128.3525104  46.8772838 102.9899704 127.4524837  42.6084046 101.4306388
 126.7594082  42.6828401 100.7746424 127.2076589  41.8444389 101.9527905
 133.9271962  53.3438641 100.3970905 133.3545929  53.9628828  99.9441377
 134.5004756  53.8938003 100.9310827 134.3118761  44.6799454  97.7386957
 135.2577865  44.5505662  97.8075375 133.9333006  43.9414116  98.2156386
 132.4961678  42.6049430  97.6741843 131.5893133  42.3082543  97.7504556
 132.7737659  42.3079248  96.8076129 123.4139618  43.9255793 108.1240889
 123.0942402  43.0721102 107.8315263 122.8673046  44.1404372 108.8798856
 127.1919526  46.6418234 111.8410396 127.4105535  47.5735342 111.8598429
 127.6045300  46.2826209 112.6265199 134.1123743  37.1486320 103.8286084
 133.3024472  36.8033405 104.2041330 134.8008160  36.8393863 104.4173695
 136.0414292  36.2264367 105.4510381 136.5945330  36.6459820 106.1100404
 136.2784378  35.3000115 105.4933337 131.2660462  39.4636365  97.8153822
 132.1279626  39.7891264  98.0749639 131.4510807  38.6767861  97.3026888
 123.2827878  47.5458705 110.0934011 122.5891350  47.1312658 109.5803965
 124.0300869  47.5879241 109.4967429 125.1964621  47.4776959 107.9700025
 125.1735309  47.5764646 107.0181909 125.5065257  48.3242109 108.2917192
 127.8551999  49.5353114 112.0846640 128.8095252  49.5037056 112.0176571
 127.6564522  49.0743737 112.8996866 128.4451381  48.1054230 114.6517438
 129.2644270  48.5998308 114.6752275 128.7188188  47.1886198 114.6235005
 126.2102227  55.0772733 109.1016838 126.0756695  54.3173134 108.5354836
 125.7934290  55.8013633 108.6345627 129.3671353  55.9742050 109.3135280
 129.2503737  56.9187483 109.2113971 128.5463799  55.6715612 109.7021080
 123.6986295  42.4392364 115.3509635 124.3445159  41.9291318 115.8396860
 123.4903446  43.1761045 115.9253060 132.2189905  36.7032408 101.1033531
 132.2068575  37.6474248 101.2601802 133.1113327  36.5202554 100.8092992
 130.3925867  56.6270312 112.5291209 131.2953114  56.6593922 112.8457704
 130.1663237  55.6970763 112.5437545 132.1479469  55.3801299 109.1901287
 131.1975100  55.3803160 109.0765660 132.4511956  54.6334033 108.6737322
 136.6129516  58.3591728 109.0055293 135.8228570  58.6149256 108.5295404
 137.1040764  59.1740065 109.1107334 134.8967219  58.6122218 111.4370284
 135.1475258  59.4969228 111.7027860 135.4326768  58.4326820 110.6645376
 135.5276261  62.7613210 105.1287761 136.3651483  63.1710218 104.9121468
 135.7054529  61.8212652 105.0987955 135.5502432  60.1003925 105.7998494
 135.3526832  59.5073286 105.0749561 134.9949096  59.7956135 106.5174433
 132.1102263  61.7854120 107.9666240 132.7973303  61.4715850 107.3787255
 131.9550392  62.6895485 107.6933491 136.9136986  56.6744317 112.3951263
 136.8295174  56.0669986 111.6601673 136.0919692  57.1653335 112.3960760
 131.6870240  59.8654714 110.2383707 131.7254339  59.3318304 111.0320825
 131.1810532  59.3389919 109.6194684 135.3178817  58.5918816 103.3137638
 135.6132258  57.6829494 103.2604692 134.4166853  58.5706555 102.9918640
 137.0466659  56.2732914 103.4376963 136.7179365  55.3930292 103.2552069
 137.4006029  56.2180582 104.3253352 135.5052635  61.2616712 112.4562472
 134.9606104  62.0376519 112.5882746 136.3831985  61.6087516 112.2981593
 136.2918657  60.3886608 115.3492629 135.5500393  60.5369243 115.9357259
 135.9711402  60.6494873 114.4859378 136.7375271  68.2752037 107.3803023
 137.5633291  67.9755808 107.0001667 136.3869323  67.5059659 107.8292812
 134.9383876  66.1938363 108.3391957 134.1015784  65.7660537 108.1575958
 134.9107521  66.3870806 109.2762748 134.2533373  59.2547711 108.1240889
 133.9336157  58.4013019 107.8315263 133.7066801  59.4696289 108.8798856
 134.1221633  62.8750623 110.0934011 133.4285104  62.4604575 109.5803965
 134.8694624  62.9171159 109.4967429 136.0358375  62.8068876 107.9700025
 136.0129063  62.9056564 107.0181909 136.3459012  63.6534027 108.2917192
 137.0495982  70.4064651 109.1016838 136.9150450  69.6465052 108.5354836
 136.6328044  71.1305551 108.6345627 134.5380049  57.7684281 115.3509635
 135.1838913  57.2583235 115.8396860 134.3297201  58.5052963 115.9253060
 120.1572070  17.9045252  91.7840032 120.0796100  18.8553077  91.8628513
 119.5533714  17.5591124  92.4414958 118.8166037  15.4146773  99.1606592
 119.3673462  15.2863836  98.3883586 117.9777513  15.7141662  98.8101485
 125.0306600  17.3361611  86.9401295 124.3568298  17.6393307  87.5486253
 125.4172422  18.1390691  86.5906752 123.2297815  17.5041283  89.1548374
 123.4049571  17.0329326  89.9693997 122.5430603  18.1307049  89.3829635
 117.7958900  20.6530646  95.9288234 118.0355498  21.2849170  96.6067253
 116.9528097  20.3018686  96.2153593 122.3086762  16.4609768  98.3329738
 122.2356933  17.2664740  98.8449043 121.8664155  16.6601734  97.5077759
 122.0976542  15.6981538  91.8432560 121.3144064  16.2403218  91.9370784
 122.7969287  16.2155518  92.2426801 124.7685446  16.3596602 100.4887897
 125.4813418  16.9944067 100.4163798 124.2775474  16.4560468  99.6727899
 115.4165077  13.6427401  98.2424570 116.0018514  12.8971089  98.3752474
 115.2189916  13.9531357  99.1261234 118.2703732  16.6778648  93.2587013
 117.6014108  17.1624776  92.7751053 118.1316602  16.9247869  94.1730391
 122.4109001  18.7122392  99.8569671 122.9627309  18.8754013 100.6218756
 122.7515194  19.3026829  99.1849696 122.5574812  16.2780873 101.8718325
 122.8661939  16.0330020 102.7441025 123.3550294  16.4827512 101.3837196
 122.5795424  18.4318783  94.1023702 122.1400415  17.9395162  94.7956559
 123.3303541  17.8891751  93.8615777 115.0587763  14.6230324  94.1048330
 115.8845783  14.3234096  93.7246973 114.7081815  13.8537946  94.5538119
 113.2596368  12.5416650  95.0637264 112.4228277  12.1138825  94.8821265
 113.2320014  12.7349094  96.0008055 115.3708474  16.7542938  95.8262144
 115.2362942  15.9943339  95.2600142 114.9540536  17.4783838  95.3590933
 118.5277600  17.6512255  96.0380587 118.4109984  18.5957688  95.9359277
 117.7070046  17.3485817  96.4266386 119.5532114  18.3040517  99.2536515
 120.4559361  18.3364127  99.5703010 119.3269484  17.3740968  99.2682851
 121.3085716  17.0571504  95.9146594 120.3581347  17.0573365  95.8010966
 121.6118202  16.3104238  95.3982629 133.8528116  22.8459470  96.9153881
 133.5146627  22.7300535  96.0274416 134.7217884  22.4450635  96.8954887
 129.7114932  24.6994946  92.9050772 129.1479797  24.6084883  92.1367060
 129.5967327  23.8794851  93.3853265 127.2579364  26.1946138  95.7434993
 128.0500655  25.8536963  95.3281292 127.4976014  26.3041113  96.6637146
 135.2914490  28.3665914  88.2165237 134.6402470  28.9519995  87.8299251
 136.0858853  28.8972109  88.2760274 129.2170117  25.4555051  88.6152371
 129.9900993  24.9084038  88.4765247 129.5695516  26.3199301  88.8266833
 131.0555160  26.7831434 101.8219271 130.7645026  27.6877064 101.7065937
 131.6912144  26.8247961 102.5363340 131.9811367  24.1608282  98.4120630
 132.5774939  23.9364305  97.6977593 132.0386338  23.4193028  99.0146078
 131.5536395  21.6147717  86.2470821 131.8061916  21.0929239  85.4854284
 130.6160954  21.4513863  86.3497505 136.7689755  26.0556346  88.7534221
 136.1335588  26.1290973  89.4655126 136.4387162  26.6449945  88.0753301
 131.2732684  23.5175823  88.4495196 131.1568942  22.8420727  89.1176281
 131.3834944  23.0308197  87.6327349 133.6164225  22.9785971  92.1541885
 133.2522432  22.4516591  92.8654807 134.4731341  22.5884440  91.9808371
 136.0145045  26.4692849  98.8169064 135.7145768  27.3717888  98.7084872
 135.6696105  26.2025032  99.6690217 129.4657527  22.9206646  94.8505769
 128.5408023  22.7882860  95.0583461 129.7141940  23.7000865  95.3475711
 133.2358933  20.4633528  88.1349901 133.1158558  20.9090578  88.9735381
 132.5411521  20.8118845  87.5763439 126.8266338  22.5639919  95.6849558
 126.9558719  22.8174398  96.5988970 126.1463789  23.1567627  95.3654213
 130.9965825  33.2337169  91.7840032 130.9189855  34.1844995  91.8628513
 130.3927469  32.8883042  92.4414958 137.5413581  25.9180819  96.3543816
 136.9122444  26.0826533  95.6519884 137.1539243  26.3322429  97.1254780
 133.0941543  25.6555227  93.6193901 133.5579889  25.9342930  92.8298524
 132.8298341  24.7538672  93.4366992 129.9865624  25.2026709  96.5573665
 130.5566981  25.6313977  95.9191149 130.5773736  24.9209294  97.2557850
 132.0310429  21.7778380  90.4283467 132.7334473  22.2299423  90.8957393
 131.6991058  21.1362199  91.0563360 125.7735763  20.0361932  95.7300600
 124.9834817  20.2919461  95.2540711 126.2647011  20.8510270  95.8352641
 127.7250509  20.4006512  92.6884077 126.9281672  20.5125206  93.2067572
 127.4976101  20.7393164  91.8224967 133.5556176  26.9251215 100.6366591
 133.6200609  27.3871622 101.4724763 132.8467100  26.2948580 100.7648901
 124.0573466  20.2892423  98.1615591 124.3081505  21.1739433  98.4273167
 124.5933015  20.1097024  97.3890683 133.2704194  28.5919322  90.5045572
 133.1349869  29.4370858  90.9330420 133.8114006  28.7938600  89.7411506
 126.7233591  26.1094760  91.0773497 127.2358112  26.9038011  91.2279062
 127.3756304  25.4121051  91.0107098 128.5328476  29.2260517  93.1596250
 128.7095104  30.1478481  92.9717234 129.3285309  28.9118936  93.5890630
 127.8180832  21.2725149 103.0358413 127.7034348  20.3710406 103.3365512
 126.9625350  21.5188845 102.6843230 129.6559791  30.7438691  99.1606592
 130.2067217  30.6155754  98.3883586 128.8171267  31.0433580  98.8101485
 133.4526962  27.0089818 103.5050823 133.9855299  26.2478107 103.2750131
 132.9241044  26.7163470 104.2474978 124.6882508  24.4383415  91.8533067
 125.5257730  24.8480423  91.6366775 124.8660776  23.4982857  91.8233261
 136.5846940  22.1058495  87.5416900 136.0693564  22.8763100  87.7805288
 136.3124249  21.4323632  88.1649962 134.8179675  26.1375811  91.0169636
 134.2901037  25.4028570  90.7042873 134.3167178  26.9150487  90.7709604
 129.8767990  18.8299938  87.3972132 129.0405302  19.1674625  87.7181407
 129.7372760  18.6948918  86.4599269 132.9632275  23.9556021  84.0204609
 132.0559337  23.7245275  84.2195758 133.4603307  23.1593640  84.2078590
 135.8700354  32.6653528  86.9401295 135.1962053  32.9685225  87.5486253
 136.2566176  33.4682609  86.5906752 135.0858811  20.1618660  96.4298964
 134.1681372  20.3833607  96.2720652 135.5018954  20.2364970  95.5710671
 135.8693859  21.5610075  91.5601644 136.6165678  22.0731472  91.2508766
 136.1385448  21.2394128  92.4206038 134.1420509  24.0568616  88.5428599
 133.2331728  23.7727649  88.6401068 134.1715593  24.4767695  87.6831905
 124.7108679  21.7774130  92.5243801 124.5133079  21.1843491  91.7994867
 124.1555343  21.4726340  93.2419740 132.6905403  21.6697237  94.6438394
 132.7454013  20.7171073  94.5680871 131.8796605  21.8256676  95.1279692
 133.8396597  25.5977360  85.8816677 133.4016026  24.8813219  85.4222315
 134.5807037  25.8253474  85.3201769 130.6297763  20.2874296  92.4028773
 129.8165628  20.5868467  92.8093965 131.1256757  19.8929985  93.1203255
 132.7806341  30.2832053  94.3363038 132.7382519  30.5092900  93.4071570
 133.6969039  30.0495428  94.4848839 130.8972141  27.1595082  94.1325000
 131.6912740  26.6645402  93.9307575 130.1863834  26.6312945  93.7692706
 135.7166986  29.5413178  98.4837368 135.7704008  30.1104114  99.2515084
 134.8481767  29.7115063  98.1191405 127.2054905  21.3038164  90.2084753
 126.2752493  21.2422619  90.4254715 127.3012377  20.7814117  89.4121394
 127.1240454  17.8292977  92.7962995 127.3847271  18.7438310  92.6872155
 127.9457626  17.3617419  92.9459607 128.5965379  19.2430734  99.9661819
 129.2688433  19.0348096  99.3174468 127.7695166  19.0452820  99.5267051
 134.6755086  23.7073440 100.0424300 135.6047146  23.8584599  99.8693267
 134.2546116  23.7957461  99.1872946 133.4743417  27.7324104  97.8122837
 133.3354503  27.3642889  98.6848775 132.6858014  28.2471744  97.6406795
 134.0691569  32.8333201  89.1548374 134.2443325  32.3621244  89.9693997
 133.3824357  33.4598967  89.3829635 135.0248633  27.1105707  95.2011675
 134.6898465  27.0706477  96.0969325 134.5252578  26.4450423  94.7282085
 128.9992876  22.5173337 100.7264256 128.8612674  21.7853576 101.3275795
 129.9097800  22.4282237 100.4448444 131.6275177  22.2293296 100.2147936
 132.3374796  21.5886488 100.1734554 131.5844485  22.4806191 101.1374117
 128.6352655  35.9822563  95.9288234 128.8749253  36.6141088  96.6067253
 127.7921851  35.6310603  96.2153593 129.7506370  18.6747166  84.5970039
 128.8735836  18.5535966  84.2332286 130.2264123  17.8833244  84.3448928
 121.2708510  23.4624325  94.6911546 121.9579550  23.1486055  94.1032562
 121.1156639  24.3665690  94.4178798 126.0743232  18.3514522  99.1196570
 125.9901421  17.7440191  98.3846980 125.2525939  18.8423540  99.1206066
 133.1480517  31.7901686  98.3329738 133.0750688  32.5956657  98.8449043
 132.7057910  31.9893652  97.5077759 132.9370296  31.0273456  91.8432560
 132.1537818  31.5695136  91.9370784 133.6363041  31.5447436  92.2426801
 135.6079200  31.6888520 100.4887897 136.3207172  32.3235985 100.4163798
 135.1169229  31.7852386  99.6727899 137.3296727  25.5939773  92.0605188
 136.3953006  25.7141235  91.8909893 137.5073395  24.6912239  91.7965198
 130.6591114  29.4382963 101.3093468 131.3600573  30.0719446 101.4622862
 130.1886229  29.7797695 100.5489107 135.4199573  32.0287264  93.2374188
 135.6021968  31.2108920  93.7001940 136.2432559  32.2454956  92.7999078
 135.7541739  30.9555449  90.4989237 136.2829505  30.4447904  89.8859399
 136.0169958  30.6397979  91.3634770 126.2558832  28.9719318  98.2424570
 126.8412268  28.2263006  98.3752474 126.0583670  29.2823275  99.1261234
 129.1097487  32.0070566  93.2587013 128.4407862  32.4916693  92.7751053
 128.9710357  32.2539786  94.1730391 120.8476486  21.5424919  96.9629013
 120.8860586  21.0088509  97.7566131 120.3416779  21.0160124  96.3439991
 133.2502755  34.0414309  99.8569671 133.8021063  34.2045931 100.6218756
 133.5908949  34.6318747  99.1849696 124.4785064  20.2689021  90.0382945
 124.7738505  19.3599699  89.9849998 123.5773100  20.2476760  89.7163947
 136.3871143  31.9896285  96.8433353 136.2622282  31.1886025  96.3344299
 137.0450234  32.4842478  96.3547323 128.0079311  18.3445017  96.0210493
 127.2865897  18.9580985  95.8817967 128.7972567  18.8802782  95.9427139
 126.2072906  17.9503118  90.1622270 125.8785612  17.0700497  89.9797376
 126.5612276  17.8950787  91.0498659 135.4552484  29.5858021  94.6717255
 135.3077447  28.6574729  94.8524825 136.2805978  29.6078112  94.1874331
 129.3214729  18.2376088  90.5297748 129.6610801  18.7662010  89.8076356
 129.7686849  18.5756494  91.3056314 130.1913220  20.3981572  96.2420117
 130.0457801  20.7121875  97.1344399 129.7138424  21.0166472  95.6891016
 124.6658882  22.9386916  99.1807778 124.1212350  23.7146724  99.3128053
 125.5438232  23.2857721  99.0226900 125.4524904  22.0656813 102.0737935
 124.7106640  22.2139448 102.6602566 125.1317648  22.3265078 101.2104685
 133.3968567  31.6072791 101.8718325 133.7055693  31.3621938 102.7441025
 134.1944049  31.8119429 101.3837196 133.4189179  33.7610701  94.1023702
 132.9794169  33.2687079  94.7956559 134.1697296  33.2183668  93.8615777
 125.8981518  29.9522241  94.1048330 126.7239538  29.6526013  93.7246973
 125.5475570  29.1829864  94.5538119 130.8663051  29.3048710  96.1746004
 130.2443060  28.6419415  95.8748231 131.5367918  29.3309842  95.4919651
 124.0990123  27.8708568  95.0637264 123.2622031  27.4430742  94.8821265
 124.0713768  28.0641011  96.0008055 130.4276558  27.8552633  89.6504464
 130.5764678  28.5388097  88.9971137 131.2343001  27.8357723  90.1653920
 128.1829191  23.8817811  90.6565533 127.9375233  22.9780141  90.8545743
 128.3525105  23.8834961  89.7145011 127.4524838  19.6146168  88.1551694
 126.7594083  19.6890523  87.4991730 127.2076590  18.8506512  88.6773211
 133.9271963  30.3500763  87.1216212 133.3545930  30.9690951  86.6686683
 134.5004757  30.9000125  87.6556133 134.3118762  21.6861576  84.4632264
 135.2577867  21.5567784  84.5320682 133.9333007  20.9476238  84.9401692
 132.4961679  19.6111553  84.3987149 131.5893134  19.3144665  84.4749863
 132.7737660  19.3141371  83.5321435 123.4139619  20.9317916  94.8486196
 123.0942404  20.0783224  94.5560570 122.8673048  21.1466494  95.6044163
 127.1919527  23.6480357  98.5655702 127.4105537  24.5797465  98.5843736
 127.6045301  23.2888331  99.3510506 123.2827879  24.5520827  96.8179317
 122.5891351  24.1374780  96.3049272 124.0300870  24.5941364  96.2212736
 125.1964622  24.4839081  94.6945332 125.1735310  24.5826769  93.7427215
 125.5065258  25.3304232  95.0162498 127.8552000  26.5415236  98.8091947
 128.8095253  26.5099179  98.7421878 127.6564523  26.0805860  99.6242172
 128.4451382  25.1116352 101.3762744 129.2644271  25.6060431 101.3997581
 128.7188190  24.1948320 101.3480312 126.2102229  32.0834856  95.8262144
 126.0756697  31.3235257  95.2600142 125.7934291  32.8075756  95.3590933
 129.3671354  32.9804173  96.0380587 129.2503739  33.9249605  95.9359277
 128.5463801  32.6777734  96.4266386 123.6986296  19.4454486 102.0754941
 124.3445160  18.9353440 102.5642166 123.4903447  20.1823168 102.6498366
 130.3925869  33.6332435  99.2536515 131.2953115  33.6656045  99.5703010
 130.1663239  32.7032886  99.2682851 132.1479471  32.3863421  95.9146594
 131.1975102  32.3865283  95.8010966 132.4511957  31.6396156  95.3982629
 136.6129518  35.3653850  95.7300600 135.8228572  35.6211379  95.2540711
 137.1040765  36.1802188  95.8352641 134.8967221  35.6184341  98.1615591
 135.1475259  36.5031350  98.4273167 135.4326769  35.4388942  97.3890683
 135.5276262  39.7675332  91.8533067 136.3651484  40.1772341  91.6366775
 135.7054530  38.8274775  91.8233261 135.5502434  37.1066048  92.5243801
 135.3526833  36.5135408  91.7994867 134.9949098  36.8018258  93.2419740
 132.1102265  38.7916243  94.6911546 132.7973305  38.4777973  94.1032562
 131.9550393  39.6957608  94.4178798 136.9136987  33.6806440  99.1196570
 136.8295176  33.0732109  98.3846980 136.0919693  34.1715458  99.1206066
 131.6870241  36.8716836  96.9629013 131.7254340  36.3380427  97.7566131
 131.1810534  36.3452042  96.3439991 135.3178818  35.5980938  90.0382945
 135.6132260  34.6891617  89.9849998 134.4166854  35.5768678  89.7163947
 137.0466660  33.2795036  90.1622270 136.7179366  32.3992415  89.9797376
 137.4006031  33.2242705  91.0498659 135.5052637  38.2678834  99.1807778
 134.9606105  39.0438642  99.3128053 136.3831987  38.6149639  99.0226900
 136.2918659  37.3948730 102.0737935 135.5500395  37.5431366 102.6602566
 135.9711403  37.6556996 101.2104685 136.7375272  45.2814159  94.1048330
 137.5633292  44.9817931  93.7246973 136.3869324  44.5121782  94.5538119
 134.9383877  43.2000486  95.0637264 134.1015786  42.7722660  94.8821265
 134.9107523  43.3932929  96.0008055 134.2533374  36.2609834  94.8486196
 133.9336158  35.4075142  94.5560570 133.7066802  36.4758412  95.6044163
 134.1221634  39.8812745  96.8179317 133.4285105  39.4666698  96.3049272
 134.8694625  39.9233282  96.2212736 136.0358376  39.8130999  94.6945332
 136.0129065  39.9118686  93.7427215 136.3459013  40.6596150  95.0162498
 137.0495983  47.4126773  95.8262144 136.9150451  46.6527174  95.2600142
 136.6328045  48.1367673  95.3590933 134.5380051  34.7746404 102.0754941
 135.1838914  34.2645358 102.5642166 134.3297202  35.5115086 102.6498366
 136.7375274  22.2876282  80.8293637 137.5633293  21.9880054  80.4492280
 136.3869326  21.5183904  81.2783425 134.9383879  20.2062608  81.7882570
 134.1015787  19.7784783  81.6066571 134.9107524  20.3995052  82.7253361
 137.0495984  24.4188896  82.5507451 136.9150452  23.6589297  81.9845449
 136.6328047  25.1429796  82.0836240  57.0875988  77.6077737 150.3978072
  56.1803049  77.3766991 150.5969221  57.5847020  76.8115357 150.5852054
  58.4362474  75.3383293 150.8405728  59.3821579  75.2089501 150.9094146
  58.0576719  74.5997954 151.3175156  59.4158204  59.0249753 141.3184007
  58.7646184  59.6103833 140.9318021  60.2102567  59.5555948 141.3779045
  65.6824928  55.5174689 142.5788844  64.9054371  55.1785848 142.1344006
  66.3616409  55.5227312 141.9043809  57.0875989  54.6139860 137.1223379
  56.1803051  54.3829113 137.3214528  57.5847021  53.8177479 137.3097360
  59.9944068  63.3237367 140.0420065  59.3205767  63.6269064 140.6505023
  60.3809890  64.1266448 139.6925522  57.9640310  56.2561199 138.9835448
  57.5259740  55.5397057 138.5241085  58.7050751  56.4837313 138.4220539
  58.1935283  63.4917040 142.2567144  58.3687039  63.0205083 143.0712767
  57.5068071  64.1182806 142.4848405  62.0851538  55.1145580 138.5767505
  61.4680708  54.3892408 138.4800558  61.6168026  55.8754940 138.2334579
  62.9089223  58.4384752 142.6960145  63.1849067  58.3241347 143.6054019
  62.0393722  58.0402237 142.6572318  59.8785452  61.6139288 143.6008007
  60.4073219  61.1031743 142.9878169  60.1413672  61.2981818 144.4653540
  62.9725636  61.5856086 144.2162990  63.1462514  61.0202509 143.4636842
  63.4654527  62.3856981 144.0342480  63.9600808  60.9022851 141.3159888
  64.6551713  61.5229543 141.5347203  64.3023959  60.0518202 141.5912266
  65.8592232  58.3522556 142.8447219  66.3843556  58.6909829 142.1196539
  65.7714584  57.4169572 142.6610354  58.0515677  61.0084602 140.2234982
  57.4789644  61.6274789 139.7705454  58.6248471  61.5583964 140.7574904
  61.2712937  61.2921752 141.3543564  62.2043610  61.2267314 141.5576440
  61.1836150  62.1278019 140.8958097  63.9000953  60.6087623 138.3147512
  63.8214585  60.2747486 139.2083270  64.7210620  61.1009391 138.3138984
  58.4362475  52.3445415 137.5651034  59.3821580  52.2151623 137.6339452
  58.0576720  51.6060077 138.0420463  61.4704905  57.9255618 137.9357490
  62.1740755  58.1305621 138.5515146  60.7467554  58.4932380 138.2006574
  63.3791603  58.3638147 139.9855950  64.2137206  57.9319346 139.8033425
  63.2175945  58.1920161 140.9132845  63.0337495  54.8670261 141.3512289
  62.9786299  54.7014532 140.4100734  62.4083550  55.5746294 141.5074479
  72.0075878  68.8807799 150.0811127  72.6454288  68.7614546 149.3774467
  71.8896721  69.8288642 150.1399079  68.8165584  68.8335227 150.0172652
  68.4784095  68.7176291 149.1293186  69.6855352  68.4326392 149.9973658
  64.6752400  70.6870703 146.0069542  64.1117265  70.5960640 145.2385830
  64.5604795  69.8670608 146.4872035  62.2216832  72.1821895 148.8453763
  63.0138123  71.8412719 148.4300062  62.4613482  72.2916870 149.7655916
  70.2551958  74.3541671 141.3184007  69.6039938  74.9395751 140.9318021
  71.0496321  74.8847866 141.3779045  64.1807585  71.4430808 141.7171142
  64.9538461  70.8959795 141.5784018  64.5332984  72.3075057 141.9285603
  66.9448835  70.1484039 151.5139401  67.5412407  69.9240061 150.7996364
  67.0023806  69.4068784 152.1164849  66.5173863  67.6023474 139.3489592
  66.7699384  67.0804995 138.5873055  65.5798422  67.4389619 139.4516275
  71.5617146  66.6059252 147.1564335  72.3480235  66.1878676 146.8054752
  71.8255850  67.5105345 147.3245983  71.7327223  72.0432103 141.8552992
  71.0973056  72.1166729 142.5673896  71.4024630  72.6325702 141.1772071
  76.9625573  66.5434486 148.0597313  77.6950745  65.9733702 148.2935143
  76.2064929  66.1556086 148.5003819  66.2370152  69.5051580 141.5513967
  66.1206410  68.8296483 142.2195051  66.3472412  69.0183954 140.7346120
  68.5801693  68.9661727 145.2560656  68.2159900  68.4392348 145.9673577
  69.4368809  68.5760196 145.0827141  68.2207180  63.9951627 140.2522004
  68.3881582  64.8631863 140.6192475  68.0304349  64.1578908 139.3283294
  64.4294995  68.9082403 147.9524539  63.5045491  68.7758617 148.1602231
  64.6779408  69.6876622 148.4494482  74.3779657  64.9751146 149.5985272
  73.4696534  64.9066554 149.3044033  74.3267253  65.4523091 150.4267098
  68.1996401  66.4509284 141.2368671  68.0796026  66.8966335 142.0754151
  67.5048989  66.7994602 140.6782209  61.7903806  68.5515676 148.7868328
  61.9196187  68.8050155 149.7007740  61.1101257  69.1443384 148.4672983
  65.9603293  79.2212926 144.8858802  65.8827323  80.1720751 144.9647283
  65.3564937  78.8758799 145.5433729  76.2441303  63.1767584 151.3763146
  75.6015684  63.4700117 150.7302941  75.7396232  63.0620505 152.1816343
  73.8981467  66.9230757 142.0649005  74.8099323  67.1558144 141.8896703
  73.3891114  67.5067802 141.5024084  68.0579011  71.6430984 146.7212672
  68.5217357  71.9218687 145.9317294  67.7935809  70.7414429 146.5385762
  64.9503092  71.1902466 149.6592435  65.5204449  71.6189734 149.0209920
  65.5411204  70.9085050 150.3576621  66.9947897  67.7654136 143.5302237
  67.6971941  68.2175180 143.9976163  66.6628526  67.1237955 144.1582130
  62.6887977  66.3882268 145.7902847  61.8919140  66.5000963 146.3086343
  62.4613569  66.7268921 144.9243738  68.2341662  74.5795079 143.6064342
  68.0987337  75.4246615 144.0349190  68.7751474  74.7814357 142.8430276
  61.6871059  72.0970517 144.1792267  62.1995580  72.8913767 144.3297832
  62.3393772  71.3996807 144.1125869  63.4965944  75.2136273 146.2615020
  63.6732572  76.1354238 146.0736004  64.2922777  74.8994693 146.6909400
  59.6519976  70.4259171 144.9551838  60.4895198  70.8356180 144.7385545
  59.8298244  69.4858613 144.9252032  71.5484408  68.0934252 140.6435671
  71.0331032  68.8638857 140.8824058  71.2761717  67.4199388 141.2668732
  69.1331519  62.9383953 145.7020909  68.2773116  62.5490803 145.5226548
  69.5458471  63.0175914 144.8420695  76.5218682  70.8466607 142.5788844
  75.7448125  70.5077766 142.1344006  77.2010163  70.8519230 141.9043809
  71.3370711  65.9661344 142.4695452  71.0320847  66.2807493 143.3205595
  72.2901153  66.0442764 142.5122785  69.7817143  72.1251567 144.1188406
  69.2538505  71.3904327 143.8061643  69.2804646  72.9026244 143.8728374
  64.5135871  62.7871234 146.4795017  65.0879623  62.5646415 145.7468210
  65.1006853  62.8559928 147.2323619  73.5715448  68.6744961 147.2859394
  74.0847330  69.3074952 147.7881104  74.2216672  68.0746156 146.9202754
  64.8405458  64.8175695 140.4990903  64.0042770  65.1550381 140.8200177
  64.7010228  64.6824674 139.5618040  66.8158538  59.6612483 145.2070087
  66.1622951  59.3461500 144.5826702  66.7739013  59.0388223 145.9329910
  67.9269743  69.9431778 137.1223379  67.0196805  69.7121031 137.3214528
  68.4240775  69.1469397 137.3097360  70.8337822  78.6529285 140.0420065
  70.1599521  78.9560982 140.6505023  71.2203644  79.4558365 139.6925522
  70.0496279  66.1494416 149.5317734  69.1318840  66.3709363 149.3739423
  70.4656422  66.2240727 148.6729442  70.8331327  67.5485832 144.6620415
  71.5803146  68.0607229 144.3527537  71.1022916  67.2269885 145.5224808
  69.1057977  70.0444373 141.6447369  68.1969196  69.7603405 141.7419839
  69.1353061  70.4643451 140.7850676  74.3377244  73.6550962 145.4138537
  73.8839571  72.8141872 145.4703727  73.7071211  74.2912360 145.7513317
  73.2810164  64.5842948 146.6439204  72.5432921  64.0720334 146.9749447
  73.5336937  64.1443330 145.8322481  72.7810183  75.4927459 146.3488355
  73.0733158  76.0532516 145.6300720  73.2908804  75.7856020 147.1041514
  73.3821791  57.3619200 147.2380973  73.6880668  56.5016563 146.9506888
  74.1074396  57.9536820 147.0379967  59.6746147  67.7649887 145.6262571
  59.4770547  67.1719247 144.9013638  59.1192811  67.4602097 146.3438510
  67.6542871  67.6572993 147.7457164  67.7091481  66.7046830 147.6699641
  66.8434073  67.8132432 148.2298463  68.8034065  71.5853116 138.9835448
  68.3653495  70.8688975 138.5241085  69.5444505  71.8129231 138.4220539
  65.5935231  66.2750053 145.5047543  64.7803096  66.5744223 145.9112735
  66.0894225  65.8805742 146.2222025  67.7443809  76.2707810 147.4381808
  67.7019987  76.4968656 146.5090340  68.6606507  76.0371184 147.5867609
  76.9207179  69.8610313 145.0411766  76.7825078  70.0511909 144.1132955
  76.5643398  70.6229696 145.4979817  65.8609609  73.1470839 147.2343771
  66.6550208  72.6521159 147.0326346  65.1501302  72.6188702 146.8711476
  62.1692373  67.2913921 143.3103523  61.2389961  67.2298376 143.5273485
  62.2649845  66.7689873 142.5140165  62.0877922  63.8168733 145.8981765
  62.3484739  64.7314067 145.7890925  62.9095094  63.3493176 146.0478378
  69.0329037  78.8208957 142.2567144  69.2080793  78.3497000 143.0712767
  68.3461825  79.4474723 142.4848405  69.9886101  73.0981463 148.3030446
  69.6535933  73.0582233 149.1988095  69.4890046  72.4326179 147.8300856
  72.9245292  70.4437498 138.5767505  72.3074463  69.7184326 138.4800558
  72.4561781  71.2046858 138.2334579  64.7143838  64.6622922 137.6988809
  63.8373304  64.5411723 137.3351056  65.1901591  63.8709000 137.4467698
  56.2345978  69.4500082 147.7930317  56.9217018  69.1361812 147.2051332
  56.0794107  70.3541447 147.5197568  67.9007764  77.0149213 144.9451330
  67.1175286  77.5570893 145.0389554  68.6000509  77.5323192 145.3445571
  71.2104414  62.8243842 147.5885535  71.7073114  62.0713804 147.2686606
  70.4391396  62.8608159 147.0228745  72.2934195  71.5815529 145.1623959
  71.3590474  71.7016992 144.9928663  72.4710863  70.6787996 144.8983969
  67.7939383  64.9661225 147.3157220  67.4237171  64.4132265 148.0038126
  68.2898475  64.3619358 146.7632220  75.6806746  67.4232848 145.6973993
  76.1467199  68.2560840 145.6234296  76.1314247  66.9577830 146.4019251
  73.7482977  73.7676670 142.6960145  74.0242821  73.6533264 143.6054019
  72.8787476  73.3694155 142.6572318  70.3837041  78.0163021 146.3392959
  70.5659436  77.1984677 146.8020711  71.2070027  78.2330713 145.9017849
  70.7179207  76.9431206 143.6008007  71.2466973  76.4323660 142.9878169
  70.9807427  76.6273736 144.4653540  61.2196300  74.9595075 151.3443341
  61.8049736  74.2138763 151.4771245  61.0221138  75.2699032 152.2280004
  64.0734955  77.9946322 146.3605783  63.4045330  78.4792450 145.8769823
  63.9347825  78.2415543 147.2749161  59.4422532  66.2564777 143.1401715
  59.7375973  65.3475456 143.0868769  58.5410568  66.2352517 142.8182717
  61.1710374  63.9378875 143.2641040  60.8423080  63.0576254 143.0816146
  61.5249744  63.8826544 144.1517430  70.4189952  75.5733778 147.7736026
  70.2714915  74.6450485 147.9543596  71.2443446  75.5953868 147.2893101
  64.2852197  64.2251845 143.6316518  64.6248269  64.7537766 142.9095126
  64.7324317  64.5632251 144.4075084  66.2720344  62.7226466 141.8309811
  66.9928706  63.1007719 141.3273528  65.6485648  63.4415343 141.9344789
  70.4151467  63.4271615 142.7668143  70.6315081  64.3096253 142.4656971
  69.9345534  63.0357829 142.0373785  73.8119390  76.9148004 144.2162990
  73.9856268  76.3494426 143.4636842  74.3048282  77.7148899 144.0342480
  66.4183967  62.2574257 144.6607347  66.5399878  61.3290903 144.8598235
  66.1286009  62.2712943 143.7485663  79.6658782  69.6784427 145.8353290
  80.1089928  68.9291752 145.4372413  78.7885292  69.6694563 145.4527022
  74.7994563  76.2314768 141.3159888  75.4945468  76.8521461 141.5347203
  75.1417713  75.3810120 141.5912266  76.6985986  73.6814474 142.8447219
  77.2237310  74.0201747 142.1196539  76.6108339  72.7461489 142.6610354
  60.8618986  75.9397998 147.2067100  61.6877006  75.6401770 146.8265744
  60.5113038  75.1705620 147.6556889  65.8300519  75.2924466 149.2764774
  65.2080528  74.6295171 148.9767002  66.5005386  75.3185598 148.5938422
  59.0627591  73.8584324 148.1656034  58.2259499  73.4306499 147.9840035
  59.0351236  74.0516768 149.1026825  65.3914026  73.8428390 142.7523234
  65.5402146  74.5263854 142.0989907  66.1980469  73.8233480 143.2672690
  63.1466659  69.8693567 143.7584303  62.9012701  68.9655897 143.9564514
  63.3162573  69.8710718 142.8163781  62.4162306  65.6021925 141.2570465
  61.7231551  65.6766280 140.6010501  62.1714058  64.8382268 141.7791982
  68.8909431  76.3376520 140.2234982  68.3183398  76.9566707 139.7705454
  69.4642225  76.8875882 140.7574904  72.1106691  76.6213670 141.3543564
  73.0437364  76.5559232 141.5576440  72.0229904  77.4569937 140.8958097
  74.7394708  75.9379541 138.3147512  74.6608339  75.6039404 139.2083270
  75.5604375  76.4301308 138.3138984  69.2756230  67.6737333 137.5651034
  70.2215335  67.5443541 137.6339452  68.8970475  66.9351995 138.0420463
  75.2478114  59.3393339 147.5277926  75.0502936  59.0308427 148.4121258
  75.8577820  60.0654978 147.6575856  67.4599147  65.5987309 137.5005920
  66.5530602  65.3020422 137.5768633  67.7375128  65.3017127 136.6340206
  69.0761213  60.1424199 143.6550161  68.2661941  59.7971284 144.0305407
  69.7645630  59.8331743 144.2437772  71.0051761  59.2202246 145.2774458
  71.5582800  59.6397699 145.9364481  71.2421847  58.2937994 145.3197414
  66.2297932  62.4574244 137.6417899  67.0917096  62.7829143 137.9013716
  66.4148276  61.6705740 137.1290965  74.3830568  61.3302771 144.7853122
  73.8029237  61.9887575 144.4031174  74.1166501  60.5080115 144.3740539
  72.8334135  60.7307829 146.9874442  73.3333913  60.8424363 146.1788761
  73.4769742  60.4268881 147.6275251  60.1602090  70.4714838 147.7964102
  60.1372778  70.5702525 146.8445986  60.4702726  71.3179989 148.1181269
  73.1655446  63.4902861 143.8409470  72.2781301  63.7752512 143.6229665
  73.5809435  63.3296625 142.9936747  76.5169982  63.5149382 147.5563809
  77.2930372  64.0045835 147.8288426  75.7918116  63.9407436 148.0135679
  78.9542541  64.2277001 148.6137750  79.5487032  63.9872737 147.9031058
  79.0269125  63.5084132 149.2411286  61.1739697  78.0710612 148.9280915
  61.0394165  77.3111013 148.3618913  60.7571759  78.7951512 148.4609704
  72.3098660  73.2547536 137.9357490  73.0134510  73.4597538 138.5515146
  71.5861308  73.8224298 138.2006574  73.1396470  69.0057397 144.0559760
  73.0831671  69.4625949 143.2167393  73.6924812  68.2448082 143.8782603
  76.9501276  64.7947129 144.8809880  76.6938210  64.3943765 145.7118087
  76.3254144  65.5090923 144.7560019  81.2613614  67.5343202 147.3881171
  80.7013172  67.6036392 148.1612733  80.6557117  67.3584187 146.6680667
  74.2185357  73.6930065 139.9855950  75.0530961  73.2611264 139.8033425
  74.0569700  73.5212079 140.9132845  73.8731249  70.1962178 141.3512289
  73.8180053  70.0306450 140.4100734  73.2477304  70.9038211 141.5074479
  67.1827375  59.6970287 140.9297608  67.1706045  60.6412127 141.0865879
  68.0750797  59.5140433 140.6357069  70.9979494  56.2913064 145.1843545
  70.2311890  55.7371551 145.3300227  71.4090199  56.3634933 146.0457696
  77.3567618  82.9315392 139.3489592  77.6093138  82.4096913 138.5873055
  76.4192177  82.7681537 139.4516275  79.0600934  79.3243544 140.2522004
  79.2275337  80.1923781 140.6192475  78.8698104  79.4870826 139.3283294
  75.6799212  80.1467612 140.4990903  74.8436525  80.4842299 140.8200177
  75.5403982  80.0116592 139.5618040  77.6552293  74.9904400 145.2070087
  77.0016705  74.6753417 144.5826702  77.6132767  74.3680141 145.9329910
  78.7663498  85.2723695 137.1223379  77.8590560  85.0412949 137.3214528
  79.2634530  84.4761315 137.3097360  73.0086127  82.6205838 143.3103523
  72.0783715  82.5590294 143.5273485  73.1043599  82.0981791 142.5140165
  75.5537593  79.9914840 137.6988809  74.6767059  79.8703641 137.3351056
  76.0295346  79.2000918 137.4467698  70.2816286  81.5856695 143.1401715
  70.5769728  80.6767373 143.0868769  69.3804322  81.5644435 142.8182717
  72.0104128  79.2670793 143.2641040  71.6816834  78.3868172 143.0816146
  72.3643499  79.2118461 144.1517430  77.1114098  78.0518384 141.8309811
  77.8322461  78.4299637 141.3273528  76.4879402  78.7707261 141.9344789
  77.2577721  77.5866175 144.6607347  77.3793633  76.6582821 144.8598235
  76.9679764  77.6004861 143.7485663  73.2556061  80.9313842 141.2570465
  72.5625306  81.0058197 140.6010501  73.0107813  80.1674186 141.7791982
  80.1149984  83.0029250 137.5651034  81.0609089  82.8735459 137.6339452
  79.7364229  82.2643912 138.0420463  78.2992902  80.9279227 137.5005920
  77.3924357  80.6312340 137.5768633  78.5768883  80.6309045 136.6340206
  79.9154967  75.4716117 143.6550161  79.1055696  75.1263202 144.0305407
  80.6039384  75.1623660 144.2437772  77.0691686  77.7866162 137.6417899
  77.9310850  78.1121060 137.9013716  77.2542030  76.9997658 137.1290965
  78.0221129  75.0262205 140.9297608  78.0099799  75.9704045 141.0865879
  78.9144551  74.8432351 140.6357069  81.8373249  71.6204982 145.1843545
  81.0705644  71.0663468 145.3300227  82.2483954  71.6926851 146.0457696
  59.4158205  36.0311876 128.0429314  58.7646185  36.6165956 127.6563328
  60.2102568  36.5618071 128.1024351  65.6824929  32.5236812 129.3034151
  64.9054372  32.1847971 128.8589313  66.3616410  32.5289435 128.6289116
  57.0875990  31.6201983 123.8468686  56.1803052  31.3891236 124.0459835
  57.5847022  30.8239602 124.0342667  59.9944069  40.3299490 126.7665372
  59.3205768  40.6331187 127.3750330  60.3809891  41.1328570 126.4170829
  57.9640311  33.2623321 125.7080754  57.5259741  32.5459180 125.2486392
  58.7050752  33.4899436 125.1465846  58.1935284  40.4979162 128.9812451
  58.3687040  40.0267205 129.7958074  57.5068072  41.1244928 129.2093712
  62.0851539  32.1207703 125.3012812  61.4680710  31.3954531 125.2045864
  61.6168027  32.8817063 124.9579886  62.9089224  35.4446875 129.4205452
  63.1849068  35.3303469 130.3299326  62.0393723  35.0464360 129.3817625
  59.8785454  38.6201411 130.3253314  60.4073220  38.1093865 129.7123476
  60.1413673  38.3043941 131.1898847  62.9725637  38.5918209 130.9408297
  63.1462515  38.0264631 130.1882149  63.4654528  39.3919104 130.7587787
  63.9600810  37.9084973 128.0405195  64.6551714  38.5291666 128.2592510
  64.3023960  37.0580324 128.3157573  65.8592233  35.3584679 129.5692526
  66.3843557  35.6971952 128.8441846  65.7714585  34.4231694 129.3855660
  58.0515678  38.0146725 126.9480289  57.4789645  38.6336912 126.4950760
  58.6248472  38.5646087 127.4820210  61.2712938  38.2983875 128.0788871
  62.2043611  38.2329437 128.2821746  61.1836151  39.1340142 127.6203403
  63.9000955  37.6149745 125.0392818  63.8214586  37.2809609 125.9328576
  64.7210621  38.1071513 125.0384291  58.4362477  29.3507538 124.2896341
  59.3821581  29.2213746 124.3584759  58.0576722  28.6122200 124.7665769
  61.4704906  34.9317741 124.6602797  62.1740757  35.1367743 125.2760452
  60.7467555  35.4994503 124.9251880  63.3791604  35.3700270 126.7101257
  64.2137208  34.9381469 126.5278732  63.2175947  35.1982284 127.6378151
  63.0337496  31.8732383 128.0757596  62.9786300  31.7076655 127.1346040
  62.4083551  32.5808416 128.2319786  72.0075879  45.8869921 136.8056433
  72.6454289  45.7676668 136.1019774  71.8896722  46.8350765 136.8644386
  68.8165585  45.8397349 136.7417958  68.4784097  45.7238414 135.8538493
  69.6855353  45.4388514 136.7218964  64.6752401  47.6932826 132.7314849
  64.1117266  47.6022763 131.9631137  64.5604796  46.8732730 133.2117342
  62.2216833  49.1884017 135.5699070  63.0138125  48.8474842 135.1545369
  62.4613483  49.2978992 136.4901223  70.2551960  51.3603793 128.0429314
  69.6039939  51.9457874 127.6563328  71.0496322  51.8909988 128.1024351
  64.1807587  48.4492931 128.4416448  64.9538463  47.9021918 128.3029324
  64.5332986  49.3137180 128.6530910  66.9448836  47.1546161 138.2384707
  67.5412408  46.9302184 137.5241670  67.0023808  46.4130907 138.8410155
  66.5173865  44.6085597 126.0734898  66.7699385  44.0867118 125.3118361
  65.5798424  44.4451742 126.1761582  71.5617147  43.6121375 133.8809642
  72.3480237  43.1940798 133.5300059  71.8255852  44.5167467 134.0491290
  71.7327225  49.0494225 128.5798298  71.0973058  49.1228852 129.2919203
  71.4024631  49.6387824 127.9017378  76.9625575  43.5496608 134.7842620
  77.6950746  42.9795825 135.0180450  76.2064930  43.1618209 135.2249126
  66.2370153  46.5113703 128.2759273  66.1206411  45.8358606 128.9440358
  66.3472413  46.0246077 127.4591426  68.5801694  45.9723850 131.9805962
  68.2159901  45.4454471 132.6918884  69.4368810  45.5822319 131.8072448
  68.2207181  41.0013749 126.9767311  68.3881584  41.8693986 127.3437782
  68.0304350  41.1641031 126.0528600  70.9782514  49.4630728 138.6433141
  70.6783237  50.3655767 138.5348949  70.6333574  49.1962912 139.4954294
  64.4294996  45.9144525 134.6769846  63.5045492  45.7820739 134.8847538
  64.6779409  46.6938744 135.1739788  74.3779658  41.9813268 136.3230579
  73.4696536  41.9128677 136.0289340  74.3267254  42.4585213 137.1512404
  68.1996402  43.4571407 127.9613978  68.0796027  43.9028458 128.7999458
  67.5048990  43.8056725 127.4027516  61.7903807  45.5577799 135.5113635
  61.9196188  45.8112278 136.4253047  61.1101258  46.1505507 135.1918290
  65.9603294  56.2275049 131.6104109  65.8827324  57.1782874 131.6892590
  65.3564938  55.8820921 132.2679035  76.2441305  40.1829707 138.1008453
  75.6015685  40.4762240 137.4548247  75.7396233  40.0682627 138.9061649
  73.8981468  43.9292880 128.7894312  74.8099324  44.1620267 128.6142009
  73.3891115  44.5129924 128.2269390  72.5051051  48.9118699 136.1807893
  71.8759913  49.0764413 135.4783961  72.1176713  49.3260308 136.9518857
  76.3840282  49.8473136 133.5352257  75.6991321  50.2272038 132.9849290
  76.4684132  50.4568463 134.2684205  73.6391214  47.4933095 140.1347601
  73.8508109  48.1364855 139.4581982  73.5920962  46.6595412 139.6669531
  68.0579012  48.6493107 133.4457978  68.5217358  48.9280810 132.6562601
  67.7935811  47.7476551 133.2631069  64.9503094  48.1964588 136.3837742
  65.5204451  48.6251857 135.7455226  65.5411205  47.9147173 137.0821927
  66.9947899  44.7716259 130.2547544  67.6971942  45.2237303 130.7221470
  66.6628527  44.1300078 130.8827437  74.7537042  50.3705051 138.3069958
  75.5754486  49.9685238 138.0252640  74.7499445  50.2673285 139.2586074
  62.6887978  43.3944391 132.5148154  61.8919141  43.5063085 133.0331650
  62.4613570  43.7331043 131.6489044  68.5193645  49.9189094 140.4630668
  68.5838078  50.3809501 141.2988840  67.8104569  49.2886459 140.5912978
  82.8443035  46.7143799 134.6554929  82.0906743  46.1451197 134.4998934
  82.9790576  46.6806464 135.6025564  68.2341663  51.5857202 130.3309649
  68.0987338  52.4308737 130.7594497  68.7751476  51.7876479 129.5675583
  61.6871061  49.1032640 130.9037574  62.1995581  49.8975890 131.0543139
  62.3393773  48.4058930 130.8371175  63.4965945  52.2198396 132.9860327
  63.6732574  53.1416361 132.7981311  64.2922779  51.9056815 133.4154707
  64.6197261  53.7376570 138.9870669  65.1704686  53.6093633 138.2147663
  63.7808737  54.0371459 138.6365562  71.9591378  52.4883568 142.4891392
  71.9409853  53.3092449 141.9971661  72.8811298  52.3637643 142.7141533
  59.6519977  47.4321294 131.6797144  60.4895199  47.8418302 131.4630852
  59.8298245  46.4920736 131.6497338  71.5484409  45.0996375 127.3680977
  71.0331033  45.8700979 127.6069365  71.2761718  44.4261511 127.9914039
  69.1331520  39.9446075 132.4266216  68.2773117  39.5552926 132.2471854
  69.5458472  40.0238036 131.5666001  76.5218684  47.8528729 129.3034151
  75.7448126  47.5139889 128.8589313  77.2010165  47.8581352 128.6289116
  71.3370713  42.9723467 129.1940759  71.0320848  43.2869616 130.0450902
  72.2901155  43.0504887 129.2368092  69.7817144  49.1313690 130.8433713
  69.2538506  48.3966450 130.5306950  69.2804647  49.9088366 130.5973681
  74.7609990  47.3262710 135.9600759  74.1033665  48.0161972 136.0480887
  75.5650390  47.7159142 136.3034745  64.5135872  39.7933356 133.2040324
  65.0879624  39.5708538 132.4713517  65.1006854  39.8622051 133.9568925
  73.5715449  45.6807083 134.0104701  74.0847331  46.3137075 134.5126410
  74.2216673  45.0808279 133.6448061  64.8405459  41.8237817 127.2236209
  64.0042771  42.1612504 127.5445484  64.7010229  41.6886797 126.2863346
  66.8158540  36.6674605 131.9315393  66.1622952  36.3523622 131.3072008
  66.7739014  36.0450346 132.6575216  67.9269745  46.9493900 123.8468686
  67.0196806  46.7183154 124.0459835  68.4240777  46.1531520 124.0342667
  70.8337823  55.6591407 126.7665372  70.1599522  55.9623104 127.3750330
  71.2203645  56.4620488 126.4170829  70.0496280  43.1556539 136.2563041
  69.1318841  43.3771486 136.0984729  70.4656424  43.2302849 135.3974748
  70.8331328  44.5547954 131.3865721  71.5803147  45.0669352 131.0772843
  71.1022917  44.2332007 132.2470115  69.1057978  47.0506495 128.3692676
  68.1969197  46.7665528 128.4665145  69.1353062  47.4705574 127.5095982
  74.3377245  50.6613085 132.1383843  73.8839573  49.8203995 132.1949034
  73.7071212  51.2974483 132.4758623  73.2810165  41.5905071 133.3684511
  72.5432922  41.0782457 133.6994753  73.5336939  41.1505452 132.5567788
  72.7810185  52.4989581 133.0733661  73.0733159  53.0594638 132.3546027
  73.2908805  52.7918142 133.8286820  73.3821792  34.3681323 133.9626280
  73.6880669  33.5078686 133.6752195  74.1074397  34.9598943 133.7625274
  59.6746148  44.7712009 132.3507878  59.4770548  44.1781370 131.6258944
  59.1192812  44.4664219 133.0683817  67.6542872  44.6635116 134.4702471
  67.7091482  43.7108952 134.3944948  66.8434074  44.8194555 134.9543769
  68.8034066  48.5915239 125.7080754  68.3653496  47.8751098 125.2486392
  69.5444507  48.8191354 125.1465846  65.5935232  43.2812175 132.2292850
  64.7803098  43.5806346 132.6358042  66.0894226  42.8867864 132.9467332
  67.7443810  53.2769932 134.1627115  67.7019989  53.5030779 133.2335647
  68.6606509  53.0433307 134.3112916  76.9207181  46.8672436 131.7657073
  76.7825079  47.0574032 130.8378262  76.5643399  47.6291819 132.2225124
  76.9476560  48.9348963 136.7768344  77.3813067  48.8424252 137.6251398
  77.6608141  48.9106463 136.1388360  65.8609611  50.1532961 133.9589077
  66.6550209  49.6583282 133.7571652  65.1501303  49.6250825 133.5956783
  70.6804455  52.5351057 138.3101445  70.7341477  53.1041993 139.0779161
  69.8119237  52.7052942 137.9455482  62.1692374  44.2976043 130.0348830
  61.2389962  44.2360499 130.2518792  62.2649846  43.7751996 129.2385471
  62.0877923  40.8230856 132.6227072  62.3484740  41.7376189 132.5136232
  62.9095096  40.3555299 132.7723684  77.8092110  48.9772663 139.3101230
  78.0028000  49.8818474 139.5560505  77.7092728  48.5180083 140.1439815
  69.6392555  46.7011319 139.8688377  70.5684615  46.8522479 139.6957344
  69.2183585  46.7895340 139.0137023  68.4380887  50.7261983 137.6386914
  68.2991972  50.3580768 138.5112852  67.6495483  51.2409623 137.4670872
  69.0329039  55.8271080 128.9812451  69.2080794  55.3559123 129.7958074
  68.3461827  56.4536846 129.2093712  69.9886102  50.1043586 135.0275752
  69.6535934  50.0644356 135.9233402  69.4890047  49.4388302 134.5546162
  72.9245293  47.4499620 125.3012812  72.3074464  46.7246449 125.2045864
  72.4561782  48.2108981 124.9579886  74.5799425  52.1598529 142.9618592
  74.5211971  51.4757749 142.2949175  74.9818943  52.9017519 142.5099218
  63.5990124  58.9760443 135.7552311  63.8386722  59.6078967 136.4331330
  62.7559320  58.6248483 136.0417670  64.7143839  41.6685045 124.4234116
  63.8373306  41.5473846 124.0596363  65.1901592  40.8771123 124.1713005
  74.5816832  50.1238113 141.1932572  73.6943611  49.7864035 141.3158971
  75.1515383  49.3921144 141.4301337  56.2345980  46.4562204 134.5175623
  56.9217019  46.1423935 133.9296639  56.0794108  47.3603569 134.2442875
  68.1117986  54.7839565 138.1593815  68.0388157  55.5894537 138.6713120
  67.6695379  54.9831531 137.3341836  67.9007765  54.0211335 131.6696637
  67.1175287  54.5633015 131.7634861  68.6000511  54.5385315 132.0690878
  71.2104416  39.8305965 134.3130842  71.7073115  39.0775927 133.9931912
  70.4391397  39.8670281 133.7474051  79.0634173  45.5346330 135.9549133
  79.0524049  46.4171046 135.5843067  78.1951552  45.1817881 135.7603671
  70.5716669  54.6826399 140.3151974  71.2844642  55.3173864 140.2427875
  70.0806698  54.7790265 139.4991976  72.2934196  48.5877652 131.8869265
  71.3590475  48.7079114 131.7173970  72.4710865  47.6850119 131.6229275
  67.7939384  41.9723348 134.0402527  67.4237172  41.4194388 134.7283432
  68.2898477  41.3681481 133.4877527  75.6806748  44.4294971 132.4219300
  76.1467200  45.2622963 132.3479602  76.1314248  43.9639953 133.1264558
  65.6228583  52.4320843 141.1357545  66.3238042  53.0657326 141.2886939
  65.1523698  52.7735574 140.3753184  73.7482979  50.7738792 129.4205452
  74.0242823  50.6595387 130.3299326  72.8787477  50.3756277 129.3817625
  73.4229869  44.9865450 138.9610095  72.7701319  45.2341357 138.3062548
  73.8010249  44.1729588 138.6272572  70.3837043  55.0225143 133.0638265
  70.5659437  54.2046799 133.5266018  71.2070029  55.2392835 132.6263155
  70.7179208  53.9493328 130.3253314  71.2466975  53.4385783 129.7123476
  70.9807428  53.6335859 131.1898847  61.2196301  51.9657198 138.0688647
  61.8049738  51.2200886 138.2016551  61.0221139  52.2761154 138.9525311
  64.0734956  55.0008445 133.0851090  63.4045331  55.4854573 132.6015130
  63.9347826  55.2477665 133.9994468  68.2140225  57.0352189 139.6833748
  68.7658533  57.1983810 140.4482833  68.5546418  57.6256626 139.0113773
  59.4422533  43.2626900 129.8647022  59.7375974  42.3537578 129.8114075
  58.5410569  43.2414639 129.5428024  71.3508612  54.9834164 136.6697430
  71.2259751  54.1823904 136.1608376  72.0087703  55.4780357 136.1811400
  73.4143520  52.7843184 138.2976980  72.4673856  52.6648535 138.2255307
  73.7626293  51.8965682 138.3803242  61.1710375  40.9440998 129.9886347
  60.8423081  40.0638377 129.8061453  61.5249745  40.8888666 130.8762736
  70.4189954  52.5795900 134.4981332  70.2714916  51.6512608 134.6788902
  71.2443447  52.6015991 134.0138408  64.2852198  41.2313967 130.3561825
  64.6248270  41.7599889 129.6340433  64.7324318  41.5694374 131.1320391
  74.0224076  53.4024459 135.5846205  74.9470623  53.1967320 135.4470656
  73.8539379  53.1540860 136.4935547  66.2720345  39.7288589 128.5555117
  66.9928708  40.1069842 128.0518834  65.6485649  40.4477466 128.6590095
  70.4151468  40.4333738 129.4913450  70.6315082  41.3158376 129.1902278
  69.9345535  40.0419951 128.7619092  73.8119392  53.9210127 130.9408297
  73.9856269  53.3556549 130.1882149  74.3048283  54.7211021 130.7587787
  66.4183968  39.2636379 131.3852654  66.5399879  38.3353026 131.5843541
  66.1286011  39.2775065 130.4730969  79.6658783  46.6846549 132.5598596
  80.1089929  45.9353875 132.1617720  78.7885293  46.6756686 132.1772328
  74.7994564  53.2376891 128.0405195  75.4945469  53.8583584 128.2592510
  75.1417714  52.3872242 128.3157573  76.6985987  50.6876596 129.5692526
  77.2237311  51.0263869 128.8441846  76.6108340  49.7523612 129.3855660
  68.3606036  54.6010670 141.6982402  68.6693162  54.3559817 142.5705102
  69.1581518  54.8057309 141.2101273  68.3826648  56.7548580 133.9287779
  67.9431638  56.2624958 134.6220636  69.1334765  56.2121547 133.6879854
  60.8618987  52.9460121 133.9312407  61.6877007  52.6463892 133.5511050
  60.5113039  52.1767743 134.3802196  65.8300520  52.2986589 136.0010081
  65.2080530  51.6357294 135.7012308  66.5005387  52.3247721 135.3183728
  59.0627592  50.8646447 134.8901341  58.2259500  50.4368621 134.7085342
  59.0351238  51.0578890 135.8272132  76.3879893  51.3209500 144.8743724
  75.5975437  51.3033639 144.3348223  76.1513248  51.8597794 145.6292760
  76.5077768  48.1701966 142.1876452  76.5575773  48.0051974 143.1291975
  76.3991692  47.3029226 141.7974333  65.3914027  50.8490512 129.4768541
  65.5402148  51.5325977 128.8235214  66.1980471  50.8295602 129.9917997
  78.0095965  50.5898908 142.4318474  77.7180774  50.9528889 143.2681935
  77.3968097  49.8765916 142.2531806  79.2091648  48.1551788 134.9521044
  80.0438539  48.5941592 135.1158604  79.3450776  47.6790441 134.1329290
  76.2583154  45.7131523 140.8998532  76.7337275  45.9059169 140.0917383
  75.3348719  45.7690708 140.6541915  63.1466660  46.8755690 130.4829610
  62.9012702  45.9718020 130.6809820  63.3162575  46.8772840 129.5409088
  62.4162308  42.6084047 127.9815771  61.7231553  42.6828402 127.3255807
  62.1714060  41.8444391 128.5037288  68.8909433  53.3438643 126.9480289
  68.3183400  53.9628830 126.4950760  69.4642226  53.8938004 127.4820210
  74.9584823  42.5897283 139.1326837  75.9102245  42.6895380 139.1539061
  74.7888273  41.7975551 139.6424922  72.1106692  53.6275793 128.0788871
  73.0437366  53.5621354 128.2821746  72.0229905  54.4632060 127.6203403
  74.7394709  52.9441663 125.0392818  74.6608341  52.6101527 125.9328576
  75.5604376  53.4363431 125.0384291  77.4372900  45.8103402 138.2469137
  77.4049220  44.8719403 138.4328821  78.0473524  45.8887439 137.5134962
  69.2756231  44.6799455 124.2896341  70.2215336  44.5505663 124.3584759
  68.8970476  43.9414117 124.7665769  77.5867389  42.6014446 138.2927420
  77.0706437  41.8172902 138.1057349  78.4707337  42.2733162 138.4573940
  75.2478116  36.3455461 134.2523233  75.0502937  36.0370550 135.1366565
  75.8577821  37.0717100 134.3821163  83.2549450  46.8719409 137.3875174
  83.9852839  46.6104697 137.9482877  82.6456396  46.1348131 137.4277242
  81.3364747  45.0127272 137.9849625  80.6097911  44.8783237 137.3766117
  80.9212034  45.3204100 138.7906343  67.4599148  42.6049432 124.2251226
  66.5530604  42.3082544 124.3013940  67.7375129  42.3079250 123.3585512
  69.0761214  37.1486321 130.3795468  68.2661942  36.8033406 130.7550714
  69.7645631  36.8393865 130.9683079  71.0051762  36.2264368 132.0019764
  71.5582801  36.6459822 132.6609787  71.2421849  35.3000116 132.0442720
  66.2297933  39.4636367 124.3663205  67.0917097  39.7891265 124.6259023
  66.4148277  38.6767863 123.8536271  74.3830569  38.3364893 131.5098428
  73.8029238  38.9949697 131.1276481  74.1166502  37.5142238 131.0985846
  72.8334136  37.7369951 133.7119749  73.3333914  37.8486486 132.9034068
  73.4769744  37.4331004 134.3520557  60.1602091  47.4776960 134.5209409
  60.1372779  47.5764648 133.5691292  60.4702728  48.3242111 134.8426575
  73.1655447  40.4964984 130.5654777  72.2781302  40.7814634 130.3474971
  73.5809437  40.3358747 129.7182054  76.5169984  40.5211505 134.2809116
  77.2930374  41.0107957 134.5533733  75.7918118  40.9469559 134.7380985
  78.9542542  41.2339124 135.3383057  79.5487033  40.9934860 134.6276365
  79.0269126  40.5146255 135.9656593  61.1739698  55.0772735 135.6526221
  61.0394166  54.3173136 135.0864219  60.7571760  55.8013635 135.1855010
  72.3098661  50.2609659 124.6602797  73.0134511  50.4659661 125.2760452
  71.5861310  50.8286420 124.9251880  73.1396471  46.0119520 130.7805067
  73.0831673  46.4688071 129.9412699  73.6924814  45.2510204 130.6027910
  76.9501277  41.8009252 131.6055186  76.6938211  41.4005887 132.4363394
  76.3254145  42.5153046 131.4805326  81.2613615  44.5405325 134.1126478
  80.7013173  44.6098514 134.8858040  80.6557118  44.3646310 133.3925974
  64.3308824  55.9742052 135.8644664  64.2141208  56.9187484 135.7623354
  63.5101270  55.6715614 136.2530463  74.2185358  50.6992188 126.7101257
  75.0530962  50.2673386 126.5278732  74.0569701  50.5274201 127.6378151
  73.8731250  47.2024301 128.0757596  73.8180054  47.0368572 127.1346040
  73.2477306  47.9100334 128.2319786  67.1827376  36.7032410 127.6542914
  67.1706046  37.6474250 127.8111185  68.0750798  36.5202555 127.3602376
  65.3563338  56.6270314 139.0800592  66.2590585  56.6593924 139.3967087
  65.1300708  55.6970765 139.0946928  67.1116940  55.3801300 135.7410671
  66.1612571  55.3803162 135.6275043  67.4149426  54.6334035 135.2246706
  70.9979495  33.2975187 131.9088851  70.2311891  32.7433673 132.0545534
  71.4090200  33.3697055 132.7703003  82.8469633  61.2161839 136.8056433
  83.4848043  61.0968586 136.1019774  82.7290476  62.1642683 136.8644386
  79.6559340  61.1689267 136.7417958  79.3177851  61.0530332 135.8538493
  80.5249108  60.7680432 136.7218964  75.5146155  63.0224743 132.7314849
  74.9511021  62.9314680 131.9631137  75.3998550  62.2024648 133.2117342
  80.1379123  62.3224119 142.7004164  80.1267763  61.9276917 141.8284667
  80.2999762  61.5890191 143.2937935  73.0610587  64.5175935 135.5699070
  73.8531879  64.1766760 135.1545369  73.3007237  64.6270910 136.4901223
  81.0945714  66.6895711 128.0429314  80.4433694  67.2749791 127.6563328
  81.8890077  67.2201906 128.1024351  75.0201341  63.7784848 128.4416448
  75.7932217  63.2313835 128.3029324  75.3726740  64.6429098 128.6530910
  76.8586384  65.1061230 141.6483348  76.5676250  66.0106861 141.5330014
  77.4943368  65.1477758 142.3627417  77.7842591  62.4838079 138.2384707
  78.3806163  62.2594101 137.5241670  77.8417562  61.7422824 138.8410155
  77.3567619  59.9377514 126.0734898  77.6093140  59.4159036 125.3118361
  76.4192178  59.7743660 126.1761582  82.4010902  58.9413293 133.8809642
  83.1873991  58.5232716 133.5300059  82.6649606  59.8459385 134.0491290
  82.5720979  64.3786143 128.5798298  81.9366812  64.4520769 129.2919203
  82.2418386  64.9679742 127.9017378  87.8019329  58.8788526 134.7842620
  88.5344501  58.3087743 135.0180450  87.0458685  58.4910126 135.2249126
  77.0763908  61.8405620 128.2759273  76.9600166  61.1650524 128.9440358
  77.1866168  61.3537994 127.4591426  79.4195449  61.3015767 131.9805962
  79.0553656  60.7746388 132.6918884  80.2762565  60.9114236 131.8072448
  85.3244749  52.5910100 139.2437229  84.9928074  53.4605511 139.0198444
  84.7290363  52.2746384 139.9231259  79.0600936  56.3305667 126.9767311
  79.2275338  57.1985903 127.3437782  78.8698105  56.4932949 126.0528600
  81.8176269  64.7922646 138.6433141  81.5176992  65.6947685 138.5348949
  81.4727328  64.5254829 139.4954294  75.2688750  61.2436443 134.6769846
  74.3439247  61.1112657 134.8847538  75.5173164  62.0230662 135.1739788
  85.2173413  57.3105186 136.3230579  84.3090290  57.2420595 136.0289340
  85.1661008  57.7877131 137.1512404  79.0390157  58.7863325 127.9613978
  78.9189782  59.2320375 128.7999458  78.3442745  59.1348642 127.4027516
  72.6297561  60.8869716 135.5113635  72.7589943  61.1404195 136.4253047
  71.9495013  61.4797424 135.1918290  76.7997049  71.5566966 131.6104109
  76.7221078  72.5074791 131.6892590  76.1958692  71.2112839 132.2679035
  79.2914278  58.7294832 144.2665476  78.5147613  59.2888752 144.2568341
  79.9304842  59.2151615 144.7880346  87.0835059  55.5121625 138.1008453
  86.4409439  55.8054158 137.4548247  86.5789988  55.3974545 138.9061649
  84.7375223  59.2584798 128.7894312  85.6493079  59.4912184 128.6142009
  84.2284870  59.8421842 128.2269390  77.5460651  61.5380285 143.8283443
  78.2875335  62.0765329 143.5518267  76.8397636  62.1646574 143.9854995
  83.0215990  63.6809426 142.4255604  83.4299346  63.2391836 141.6810237
  82.2993252  63.1062053 142.6789797  79.3747060  58.6182032 139.7989161
  80.2208256  59.0421446 139.9423810  79.3145698  57.9615657 140.4927725
  83.3444805  64.2410616 136.1807893  82.7153667  64.4056330 135.4783961
  82.9570467  64.6552226 136.9518857  87.2234037  65.1765054 133.5352257
  86.5385075  65.5563955 132.9849290  87.3077886  65.7860381 134.2684205
  82.5246506  56.2786401 141.4570335  82.2807438  57.0328461 140.9204611
  82.8006436  56.6571748 142.2917582  84.4784969  62.8225013 140.1347601
  84.6901864  63.4656773 139.4581982  84.4314717  61.9887330 139.6669531
  82.0811198  55.4342834 137.0384173  81.2195677  55.7324087 137.3300910
  82.1073632  55.6513233 136.1065205  78.8972767  63.9785024 133.4457978
  79.3611112  64.2572727 132.6562601  78.6329565  63.0768469 133.2631069
  75.7896848  63.5256506 136.3837742  76.3598205  63.9543774 135.7455226
  76.3804960  63.2439091 137.0821927  77.8341653  60.1008177 130.2547544
  78.5365696  60.5529220 130.7221470  77.5022281  59.4591996 130.8827437
  76.2822015  58.6919933 144.6298753  75.6520675  59.3736214 144.8634150
  76.1758102  58.5803015 143.6851891  71.5766987  58.3591729 135.5564677
  70.7866041  58.6149258 135.0804788  72.0678234  59.1740067 135.6616718
  85.5930797  65.6996968 138.3069958  86.4148240  65.2977156 138.0252640
  85.5893199  65.5965203 139.2586074  73.5281732  58.7236309 132.5148154
  72.7312896  58.8355003 133.0331650  73.3007325  59.0622961 131.6489044
  79.3587400  65.2481012 140.4630668  79.4231832  65.7101419 141.2988840
  78.6498324  64.6178377 140.5912978  69.8604690  58.6122220 137.9879668
  70.1112728  59.4969230 138.2537244  70.3964238  58.4326821 137.2154760
  93.6836790  62.0435717 134.6554929  92.9300498  61.4743115 134.4998934
  93.8184331  62.0098381 135.6025564  79.0735418  66.9149119 130.3309649
  78.9381092  67.7600655 130.7594497  79.6145230  67.1168397 129.5675583
  72.5264815  64.4324557 130.9037574  73.0389336  65.2267808 131.0543139
  73.1787528  63.7350848 130.8371175  74.3359700  67.5490314 132.9860327
  74.5126328  68.4708278 132.7981311  75.1316533  67.2348733 133.4154707
  78.4770718  54.4098578 144.5844261  79.2180432  55.0105731 144.5048723
  78.7088641  53.6676216 144.0262303  73.6212056  59.5954945 142.8622490
  73.5065571  58.6940203 143.1629589  72.7656574  59.8418642 142.5107307
  80.7003894  67.5372686 144.4609991  80.2567748  66.7509064 144.1430895
  81.3621108  67.7251836 143.7953882  75.4591015  69.0668487 138.9870669
  76.0098440  68.9385551 138.2147663  74.6202491  69.3663376 138.6365562
  82.7985132  67.8175486 142.4891392  82.7803607  68.6384367 141.9971661
  83.7205052  67.6929561 142.7141533  79.2558186  65.3319615 143.3314900
  79.7886523  64.5707903 143.1014208  78.7272267  65.0393267 144.0739055
  82.4227881  50.4379681 138.8608542  82.0792151  51.3281323 138.7847653
  82.7906844  50.2481339 137.9978127  70.4913732  62.7613212 131.6797144
  71.3288954  63.1710220 131.4630852  70.6691999  61.8212654 131.6497338
  82.3878164  60.4288292 127.3680977  81.8724787  61.1992897 127.6069365
  82.1155472  59.7553428 127.9914039  79.9725275  55.2737993 132.4266216
  79.1166871  54.8844843 132.2471854  80.3852227  55.3529954 131.5666001
  81.5024422  52.8084336 136.8257775  80.9989217  52.7714471 136.0125581
  81.7955028  53.7177079 136.8854432  77.7467307  52.8923066 135.8323957
  78.6120304  52.6965875 135.4729847  77.8144816  52.6633418 136.7593314
  87.3612438  63.1820647 129.3034151  86.5841881  62.8431806 128.8589313
  88.0403919  63.1873270 128.6289116  82.1764467  58.3015384 129.1940759
  81.8714603  58.6161534 130.0450902  83.1294909  58.3796804 129.2368092
  80.6210899  64.4605608 130.8433713  80.0932260  63.7258367 130.5306950
  80.1198402  65.2380284 130.5973681  85.6003745  62.6554628 135.9600759
  84.9427419  63.3453890 136.0480887  86.4044144  63.0451060 136.3034745
  75.3529627  55.1225274 133.2040324  75.9273378  54.9000455 132.4713517
  75.9400609  55.1913968 133.9568925  84.4109204  61.0099001 134.0104701
  84.9241085  61.6428993 134.5126410  85.0610428  60.4100196 133.6448061
  75.6799214  57.1529735 127.2236209  74.8436526  57.4904422 127.5445484
  75.5403983  57.0178715 126.2863346  77.6552294  51.9966523 131.9315393
  77.0016707  51.6815540 131.3072008  77.6132768  51.3742263 132.6575216
  78.7663499  62.2785818 123.8468686  77.8590561  62.0475071 124.0459835
  79.2634531  61.4823437 124.0342667  81.6731578  70.9883325 126.7665372
  80.9993277  71.2915022 127.3750330  82.0597400  71.7912405 126.4170829
  80.8890035  58.4848456 136.2563041  79.9712596  58.7063403 136.0984729
  81.3050178  58.5594767 135.3974748  81.6725082  59.8839872 131.3865721
  82.4196901  60.3961269 131.0772843  81.9416672  59.5623925 132.2470115
  79.9451733  62.3798413 128.3692676  79.0362952  62.0957446 128.4665145
  79.9746816  62.7997491 127.5095982  85.1771000  65.9905002 132.1383843
  84.7233327  65.1495912 132.1949034  84.5464967  66.6266401 132.4758623
  84.1203920  56.9196988 133.3684511  83.3826676  56.4074375 133.6994753
  84.3730693  56.4797370 132.5567788  83.6203939  67.8281499 133.0733661
  83.9126914  68.3886556 132.3546027  84.1302560  68.1210060 133.8286820
  84.2215547  49.6973240 133.9626280  84.5274424  48.8370604 133.6752195
  84.9468152  50.2890861 133.7625274  70.5139903  60.1003927 132.3507878
  70.3164303  59.5073288 131.6258944  69.9586567  59.7956137 133.0683817
  78.4936627  59.9927033 134.4702471  78.5485236  59.0400870 134.3944948
  77.6827829  60.1486472 134.9543769  79.6427820  63.9207156 125.7080754
  79.2047250  63.2043015 125.2486392  80.3838261  64.1483271 125.1465846
  76.4328986  58.6104093 132.2292850  75.6196852  58.9098264 132.6358042
  76.9287981  58.2159782 132.9467332  78.5837564  68.6061850 134.1627115
  78.5413743  68.8322696 133.2335647  79.5000263  68.3725225 134.3112916
  82.0303198  59.0745918 141.0607744  82.3852586  59.3017391 141.9202210
  82.6775329  59.4064294 140.4384999  87.7600935  62.1964354 131.7657073
  87.6218834  62.3865949 130.8378262  87.4037154  62.9583736 132.2225124
  75.9243061  56.1822449 137.8454085  76.5642441  56.0411208 137.1477048
  75.0920592  55.8956962 137.4692687  87.7870315  64.2640881 136.7768344
  88.2206821  64.1716170 137.6251398  88.5001895  64.2398381 136.1388360
  76.7003365  65.4824879 133.9589077  77.4943964  64.9875199 133.7571652
  75.9895058  64.9542742 133.5956783  81.5198210  67.8642975 138.3101445
  81.5735232  68.4333911 139.0779161  80.6512991  68.0344860 137.9455482
  73.0086129  59.6267961 130.0348830  72.0783717  59.5652416 130.2518792
  73.1043601  59.1043914 129.2385471  72.9271678  56.1522774 132.6227072
  73.1878495  57.0668107 132.5136232  73.7488850  55.6847216 132.7723684
  74.3996603  57.5660531 139.7925896  75.0719656  57.3577893 139.1438545
  73.5726390  57.3682617 139.3531128  88.6485864  64.3064581 139.3101230
  88.8421754  65.2110392 139.5560505  88.5486482  63.8472000 140.1439815
  80.3022175  54.1922472 141.8091557  79.6550090  54.8912421 141.7156033
  81.0723190  54.6258616 142.1767805  83.7100973  64.4571324 144.8842110
  83.5586479  64.2281876 143.9672194  83.7005652  65.4141925 144.8973455
  80.4786309  62.0303237 139.8688377  81.4078369  62.1814396 139.6957344
  80.0577339  62.1187257 139.0137023  79.2774641  66.0553901 137.6386914
  79.1385727  65.6872685 138.5112852  78.4889237  66.5701541 137.4670872
  79.8722793  71.1562998 128.9812451  80.0474549  70.6851041 129.7958074
  79.1855581  71.7828764 129.2093712  80.8279856  65.4335504 135.0275752
  80.4929689  65.3936274 135.9233402  80.3283802  64.7680220 134.5546162
  74.8024100  60.8403134 140.5528333  74.6643898  60.1083373 141.1539872
  75.7129024  60.7512034 140.2712521  83.7639048  62.7791538 125.3012812
  83.1468219  62.0538366 125.2045864  83.2955536  63.5400898 124.9579886
  77.4306401  60.5523093 140.0412013  78.1406019  59.9116285 139.9998631
  77.3875709  60.8035988 140.9638194  85.4193180  67.4890446 142.9618592
  85.3605726  66.8049667 142.2949175  85.8212698  68.2309436 142.5099218
  76.1435335  57.5388311 141.8607652  75.6072692  57.0879049 142.5129249
  75.5552043  57.6734220 141.1178117  74.4383878  74.3052360 135.7552311
  74.6780477  74.9370884 136.4331330  73.5953075  73.9540400 136.0417670
  75.5537594  56.9976962 124.4234116  74.6767060  56.8765763 124.0596363
  76.0295347  56.2063041 124.1713005  85.4210587  65.4530030 141.1932572
  84.5337366  65.1155952 141.3158971  85.9909138  64.7213062 141.4301337
  67.0739734  61.7854122 134.5175623  67.7610774  61.4715852 133.9296639
  66.9187863  62.6895487 134.2442875  71.8774456  56.6744319 138.9460647
  71.7932645  56.0669988 138.2111057  71.0557163  57.1653337 138.9470143
  78.9511740  70.1131483 138.1593815  78.8781912  70.9186454 138.6713120
  78.5089133  70.3123449 137.3341836  78.7401520  69.3503253 131.6696637
  77.9569042  69.8924933 131.7634861  79.4394265  69.8677232 132.0690878
  82.0498170  55.1597882 134.3130842  82.5466870  54.4067845 133.9931912
  81.2785152  55.1962199 133.7474051  89.9027927  60.8638248 135.9549133
  89.8917804  61.7462963 135.5843067  89.0345307  60.5109799 135.7603671
  81.4110424  70.0118317 140.3151974  82.1238396  70.6465782 140.2427875
  80.9200452  70.1082183 139.4991976  83.1327951  63.9169569 131.8869265
  82.1984229  64.0371032 131.7173970  83.3104619  63.0142036 131.6229275
  78.6333139  57.3015265 134.0402527  78.2630926  56.7486306 134.7283432
  79.1292231  56.6973399 133.4877527  86.5200502  59.7586889 132.4219300
  86.9860954  60.5914880 132.3479602  86.9708003  59.2931870 133.1264558
  76.4622337  67.7612760 141.1357545  77.1631797  68.3949243 141.2886939
  75.9917452  68.1027492 140.3753184  84.5876733  66.1030710 129.4205452
  84.8636577  65.9887305 130.3299326  83.7181232  65.7048195 129.3817625
  84.4917165  52.1267476 136.4610201  83.5780245  52.3571703 136.6292408
  84.9210266  52.2105920 137.3124233  84.2623623  60.3157368 138.9610095
  83.6095074  60.5633275 138.3062548  84.6404003  59.5021506 138.6272572
  81.2230797  70.3517061 133.0638265  81.4053192  69.5338717 133.5266018
  82.0463783  70.5684753 132.6263155  81.5572963  69.2785246 130.3253314
  82.0860729  68.7677701 129.7123476  81.8201182  68.9627776 131.1898847
  80.3111196  61.0577179 145.4476132  79.6351833  60.9571308 146.1178507
  81.1338830  60.9016392 145.9112129  72.0590055  67.2949115 138.0688647
  72.6443492  66.5492803 138.2016551  71.8614894  67.6053072 138.9525311
  74.9128711  70.3300363 133.0851090  74.2439086  70.8146490 132.6015130
  74.7741580  70.5769583 133.9994468  66.6507710  59.8654716 136.7893090
  66.6891810  59.3318306 137.5830208  66.1448003  59.3389921 136.1704068
  79.0533979  72.3644106 139.6833748  79.6052287  72.5275728 140.4482833
  79.3940173  72.9548544 139.0113773  74.0298472  54.7119256 140.2855633
  74.0939799  55.5734087 139.8733030  73.9665593  54.0993258 139.5527991
  73.5050745  56.7842389 143.9328667  74.1322784  56.4019466 144.5466191
  72.6478664  56.5656590 144.2984359  83.9044854  67.1905364 145.5382402
  84.4484757  67.8035322 145.0437357  83.3231698  67.7484942 146.0549415
  70.2816288  58.5918818 129.8647022  70.5769729  57.6829496 129.8114075
  69.3804323  58.5706557 129.5428024  82.1902366  70.3126082 136.6697430
  82.0653506  69.5115822 136.1608376  82.8481458  70.8072275 136.1811400
  73.8110535  56.6674814 135.8474570  73.0897120  57.2810782 135.7082044
  74.6003790  57.2032579 135.7691216  84.2537275  68.1135102 138.2976980
  83.3067610  67.9940453 138.2255307  84.6020048  67.2257600 138.3803242
  76.6136848  54.0029241 142.1215222  77.1371250  54.2491537 142.8841531
  76.3949181  54.8349276 141.7018359  72.0104129  56.2732915 129.9886347
  71.6816835  55.3930294 129.8061453  72.3643500  56.2180584 130.8762736
  81.2583708  67.9087818 134.4981332  81.1108671  66.9804525 134.6788902
  82.0837202  67.9307909 134.0138408  75.1245952  56.5605885 130.3561825
  75.4642025  57.0891806 129.6340433  75.5718073  56.8986291 131.1320391
  84.8617830  68.7316377 135.5846205  85.7864377  68.5259238 135.4470656
  84.6933133  68.4832778 136.4935547  77.8189393  54.9442936 139.8064893
  77.4786214  54.1450749 140.2085573  77.1128400  55.2444647 139.2341726
  78.4705865  52.0292248 138.2592216  79.2931934  51.5552726 138.1371106
  78.7143929  52.8082732 138.7590902  77.1114100  55.0580507 128.5555117
  77.8322462  55.4361759 128.0518834  76.4879404  55.7769384 128.6590095
  81.2545222  55.7625656 129.4913450  81.4708837  56.6450294 129.1902278
  80.7739290  55.3711869 128.7619092  75.9944444  58.7211369 136.0684194
  75.8489025  59.0351672 136.9608476  75.5169647  59.3396269 135.5155093
  77.8540827  55.7113917 136.1165084  77.8402395  54.8155010 135.7797382
  78.5713255  55.7184581 136.7503370  79.7066957  56.1451257 138.1618211
  79.4484735  57.0668328 138.1602542  79.1751998  55.7481692 138.8518675
  84.6513146  69.2502044 130.9408297  84.8250024  68.6848467 130.1882149
  85.1442037  70.0502939 130.7587787  70.4690106  61.2616713 139.0071855
  69.9243574  62.0376521 139.1392130  71.3469456  61.6087518 138.8490977
  77.2577723  54.5928297 131.3852654  77.3793634  53.6644943 131.5843541
  76.9679765  54.6066983 130.4730969  80.1268913  52.2783208 134.5219374
  80.1490610  52.3422541 133.5671353  80.5436972  51.4387716 134.7159880
  90.5052537  62.0138467 132.5598596  90.9483683  61.2645792 132.1617720
  89.6279048  62.0048604 132.1772328  85.6388319  68.5668809 128.0405195
  86.3339223  69.1875501 128.2592510  85.9811469  67.7164160 128.3157573
  71.2556128  60.3886610 141.9002012  70.5137864  60.5369245 142.4866643
  70.9348872  60.6494875 141.0368762  87.5379742  66.0168514 129.5692526
  88.0631066  66.3555787 128.8441846  87.4502094  65.0815529 129.3855660
  79.1999791  69.9302588 141.6982402  79.5086917  69.6851735 142.5705102
  79.9975273  70.1349226 141.2101273  79.2220403  72.0840497 133.9287779
  78.7825393  71.5916876 134.6220636  79.9728520  71.5413465 133.6879854
  71.7012742  68.2752038 133.9312407  72.5270761  67.9755810 133.5511050
  71.3506794  67.5059661 134.3802196  76.6694275  67.6278507 136.0010081
  76.0474284  66.9649212 135.7012308  77.3399142  67.6539638 135.3183728
  69.9021347  66.1938365 134.8901341  69.0653255  65.7660539 134.7085342
  69.8744992  66.3870808 135.8272132  76.7418802  56.1060295 145.5942587
  76.7906958  56.9822417 145.2120356  77.2841316  55.5637688 145.0214230
  87.2273648  66.6501418 144.8743724  86.4369192  66.6325557 144.3348223
  86.9907002  67.1889711 145.6292760  87.3471523  63.4993884 142.1876452
  87.3969528  63.3343892 143.1291975  87.2385446  62.6321143 141.7974333
  76.2307782  66.1782430 129.4768541  76.3795902  66.8617894 128.8235214
  77.0374225  66.1587520 129.9917997  84.6375285  59.4824812 143.5035759
  85.5385148  59.3431277 143.2119757  84.7123260  59.6479267 144.4433936
  78.9718091  56.8591667 142.3488945  78.1021400  57.1525233 142.0771534
  79.2077571  57.4432112 143.0696209  88.8489720  65.9190826 142.4318474
  88.5574528  66.2820806 143.2681935  88.2361851  65.2057834 142.2531806
  90.0485402  63.4843705 134.9521044  90.8832293  63.9233510 135.1158604
  90.1844531  63.0082359 134.1329290  87.0976908  61.0423440 140.8998532
  87.5731030  61.2351087 140.0917383  86.1742473  61.0982626 140.6541915
  73.9860415  62.2047607 130.4829610  73.7406457  61.3009937 130.6809820
  74.1556329  62.2064758 129.5409088  81.6757124  53.0771284 139.8654366
  82.1939068  53.8132311 139.5400854  81.3212257  53.3835277 140.7001125
  73.2556062  57.9375965 127.9815771  72.5625307  58.0120320 127.3255807
  73.0107814  57.1736309 128.5037288  81.9269719  49.4971566 135.3855262
  82.2071472  48.8294755 136.0115689  82.7120326  49.6900662 134.8729926
  79.7303187  68.6730560 126.9480289  79.1577154  69.2920747 126.4950760
  80.3035981  69.2229922 127.4820210  85.7978577  57.9189200 139.1326837
  86.7496000  58.0187298 139.1539061  85.6282027  57.1267469 139.6424922
  83.8192956  55.0044784 139.3186238  83.2242889  55.2849796 138.6232727
  83.5342653  55.4938685 140.0902979  82.9500447  68.9567710 128.0788871
  83.8831120  68.8913272 128.2821746  82.8623660  69.7923977 127.6203403
  85.5788464  68.2733581 125.0392818  85.5002095  67.9393444 125.9328576
  86.3998130  68.7655349 125.0384291  88.2766655  61.1395320 138.2469137
  88.2442975  60.2011321 138.4328821  88.8867278  61.2179357 137.5134962
  80.1149986  60.0091373 124.2896341  81.0609090  59.8797581 124.3584759
  79.7364231  59.2706035 124.7665769  88.4261143  57.9306364 138.2927420
  87.9100192  57.1464820 138.1057349  89.3101092  57.6025080 138.4573940
  86.0871870  51.6747379 134.2523233  85.8896691  51.3662467 135.1366565
  86.6971576  52.4009018 134.3821163  94.0943205  62.2011327 137.3875174
  94.8246593  61.9396615 137.9482877  93.4850150  61.4640049 137.4277242
  92.1758502  60.3419190 137.9849625  91.4491665  60.2075154 137.3766117
  91.7605789  60.6496018 138.7906343  79.9988678  64.0609119 145.7496998
  80.9191688  64.2387718 145.9437045  79.9638261  63.1165165 145.5976697
  78.2992903  57.9341349 124.2251226  77.3924358  57.6374462 124.3013940
  78.5768884  57.6371168 123.3585512  69.2170843  59.2547713 134.6750273
  68.8973628  58.4013021 134.3824647  68.6704271  59.4696291 135.4308240
  72.9950751  61.9710154 138.3919779  73.2136761  62.9027262 138.4107813
  73.4076525  61.6118128 139.1774583  79.9154969  52.4778239 130.3795468
  79.1055697  52.1325324 130.7550714  80.6039385  52.1685783 130.9683079
  81.8445517  51.5556286 132.0019764  82.3976555  51.9751739 132.6609787
  82.0815603  50.6292034 132.0442720  77.8678616  57.5443360 147.7822528
  77.7675343  58.4937717 147.7134619  77.6500158  57.2161599 146.9098598
  77.0691687  54.7928285 124.3663205  77.9310851  55.1183183 124.6259023
  77.2542032  54.0059781 123.8536271  69.0859103  62.8750624 136.6443394
  68.3922575  62.4604577 136.1313349  69.8332094  62.9171161 136.0476813
  85.2224324  53.6656811 131.5098428  84.6422993  54.3241615 131.1276481
  84.9560257  52.8434156 131.0985846  83.6727890  53.0661869 133.7119749
  84.1727669  53.1778403 132.9034068  84.3163498  52.7622922 134.3520557
  77.7309886  60.9740498 146.5987590  77.2476968  61.7740859 146.8051479
  77.8170825  60.9848443 145.6455034  70.9995846  62.8068878 134.5209409
  70.9766534  62.9056565 133.5691292  71.3096482  63.6534029 134.8426575
  73.6583224  64.8645033 138.6356024  74.6126477  64.8328975 138.5685955
  73.4595747  64.4035657 139.4506249  74.2482606  63.4346149 141.2026821
  75.0675495  63.9290228 141.2261658  74.5219413  62.5178117 141.1744389
  84.0049202  55.8256902 130.5654777  83.1175057  56.1106552 130.3474971
  84.4203191  55.6650665 129.7182054  87.3563738  55.8503422 134.2809116
  88.1324128  56.3399875 134.5533733  86.6311872  56.2761477 134.7380985
  89.7936297  56.5631042 135.3383057  90.3880787  56.3226778 134.6276365
  89.8662880  55.8438172 135.9656593  72.0133452  70.4064653 135.6526221
  71.8787920  69.6465054 135.0864219  71.5965515  71.1305553 135.1855010
  83.1492415  65.5901576 124.6602797  83.8528266  65.7951579 125.2760452
  82.4255064  66.1578338 124.9251880  83.9790226  61.3411437 130.7805067
  83.9225427  61.7979989 129.9412699  84.5318568  60.5802122 130.6027910
  87.7895032  57.1301169 131.6055186  87.5331966  56.7297805 132.4363394
  87.1647900  57.8444963 131.4805326  92.1007369  59.8697243 134.1126478
  91.5406927  59.9390432 134.8858040  91.4950873  59.6938227 133.3925974
  75.1702578  71.3033970 135.8644664  75.0534962  72.2479402 135.7623354
  74.3495025  71.0007531 136.2530463  85.0579113  66.0284105 126.7101257
  85.8924717  65.5965304 126.5278732  84.8963456  65.8566119 127.6378151
  84.7125005  62.5316219 128.0757596  84.6573809  62.3660490 127.1346040
  84.0871060  63.2392252 128.2319786  69.5017520  57.7684283 141.9019018
  70.1476384  57.2583237 142.3906243  69.2934671  58.5052965 142.4762443
  82.0270912  64.8365131 147.4011159  82.8962072  65.0105783 147.0397794
  81.5477664  65.6559547 147.2786888  78.0221130  52.0324328 127.6542914
  78.0099800  52.9766168 127.8111185  78.9144552  51.8494473 127.3602376
  76.1957092  71.9562232 139.0800592  77.0984339  71.9885842 139.3967087
  75.9694462  71.0262683 139.0946928  77.9510694  70.7093218 135.7410671
  77.0006325  70.7095080 135.6275043  78.2543181  69.9625953 135.2246706
  81.8373250  48.6267104 131.9088851  81.0705646  48.0725591 132.0545534
  82.2483955  48.6988973 132.7703003  93.6863388  76.5453756 136.8056433
  94.3241798  76.4260504 136.1019774  93.5684231  77.4934600 136.8644386
  90.4953094  76.4981185 136.7417958  90.1571606  76.3822249 135.8538493
  91.3642862  76.0972350 136.7218964  86.3539910  78.3516661 132.7314849
  85.7904775  78.2606598 131.9631137  86.2392305  77.5316565 133.2117342
  83.9004342  79.8467853 135.5699070  84.6925634  79.5058677 135.1545369
  84.1400992  79.9562828 136.4901223  91.9339469  82.0187629 128.0429314
  91.2827448  82.6041709 127.6563328  92.7283831  82.5493824 128.1024351
  85.8595096  79.1076766 128.4416448  86.6325972  78.5605753 128.3029324
  86.2120495  79.9721015 128.6530910  88.6236345  77.8129997 138.2384707
  89.2199917  77.5886019 137.5241670  88.6811317  77.0714742 138.8410155
  88.1961374  75.2669432 126.0734898  88.4486894  74.7450953 125.3118361
  87.2585933  75.1035577 126.1761582  93.2404656  74.2705210 133.8809642
  94.0267746  73.8524634 133.5300059  93.5043361  75.1751303 134.0491290
  93.4114734  79.7078061 128.5798298  92.7760567  79.7812687 129.2919203
  93.0812140  80.2971659 127.9017378  98.6413084  74.2080444 134.7842620
  99.3738255  73.6379660 135.0180450  97.8852439  73.8202044 135.2249126
  87.9157662  77.1697538 128.2759273  87.7993920  76.4942441 128.9440358
  88.0259922  76.6829912 127.4591426  90.2589203  76.6307685 131.9805962
  89.8947410  76.1038306 132.6918884  91.1156319  76.2406154 131.8072448
  96.1638504  67.9202018 139.2437229  95.8321829  68.7897429 139.0198444
  95.5684117  67.6038302 139.9231259  89.8994690  71.6597585 126.9767311
  90.0669093  72.5277821 127.3437782  89.7091859  71.8224866 126.0528600
  86.1082505  76.5728360 134.6769846  85.1833001  76.4404575 134.8847538
  86.3566918  77.3522580 135.1739788  96.0567167  72.6397104 136.3230579
  95.1484045  72.5712512 136.0289340  96.0054763  73.1169049 137.1512404
  89.8783911  74.1155242 127.9613978  89.7583536  74.5612293 128.7999458
  89.1836499  74.4640560 127.4027516  83.4691316  76.2161634 135.5113635
  83.5983697  76.4696113 136.4253047  82.7888767  76.8089342 135.1918290
  87.6390803  86.8858884 131.6104109  87.5614833  87.8366709 131.6892590
  87.0352447  86.5404756 132.2679035  97.9228814  70.8413542 138.1008453
  97.2803194  71.1346075 137.4548247  97.4183742  70.7266463 138.9061649
  95.5768977  74.5876715 128.7894312  96.4886833  74.8204102 128.6142009
  95.0678624  75.1713760 128.2269390  90.2140815  73.9473950 139.7989161
  91.0602010  74.3713364 139.9423810  90.1539453  73.2907574 140.4927725
  92.9204952  70.7634751 137.0384173  92.0589431  71.0616005 137.3300910
  92.9467387  70.9805150 136.1065205  89.7366521  79.3076942 133.4457978
  90.2004867  79.5864645 132.6562601  89.4723320  78.4060387 133.2631069
  86.6290602  78.8548423 136.3837742  87.1991960  79.2835692 135.7455226
  87.2198714  78.5731008 137.0821927  88.6735407  75.4300094 130.2547544
  89.3759451  75.8821138 130.7221470  88.3416036  74.7883913 130.8827437
  82.4160741  73.6883647 135.5564677  81.6259795  73.9441176 135.0804788
  82.9071989  74.5031985 135.6616718  84.3675487  74.0528226 132.5148154
  83.5706650  74.1646920 133.0331650  84.1401079  74.3914878 131.6489044
  80.6998444  73.9414137 137.9879668  80.9506483  74.8261147 138.2537244
  81.2357993  73.7618739 137.2154760  89.9129172  82.2441037 130.3309649
  89.7774847  83.0892573 130.7594497  90.4538985  82.4460315 129.5675583
  83.3658569  79.7616475 130.9037574  83.8783090  80.5559725 131.0543139
  84.0181282  79.0642765 130.8371175  85.1753454  82.8782231 132.9860327
  85.3520083  83.8000196 132.7981311  85.9710288  82.5640650 133.4154707
  84.4605811  74.9246863 142.8622490  84.3459326  74.0232120 143.1629589
  83.6050328  75.1710560 142.5107307  93.2621636  65.7671599 138.8608542
  92.9185905  66.6573241 138.7847653  93.6300598  65.5773256 137.9978127
  81.3307486  78.0905129 131.6797144  82.1682708  78.5002138 131.4630852
  81.5085754  77.1504571 131.6497338  93.2271918  75.7580210 127.3680977
  92.7118542  76.5284815 127.6069365  92.9549227  75.0845346 127.9914039
  90.8119029  70.6029911 132.4266216  89.9560626  70.2136761 132.2471854
  91.2245981  70.6821872 131.5666001  92.3418176  68.1376254 136.8257775
  91.8382972  68.1006389 136.0125581  92.6348783  69.0468997 136.8854432
  88.5861062  68.2214984 135.8323957  89.4514059  68.0257792 135.4729847
  88.6538571  67.9925335 136.7593314  98.2006193  78.5112565 129.3034151
  97.4235635  78.1723724 128.8589313  98.8797673  78.5165188 128.6289116
  93.0158222  73.6307302 129.1940759  92.7108357  73.9453451 130.0450902
  93.9688664  73.7088722 129.2368092  91.4604653  79.7897525 130.8433713
  90.9326015  79.0550285 130.5306950  90.9592156  80.5672202 130.5973681
  86.1923381  70.4517192 133.2040324  86.7667133  70.2292373 132.4713517
  86.7794363  70.5205886 133.9568925  95.2502958  76.3390919 134.0104701
  95.7634840  76.9720910 134.5126410  95.9004182  75.7392114 133.6448061
  86.5192968  72.4821653 127.2236209  85.6830280  72.8196339 127.5445484
  86.3797738  72.3470632 126.2863346  88.4946049  67.3258441 131.9315393
  87.8410461  67.0107458 131.3072008  88.4526523  66.7034181 132.6575216
  89.6057254  77.6077736 123.8468686  88.6984315  77.3766989 124.0459835
  90.1028286  76.8115355 124.0342667  92.5125332  86.3175243 126.7665372
  91.8387031  86.6206940 127.3750330  92.8991154  87.1204323 126.4170829
  91.7283789  73.8140374 136.2563041  90.8106350  74.0355321 136.0984729
  92.1443933  73.8886685 135.3974748  92.5118837  75.2131790 131.3865721
  93.2590656  75.7253187 131.0772843  92.7810426  74.8915842 132.2470115
  90.7845487  77.7090330 128.3692676  89.8756706  77.4249363 128.4665145
  90.8140571  78.1289409 127.5095982  96.0164754  81.3196920 132.1383843
  95.5627082  80.4787830 132.1949034  95.3858721  81.9558318 132.4758623
  94.9597674  72.2488906 133.3684511  94.2220431  71.7366292 133.6994753
  95.2124448  71.8089288 132.5567788  94.4597694  83.1573417 133.0733661
  94.7520668  83.7178474 132.3546027  94.9696314  83.4501978 133.8286820
  95.0609301  65.0265158 133.9626280  95.3668178  64.1662521 133.6752195
  95.7861906  65.6182778 133.7625274  81.3533657  75.4295845 132.3507878
  81.1558057  74.8365205 131.6258944  80.7980321  75.1248055 133.0683817
  89.3330381  75.3218951 134.4702471  89.3878991  74.3692787 134.3944948
  88.5221583  75.4778390 134.9543769  90.4821575  79.2499074 125.7080754
  90.0441005  78.5334933 125.2486392  91.2232016  79.4775189 125.1465846
  87.2722741  73.9396011 132.2292850  86.4590607  74.2390181 132.6358042
  87.7681735  73.5451700 132.9467332  89.4231319  83.9353768 134.1627115
  89.3807498  84.1614614 133.2335647  90.3394018  83.7017142 134.3112916
  98.5994690  77.5256271 131.7657073  98.4612588  77.7157867 130.8378262
  98.2430908  78.2875654 132.2225124  86.7636816  71.5114366 137.8454085
  87.4036195  71.3703125 137.1477048  85.9314346  71.2248880 137.4692687
  87.5397120  80.8116797 133.9589077  88.3337718  80.3167117 133.7571652
  86.8288812  80.2834660 133.5956783  83.8479883  74.9559879 130.0348830
  82.9177471  74.8944334 130.2518792  83.9437355  74.4335831 129.2385471
  83.7665432  71.4814691 132.6227072  84.0272249  72.3960025 132.5136232
  84.5882604  71.0139134 132.7723684  85.2390357  72.8952449 139.7925896
  85.9113411  72.6869811 139.1438545  84.4120144  72.6974535 139.3531128
  91.1415930  69.5214389 141.8091557  90.4943845  70.2204339 141.7156033
  91.9116945  69.9550533 142.1767805  90.7116548  86.4854915 128.9812451
  90.8868303  86.0142958 129.7958074  90.0249336  87.1120681 129.2093712
  91.6673611  80.7627421 135.0275752  91.3323443  80.7228191 135.9233402
  91.1677556  80.0972137 134.5546162  85.6417855  76.1695051 140.5528333
  85.5037653  75.4375290 141.1539872  86.5522778  76.0803952 140.2712521
  94.6032802  78.1083456 125.3012812  93.9861973  77.3830284 125.2045864
  94.1349291  78.8692816 124.9579886  88.2700155  75.8815011 140.0412013
  88.9799774  75.2408203 139.9998631  88.2269464  76.1327906 140.9638194
  86.9829089  72.8680229 141.8607652  86.4466446  72.4170967 142.5129249
  86.3945798  73.0026138 141.1178117  86.3931348  72.3268880 124.4234116
  85.5160815  72.2057681 124.0596363  86.8689101  71.5354958 124.1713005
  77.9133488  77.1146040 134.5175623  78.6004528  76.8007770 133.9296639
  77.7581617  78.0187404 134.2442875  82.7168211  72.0036236 138.9460647
  82.6326399  71.3961906 138.2111057  81.8950917  72.4945255 138.9470143
  89.5795274  84.6795170 131.6696637  88.7962796  85.2216851 131.7634861
  90.2788020  85.1969150 132.0690878  92.8891924  70.4889800 134.3130842
  93.3860624  69.7359762 133.9931912  92.1178906  70.5254117 133.7474051
  93.9721705  79.2461487 131.8869265  93.0377984  79.3662950 131.7173970
  94.1498374  78.3433954 131.6229275  89.4726893  72.6307183 134.0402527
  89.1024681  72.0778223 134.7283432  89.9685986  72.0265316 133.4877527
  97.3594257  75.0878806 132.4219300  97.8254709  75.9206798 132.3479602
  97.8101757  74.6223788 133.1264558  95.4270488  81.4322628 129.4205452
  95.7030332  81.3179222 130.3299326  94.5574986  81.0340113 129.3817625
  95.3310919  67.4559393 136.4610201  94.4173999  67.6863620 136.6292408
  95.7604021  67.5397837 137.3124233  92.0624552  85.6808979 133.0638265
  92.2446946  84.8630634 133.5266018  92.8857538  85.8976671 132.6263155
  92.3966717  84.6077164 130.3253314  92.9254484  84.0969618 129.7123476
  92.6594937  84.2919694 131.1898847  82.8983810  82.6241033 138.0688647
  83.4837247  81.8784721 138.2016551  82.7008648  82.9344990 138.9525311
  85.7522465  85.6592280 133.0851090  85.0832840  86.1438408 132.6015130
  85.6135335  85.9061501 133.9994468  77.4901465  75.1946633 136.7893090
  77.5285564  74.6610224 137.5830208  76.9841757  74.6681839 136.1704068
  84.8692227  70.0411174 140.2855633  84.9333553  70.9026005 139.8733030
  84.8059347  69.4285175 139.5527991  84.3444499  72.1134306 143.9328667
  84.9716538  71.7311384 144.5466191  83.4872418  71.8948508 144.2984359
  81.1210042  73.9210735 129.8647022  81.4163483  73.0121414 129.8114075
  80.2198078  73.8998475 129.5428024  84.6504289  71.9966732 135.8474570
  83.9290875  72.6102700 135.7082044  85.4397545  72.5324497 135.7691216
  87.4530603  69.3321158 142.1215222  87.9765005  69.5783455 142.8841531
  87.2342936  70.1641193 141.7018359  82.8497884  71.6024833 129.9886347
  82.5210590  70.7222212 129.8061453  83.2037254  71.5472502 130.8762736
  92.0977463  83.2379736 134.4981332  91.9502425  82.3096443 134.6788902
  92.9230956  83.2599826 134.0138408  85.9639707  71.8897803 130.3561825
  86.3035779  72.4183724 129.6340433  86.4111827  72.2278209 131.1320391
  88.6583148  70.2734854 139.8064893  88.3179968  69.4742667 140.2085573
  87.9522154  70.5736564 139.2341726  89.3099620  67.3584166 138.2592216
  90.1325689  66.8844644 138.1371106  89.5537683  68.1374650 138.7590902
  87.9507854  70.3872424 128.5555117  88.6716217  70.7653677 128.0518834
  87.3273158  71.1061301 128.6590095  92.0938977  71.0917573 129.4913450
  92.3102591  71.9742211 129.1902278  91.6133044  70.7003787 128.7619092
  86.8338198  74.0503287 136.0684194  86.6882779  74.3643590 136.9608476
  86.3563402  74.6688187 135.5155093  88.6934581  71.0405835 136.1165084
  88.6796150  70.1446928 135.7797382  89.4107009  71.0476498 136.7503370
  90.5460712  71.4743175 138.1618211  90.2878490  72.3960245 138.1602542
  90.0145752  71.0773609 138.8518675  95.4906901  84.5793962 130.9408297
  95.6643778  84.0140384 130.1882149  95.9835792  85.3794857 130.7587787
  81.3083860  76.5908631 139.0071855  80.7637329  77.3668439 139.1392130
  82.1863210  76.9379435 138.8490977  88.0971477  69.9220215 131.3852654
  88.2187388  68.9936861 131.5843541  87.8073520  69.9358901 130.4730969
  90.9662668  67.6075125 134.5219374  90.9884364  67.6714458 133.5671353
  91.3830727  66.7679634 134.7159880 101.3446292  77.3430385 132.5598596
 101.7877438  76.5937710 132.1617720 100.4672802  77.3340521 132.1772328
  96.4782073  83.8960726 128.0405195  97.1732978  84.5167419 128.2592510
  96.8205223  83.0456078 128.3157573  82.0949882  75.7178527 141.9002012
  81.3531618  75.8661163 142.4866643  81.7742627  75.9786793 141.0368762
  98.3773496  81.3460432 129.5692526  98.9024820  81.6847705 128.8441846
  98.2895849  80.4107447 129.3855660  82.5406496  83.6043956 133.9312407
  83.3664516  83.3047728 133.5511050  82.1900548  82.8351578 134.3802196
  87.5088029  82.9570424 136.0010081  86.8868038  82.2941129 135.7012308
  88.1792896  82.9831556 135.3183728  80.7415101  81.5230282 134.8901341
  79.9047009  81.0952457 134.7085342  80.7138747  81.7162726 135.8272132
  87.0701536  81.5074348 129.4768541  87.2189656  82.1909812 128.8235214
  87.8767980  81.4879438 129.9917997  84.8254169  77.5339525 130.4829610
  84.5800211  76.6301855 130.6809820  84.9950084  77.5356676 129.5409088
  92.5150879  68.4063202 139.8654366  93.0332823  69.1424228 139.5400854
  92.1606012  68.7127195 140.7001125  84.0949817  73.2667883 127.9815771
  83.4019062  73.3412238 127.3255807  83.8501569  72.5028226 128.5037288
  92.7663473  64.8263484 135.3855262  93.0465227  64.1586673 136.0115689
  93.5514080  65.0192580 134.8729926  90.5696942  84.0022478 126.9480289
  89.9970909  84.6212665 126.4950760  91.1429735  84.5521840 127.4820210
  94.6586711  70.3336701 139.3186238  94.0636643  70.6141714 138.6232727
  94.3736408  70.8230602 140.0902979  93.7894201  84.2859628 128.0788871
  94.7224875  84.2205190 128.2821746  93.7017414  85.1215895 127.6203403
  96.4182218  83.6025498 125.0392818  96.3395850  83.2685362 125.9328576
  97.2391885  84.0947266 125.0384291  90.9543740  75.3383291 124.2896341
  91.9002845  75.2089499 124.3584759  90.5757985  74.5997953 124.7665769
  96.9265625  67.0039297 134.2523233  96.7290446  66.6954385 135.1366565
  97.5365330  67.7300936 134.3821163  89.1386657  73.2633267 124.2251226
  88.2318113  72.9666380 124.3013940  89.4162638  72.9663085 123.3585512
  80.0564598  74.5839631 134.6750273  79.7367382  73.7304939 134.3824647
  79.5098026  74.7988209 135.4308240  83.8344505  77.3002072 138.3919779
  84.0530515  78.2319179 138.4107813  84.2470279  76.9410046 139.1774583
  90.7548723  67.8070157 130.3795468  89.9449451  67.4617242 130.7550714
  91.4433140  67.4977701 130.9683079  92.6839271  66.8848204 132.0019764
  93.2370310  67.3043657 132.6609787  92.9209358  65.9583952 132.0442720
  87.9085442  70.1220202 124.3663205  88.7704606  70.4475101 124.6259023
  88.0935786  69.3351698 123.8536271  79.9252858  78.2042542 136.6443394
  79.2316329  77.7896495 136.1313349  80.6725849  78.2463079 136.0476813
  96.0618078  68.9948729 131.5098428  95.4816747  69.6533533 131.1276481
  95.7954011  68.1726073 131.0985846  94.5121645  68.3953787 133.7119749
  95.0121423  68.5070321 132.9034068  95.1557253  68.0914839 134.3520557
  81.8389600  78.1360796 134.5209409  81.8160288  78.2348483 133.5691292
  82.1490237  78.9825947 134.8426575  84.4976978  80.1936951 138.6356024
  85.4520232  80.1620893 138.5685955  84.2989502  79.7327575 139.4506249
  94.8442956  71.1548819 130.5654777  93.9568811  71.4398470 130.3474971
  95.2596945  70.9942583 129.7182054  98.1957493  71.1795340 134.2809116
  98.9717883  71.6691793 134.5533733  97.4705627  71.6053394 134.7380985
 100.6330051  71.8922959 135.3383057 101.2274542  71.6518695 134.6276365
 100.7056635  71.1730090 135.9656593  82.8527207  85.7356570 135.6526221
  82.7181675  84.9756971 135.0864219  82.4359269  86.4597470 135.1855010
  93.9886170  80.9193494 124.6602797  94.6922020  81.1243496 125.2760452
  93.2648819  81.4870256 124.9251880  94.8183980  76.6703355 130.7805067
  94.7619182  77.1271907 129.9412699  95.3712323  75.9094040 130.6027910
  98.6288786  72.4593087 131.6055186  98.3725720  72.0589723 132.4363394
  98.0041654  73.1736881 131.4805326 102.9401124  75.1989160 134.1126478
 102.3800682  75.2682350 134.8858040 102.3344627  75.0230145 133.3925974
  95.8972867  81.3576023 126.7101257  96.7318471  80.9257222 126.5278732
  95.7357210  81.1858037 127.6378151  95.5518759  77.8608136 128.0757596
  95.4967563  77.6952408 127.1346040  94.9264815  78.5684169 128.2319786
  80.3411274  73.0976201 141.9019018  80.9870138  72.5875155 142.3906243
  80.1328426  73.8344882 142.4762443  88.8614885  67.3616245 127.6542914
  88.8493555  68.3058085 127.8111185  89.7538307  67.1786391 127.3602376
  92.6767004  63.9559022 131.9088851  91.9099400  63.4017509 132.0545534
  93.0877709  64.0280891 132.7703003  99.0355128  90.5961350 126.0734898
  99.2880649  90.0742871 125.3118361  98.0979687  90.4327495 126.1761582
 100.7388445  86.9889502 126.9767311 100.9062847  87.8569739 127.3437782
 100.5485614  87.1516784 126.0528600  97.3586723  87.8113570 127.2236209
  96.5224035  88.1488257 127.5445484  97.2191492  87.6762550 126.2863346
  99.3339803  82.6550358 131.9315393  98.6804216  82.3399375 131.3072008
  99.2920277  82.0326099 132.6575216 100.4451008  92.9369653 123.8468686
  99.5378070  92.7058907 124.0459835 100.9422040  92.1407273 124.0342667
  94.6873638  90.2851796 130.0348830  93.7571226  90.2236252 130.2518792
  94.7831110  89.7627749 129.2385471  97.2325103  87.6560798 124.4234116
  96.3554569  87.5349599 124.0596363  97.7082856  86.8646876 124.1713005
  91.9603797  89.2502653 129.8647022  92.2557238  88.3413331 129.8114075
  91.0591832  89.2290392 129.5428024  93.6891638  86.9316751 129.9886347
  93.3604344  86.0514130 129.8061453  94.0431009  86.8764419 130.8762736
  98.7901609  85.7164342 128.5555117  99.5109971  86.0945595 128.0518834
  98.1666913  86.4353219 128.6590095  98.9365232  85.2512133 131.3852654
  99.0581143  84.3228779 131.5843541  98.6467274  85.2650818 130.4730969
  94.9343571  88.5959800 127.9815771  94.2412816  88.6704155 127.3255807
  94.6895323  87.8320144 128.5037288 101.7937495  90.6675208 124.2896341
 102.7396599  90.5381417 124.3584759 101.4151740  89.9289870 124.7665769
  99.9780412  88.5925185 124.2251226  99.0711867  88.2958298 124.3013940
 100.2556393  88.2955003 123.3585512 101.5942478  83.1362075 130.3795468
 100.7843206  82.7909159 130.7550714 102.2826894  82.8269618 130.9683079
  98.7479196  85.4512120 124.3663205  99.6098360  85.7767018 124.6259023
  98.9329541  84.6643616 123.8536271  99.7008639  82.6908163 127.6542914
  99.6887309  83.6350003 127.8111185 100.5932061  82.5078308 127.3602376
 103.5160759  79.2850940 131.9088851 102.7493155  78.7309426 132.0545534
 103.9271464  79.3572808 132.7703003  59.4158206  13.0373998 114.7674621
  58.7646186  13.6228079 114.3808634  60.2102569  13.5680193 114.8269658
  65.6824930   9.5298934 116.0279457  64.9054373   9.1910094 115.5834620
  66.3616411   9.5351557 115.3534423  57.0875991   8.6264105 110.5713992
  56.1803053   8.3953359 110.7705141  57.5847023   7.8301724 110.7587974
  59.9944070  17.3361612 113.4910678  59.3205769  17.6393309 114.0995636
  60.3809892  18.1390693 113.1416135  57.9640313  10.2685444 112.4326061
  57.5259743   9.5521303 111.9731698  58.7050753  10.4961559 111.8711152
  58.1935285  17.5041285 115.7057758  58.3687041  17.0329328 116.5203380
  57.5068073  18.1307051 115.9339018  62.0851540   9.1269825 112.0258118
  61.4680711   8.4016654 111.9291171  61.6168029   9.8879186 111.6825193
  62.9089225  12.4508997 116.1450758  63.1849069  12.3365592 117.0544632
  62.0393724  12.0526482 116.1062931  59.8785455  15.6263533 117.0498620
  60.4073221  15.1155988 116.4368782  60.1413675  15.3106063 117.9144153
  62.9725638  15.5980331 117.6653603  63.1462516  15.0326754 116.9127456
  63.4654530  16.3981226 117.4833093  63.9600811  14.9147096 114.7650502
  64.6551716  15.5353789 114.9837816  64.3023961  14.0642447 115.0402879
  65.8592234  12.3646801 116.2937832  66.3843558  12.7034074 115.5687152
  65.7714587  11.4293817 116.1100967  58.0515679  15.0208848 113.6725595
  57.4789647  15.6399035 113.2196067  58.6248473  15.5708209 114.2065517
  61.2712939  15.3045998 114.8034177  62.2043612  15.2391559 115.0067053
  61.1836152  16.1402265 114.3448710  63.9000956  14.6211868 111.7638125
  63.8214587  14.2871732 112.6573883  64.7210623  15.1133636 111.7629597
  58.4362478   6.3569660 111.0141648  59.3821583   6.2275868 111.0830066
  58.0576723   5.6184322 111.4911076  61.4704908  11.9379863 111.3848103
  62.1740758  12.1429866 112.0005759  60.7467556  12.5056625 111.6497187
  63.3791605  12.3762393 113.4346563  64.2137209  11.9443591 113.2524038
  63.2175948  12.2044406 114.3623458  63.0337497   8.8794506 114.8002903
  62.9786301   8.7138777 113.8591347  62.4083553   9.5870539 114.9565092
  72.0075880  22.8932044 123.5301740  72.6454290  22.7738791 122.8265080
  71.8896723  23.8412888 123.5889692  68.8165586  22.8459472 123.4663265
  68.4784098  22.7300537 122.5783800  69.6855355  22.4450637 123.4464271
  64.6752402  24.6994948 119.4560156  64.1117267  24.6084885 118.6876444
  64.5604797  23.8794853 119.9362648  62.2216834  26.1946140 122.2944376
  63.0138126  25.8536964 121.8790676  62.4613484  26.3041115 123.2146530
  70.2551961  28.3665916 114.7674621  69.6039941  28.9519996 114.3808634
  71.0496324  28.8972111 114.8269658  64.1807588  25.4555053 115.1661755
  64.9538464  24.9084040 115.0274631  64.5332987  26.3199302 115.3776216
  66.9448837  24.1608284 124.9630014  67.5412410  23.9364306 124.2486977
  67.0023809  23.4193029 125.5655462  66.5173866  21.6147719 112.7980205
  66.7699387  21.0929240 112.0363668  65.5798425  21.4513865 112.9006889
  71.5617149  20.6183498 120.6054948  72.3480238  20.2002921 120.2545365
  71.8255853  21.5229590 120.7736597  71.7327226  26.0556348 115.3043605
  71.0973059  26.1290974 116.0164510  71.4024632  26.6449947 114.6262684
  76.9625576  20.5558731 121.5087927  77.6950748  19.9857948 121.7425756
  76.2064931  20.1680331 121.9494432  66.2370155  23.5175825 115.0004580
  66.1206413  22.8420729 115.6685664  66.3472414  23.0308199 114.1836733
  68.5801696  22.9785972 118.7051269  68.2159903  22.4516593 119.4164191
  69.4368811  22.5884441 118.5317755  68.2207182  18.0075872 113.7012618
  68.3881585  18.8756108 114.0683089  68.0304352  18.1703154 112.7773907
  70.9782516  26.4692851 125.3678448  70.6783239  27.3717890 125.2594255
  70.6333575  26.2025034 126.2199601  64.4294997  22.9206648 121.4015152
  63.5045494  22.7882862 121.6092844  64.6779410  23.7000867 121.8985095
  74.3779659  18.9875391 123.0475885  73.4696537  18.9190800 122.7534646
  74.3267255  19.4647336 123.8757711  68.1996403  20.4633529 114.6859284
  68.0796029  20.9090580 115.5244765  67.5048992  20.8118847 114.1272823
  61.7903808  22.5639921 122.2358941  61.9196189  22.8174400 123.1498353
  61.1101259  23.1567629 121.9163597  65.9603295  33.2337171 118.3349416
  65.8827325  34.1844996 118.4137896  65.3564939  32.8883044 118.9924342
  76.2441306  17.1891829 124.8253759  75.6015686  17.4824363 124.1793554
  75.7396234  17.0744750 125.6306956  73.8981470  20.9355003 115.5139619
  74.8099326  21.1682389 115.3387316  73.3891117  21.5192047 114.9514697
  72.5051052  25.9180821 122.9053200  71.8759914  26.0826535 122.2029268
  72.1176714  26.3322431 123.6764164  76.3840284  26.8535259 120.2597564
  75.6991322  27.2334160 119.7094597  76.4684133  27.4630586 120.9929511
  73.6391215  24.4995218 126.8592907  73.8508111  25.1426978 126.1827288
  73.5920964  23.6657535 126.3914837  68.0579014  25.6555229 120.1703285
  68.5217359  25.9342932 119.3807908  67.7935812  24.7538674 119.9876376
  64.9503095  25.2026711 123.1083048  65.5204452  25.6313979 122.4700533
  65.5411207  24.9209295 123.8067234  66.9947900  21.7778382 116.9792850
  67.6971943  22.2299425 117.4466777  66.6628528  21.1362200 117.6072743
  74.7537043  27.3767173 125.0315265  75.5754487  26.9747361 124.7497946
  74.7499446  27.2735408 125.9831380  62.6887979  20.4006513 119.2393460
  61.8919142  20.5125208 119.7576956  62.4613571  20.7393166 118.3734351
  68.5193647  26.9251217 127.1875975  68.5838079  27.3871624 128.0234147
  67.8104571  26.2948582 127.3158285  82.8443036  23.7205922 121.3800236
  82.0906745  23.1513320 121.2244240  82.9790578  23.6868586 122.3270871
  68.2341664  28.5919324 117.0554955  68.0987339  29.4370860 117.4839803
  68.7751477  28.7938602 116.2920889  61.6871062  26.1094762 117.6282881
  62.1995582  26.9038012 117.7788445  62.3393775  25.4121053 117.5616482
  63.4965946  29.2260519 119.7105634  63.6732575  30.1478483 119.5226618
  64.2922780  28.9118938 120.1400013  64.6197262  30.7438692 125.7115976
  65.1704687  30.6155756 124.9392970  63.7808738  31.0433581 125.3610869
  71.9591379  29.4945691 129.2136699  71.9409854  30.3154572 128.7216968
  72.8811299  29.3699766 129.4386840  59.6519979  24.4383417 118.4042451
  60.4895201  24.8480425 118.1876159  59.8298246  23.4982859 118.3742645
  71.5484411  22.1058497 114.0926284  71.0331034  22.8763102 114.3314671
  71.2761719  21.4323633 114.7159345  69.1331522  16.9508198 119.1511522
  68.2773118  16.5615048 118.9717161  69.5458473  17.0300159 118.2911308
  76.5218685  24.8590852 116.0279457  75.7448128  24.5202011 115.5834620
  77.2010166  24.8643475 115.3534423  71.3370714  19.9785589 115.9186065
  71.0320849  20.2931738 116.7696208  72.2901156  20.0567009 115.9613398
  69.7817146  26.1375813 117.5679019  69.2538507  25.4028572 117.2552257
  69.2804648  26.9150489 117.3218987  74.7609992  24.3324833 122.6846065
  74.1033666  25.0224094 122.7726194  75.5650391  24.7221265 123.0280052
  64.5135873  16.7995479 119.9285631  65.0879625  16.5770660 119.1958824
  65.1006856  16.8684173 120.6814232  73.5715451  22.6869206 120.7350007
  74.0847332  23.3199198 121.2371717  74.2216674  22.0870401 120.3693367
  64.8405460  18.8299940 113.9481516  64.0042773  19.1674626 114.2690791
  64.7010230  18.6948920 113.0108653  66.8158541  13.6736728 118.6560700
  66.1622953  13.3585745 118.0317315  66.7739015  13.0512468 119.3820523
  67.9269746  23.9556023 110.5713992  67.0196808  23.7245276 110.7705141
  68.4240778  23.1593642 110.7587974  70.8337825  32.6653530 113.4910678
  70.1599524  32.9685227 114.0995636  71.2203647  33.4682610 113.1416135
  70.0496281  20.1618661 122.9808348  69.1318843  20.3833608 122.8230036
  70.4656425  20.2364972 122.1220055  70.8331329  21.5610077 118.1111028
  71.5803148  22.0731474 117.8018150  71.1022919  21.2394130 118.9715422
  69.1057979  24.0568618 115.0937982  68.1969199  23.7727651 115.1910452
  69.1353063  24.4767696 114.2341289  74.3377247  27.6675207 118.8629150
  73.8839574  26.8266117 118.9194340  73.7071213  28.3036606 119.2003930
  73.2810166  18.5967193 120.0929817  72.5432923  18.0844579 120.4240060
  73.5336940  18.1567575 119.2813094  72.7810186  29.5051704 119.7978968
  73.0733160  30.0656761 119.0791334  73.2908807  29.7980265 120.5532127
  73.3821794  11.3743445 120.6871587  73.6880670  10.5140809 120.3997502
  74.1074398  11.9661065 120.4870580  59.6746150  21.7774132 119.0753184
  59.4770550  21.1843493 118.3504251  59.1192814  21.4726342 119.7929123
  67.6542873  21.6697238 121.1947778  67.7091483  20.7171075 121.1190254
  66.8434075  21.8256677 121.6789076  68.8034067  25.5977361 112.4326061
  68.3653497  24.8813220 111.9731698  69.5444508  25.8253476 111.8711152
  65.5935233  20.2874298 118.9538156  64.7803099  20.5868469 119.3603349
  66.0894227  19.8929987 119.6712639  67.7443811  30.2832055 120.8872421
  67.7019990  30.5092901 119.9580953  68.6606510  30.0495430 121.0358222
  76.9207182  23.8734558 118.4902379  76.7825080  24.0636154 117.5623569
  76.5643401  24.6353941 118.9470431  76.9476561  25.9411085 123.5013651
  77.3813068  25.8486375 124.3496705  77.6608142  25.9168586 122.8633667
  65.8609612  27.1595084 120.6834384  66.6550210  26.6645404 120.4816959
  65.1501304  26.6312947 120.3202089  70.6804456  29.5413180 125.0346752
  70.7341479  30.1104116 125.8024467  69.8119238  29.7115065 124.6700789
  62.1692375  21.3038166 116.7594137  61.2389963  21.2422621 116.9764099
  62.2649847  20.7814119 115.9630778  62.0877924  17.8292979 119.3472378
  62.3484742  18.7438312 119.2381539  62.9095097  17.3617421 119.4968991
  77.8092111  25.9834786 126.0346536  78.0028001  26.8880597 126.2805811
  77.7092729  25.5242205 126.8685121  69.6392556  23.7073442 126.5933683
  70.5684616  23.8584601 126.4202651  69.2183586  23.7957462 125.7382330
  68.4380888  27.7324106 124.3632221  68.2991974  27.3642890 125.2358159
  67.6495484  28.2471745 124.1916179  69.0329040  32.8333202 115.7057758
  69.2080796  32.3621246 116.5203380  68.3461828  33.4598969 115.9339018
  69.9886103  27.1105709 121.7521059  69.6535936  27.0706479 122.6478709
  69.4890049  26.4450425 121.2791469  72.9245295  24.4561743 112.0258118
  72.3074465  23.7308571 111.9291171  72.4561783  25.2171103 111.6825193
  74.5799426  29.1660651 129.6863899  74.5211973  28.4819872 129.0194482
  74.9818945  29.9079641 129.2344525  63.5990125  35.9822565 122.4797618
  63.8386723  36.6141089 123.1576636  62.7559322  35.6310605 122.7662977
  64.7143841  18.6747167 111.1479423  63.8373307  18.5535968 110.7841669
  65.1901594  17.8833246 110.8958311  74.5816834  27.1300235 127.9177878
  73.6943612  26.7926157 128.0404277  75.1515385  26.3983267 128.1546644
  56.2345981  23.4624327 121.2420930  56.9217021  23.1486057 120.6541945
  56.0794109  24.3665692 120.9688181  68.1117987  31.7901688 124.8839122
  68.0388159  32.5956659 125.3958426  67.6695380  31.9893653 124.0587143
  67.9007767  31.0273458 118.3941943  67.1175289  31.5695138 118.4880168
  68.6000512  31.5447437 118.7936184  71.2104417  16.8368087 121.0376149
  71.7073116  16.0838049 120.7177219  70.4391398  16.8732404 120.4719358
  79.0634174  22.5408453 122.6794440  79.0524050  23.4233168 122.3088373
  78.1951554  22.1880004 122.4848977  70.5716671  31.6888522 127.0397280
  71.2844643  32.3235987 126.9673182  70.0806699  31.7852388 126.2237282
  72.2934197  25.5939774 118.6114572  71.3590476  25.7141237 118.4419276
  72.4710866  24.6912241 118.3474582  67.7939386  18.9785470 120.7647833
  67.4237173  18.4256511 121.4528739  68.2898478  18.3743604 120.2122833
  75.6806749  21.4357094 119.1464606  76.1467201  22.2685085 119.0724909
  76.1314249  20.9702075 119.8509865  65.6228584  29.4382965 127.8602851
  66.3238044  30.0719448 128.0132245  65.1523699  29.7797697 127.0998490
  73.7482980  27.7800915 116.1450758  74.0242824  27.6657510 117.0544632
  72.8787479  27.3818400 116.1062931  73.4229870  21.9927573 125.6855402
  72.7701320  22.2403480 125.0307854  73.8010250  21.1791711 125.3517879
  70.3837044  32.0287266 119.7883572  70.5659438  31.2108922 120.2511324
  71.2070030  32.2454958 119.3508462  70.7179209  30.9555451 117.0498620
  71.2466976  30.4447906 116.4368782  70.9807429  30.6397981 117.9144153
  61.2196302  28.9719320 124.7933954  61.8049739  28.2263008 124.9261858
  61.0221141  29.2823277 125.6770618  64.0734957  32.0070568 119.8096396
  63.4045333  32.4916695 119.3260436  63.9347827  32.2539788 120.7239775
  68.2140226  34.0414311 126.4079055  68.7658534  34.2045933 127.1728140
  68.5546419  34.6318749 125.7359079  59.4422534  20.2689023 116.5892328
  59.7375976  19.3599701 116.5359382  58.5410570  20.2476762 116.2673331
  71.3508613  31.9896287 123.3942737  71.2259753  31.1886027 122.8853682
  72.0087704  32.4842480 122.9056707  73.4143522  29.7905307 125.0222287
  72.4673857  29.6710658 124.9500614  73.7626295  28.9027805 125.1048548
  61.1710376  17.9503120 116.7131654  60.8423082  17.0700499 116.5306759
  61.5249747  17.8950789 117.6008043  70.4189955  29.5858023 121.2226639
  70.2714917  28.6574730 121.4034209  71.2443448  29.6078114 120.7383714
  64.2852199  18.2376090 117.0807131  64.6248272  18.7662011 116.3585740
  64.7324320  18.5756496 117.8565698  74.0224077  30.4086582 122.3091512
  74.9470624  30.2029443 122.1715963  73.8539380  30.1602983 123.2180853
  66.2720346  16.7350712 115.2800424  66.9928709  17.1131964 114.7764141
  65.6485650  17.4539588 115.3835402  70.4151469  17.4395861 116.2158756
  70.6315084  18.3220498 115.9147584  69.9345536  17.0482074 115.4864398
  73.8119393  30.9272249 117.6653603  73.9856271  30.3618672 116.9127456
  74.3048284  31.7273144 117.4833093  66.4183969  16.2698502 118.1097961
  66.5399881  15.3415148 118.3088848  66.1286012  16.2837188 117.1976276
  79.6658784  23.6908672 119.2843903  80.1089930  22.9415997 118.8863026
  78.7885294  23.6818808 118.9017635  74.7994565  30.2439014 114.7650502
  75.4945470  30.8645706 114.9837816  75.1417716  29.3934365 115.0402879
  76.6985989  27.6938719 116.2937832  77.2237313  28.0325992 115.5687152
  76.6108341  26.7585734 116.1100967  68.3606037  31.6072793 128.4227709
  68.6693164  31.3621939 129.2950409  69.1581519  31.8119431 127.9346579
  68.3826649  33.7610702 120.6533086  67.9431640  33.2687081 121.3465942
  69.1334766  33.2183670 120.4125161  60.8618988  29.9522243 120.6557714
  61.6877008  29.6526015 120.2756357  60.5113040  29.1829866 121.1047502
  65.8300521  29.3048711 122.7255387  65.2080531  28.6419416 122.4257615
  66.5005388  29.3309843 122.0429035  59.0627593  27.8708570 121.6146647
  58.2259502  27.4430744 121.4330648  59.0351239  28.0641013 122.5517438
  76.3879895  28.3271623 131.5989030  75.5975438  28.3095762 131.0593530
  76.1513249  28.8659916 132.3538067  76.5077770  25.1764089 128.9121759
  76.5575775  25.0114097 129.8537282  76.3991693  24.3091348 128.5219640
  65.3914028  27.8552635 116.2013848  65.5402149  28.5388099 115.5480520
  66.1980472  27.8357725 116.7163303  78.0095967  27.5961031 129.1563780
  77.7180775  27.9591011 129.9927241  77.3968098  26.8828039 128.9777112
  79.2091649  25.1613910 121.6766351  80.0438540  25.6003714 121.8403911
  79.3450778  24.6852564 120.8574596  76.2583155  22.7193645 127.6243838
  76.7337276  22.9121292 126.8162690  75.3348720  22.7752831 127.3787222
  63.1466661  23.8817812 117.2074917  62.9012703  22.9780142 117.4055127
  63.3162576  23.8834963 116.2654395  62.4162309  19.6146170 114.7061078
  61.7231554  19.6890525 114.0501114  62.1714061  18.8506514 115.2282595
  68.8909434  30.3500765 113.6725595  68.3183401  30.9690952 113.2196067
  69.4642228  30.9000127 114.2065517  74.9584824  19.5959405 125.8572144
  75.9102247  19.6957503 125.8784368  74.7888274  18.8037674 126.3670228
  72.1106694  30.6337915 114.8034177  73.0437367  30.5683477 115.0067053
  72.0229907  31.4694182 114.3448710  74.7394710  29.9503786 111.7638125
  74.6608342  29.6163649 112.6573883  75.5604377  30.4425554 111.7629597
  77.4372902  22.8165525 124.9714444  77.4049222  21.8781526 125.1574127
  78.0473525  22.8949562 124.2380268  69.2756232  21.6861578 111.0141648
  70.2215337  21.5567786 111.0830066  68.8970477  20.9476240 111.4911076
  77.5867390  19.6076568 125.0172727  77.0706439  18.8235025 124.8302656
  78.4707339  19.2795285 125.1819246  75.2478117  13.3517584 120.9768539
  75.0502938  13.0432672 121.8611871  75.8577823  14.0779223 121.1066469
  83.2549451  23.8781532 124.1120480  83.9852840  23.6166820 124.6728184
  82.6456397  23.1410254 124.1522548  81.3364749  22.0189394 124.7094932
  80.6097912  21.8845359 124.1011423  80.9212035  22.3266223 125.5151650
  67.4599150  19.6111554 110.9496533  66.5530605  19.3144667 111.0259246
  67.7375131  19.3141372 110.0830819  69.0761215  14.1548444 117.1040774
  68.2661944  13.8095529 117.4796020  69.7645632  13.8455988 117.6928386
  71.0051764  13.2326491 118.7265071  71.5582802  13.6521944 119.3855094
  71.2421850  12.3062239 118.7688027  66.2297934  16.4698490 111.0908512
  67.0917098  16.7953388 111.3504329  66.4148278  15.6829985 110.5781578
  74.3830571  15.3427016 118.2343735  73.8029240  16.0011820 117.8521787
  74.1166503  14.5204361 117.8231153  72.8334137  14.7432074 120.4365055
  73.3333915  14.8548608 119.6279374  73.4769745  14.4393127 121.0765864
  60.1602092  24.4839083 121.2454716  60.1372781  24.5826770 120.2936599
  60.4702729  25.3304234 121.5671882  73.1655449  17.5027106 117.2900083
  72.2781304  17.7876757 117.0720278  73.5809438  17.3420870 116.4427360
  76.5169985  17.5273627 121.0054423  77.2930375  18.0170080 121.2779039
  75.7918119  17.9531682 121.4626292  78.9542543  18.2401247 122.0628363
  79.5487034  17.9996983 121.3521671  79.0269127  17.5208377 122.6901899
  61.1739699  32.0834858 122.3771528  61.0394167  31.3235258 121.8109526
  60.7571761  32.8075757 121.9100317  72.3098662  27.2671781 111.3848103
  73.0134512  27.4721784 112.0005759  71.5861311  27.8348543 111.6497187
  73.1396472  23.0181642 117.5050373  73.0831674  23.4750194 116.6658006
  73.6924815  22.2572327 117.3273216  76.9501278  18.8071374 118.3300493
  76.6938213  18.4068010 119.1608701  76.3254146  19.5215168 118.2050632
  81.2613616  21.5467447 120.8371784  80.7013174  21.6160637 121.6103346
  80.6557120  21.3708432 120.1171281  64.3308825  32.9804175 122.5889971
  64.2141209  33.9249607 122.4868661  63.5101271  32.6777736 122.9775770
  74.2185360  27.7054310 113.4346563  75.0530963  27.2735509 113.2524038
  74.0569702  27.5336324 114.3623458  73.8731252  24.2086424 114.8002903
  73.8180056  24.0430695 113.8591347  73.2477307  24.9162457 114.9565092
  67.1827377  13.7094533 114.3788221  67.1706047  14.6536373 114.5356492
  68.0750799  13.5264678 114.0847682  65.3563339  33.6332436 125.8045899
  66.2590586  33.6656047 126.1212394  65.1300709  32.7032887 125.8192235
  67.1116941  32.3863423 122.4655978  66.1612572  32.3865285 122.3520350
  67.4149427  31.6396158 121.9492012  70.9979497  10.3037309 118.6334158
  70.2311892   9.7495796 118.7790840  71.4090202  10.3759178 119.4948309
  82.8469635  38.2223961 123.5301740  83.4848045  38.1030709 122.8265080
  82.7290478  39.1704805 123.5889692  79.6559341  38.1751390 123.4663265
  79.3177852  38.0592454 122.5783800  80.5249109  37.7742555 123.4464271
  75.5146157  40.0286866 119.4560156  74.9511022  39.9376803 118.6876444
  75.3998552  39.2086770 119.9362648  80.1379124  39.3286241 129.4249470
  80.1267765  38.9339040 128.5529974  80.2999763  38.5952314 130.0183242
  73.0610589  41.5238058 122.2944376  73.8531880  41.1828882 121.8790676
  73.3007239  41.6333033 123.2146530  81.0945715  43.6957834 114.7674621
  80.4433695  44.2811914 114.3808634  81.8890078  44.2264029 114.8269658
  75.0201342  40.7846971 115.1661755  75.7932218  40.2375958 115.0274631
  75.3726741  41.6491220 115.3776216  76.8586385  42.1123353 128.3728654
  76.5676251  43.0168984 128.2575321  77.4943369  42.1539881 129.0872724
  77.7842592  39.4900202 124.9630014  78.3806164  39.2656224 124.2486977
  77.8417563  38.7484947 125.5655462  77.3567620  36.9439637 112.7980205
  77.6093141  36.4221158 112.0363668  76.4192179  36.7805782 112.9006889
  82.4010903  35.9475415 120.6054948  83.1873992  35.5294838 120.2545365
  82.6649607  36.8521507 120.7736597  82.5720980  41.3848266 115.3043605
  81.9366813  41.4582892 116.0164510  82.2418387  41.9741864 114.6262684
  87.8019330  35.8850648 121.5087927  88.5344502  35.3149865 121.7425756
  87.0458686  35.4972249 121.9494432  77.0763909  38.8467743 115.0004580
  76.9600167  38.1712646 115.6685664  77.1866169  38.3600117 114.1836733
  79.4195450  38.3077890 118.7051269  79.0553657  37.7808511 119.4164191
  80.2762566  37.9176359 118.5317755  85.3244751  29.5972223 125.9682535
  84.9928075  30.4667634 125.7443750  84.7290364  29.2808507 126.6476566
  79.0600937  33.3367790 113.7012618  79.2275339  34.2048026 114.0683089
  78.8698106  33.4995071 112.7773907  81.8176270  41.7984769 125.3678448
  81.5176993  42.7009807 125.2594255  81.4727330  41.5316952 126.2199601
  75.2688752  38.2498565 121.4015152  74.3439248  38.1174780 121.6092844
  75.5173165  39.0292785 121.8985095  85.2173414  34.3167309 123.0475885
  84.3090291  34.2482717 122.7534646  85.1661010  34.7939254 123.8757711
  79.0390158  35.7925447 114.6859284  78.9189783  36.2382498 115.5244765
  78.3442746  36.1410765 114.1272823  72.6297563  37.8931839 122.2358941
  72.7589944  38.1466318 123.1498353  71.9495014  38.4859547 121.9163597
  76.7997050  48.5629089 118.3349416  76.7221080  49.5136914 118.4137896
  76.1958694  48.2174961 118.9924342  79.2914280  35.7356954 130.9910783
  78.5147614  36.2950874 130.9813647  79.9304843  36.2213737 131.5125653
  87.0835060  32.5183747 124.8253759  86.4409441  32.8116280 124.1793554
  86.5789989  32.4036667 125.6306956  84.7375224  36.2646920 115.5139619
  85.6493080  36.4974307 115.3387316  84.2284871  36.8483965 114.9514697
  77.5460652  38.5442408 130.5528750  78.2875336  39.0827452 130.2763573
  76.8397637  39.1708696 130.7100301  83.0215992  40.6871548 129.1500911
  83.4299348  40.2453959 128.4055543  82.2993253  40.1124176 129.4035104
  79.3747062  35.6244155 126.5234468  80.2208257  36.0483568 126.6669117
  79.3145699  34.9677779 127.2173031  83.3444806  41.2472739 122.9053200
  82.7153669  41.4118453 122.2029268  82.9570468  41.6614348 123.6764164
  87.2234038  42.1827177 120.2597564  86.5385076  42.5626078 119.7094597
  87.3077888  42.7922503 120.9929511  82.5246507  33.2848523 128.1815642
  82.2807439  34.0390584 127.6449917  82.8006438  33.6633871 129.0162889
  84.4784970  39.8287136 126.8592907  84.6901865  40.4718896 126.1827288
  84.4314718  38.9949452 126.3914837  82.0811199  32.4404956 123.7629479
  81.2195678  32.7386210 124.0546217  82.1073633  32.6575355 122.8310512
  78.8972768  40.9847147 120.1703285  79.3611114  41.2634850 119.3807908
  78.6329566  40.0830591 119.9876376  75.7896849  40.5318628 123.1083048
  76.3598206  40.9605897 122.4700533  76.3804961  40.2501213 123.8067234
  77.8341654  37.1070299 116.9792850  78.5365698  37.5591343 117.4466777
  77.5022283  36.4654118 117.6072743  76.2822016  35.6982056 131.3544060
  75.6520676  36.3798337 131.5879456  76.1758104  35.5865137 130.4097198
  71.5766988  35.3653852 122.2809984  70.7866042  35.6211380 121.8050094
  72.0678236  36.1802190 122.3862024  85.5930798  42.7059091 125.0315265
  86.4148241  42.3039278 124.7497946  85.5893201  42.6027325 125.9831380
  73.5281734  35.7298431 119.2393460  72.7312897  35.8417125 119.7576956
  73.3007326  36.0685083 118.3734351  79.3587401  42.2543134 127.1875975
  79.4231834  42.7163542 128.0234147  78.6498325  41.6240499 127.3158285
  69.8604691  35.6184342 124.7124975  70.1112730  36.5031352 124.9782551
  70.3964240  35.4388944 123.9400066  93.6836791  39.0497840 121.3800236
  92.9300499  38.4805238 121.2244240  93.8184332  39.0160504 122.3270871
  79.0735419  43.9211242 117.0554955  78.9381094  44.7662778 117.4839803
  79.6145231  44.1230520 116.2920889  72.5264816  41.4386680 117.6282881
  73.0389337  42.2329930 117.7788445  73.1787529  40.7412970 117.5616482
  74.3359701  44.5552436 119.7105634  74.5126329  45.4770401 119.5226618
  75.1316534  44.2410855 120.1400013  78.4770719  31.4160701 131.3089567
  79.2180433  32.0167854 131.2294030  78.7088642  30.6738339 130.7507610
  73.6212058  36.6017068 129.5867797  73.5065573  35.7002325 129.8874896
  72.7656575  36.8480765 129.2352613  80.7003895  44.5434808 131.1855298
  80.2567749  43.7571187 130.8676202  81.3621109  44.7313959 130.5199188
  75.4591016  46.0730610 125.7115976  76.0098442  45.9447673 124.9392970
  74.6202492  46.3725499 125.3610869  82.7985133  44.8237608 129.2136699
  82.7803609  45.6446489 128.7216968  83.7205053  44.6991684 129.4386840
  79.2558187  42.3381738 130.0560207  79.7886524  41.5770026 129.8259515
  78.7272269  42.0455390 130.7984362  82.4227882  27.4441804 125.5853849
  82.0792152  28.3343445 125.5092959  82.7906845  27.2543461 124.7223434
  70.4913733  39.7675334 118.4042451  71.3288955  40.1772343 118.1876159
  70.6692001  38.8274776 118.3742645  82.3878165  37.4350415 114.0926284
  81.8724789  38.2055019 114.3314671  82.1155474  36.7615551 114.7159345
  79.9725276  32.2800116 119.1511522  79.1166873  31.8906966 118.9717161
  80.3852228  32.3592076 118.2911308  81.5024423  29.8146459 123.5503082
  80.9989218  29.7776594 122.7370887  81.7955030  30.7239202 123.6099739
  77.7467309  29.8985189 122.5569264  78.6120305  29.7027997 122.1975153
  77.8144818  29.6695540 123.4838621  87.3612439  40.1882770 116.0279457
  86.5841882  39.8493929 115.5834620  88.0403920  40.1935393 115.3534423
  82.1764468  35.3077507 115.9186065  81.8714604  35.6223656 116.7696208
  83.1294910  35.3858927 115.9613398  80.6210900  41.4667730 117.5679019
  80.0932262  40.7320490 117.2552257  80.1198403  42.2442407 117.3218987
  85.6003746  39.6616751 122.6846065  84.9427421  40.3516012 122.7726194
  86.4044145  40.0513183 123.0280052  75.3529628  32.1287397 119.9285631
  75.9273380  31.9062578 119.1958824  75.9400610  32.1976091 120.6814232
  84.4109205  38.0161123 120.7350007  84.9241087  38.6491115 121.2371717
  85.0610429  37.4162319 120.3693367  75.6799215  34.1591858 113.9481516
  74.8436527  34.4966544 114.2690791  75.5403985  34.0240837 113.0108653
  77.6552295  29.0028645 118.6560700  77.0016708  28.6877663 118.0317315
  77.6132770  28.3804386 119.3820523  78.7663500  39.2847941 110.5713992
  77.8590562  39.0537194 110.7705141  79.2634532  38.4885560 110.7587974
  81.6731579  47.9945448 113.4910678  80.9993278  48.2977144 114.0995636
  82.0597401  48.7974528 113.1416135  80.8890036  35.4910579 122.9808348
  79.9712597  35.7125526 122.8230036  81.3050179  35.5656889 122.1220055
  81.6725084  36.8901995 118.1111028  82.4196903  37.4023392 117.8018150
  81.9416673  36.5686047 118.9715422  79.9451734  39.3860535 115.0937982
  79.0362953  39.1019568 115.1910452  79.9746818  39.8059614 114.2341289
  85.1771001  42.9967125 118.8629150  84.7233328  42.1558035 118.9194340
  84.5464968  43.6328523 119.2003930  84.1203921  33.9259111 120.0929817
  83.3826678  33.4136497 120.4240060  84.3730694  33.4859493 119.2813094
  83.6203940  44.8343622 119.7978968  83.9126915  45.3948679 119.0791334
  84.1302561  45.1272183 120.5532127  84.2215548  26.7035363 120.6871587
  84.5274425  25.8432726 120.3997502  84.9468153  27.2952983 120.4870580
  70.5139904  37.1066050 119.0753184  70.3164304  36.5135410 118.3504251
  69.9586568  36.8018260 119.7929123  78.4936628  36.9989156 121.1947778
  78.5485238  36.0462992 121.1190254  77.6827830  37.1548595 121.6789076
  79.6427822  40.9269279 112.4326061  79.2047252  40.2105138 111.9731698
  80.3838262  41.1545394 111.8711152  76.4328988  35.6166216 118.9538156
  75.6196853  35.9160386 119.3603349  76.9287982  35.2221905 119.6712639
  78.5837566  45.6123973 120.8872421  78.5413744  45.8384819 119.9580953
  79.5000264  45.3787347 121.0358222  82.0303199  36.0808040 127.7853050
  82.3852587  36.3079513 128.6447516  82.6775331  36.4126417 127.1630306
  87.7600936  39.2026476 118.4902379  87.6218835  39.3928072 117.5623569
  87.4037155  39.9645859 118.9470431  75.9243063  33.1884571 124.5699391
  76.5642442  33.0473330 123.8722355  75.0920593  32.9019085 124.1937993
  87.7870316  41.2703003 123.5013651  88.2206823  41.1778292 124.3496705
  88.5001897  41.2460504 122.8633667  76.7003366  42.4887002 120.6834384
  77.4943965  41.9937322 120.4816959  75.9895059  41.9604865 120.3202089
  81.5198211  44.8705097 125.0346752  81.5735233  45.4396034 125.8024467
  80.6512992  45.0406982 124.6700789  73.0086130  36.6330083 116.7594137
  72.0783718  36.5714539 116.9764099  73.1043602  36.1106036 115.9630778
  72.9271679  33.1584896 119.3472378  73.1878496  34.0730230 119.2381539
  73.7488851  32.6909339 119.4968991  74.3996604  34.5722653 126.5171203
  75.0719658  34.3640016 125.8683852  73.5726391  34.3744739 126.0776435
  88.6485866  41.3126704 126.0346536  88.8421756  42.2172514 126.2805811
  88.5486484  40.8534123 126.8685121  80.3022176  31.1984594 128.5336864
  79.6550091  31.8974544 128.4401340  81.0723192  31.6320738 128.9013112
  83.7100974  41.4633447 131.6087417  83.5586481  41.2343998 130.6917501
  83.7005654  42.4204048 131.6218762  80.4786311  39.0365359 126.5933683
  81.4078371  39.1876519 126.4202651  80.0577341  39.1249380 125.7382330
  79.2774642  43.0616024 124.3632221  79.1385728  42.6934808 125.2358159
  78.4889239  43.5763663 124.1916179  79.8722794  48.1625120 115.7057758
  80.0474550  47.6913163 116.5203380  79.1855582  48.7890886 115.9339018
  80.8279858  42.4397626 121.7521059  80.4929690  42.3998396 122.6478709
  80.3283803  41.7742342 121.2791469  74.8024102  37.8465256 127.2773640
  74.6643899  37.1145495 127.8785179  75.7129025  37.7574157 126.9957828
  83.7639049  39.7853661 112.0258118  83.1468220  39.0600489 111.9291171
  83.2955538  40.5463021 111.6825193  77.4306402  37.5585216 126.7657320
  78.1406021  36.9178408 126.7243938  77.3875710  37.8098111 127.6883500
  85.4193181  44.4952569 129.6863899  85.3605727  43.8111789 129.0194482
  85.8212699  45.2371559 129.2344525  76.1435336  34.5450434 128.5852959
  75.6072693  34.0941172 129.2374555  75.5552045  34.6796342 127.8423423
  74.4383880  51.3114483 122.4797618  74.6780478  51.9433007 123.1576636
  73.5953076  50.9602523 122.7662977  75.5537595  34.0039085 111.1479423
  74.6767061  33.8827886 110.7841669  76.0295348  33.2125163 110.8958311
  85.4210588  42.4592153 127.9177878  84.5337367  42.1218075 128.0404277
  85.9909139  41.7275184 128.1546644  67.0739735  38.7916245 121.2420930
  67.7610775  38.4777975 120.6541945  66.9187864  39.6957609 120.9688181
  71.8774457  33.6806441 125.6705954  71.7932646  33.0732111 124.9356363
  71.0557164  34.1715460 125.6715450  78.9511742  47.1193605 124.8839122
  78.8781913  47.9248577 125.3958426  78.5089135  47.3185571 124.0587143
  78.7401521  46.3565375 118.3941943  77.9569043  46.8987056 118.4880168
  79.4394266  46.8739355 118.7936184  82.0498171  32.1660005 121.0376149
  82.5466871  31.4129967 120.7177219  81.2785153  32.2024321 120.4719358
  89.9027929  37.8700370 122.6794440  89.8917805  38.7525086 122.3088373
  89.0345308  37.5171921 122.4848977  81.4110425  47.0180439 127.0397280
  82.1238397  47.6527904 126.9673182  80.9200454  47.1144305 126.2237282
  83.1327952  40.9231692 118.6114572  82.1984231  41.0433155 118.4419276
  83.3104620  40.0204159 118.3474582  78.6333140  34.3077388 120.7647833
  78.2630928  33.7548428 121.4528739  79.1292232  33.7035521 120.2122833
  86.5200503  36.7649011 119.1464606  86.9860956  37.5977003 119.0724909
  86.9708004  36.2993993 119.8509865  76.4622339  44.7674883 127.8602851
  77.1631798  45.4011366 128.0132245  75.9917454  45.1089614 127.0998490
  84.5876734  43.1092833 116.1450758  84.8636578  42.9949427 117.0544632
  83.7181233  42.7110317 116.1062931  84.4917166  29.1329598 123.1855507
  83.5780246  29.3633825 123.3537714  84.9210268  29.2168042 124.0369540
  84.2623625  37.3219490 125.6855402  83.6095075  37.5695398 125.0307854
  84.6404004  36.5083628 125.3517879  81.2230798  47.3579183 119.7883572
  81.4053193  46.5400839 120.2511324  82.0463784  47.5746876 119.3508462
  81.5572964  46.2847369 117.0498620  82.0860730  45.7739823 116.4368782
  81.8201184  45.9689899 117.9144153  80.3111198  38.0639301 132.1721439
  79.6351835  37.9633431 132.8423814  81.1338831  37.9078515 132.6357436
  72.0590057  44.3011238 124.7933954  72.6443493  43.5554926 124.9261858
  71.8614895  44.6115195 125.6770618  74.9128712  47.3362485 119.8096396
  74.2439087  47.8208613 119.3260436  74.7741582  47.5831706 120.7239775
  66.6507711  36.8716838 123.5138397  66.6891811  36.3380429 124.3075515
  66.1448004  36.3452044 122.8949374  79.0533980  49.3706229 126.4079055
  79.6052288  49.5337850 127.1728140  79.3940174  49.9610667 125.7359079
  74.0298474  31.7181379 127.0100939  74.0939800  32.5796210 126.5978337
  73.9665594  31.1055380 126.2773298  73.5050746  33.7904511 130.6573974
  74.1322785  33.4081588 131.2711498  72.6478665  33.5718713 131.0229666
  83.9044855  44.1967486 132.2627709  84.4484759  44.8097445 131.7682664
  83.3231700  44.7547065 132.7794722  70.2816289  35.5980940 116.5892328
  70.5769730  34.6891619 116.5359382  69.3804325  35.5768680 116.2673331
  82.1902368  47.3188204 123.3942737  82.0653507  46.5177944 122.8853682
  82.8481459  47.8134398 122.9056707  73.8110536  33.6736937 122.5719877
  73.0897122  34.2872905 122.4327350  74.6003792  34.2094702 122.4936523
  84.2537276  45.1197224 125.0222287  83.3067612  45.0002576 124.9500614
  84.6020049  44.2319722 125.1048548  76.6136849  31.0091363 128.8460529
  77.1371251  31.2553660 129.6086838  76.3949183  31.8411398 128.4263666
  72.0104131  33.2795038 116.7131654  71.6816837  32.3992417 116.5306759
  72.3643501  33.2242707 117.6008043  81.2583709  44.9149941 121.2226639
  81.1108672  43.9866648 121.4034209  82.0837203  44.9370031 120.7383714
  75.1245954  33.5668008 117.0807131  75.4642026  34.0953929 116.3585740
  75.5718074  33.9048414 117.8565698  84.8617831  45.7378499 122.3091512
  85.7864379  45.5321361 122.1715963  84.6933135  45.4894901 123.2180853
  77.8189395  31.9505058 126.5310199  77.4786215  31.1512872 126.9330879
  77.1128401  32.2506769 125.9587032  78.4705866  29.0354371 124.9837522
  79.2931936  28.5614849 124.8616413  78.7143930  29.8144855 125.4836209
  77.1114101  32.0642629 115.2800424  77.8322463  32.4423882 114.7764141
  76.4879405  32.7831506 115.3835402  81.2545224  32.7687778 116.2158756
  81.4708838  33.6512416 115.9147584  80.7739291  32.3773992 115.4864398
  75.9944445  35.7273492 122.7929501  75.8489026  36.0413795 123.6853782
  75.5169649  36.3458392 122.2400400  77.8540828  32.7176039 122.8410390
  77.8402397  31.8217133 122.5042688  78.5713256  32.7246703 123.4748677
  79.7066959  33.1513380 124.8863518  79.4484737  34.0730450 124.8847848
  79.1751999  32.7543814 125.5763982  84.6513147  46.2564167 117.6653603
  84.8250025  45.6910589 116.9127456  85.1442039  47.0565062 117.4833093
  70.4690107  38.2678836 125.7317162  69.9243575  39.0438644 125.8637436
  71.3469457  38.6149640 125.5736284  77.2577724  31.5990420 118.1097961
  77.3793635  30.6707066 118.3088848  76.9679766  31.6129106 117.1976276
  80.1268914  29.2845330 121.2464680  80.1490611  29.3484663 120.2916660
  80.5436973  28.4449839 121.4405187  90.5052539  39.0200590 119.2843903
  90.9483685  38.2707915 118.8863026  89.6279049  39.0110726 118.9017635
  85.6388320  45.5730931 114.7650502  86.3339225  46.1937624 114.9837816
  85.9811470  44.7226282 115.0402879  71.2556129  37.3948732 128.6247319
  70.5137865  37.5431368 129.2111949  70.9348873  37.6556998 127.7614068
  87.5379743  43.0230637 116.2937832  88.0631067  43.3617910 115.5687152
  87.4502096  42.0877652 116.1100967  79.1999792  46.9364710 128.4227709
  79.5086918  46.6913857 129.2950409  79.9975274  47.1411349 127.9346579
  79.2220404  49.0902620 120.6533086  78.7825394  48.5978999 121.3465942
  79.9728521  48.5475588 120.4125161  71.7012743  45.2814161 120.6557714
  72.5270763  44.9817933 120.2756357  71.3506795  44.5121783 121.1047502
  76.6694276  44.6340629 122.7255387  76.0474285  43.9711334 122.4257615
  77.3399143  44.6601761 122.0429035  69.9021348  43.2000487 121.6146647
  69.0653256  42.7722662 121.4330648  69.8744993  43.3932931 122.5517438
  76.7418803  33.1122417 132.3187893  76.7906959  33.9884540 131.9365663
  77.2841318  32.5699810 131.7459536  87.2273649  43.6563540 131.5989030
  86.4369193  43.6387679 131.0593530  86.9907004  44.1951834 132.3538067
  87.3471524  40.5056007 128.9121759  87.3969529  40.3406014 129.8537282
  87.2385448  39.6383266 128.5219640  76.2307783  43.1844552 116.2013848
  76.3795903  43.8680017 115.5480520  77.0374226  43.1649643 116.7163303
  84.6375287  36.4886935 130.2281066  85.5385149  36.3493400 129.9365063
  84.7123261  36.6541390 131.1679243  78.9718092  33.8653790 129.0734252
  78.1021401  34.1587356 128.8016840  79.2077572  34.4494235 129.7941515
  88.8489721  42.9252948 129.1563780  88.5574529  43.2882929 129.9927241
  88.2361852  42.2119957 128.9777112  90.0485403  40.4905828 121.6766351
  90.8832295  40.9295632 121.8403911  90.1844532  40.0144481 120.8574596
  87.0976909  38.0485563 127.6243838  87.5731031  38.2413209 126.8162690
  86.1742475  38.1044749 127.3787222  73.9860416  39.2109730 117.2074917
  73.7406458  38.3072060 117.4055127  74.1556330  39.2126881 116.2654395
  81.6757126  30.0833406 126.5899672  82.1939070  30.8194433 126.2646161
  81.3212259  30.3897400 127.4246431  73.2556063  34.9438088 114.7061078
  72.5625308  35.0182443 114.0501114  73.0107815  34.1798431 115.2282595
  81.9269720  26.5033689 122.1100569  82.2071474  25.8356878 122.7360995
  82.7120327  26.6962785 121.5975233  79.7303188  45.6792683 113.6725595
  79.1577155  46.2982870 113.2196067  80.3035982  46.2292045 114.2065517
  85.7978578  34.9251323 125.8572144  86.7496001  35.0249421 125.8784368
  85.6282029  34.1329592 126.3670228  83.8192958  32.0106906 126.0431545
  83.2242890  32.2911919 125.3478033  83.5342654  32.5000807 126.8148286
  82.9500448  45.9629833 114.8034177  83.8831121  45.8975395 115.0067053
  82.8623661  46.7986100 114.3448710  85.5788465  45.2795703 111.7638125
  85.5002096  44.9455567 112.6573883  86.3998132  45.7717471 111.7629597
  88.2766656  38.1457443 124.9714444  88.2442976  37.2073443 125.1574127
  88.8867280  38.2241479 124.2380268  80.1149987  37.0153496 111.0141648
  81.0609092  36.8859704 111.0830066  79.7364232  36.2768158 111.4911076
  88.4261145  34.9368486 125.0172727  87.9100193  34.1526943 124.8302656
  89.3101093  34.6087203 125.1819246  86.0871871  28.6809502 120.9768539
  85.8896693  28.3724590 121.8611871  86.6971577  29.4071141 121.1066469
  94.0943206  39.2073450 124.1120480  94.8246594  38.9458738 124.6728184
  93.4850151  38.4702171 124.1522548  92.1758503  37.3481312 124.7094932
  91.4491667  37.2137277 124.1011423  91.7605790  37.6558141 125.5151650
  79.9988679  41.0671242 132.4742305  80.9191689  41.2449841 132.6682351
  79.9638262  40.1227287 132.3222004  78.2992904  34.9403472 110.9496533
  77.3924359  34.6436585 111.0259246  78.5768885  34.6433290 110.0830819
  69.2170844  36.2609835 121.3995579  68.8973629  35.4075144 121.1069953
  68.6704273  36.4758414 122.1553547  72.9950752  38.9772276 125.1165086
  73.2136762  39.9089384 125.1353120  73.4076526  38.6180251 125.9019890
  79.9154970  29.4840362 117.1040774  79.1055698  29.1387447 117.4796020
  80.6039387  29.1747905 117.6928386  81.8445518  28.5618409 118.7265071
  82.3976557  28.9813862 119.3855094  82.0815604  27.6354157 118.7688027
  77.8678617  34.5505482 134.5067835  77.7675344  35.4999839 134.4379926
  77.6500159  34.2223721 133.6343905  77.0691689  31.7990407 111.0908512
  77.9310853  32.1245306 111.3504329  77.2542033  31.0121903 110.5781578
  69.0859104  39.8812747 123.3688701  68.3922576  39.4666700 122.8558655
  69.8332095  39.9233283 122.7722120  85.2224325  30.6718934 118.2343735
  84.6422994  31.3303738 117.8521787  84.9560258  29.8496278 117.8231153
  83.6727892  30.0723991 120.4365055  84.1727670  30.1840526 119.6279374
  84.3163499  29.7685044 121.0765864  77.7309887  37.9802621 133.3232896
  77.2476969  38.7802981 133.5296785  77.8170826  37.9910566 132.3700340
  70.9995847  39.8131001 121.2454716  70.9766535  39.9118688 120.2936599
  71.3096483  40.6596152 121.5671882  73.6583225  41.8707156 125.3601330
  74.6126478  41.8391098 125.2931262  73.4595748  41.4097779 126.1751556
  74.2482607  40.4408272 127.9272128  75.0675496  40.9352350 127.9506965
  74.5219415  39.5240240 127.8989695  84.0049203  32.8319024 117.2900083
  83.1175058  33.1168675 117.0720278  84.4203192  32.6712787 116.4427360
  87.3563739  32.8565545 121.0054423  88.1324129  33.3461998 121.2779039
  86.6311873  33.2823599 121.4626292  89.7936298  33.5693164 122.0628363
  90.3880789  33.3288900 121.3521671  89.8662882  32.8500295 122.6901899
  72.0133454  47.4126775 122.3771528  71.8787922  46.6527176 121.8109526
  71.5965516  48.1367675 121.9100317  83.1492417  42.5963699 111.3848103
  83.8528267  42.8013701 112.0005759  82.4255065  43.1640461 111.6497187
  83.9790227  38.3473560 117.5050373  83.9225428  38.8042111 116.6658006
  84.5318569  37.5864245 117.3273216  87.7895033  34.1363292 118.3300493
  87.5331967  33.7359928 119.1608701  87.1647901  34.8507086 118.2050632
  92.1007371  36.8759365 120.8371784  91.5406929  36.9452554 121.6103346
  91.4950874  36.7000350 120.1171281  75.1702580  48.3096092 122.5889971
  75.0534964  49.2541525 122.4868661  74.3495026  48.0069654 122.9775770
  85.0579114  43.0346228 113.4346563  85.8924718  42.6027426 113.2524038
  84.8963457  42.8628242 114.3623458  84.7125006  39.5378341 114.8002903
  84.6573810  39.3722613 113.8591347  84.0871062  40.2454374 114.9565092
  69.5017521  34.7746406 128.6264325  70.1476385  34.2645360 129.1151550
  69.2934672  35.5115087 129.2007750  82.0270913  41.8427253 134.1256465
  82.8962073  42.0167905 133.7643100  81.5477665  42.6621670 134.0032195
  78.0221132  29.0386450 114.3788221  78.0099802  29.9828290 114.5356492
  78.9144554  28.8556596 114.0847682  76.1957094  48.9624354 125.8045899
  77.0984340  48.9947964 126.1212394  75.9694464  48.0324805 125.8192235
  77.9510696  47.7155341 122.4655978  77.0006327  47.7157202 122.3520350
  78.2543182  46.9688075 121.9492012  81.8373251  25.6329227 118.6334158
  81.0705647  25.0787714 118.7790840  82.2483956  25.7051096 119.4948309
  93.6863389  53.5515879 123.5301740  94.3241799  53.4322626 122.8265080
  93.5684232  54.4996723 123.5889692  90.4953095  53.5043307 123.4663265
  90.1571607  53.3884372 122.5783800  91.3642864  53.1034472 123.4464271
  86.3539911  55.3578784 119.4560156  85.7904776  55.2668721 118.6876444
  86.2392306  54.5378688 119.9362648  90.9772878  54.6578159 129.4249470
  90.9661519  54.2630957 128.5529974  91.1393518  53.9244232 130.0183242
  83.9004343  56.8529975 122.2944376  84.6925635  56.5120800 121.8790676
  84.1400993  56.9624950 123.2146530  91.9339470  59.0249751 114.7674621
  91.2827450  59.6103832 114.3808634  92.7283833  59.5555946 114.8269658
  85.8595097  56.1138888 115.1661755  86.6325973  55.5667876 115.0274631
  86.2120496  56.9783138 115.3776216  87.6980140  57.4415271 128.3728654
  87.4070006  58.3460902 128.2575321  88.3337124  57.4831798 129.0872724
  88.6236346  54.8192119 124.9630014  89.2199919  54.5948142 124.2486977
  88.6811318  54.0776865 125.5655462  88.1961375  52.2731555 112.7980205
  88.4486895  51.7513076 112.0363668  87.2585934  52.1097700 112.9006889
  93.2404658  51.2767333 120.6054948  94.0267747  50.8586756 120.2545365
  93.5043362  52.1813425 120.7736597  93.4114735  56.7140183 115.3043605
  92.7760568  56.7874810 116.0164510  93.0812141  57.3033782 114.6262684
  98.6413085  51.2142566 121.5087927  99.3738257  50.6441783 121.7425756
  97.8852440  50.8264167 121.9494432  87.9157664  54.1759661 115.0004580
  87.7993922  53.5004564 115.6685664  88.0259923  53.6892034 114.1836733
  90.2589204  53.6369808 118.7051269  89.8947412  53.1100429 119.4164191
  91.1156320  53.2468277 118.5317755  96.1638505  44.9264140 125.9682535
  95.8321830  45.7959551 125.7443750  95.5684118  44.6100424 126.6476566
  89.8994691  48.6659707 113.7012618  90.0669094  49.5339944 114.0683089
  89.7091861  48.8286989 112.7773907  92.6570025  57.1276686 125.3678448
  92.3570748  58.0301725 125.2594255  92.3121084  56.8608869 126.2199601
  86.1082506  53.5790483 121.4015152  85.1833003  53.4466697 121.6092844
  86.3566919  54.3584702 121.8985095  96.0567168  49.6459226 123.0475885
  95.1484046  49.5774635 122.7534646  96.0054764  50.1231171 123.8757711
  89.8783912  51.1217365 114.6859284  89.7583538  51.5674416 115.5244765
  89.1836501  51.4702683 114.1272823  83.4691317  53.2223757 122.2358941
  83.5983698  53.4758236 123.1498353  82.7888768  53.8151465 121.9163597
  87.6390804  63.8921007 118.3349416  87.5614834  64.8428832 118.4137896
  87.0352448  63.5466879 118.9924342  90.1308034  51.0648872 130.9910783
  89.3541368  51.6242792 130.9813647  90.7698597  51.5505655 131.5125653
  97.9228815  47.8475665 124.8253759  97.2803195  48.1408198 124.1793554
  97.4183743  47.7328585 125.6306956  95.5768978  51.5938838 115.5139619
  96.4886835  51.8266225 115.3387316  95.0678626  52.1775882 114.9514697
  88.3854407  53.8734325 130.5528750  89.1269091  54.4119369 130.2763573
  87.6791392  54.5000614 130.7100301  93.8609746  56.0163466 129.1500911
  94.2693102  55.5745876 128.4055543  93.1387008  55.4416093 129.4035104
  90.2140816  50.9536073 126.5234468  91.0602011  51.3775486 126.6669117
  90.1539454  50.2969697 127.2173031  94.1838561  56.5764656 122.9053200
  93.5547423  56.7410371 122.2029268  93.7964223  56.9906266 123.6764164
  98.0627793  57.5119094 120.2597564  97.3778831  57.8917996 119.7094597
  98.1471642  58.1214421 120.9929511  93.3640262  48.6140441 128.1815642
  93.1201193  49.3682501 127.6449917  93.6400192  48.9925789 129.0162889
  95.3178724  55.1579053 126.8592907  95.5295620  55.8010813 126.1827288
  95.2708473  54.3241370 126.3914837  92.9204953  47.7696874 123.7629479
  92.0589432  48.0678128 124.0546217  92.9467388  47.9867273 122.8310512
  89.7366523  56.3139065 120.1703285  90.2004868  56.5926768 119.3807908
  89.4723321  55.4122509 119.9876376  86.6290604  55.8610546 123.1083048
  87.1991961  56.2897814 122.4700533  87.2198716  55.5793131 123.8067234
  88.6735409  52.4362217 116.9792850  89.3759452  52.8883261 117.4466777
  88.3416037  51.7946036 117.6072743  87.1215770  51.0273974 131.3544060
  86.4914431  51.7090254 131.5879456  87.0151858  50.9157055 130.4097198
  82.4160743  50.6945770 122.2809984  81.6259797  50.9503298 121.8050094
  82.9071990  51.5094107 122.3862024  96.4324552  58.0351009 125.0315265
  97.2541996  57.6331196 124.7497946  96.4286955  57.9319243 125.9831380
  84.3675488  51.0590349 119.2393460  83.5706651  51.1709043 119.7576956
  84.1401080  51.3977001 118.3734351  90.1981156  57.5835052 127.1875975
  90.2625588  58.0455459 128.0234147  89.4892080  56.9532417 127.3158285
  80.6998446  50.9476260 124.7124975  80.9506484  51.8323270 124.9782551
  81.2357994  50.7680862 123.9400066 104.5230545  54.3789757 121.3800236
 103.7694254  53.8097155 121.2244240 104.6578087  54.3452422 122.3270871
  89.9129173  59.2503160 117.0554955  89.7774848  60.0954695 117.4839803
  90.4538986  59.4522437 116.2920889  86.3996513  45.3294739 133.7169311
  86.0063459  44.7760938 134.3916955  87.2162653  45.6405318 134.1075828
  83.3658571  56.7678598 117.6282881  83.8783091  57.5621848 117.7788445
  84.0181284  56.0704888 117.5616482  85.1753455  59.8844354 119.7105634
  85.3520084  60.8062319 119.5226618  85.9710289  59.5702773 120.1400013
  89.3164474  46.7452618 131.3089567  90.0574187  47.3459772 131.2294030
  89.5482397  46.0030256 130.7507610  84.4605812  51.9308986 129.5867797
  84.3459327  51.0294243 129.8874896  83.6050330  52.1772683 129.2352613
  91.5397650  59.8726726 131.1855298  91.0961504  59.0863105 130.8676202
  92.2014863  60.0605877 130.5199188  86.2984771  61.4022528 125.7115976
  86.8492196  61.2739591 124.9392970  85.4596247  61.7017417 125.3610869
  93.6378888  60.1529526 129.2136699  93.6197363  60.9738407 128.7216968
  94.5598808  60.0283601 129.4386840  90.0951942  57.6673655 130.0560207
  90.6280279  56.9061944 129.8259515  89.5666023  57.3747307 130.7984362
  93.2621637  42.7733721 125.5853849  92.9185906  43.6635363 125.5092959
  93.6300600  42.5835379 124.7223434  81.3307488  55.0967252 118.4042451
  82.1682710  55.5064260 118.1876159  81.5085755  54.1566694 118.3742645
  93.2271920  52.7642333 114.0926284  92.7118543  53.5346937 114.3314671
  92.9549228  52.0907469 114.7159345  90.8119031  47.6092033 119.1511522
  89.9560627  47.2198884 118.9717161  91.2245982  47.6883994 118.2911308
  92.3418177  45.1438377 123.5503082  91.8382973  45.1068512 122.7370887
  92.6348784  46.0531119 123.6099739  88.5861063  45.2277106 122.5569264
  89.4514060  45.0319915 122.1975153  88.6538572  44.9987458 123.4838621
  98.2006194  55.5174687 116.0279457  97.4235637  55.1785847 115.5834620
  98.8797675  55.5227310 115.3534423  93.0158223  50.6369425 115.9186065
  92.7108358  50.9515574 116.7696208  93.9688665  50.7150845 115.9613398
  91.4604655  56.7959648 117.5679019  90.9326016  56.0612408 117.2552257
  90.9592157  57.5734324 117.3218987  96.4397501  54.9908668 122.6846065
  95.7821175  55.6807930 122.7726194  97.2437900  55.3805100 123.0280052
  86.1923382  47.4579314 119.9285631  86.7667134  47.2354496 119.1958824
  86.7794365  47.5268009 120.6814232  95.2502959  53.3453041 120.7350007
  95.7634841  53.9783033 121.2371717  95.9004183  52.7454237 120.3693367
  86.5192969  49.4883775 113.9481516  85.6830282  49.8258462 114.2690791
  86.3797739  49.3532755 113.0108653  88.4946050  44.3320563 118.6560700
  87.8410462  44.0169580 118.0317315  88.4526524  43.7096304 119.3820523
  89.6057255  54.6139858 110.5713992  88.6984317  54.3829112 110.7705141
  90.1028287  53.8177477 110.7587974  92.5125334  63.3237365 113.4910678
  91.8387032  63.6269062 114.0995636  92.8991156  64.1266446 113.1416135
  91.7283790  50.8202497 122.9808348  90.8106352  51.0417444 122.8230036
  92.1443934  50.8948807 122.1220055  92.5118838  52.2193912 118.1111028
  93.2590657  52.7315310 117.8018150  92.7810428  51.8977965 118.9715422
  90.7845488  54.7152453 115.0937982  89.8756708  54.4311486 115.1910452
  90.8140572  55.1351532 114.2341289  96.0164756  58.3259043 118.8629150
  95.5627083  57.4849952 118.9194340  95.3858722  58.9620441 119.2003930
  94.9597675  49.2551029 120.0929817  94.2220432  48.7428415 120.4240060
  95.2124449  48.8151410 119.2813094  94.4597695  60.1635539 119.7978968
  94.7520669  60.7240596 119.0791334  94.9696316  60.4564100 120.5532127
  95.0609303  42.0327281 120.6871587  95.3668179  41.1724644 120.3997502
  95.7861907  42.6244901 120.4870580  81.3533659  52.4357967 119.0753184
  81.1558058  51.8427328 118.3504251  80.7980323  52.1310177 119.7929123
  89.3330382  52.3281074 121.1947778  89.3878992  51.3754910 121.1190254
  88.5221584  52.4840513 121.6789076  90.4821576  56.2561197 112.4326061
  90.0441006  55.5397056 111.9731698  91.2232017  56.4837312 111.8711152
  87.2722742  50.9458133 118.9538156  86.4590608  51.2452304 119.3603349
  87.7681736  50.5513822 119.6712639  89.4231320  60.9415890 120.8872421
  89.3807499  61.1676737 119.9580953  90.3394019  60.7079265 121.0358222
  92.8696954  51.4099958 127.7853050  93.2246342  51.6371431 128.6447516
  93.5169085  51.7418335 127.1630306  98.5994691  54.5318394 118.4902379
  98.4612589  54.7219990 117.5623569  98.2430910  55.2937777 118.9470431
  86.7636817  48.5176489 124.5699391  87.4036196  48.3765248 123.8722355
  85.9314348  48.2311002 124.1937993  98.6264070  56.5994921 123.5013651
  99.0600577  56.5070210 124.3496705  99.3395651  56.5752421 122.8633667
  87.5397121  57.8178919 120.6834384  88.3337719  57.3229240 120.4816959
  86.8288813  57.2896783 120.3202089  92.3591965  60.1997015 125.0346752
  92.4128988  60.7687951 125.8024467  91.4906747  60.3698900 124.6700789
  83.8479884  51.9622001 116.7594137  82.9177472  51.9006457 116.9764099
  83.9437356  51.4397954 115.9630778  83.7665433  48.4876814 119.3472378
  84.0272251  49.4022147 119.2381539  84.5882606  48.0201257 119.4968991
  85.2390359  49.9014571 126.5171203  85.9113412  49.6931933 125.8683852
  84.4120145  49.7036657 126.0776435  99.4879620  56.6418621 126.0346536
  99.6815510  57.5464432 126.2805811  99.3880238  56.1826041 126.8685121
  91.1415931  46.5276512 128.5336864  90.4943846  47.2266462 128.4401340
  91.9116946  46.9612656 128.9013112  94.5494729  56.7925364 131.6087417
  94.3980235  56.5635916 130.6917501  94.5399408  57.7495966 131.6218762
  91.3180065  54.3657277 126.5933683  92.2472125  54.5168437 126.4202651
  90.8971095  54.4541298 125.7382330  90.1168397  58.3907941 124.3632221
  89.9779483  58.0226726 125.2358159  89.3282993  58.9055581 124.1916179
  90.7116549  63.4917038 115.7057758  90.8868305  63.0205081 116.5203380
  90.0249337  64.1182804 115.9339018  91.6673612  57.7689544 121.7521059
  91.3323445  57.7290314 122.6478709  91.1677558  57.1034260 121.2791469
  85.6417856  53.1757174 127.2773640  85.5037654  52.4437413 127.8785179
  86.5522779  53.0866074 126.9957828  94.6032804  55.1145578 112.0258118
  93.9861974  54.3892407 111.9291171  94.1349292  55.8754939 111.6825193
  88.2700157  52.8877133 126.7657320  88.9799775  52.2470326 126.7243938
  88.2269465  53.1390028 127.6883500  96.2586935  59.8244487 129.6863899
  96.1999482  59.1403707 129.0194482  96.6606454  60.5663477 129.2344525
  86.9829091  49.8742351 128.5852959  86.4466448  49.4233090 129.2374555
  86.3945799  50.0088260 127.8423423  85.2777634  66.6406401 122.4797618
  85.5174232  67.2724925 123.1576636  84.4346831  66.2894441 122.7662977
  86.3931350  49.3331003 111.1479423  85.5160816  49.2119803 110.7841669
  86.8689103  48.5417081 110.8958311  96.2604343  57.7884071 127.9177878
  95.3731121  57.4509992 128.0404277  96.8302894  57.0567102 128.1546644
  77.9133490  54.1208162 121.2420930  78.6004530  53.8069892 120.6541945
  77.7581618  55.0249527 120.9688181  82.7168212  49.0098359 125.6705954
  82.6326401  48.4024029 124.9356363  81.8950918  49.5007377 125.6715450
  89.7905496  62.4485523 124.8839122  89.7175668  63.2540495 125.3958426
  89.3482889  62.6477489 124.0587143  89.5795276  61.6857293 118.3941943
  88.7962798  62.2278973 118.4880168  90.2788021  62.2031273 118.7936184
  92.8891926  47.4951923 121.0376149  93.3860625  46.7421885 120.7177219
  92.1178907  47.5316239 120.4719358 100.7421683  53.1992288 122.6794440
 100.7311559  54.0817003 122.3088373  99.8739063  52.8463839 122.4848977
  92.2504180  62.3472357 127.0397280  92.9632152  62.9819822 126.9673182
  91.7594208  62.4436223 126.2237282  93.9721706  56.2523610 118.6114572
  93.0377985  56.3725072 118.4419276  94.1498375  55.3496077 118.3474582
  89.4726895  49.6369306 120.7647833  89.1024682  49.0840346 121.4528739
  89.9685987  49.0327439 120.2122833  97.3594258  52.0940929 119.1464606
  97.8254710  52.9268921 119.0724909  97.8101758  51.6285911 119.8509865
  87.3016093  60.0966801 127.8602851  88.0025553  60.7303283 128.0132245
  86.8311208  60.4381532 127.0998490  95.4270489  58.4384750 116.1450758
  95.7030333  58.3241345 117.0544632  94.5574988  58.0402235 116.1062931
  95.3310921  44.4621516 123.1855507  94.4174000  44.6925743 123.3537714
  95.7604022  44.5459960 124.0369540  95.1017379  52.6511408 125.6855402
  94.4488829  52.8987315 125.0307854  95.4797759  51.8375546 125.3517879
  92.0624553  62.6871101 119.7883572  92.2446947  61.8692757 120.2511324
  92.8857539  62.9038793 119.3508462  92.3966718  61.6139286 117.0498620
  92.9254485  61.1031741 116.4368782  92.6594938  61.2981816 117.9144153
  91.1504952  53.3931219 132.1721439  90.4745589  53.2925348 132.8423814
  91.9732586  53.2370433 132.6357436  82.8983811  59.6303156 124.7933954
  83.4837248  58.8846843 124.9261858  82.7008650  59.9407112 125.6770618
  85.7522466  62.6654403 119.8096396  85.0832842  63.1500531 119.3260436
  85.6135336  62.9123623 120.7239775  77.4901466  52.2008756 123.5138397
  77.5285565  51.6672346 124.3075515  76.9841759  51.6743961 122.8949374
  89.8927735  64.6998146 126.4079055  90.4446043  64.8629768 127.1728140
  90.2333928  65.2902584 125.7359079  84.8692228  47.0473296 127.0100939
  84.9333555  47.9088127 126.5978337  84.8059348  46.4347298 126.2773298
  84.3444501  49.1196429 130.6573974  84.9716540  48.7373506 131.2711498
  83.4872420  48.9010631 131.0229666  94.7438609  59.5259404 132.2627709
  95.2878513  60.1389362 131.7682664  94.1625454  60.0838982 132.7794722
  81.1210043  50.9272858 116.5892328  81.4163485  50.0183536 116.5359382
  80.2198079  50.9060597 116.2673331  93.0296122  62.6480122 123.3942737
  92.9047262  61.8469862 122.8853682  93.6875213  63.1426315 122.9056707
  84.6504290  49.0028855 122.5719877  83.9290876  49.6164822 122.4327350
  85.4397546  49.5386619 122.4936523  95.0931031  60.4489142 125.0222287
  94.1461366  60.3294493 124.9500614  95.4413804  59.5611640 125.1048548
  87.4530604  46.3383281 128.8460529  87.9765006  46.5845578 129.6086838
  87.2342937  47.1703316 128.4263666  82.8497885  48.6086956 116.7131654
  82.5210591  47.7284335 116.5306759  83.2037256  48.5534624 117.6008043
  92.0977464  60.2441858 121.2226639  91.9502426  59.3158566 121.4034209
  92.9230957  60.2661949 120.7383714  85.9639708  48.8959925 117.0807131
  86.3035781  49.4245847 116.3585740  86.4111829  49.2340332 117.8565698
  95.7011586  61.0670417 122.3091512  96.6258133  60.8613278 122.1715963
  95.5326889  60.8186818 123.2180853  88.6583149  47.2796976 126.5310199
  88.3179969  46.4804789 126.9330879  87.9522155  47.5798687 125.9587032
  89.3099621  44.3646289 124.9837522  90.1325690  43.8906767 124.8616413
  89.5537684  45.1436772 125.4836209  87.9507855  47.3934547 115.2800424
  88.6716218  47.7715800 114.7764141  87.3273159  48.1123424 115.3835402
  92.0938978  48.0979696 116.2158756  92.3102593  48.9804334 115.9147584
  91.6133045  47.7065909 115.4864398  86.8338200  51.0565409 122.7929501
  86.6882780  51.3705712 123.6853782  86.3563403  51.6750310 122.2400400
  88.6934582  48.0467957 122.8410390  88.6796151  47.1509050 122.5042688
  89.4107011  48.0538621 123.4748677  90.5460713  48.4805297 124.8863518
  90.2878491  49.4022368 124.8847848  90.0145754  48.0835732 125.5763982
  95.4906902  61.5856084 117.6653603  95.6643779  61.0202507 116.9127456
  95.9835793  62.3856979 117.4833093  81.3083862  53.5970754 125.7317162
  80.7637330  54.3730562 125.8637436  82.1863212  53.9441558 125.5736284
  88.0971478  46.9282337 118.1097961  88.2187390  45.9998984 118.3088848
  87.8073521  46.9421023 117.1976276  90.9662669  44.6137248 121.2464680
  90.9884366  44.6776581 120.2916660  91.3830728  43.7741757 121.4405187
 101.3446293  54.3492507 119.2843903 101.7877439  53.5999833 118.8863026
 100.4672803  54.3402644 118.9017635  96.4782074  60.9022849 114.7650502
  97.1732979  61.5229542 114.9837816  96.8205225  60.0518200 115.0402879
  82.0949884  52.7240650 128.6247319  81.3531620  52.8723285 129.2111949
  81.7742628  52.9848915 127.7614068  98.3773498  58.3522554 116.2937832
  98.9024822  58.6909827 115.5687152  98.2895850  57.4169570 116.1100967
  90.0393546  62.2656628 128.4227709  90.3480673  62.0205775 129.2950409
  90.8369028  62.4703267 127.9346579  90.0614158  64.4194538 120.6533086
  89.6219149  63.9270916 121.3465942  90.8122275  63.8767505 120.4125161
  82.5406497  60.6106079 120.6557714  83.3664517  60.3109850 120.2756357
  82.1900549  59.8413701 121.1047502  87.5088030  59.9632547 122.7255387
  86.8868040  59.3003252 122.4257615  88.1792897  59.9893679 122.0429035
  80.7415102  58.5292405 121.6146647  79.9047011  58.1014579 121.4330648
  80.7138748  58.7224848 122.5517438  87.5812558  48.4414335 132.3187893
  87.6300713  49.3176458 131.9365663  88.1235072  47.8991728 131.7459536
  98.0667404  58.9855458 131.5989030  97.2762947  58.9679597 131.0593530
  97.8300758  59.5243752 132.3538067  98.1865279  55.8347924 128.9121759
  98.2363284  55.6697932 129.8537282  98.0779202  54.9675183 128.5219640
  87.0701537  58.5136470 116.2013848  87.2189658  59.1971935 115.5480520
  87.8767981  58.4941560 116.7163303  95.4769041  51.8178852 130.2281066
  96.3778904  51.6785317 129.9365063  95.5517016  51.9833307 131.1679243
  89.8111846  49.1945707 129.0734252  88.9415156  49.4879273 128.8016840
  90.0471327  49.7786152 129.7941515  99.6883476  58.2544866 129.1563780
  99.3968284  58.6174847 129.9927241  99.0755607  57.5411874 128.9777112
 100.8879158  55.8197746 121.6766351 101.7226049  56.2587550 121.8403911
 101.0238287  55.3436399 120.8574596  97.9370664  53.3777481 127.6243838
  98.4124785  53.5705127 126.8162690  97.0136229  53.4336666 127.3787222
  84.8254170  54.5401648 117.2074917  84.5800212  53.6363978 117.4055127
  84.9950085  54.5418798 116.2654395  92.5150880  45.4125324 126.5899672
  93.0332824  46.1486351 126.2646161  92.1606013  45.7189317 127.4246431
  84.0949818  50.2730005 114.7061078  83.4019063  50.3474360 114.0501114
  83.8501570  49.5090349 115.2282595  92.7663474  41.8325607 122.1100569
  93.0465228  41.1648796 122.7360995  93.5514081  42.0254702 121.5975233
  90.5696943  61.0084601 113.6725595  89.9970910  61.6274788 113.2196067
  91.1429737  61.5583962 114.2065517  96.6372333  50.2543241 125.8572144
  97.5889756  50.3541338 125.8784368  96.4675783  49.4621509 126.3670228
  94.6586712  47.3398824 126.0431545  94.0636644  47.6203837 125.3478033
  94.3736409  47.8292725 126.8148286  93.7894203  61.2921751 114.8034177
  94.7224876  61.2267312 115.0067053  93.7017416  62.1278018 114.3448710
  96.4182219  60.6087621 111.7638125  96.3395851  60.2747485 112.6573883
  97.2391886  61.1009389 111.7629597  99.1160411  53.4749360 124.9714444
  99.0836731  52.5365361 125.1574127  99.7261034  53.5533397 124.2380268
  90.9543741  52.3445413 111.0141648  91.9002846  52.2151621 111.0830066
  90.5757986  51.6060075 111.4911076  99.2654899  50.2660404 125.0172727
  98.7493948  49.4818860 124.8302656 100.1494848  49.9379120 125.1819246
  96.9265626  44.0101419 120.9768539  96.7290447  43.7016508 121.8611871
  97.5365332  44.7363058 121.1066469 104.9336960  54.5365367 124.1120480
 105.6640349  54.2750655 124.6728184 104.3243906  53.7994089 124.1522548
 103.0152258  52.6773230 124.7094932 102.2885421  52.5429195 124.1011423
 102.5999544  52.9850058 125.5151650  90.8382434  56.3963159 132.4742305
  91.7585443  56.5741758 132.6682351  90.8032017  55.4519205 132.3222004
  89.1386659  50.2695390 110.9496533  88.2318114  49.9728502 111.0259246
  89.4162640  49.9725208 110.0830819  80.0564599  51.5901753 121.3995579
  79.7367383  50.7367061 121.1069953  79.5098027  51.8050331 122.1553547
  83.8344506  54.3064194 125.1165086  84.0530516  55.2381302 125.1353120
  84.2470280  53.9472169 125.9019890  90.7548724  44.8132279 117.1040774
  89.9449453  44.4679364 117.4796020  91.4433141  44.5039823 117.6928386
  92.6839273  43.8910326 118.7265071  93.2370311  44.3105780 119.3855094
  92.9209359  42.9646074 118.7688027  88.7072372  49.8797400 134.5067835
  88.6069099  50.8291757 134.4379926  88.4893914  49.5515639 133.6343905
  87.9085443  47.1282325 111.0908512  88.7704607  47.4537223 111.3504329
  88.0935787  46.3413821 110.5781578  79.9252859  55.2104665 123.3688701
  79.2316330  54.7958617 122.8558655  80.6725850  55.2525201 122.7722120
  96.0618080  46.0010851 118.2343735  95.4816749  46.6595655 117.8521787
  95.7954012  45.1788196 117.8231153  94.5121646  45.4015909 120.4365055
  95.0121424  45.5132444 119.6279374  95.1557254  45.0976962 121.0765864
  88.5703642  53.3094539 133.3232896  88.0870724  54.1094899 133.5296785
  88.6564581  53.3202484 132.3700340  81.8389601  55.1422918 121.2454716
  81.8160290  55.2410606 120.2936599  82.1490238  55.9888069 121.5671882
  84.4976979  57.1999073 125.3601330  85.4520233  57.1683016 125.2931262
  84.2989503  56.7389697 126.1751556  85.0876361  55.7700189 127.9272128
  85.9069250  56.2644268 127.9506965  85.3613169  54.8532158 127.8989695
  94.8442958  48.1610942 117.2900083  93.9568813  48.4460592 117.0720278
  95.2596947  48.0004705 116.4427360  98.1957494  48.1857463 121.0054423
  98.9717884  48.6753915 121.2779039  97.4705628  48.6115517 121.4626292
 100.6330052  48.8985082 122.0628363 101.2274543  48.6580818 121.3521671
 100.7056636  48.1792213 122.6901899  82.8527208  62.7418693 122.3771528
  82.7181676  61.9819094 121.8109526  82.4359270  63.4659593 121.9100317
  93.9886171  57.9255616 111.3848103  94.6922021  58.1305619 112.0005759
  93.2648820  58.4932378 111.6497187  94.8183981  53.6765478 117.5050373
  94.7619183  54.1334029 116.6658006  95.3712324  52.9156162 117.3273216
  98.6288787  49.4655210 118.3300493  98.3725722  49.0651845 119.1608701
  98.0041655  50.1799004 118.2050632 102.9401125  52.2051283 120.8371784
 102.3800683  52.2744472 121.6103346 102.3344629  52.0292267 120.1171281
  86.0096334  63.6388010 122.5889971  85.8928718  64.5833442 122.4868661
  85.1888780  63.3361571 122.9775770  95.8972869  58.3638146 113.4346563
  96.7318472  57.9319344 113.2524038  95.7357211  58.1920159 114.3623458
  95.5518761  54.8670259 114.8002903  95.4967565  54.7014530 113.8591347
  94.9264816  55.5746292 114.9565092  80.3411276  50.1038323 128.6264325
  80.9870139  49.5937277 129.1151550  80.1328427  50.8407005 129.2007750
  92.8664668  57.1719171 134.1256465  93.7355828  57.3459823 133.7643100
  92.3871419  57.9913588 134.0032195  88.8614886  44.3678368 114.3788221
  88.8493556  45.3120208 114.5356492  89.7538308  44.1848513 114.0847682
  87.0350848  64.2916272 125.8045899  87.9378095  64.3239882 126.1212394
  86.8088218  63.3616723 125.8192235  88.7904450  63.0447258 122.4655978
  87.8400081  63.0449120 122.3520350  89.0936936  62.2979993 121.9492012
  92.6767006  40.9621145 118.6334158  91.9099401  40.4079631 118.7790840
  93.0877711  41.0343013 119.4948309  84.6808767  47.2505940 132.7239339
  85.5440228  46.8942745 132.9342664  84.1074177  46.9119835 133.4114743
 104.5257144  68.8807797 123.5301740 105.1635554  68.7614544 122.8265080
 104.4077987  69.8288641 123.5889692 101.3346850  68.8335225 123.4663265
 100.9965361  68.7176290 122.5783800 102.2036618  68.4326390 123.4464271
  97.1933666  70.6870701 119.4560156  96.6298531  70.5960638 118.6876444
  97.0786061  69.8670606 119.9362648 101.8166633  69.9870077 129.4249470
 101.8055274  69.5922875 128.5529974 101.9787272  69.2536149 130.0183242
  94.7398098  72.1821893 122.2944376  95.5319389  71.8412718 121.8790676
  94.9794748  72.2916868 123.2146530 102.7733224  74.3541669 114.7674621
 102.1221204  74.9395749 114.3808634 103.5677587  74.8847864 114.8269658
  96.6988851  71.4430806 115.1661755  97.4719727  70.8959793 115.0274631
  97.0514250  72.3075055 115.3776216  98.5373894  72.7707188 128.3728654
  98.2463760  73.6752819 128.2575321  99.1730878  72.8123716 129.0872724
  99.4630101  70.1484037 124.9630014 100.0593673  69.9240059 124.2486977
  99.5205072  69.4068782 125.5655462  99.0355129  67.6023472 112.7980205
  99.2880650  67.0804994 112.0363668  98.0979688  67.4389618 112.9006889
 104.0798412  66.6059251 120.6054948 104.8661501  66.1878674 120.2545365
 104.3437116  67.5105343 120.7736597 104.2508489  72.0432101 115.3043605
 103.6154322  72.1166727 116.0164510 103.9205896  72.6325700 114.6262684
 109.4806839  66.5434484 121.5087927 110.2132011  65.9733701 121.7425756
 108.7246195  66.1556084 121.9494432  98.7551418  69.5051578 115.0004580
  98.6387676  68.8296482 115.6685664  98.8653678  69.0183952 114.1836733
 101.0982959  68.9661725 118.7051269 100.7341166  68.4392346 119.4164191
 101.9550075  68.5760194 118.5317755 107.0032260  60.2556058 125.9682535
 106.6715584  61.1251469 125.7443750 106.4077873  59.9392342 126.6476566
 100.7388446  63.9951625 113.7012618 100.9062848  64.8631861 114.0683089
 100.5485615  64.1578907 112.7773907 103.4963779  72.4568604 125.3678448
 103.1964502  73.3593643 125.2594255 103.1514839  72.1900787 126.2199601
  96.9476261  68.9082401 121.4015152  96.0226757  68.7758615 121.6092844
  97.1960674  69.6876620 121.8985095 106.8960923  64.9751144 123.0475885
 105.9877800  64.9066553 122.7534646 106.8448519  65.4523089 123.8757711
 100.7177667  66.4509283 114.6859284 100.5977292  66.8966333 115.5244765
 100.0230255  66.7994600 114.1272823  94.3085072  68.5515674 122.2358941
  94.4377453  68.8050153 123.1498353  93.6282523  69.1443382 121.9163597
  98.4784559  79.2212924 118.3349416  98.4008589  80.1720749 118.4137896
  97.8746203  78.8758797 118.9924342 100.9701789  66.3940790 130.9910783
 100.1935123  66.9534710 130.9813647 101.6092352  66.8797573 131.5125653
 108.7622569  63.1767582 124.8253759 108.1196950  63.4700116 124.1793554
 108.2577498  63.0620503 125.6306956 106.4162733  66.9230756 115.5139619
 107.3280589  67.1558142 115.3387316 105.9072380  67.5067800 114.9514697
  99.2248161  69.2026243 130.5528750  99.9662845  69.7411287 130.2763573
  98.5185146  69.8292532 130.7100301 104.7003501  71.3455384 129.1500911
 105.1086857  70.9037794 128.4055543 103.9780762  70.7708011 129.4035104
 101.0534571  66.2827990 126.5234468 101.8995766  66.7067404 126.6669117
 100.9933208  65.6261615 127.2173031 105.0232315  71.9056574 122.9053200
 104.3941178  72.0702288 122.2029268 104.6357977  72.3198184 123.6764164
 108.9021547  72.8411012 120.2597564 108.2172585  73.2209913 119.7094597
 108.9865397  73.4506339 120.9929511 104.2034016  63.9432359 128.1815642
 103.9594948  64.6974419 127.6449917 104.4793947  64.3217706 129.0162889
 106.1572479  70.4870971 126.8592907 106.3689374  71.1302731 126.1827288
 106.1102227  69.6533288 126.3914837 103.7598708  63.0988792 123.7629479
 102.8983187  63.3970045 124.0546217 103.7861142  63.3159191 122.8310512
 100.5760277  71.6430982 120.1703285 101.0398623  71.9218685 119.3807908
 100.3117075  70.7414427 119.9876376  97.4684358  71.1902464 123.1083048
  98.0385715  71.6189732 122.4700533  98.0592470  70.9085048 123.8067234
  99.5129163  67.7654135 116.9792850 100.2153207  68.2175178 117.4466777
  99.1809792  67.1237953 117.6072743  97.9609525  66.3565891 131.3544060
  97.3308185  67.0382172 131.5879456  97.8545613  66.2448973 130.4097198
  93.2554497  66.0237687 122.2809984  92.4653551  66.2795216 121.8050094
  93.7465745  66.8386025 122.3862024 107.2718307  73.3642926 125.0315265
 108.0935750  72.9623114 124.7497946 107.2680710  73.2611161 125.9831380
  95.2069243  66.3882267 119.2393460  94.4100406  66.5000961 119.7576956
  94.9794835  66.7268919 118.3734351 101.0374910  72.9126970 127.1875975
 101.1019343  73.3747377 128.0234147 100.3285834  72.2824335 127.3158285
  91.5392200  66.2768178 124.7124975  91.7900239  67.1615188 124.9782551
  92.0751749  66.0972779 123.9400066 115.3624300  69.7081675 121.3800236
 114.6088008  69.1389073 121.2244240 115.4971841  69.6744339 122.3270871
 100.7522928  74.5795077 117.0554955 100.6168603  75.4246613 117.4839803
 101.2932740  74.7814355 116.2920889  97.2390267  60.6586657 133.7169311
  96.8457213  60.1052856 134.3916955  98.0556408  60.9697236 134.1075828
  94.2052325  72.0970515 117.6282881  94.7176846  72.8913766 117.7788445
  94.8575038  71.3996806 117.5616482  96.0147210  75.2136272 119.7105634
  96.1913838  76.1354236 119.5226618  96.8104043  74.8994691 120.1400013
 100.1558228  62.0744536 131.3089567 100.8967942  62.6751689 131.2294030
 100.3876151  61.3322174 130.7507610  95.2999566  67.2600903 129.5867797
  95.1853082  66.3586161 129.8874896  94.4444084  67.5064600 129.2352613
 102.3791404  75.2018644 131.1855298 101.9355258  74.4155022 130.8676202
 103.0408618  75.3897794 130.5199188  97.1378525  76.7314445 125.7115976
  97.6885951  76.6031509 124.9392970  96.2990001  77.0309334 125.3610869
 104.4772642  75.4821444 129.2136699 104.4591118  76.3030325 128.7216968
 105.3992562  75.3575519 129.4386840 100.9345696  72.9965573 130.0560207
 101.4674033  72.2353861 129.8259515 100.4059778  72.7039225 130.7984362
 104.1015391  58.1025639 125.5853849 103.7579661  58.9927281 125.5092959
 104.4694354  57.9127297 124.7223434  92.1701242  70.4259170 118.4042451
  93.0076464  70.8356178 118.1876159  92.3479510  69.4858612 118.3742645
 104.0665674  68.0934250 114.0926284 103.5512298  68.8638855 114.3314671
 103.7942983  67.4199386 114.7159345 101.6512785  62.9383951 119.1511522
 100.7954382  62.5490801 118.9717161 102.0639737  63.0175912 118.2911308
 103.1811932  60.4730294 123.5503082 102.6776727  60.4360429 122.7370887
 103.4742539  61.3823037 123.6099739  99.4254818  60.5569024 122.5569264
 100.2907814  60.3611833 122.1975153  99.4932327  60.3279376 123.4838621
 109.0399948  70.8466605 116.0279457 108.2629391  70.5077764 115.5834620
 109.7191429  70.8519228 115.3534423 103.8551977  65.9661342 115.9186065
 103.5502113  66.2807491 116.7696208 104.8082419  66.0442762 115.9613398
 102.2998409  72.1251566 117.5679019 101.7719771  71.3904325 117.2552257
 101.7985912  72.9026242 117.3218987 107.2791255  70.3200586 122.6846065
 106.6214930  71.0099848 122.7726194 108.0831654  70.7097018 123.0280052
  97.0317137  62.7871232 119.9285631  97.6060889  62.5646413 119.1958824
  97.6188119  62.8559926 120.6814232 106.0896714  68.6744959 120.7350007
 106.6028596  69.3074951 121.2371717 106.7397938  68.0746154 120.3693367
  97.3586724  64.8175693 113.9481516  96.5224036  65.1550379 114.2690791
  97.2191494  64.6824673 113.0108653  99.3339804  59.6612481 118.6560700
  98.6804217  59.3461498 118.0317315  99.2920279  59.0388221 119.3820523
 100.4451009  69.9431776 110.5713992  99.5378071  69.7121029 110.7705141
 100.9422041  69.1469395 110.7587974 103.3519088  78.6529283 113.4910678
 102.6780787  78.9560980 114.0995636 103.7384910  79.4558363 113.1416135
 102.5677545  66.1494414 122.9808348 101.6500106  66.3709361 122.8230036
 102.9837688  66.2240725 122.1220055 103.3512593  67.5485830 118.1111028
 104.0984412  68.0607227 117.8018150 103.6204182  67.2269883 118.9715422
 101.6239243  70.0444371 115.0937982 100.7150462  69.7603404 115.1910452
 101.6534327  70.4643449 114.2341289 106.8558510  73.6550960 118.8629150
 106.4020837  72.8141870 118.9194340 106.2252477  74.2912359 119.2003930
 105.7991430  64.5842946 120.0929817 105.0614187  64.0720332 120.4240060
 106.0518203  64.1443328 119.2813094 105.2991449  75.4927457 119.7978968
 105.5914424  76.0532514 119.0791334 105.8090070  75.7856018 120.5532127
 105.9003057  57.3619198 120.6871587 106.2061934  56.5016562 120.3997502
 106.6255662  57.9536818 120.4870580  92.1927413  67.7649885 119.0753184
  91.9951813  67.1719246 118.3504251  91.6374077  67.4602095 119.7929123
 100.1724137  67.6572991 121.1947778 100.2272747  66.7046828 121.1190254
  99.3615339  67.8132430 121.6789076 101.3215331  71.5853114 112.4326061
 100.8834761  70.8688973 111.9731698 102.0625771  71.8129229 111.8711152
  98.1116497  66.2750051 118.9538156  97.2984362  66.5744222 119.3603349
  98.6075491  65.8805740 119.6712639 100.2625075  76.2707808 120.8872421
 100.2201253  76.4968654 119.9580953 101.1787773  76.0371183 121.0358222
 103.7090708  66.7391876 127.7853050 104.0640096  66.9663349 128.6447516
 104.3562840  67.0710252 127.1630306 109.4388445  69.8610311 118.4902379
 109.3006344  70.0511907 117.5623569 109.0824664  70.6229694 118.9470431
  97.6030571  63.8468407 124.5699391  98.2429951  63.7057166 123.8722355
  96.7708102  63.5602920 124.1937993 109.4657825  71.9286838 123.5013651
 109.8994332  71.8362128 124.3496705 110.1789406  71.9044339 122.8633667
  98.3790875  73.1470837 120.6834384  99.1731474  72.6521157 120.4816959
  97.6682568  72.6188700 120.3202089 103.1985720  75.5288933 125.0346752
 103.2522742  76.0979869 125.8024467 102.3300501  75.6990818 124.6700789
  94.6873639  67.2913919 116.7594137  93.7571227  67.2298374 116.9764099
  94.7831111  66.7689872 115.9630778  94.6059188  63.8168732 119.3472378
  94.8666005  64.7314065 119.2381539  95.4276360  63.3493174 119.4968991
  96.0784113  65.2306489 126.5171203  96.7507167  65.0223851 125.8683852
  95.2513900  65.0328575 126.0776435 110.3273375  71.9710539 126.0346536
 110.5209265  72.8756350 126.2805811 110.2273993  71.5117958 126.8685121
 101.9809685  61.8568430 128.5336864 101.3337600  62.5558379 128.4401340
 102.7510701  62.2904574 128.9013112 105.3888483  72.1217282 131.6087417
 105.2373990  71.8927834 130.6917501 105.3793163  73.0787883 131.6218762
 102.1573820  69.6949195 126.5933683 103.0865880  69.8460354 126.4202651
 101.7364850  69.7833215 125.7382330 100.9562151  73.7199859 124.3632221
 100.8173237  73.3518643 125.2358159 100.1676748  74.2347498 124.1916179
 101.5510303  78.8208955 115.7057758 101.7262059  78.3496999 116.5203380
 100.8643091  79.4474722 115.9339018 102.5067367  73.0981462 121.7521059
 102.1717199  73.0582232 122.6478709 102.0071312  72.4326178 121.2791469
  96.4811611  68.5049092 127.2773640  96.3431408  67.7729331 127.8785179
  97.3916534  68.4157992 126.9957828 105.4426558  70.4437496 112.0258118
 104.8255729  69.7184324 111.9291171 104.9743047  71.2046856 111.6825193
  99.1093911  68.2169051 126.7657320  99.8193530  67.5762243 126.7243938
  99.0663219  68.4681946 127.6883500 107.0980690  75.1536404 129.6863899
 107.0393236  74.4695625 129.0194482 107.5000208  75.8955394 129.2344525
  97.8222845  65.2034269 128.5852959  97.2860202  64.7525007 129.2374555
  97.2339554  65.3380178 127.8423423  96.1171389  81.9698318 122.4797618
  96.3567987  82.6016842 123.1576636  95.2740585  81.6186358 122.7662977
  97.2325104  64.6622920 111.1479423  96.3554570  64.5411721 110.7841669
  97.7082857  63.8708999 110.8958311 107.0998097  73.1175988 127.9177878
 106.2124876  72.7801910 128.0404277 107.6696648  72.3859020 128.1546644
  88.7527244  69.4500080 121.2420930  89.4398284  69.1361810 120.6541945
  88.5975373  70.3541445 120.9688181  93.5561966  64.3390277 125.6705954
  93.4720155  63.7315946 124.9356363  92.7344673  64.8299295 125.6715450
 100.6299251  77.7777441 124.8839122 100.5569422  78.5832412 125.3958426
 100.1876644  77.9769407 124.0587143 100.4189030  77.0149211 118.3941943
  99.6356552  77.5570891 118.4880168 101.1181775  77.5323190 118.7936184
 103.7285680  62.8243840 121.0376149 104.2254380  62.0713803 120.7177219
 102.9572662  62.8608157 120.4719358 111.5815438  68.5284206 122.6794440
 111.5705314  69.4108921 122.3088373 110.7132817  68.1755757 122.4848977
 103.0897934  77.6764275 127.0397280 103.8025906  78.3111740 126.9673182
 102.5987963  77.7728141 126.2237282 104.8115461  71.5815527 118.6114572
 103.8771740  71.7016990 118.4419276 104.9892129  70.6787994 118.3474582
 100.3120649  64.9661223 120.7647833  99.9418437  64.4132264 121.4528739
 100.8079741  64.3619357 120.2122833 108.1988012  67.4232847 119.1464606
 108.6648464  68.2560838 119.0724909 108.6495513  66.9577828 119.8509865
  98.1409848  75.4258718 127.8602851  98.8419307  76.0595201 128.0132245
  97.6704963  75.7673450 127.0998490 106.2664243  73.7676668 116.1450758
 106.5424087  73.6533263 117.0544632 105.3968742  73.3694153 116.1062931
 106.1704675  59.7913434 123.1855507 105.2567755  60.0217661 123.3537714
 106.5997776  59.8751878 124.0369540 105.9411134  67.9803326 125.6855402
 105.2882584  68.2279233 125.0307854 106.3191513  67.1667464 125.3517879
 102.9018307  78.0163019 119.7883572 103.0840702  77.1984675 120.2511324
 103.7251293  78.2330711 119.3508462 103.2360473  76.9431204 117.0498620
 103.7648239  76.4323659 116.4368782 103.4988692  76.6273734 117.9144153
 101.9898707  68.7223137 132.1721439 101.3139344  68.6217266 132.8423814
 102.8126340  68.5662350 132.6357436  93.7377566  74.9595073 124.7933954
  94.3231002  74.2138761 124.9261858  93.5402404  75.2699030 125.6770618
  96.5916221  77.9946321 119.8096396  95.9226596  78.4792448 119.3260436
  96.4529091  78.2415541 120.7239775  88.3295220  67.5300673 123.5138397
  88.3679320  66.9964264 124.3075515  87.8235513  67.0035879 122.8949374
 100.7321489  80.0290064 126.4079055 101.2839797  80.1921686 127.1728140
 101.0727683  80.6194502 125.7359079  95.7085983  62.3765214 127.0100939
  95.7727309  63.2380045 126.5978337  95.6453103  61.7639216 126.2773298
  95.1838255  64.4488347 130.6573974  95.8110294  64.0665424 131.2711498
  94.3266174  64.2302548 131.0229666 105.5832364  74.8551322 132.2627709
 106.1272268  75.4681280 131.7682664 105.0019209  75.4130900 132.7794722
  91.9603798  66.2564776 116.5892328  92.2557239  65.3475454 116.5359382
  91.0591834  66.2352515 116.2673331 103.8689877  77.9772040 123.3942737
 103.7441016  77.1761780 122.8853682 104.5268968  78.4718233 122.9056707
  95.4898045  64.3320772 122.5719877  94.7684631  64.9456740 122.4327350
  96.2791301  64.8678537 122.4936523 105.9324785  75.7781060 125.0222287
 104.9855121  75.6586411 124.9500614 106.2807558  74.8903558 125.1048548
  98.2924358  61.6675199 128.8460529  98.8158760  61.9137495 129.6086838
  98.0736692  62.4995233 128.4263666  93.6891640  63.9378873 116.7131654
  93.3604346  63.0576252 116.5306759  94.0431010  63.8826542 117.6008043
 102.9371218  75.5733776 121.2226639 102.7896181  74.6450483 121.4034209
 103.7624712  75.5953867 120.7383714  96.8033463  64.2251843 117.0807131
  97.1429535  64.7537764 116.3585740  97.2505583  64.5632249 117.8565698
 106.5405340  76.3962335 122.3091512 107.4651888  76.1905196 122.1715963
 106.3720644  76.1478736 123.2180853  99.4976904  62.6088894 126.5310199
  99.1573724  61.8096707 126.9330879  98.7915910  62.9090605 125.9587032
 100.1493375  59.6938206 124.9837522 100.9719445  59.2198684 124.8616413
 100.3931439  60.4728690 125.4836209  98.7901610  62.7226465 115.2800424
  99.5109972  63.1007717 114.7764141  98.1666914  63.4415341 115.3835402
 102.9332733  63.4271614 116.2158756 103.1496347  64.3096252 115.9147584
 102.4526800  63.0357827 115.4864398  97.6731954  66.3857327 122.7929501
  97.5276535  66.6997630 123.6853782  97.1957158  67.0042227 122.2400400
  99.5328337  63.3759875 122.8410390  99.5189906  62.4800968 122.5042688
 100.2500765  63.3830539 123.4748677 101.3854468  63.8097215 124.8863518
 101.1272246  64.7314286 124.8847848 100.8539508  63.4127650 125.5763982
 106.3300656  76.9148002 117.6653603 106.5037534  76.3494425 116.9127456
 106.8229548  77.7148897 117.4833093  92.1477616  68.9262671 125.7317162
  91.6031084  69.7022479 125.8637436  93.0256966  69.2733476 125.5736284
  98.9365233  62.2574255 118.1097961  99.0581144  61.3290901 118.3088848
  98.6467275  62.2712941 117.1976276 101.8056423  59.9429166 121.2464680
 101.8278120  60.0068499 120.2916660 102.2224482  59.1033674 121.4405187
 112.1840048  69.6784425 119.2843903 112.6271194  68.9291750 118.8863026
 111.3066558  69.6694561 118.9017635 107.3175829  76.2314767 114.7650502
 108.0126734  76.8521459 114.9837816 107.6598979  75.3810118 115.0402879
  92.9343638  68.0532568 128.6247319  92.1925374  68.2015203 129.2111949
  92.6136382  68.3140833 127.7614068 109.2167252  73.6814472 116.2937832
 109.7418576  74.0201745 115.5687152 109.1289605  72.7461487 116.1100967
 100.8787301  77.5948546 128.4227709 101.1874427  77.3497693 129.2950409
 101.6762783  77.7995184 127.9346579 100.9007913  79.7486455 120.6533086
 100.4612903  79.2562834 121.3465942 101.6516030  79.2059423 120.4125161
  93.3800252  75.9397996 120.6557714  94.2058272  75.6401768 120.2756357
  93.0294304  75.1705619 121.1047502  98.3481785  75.2924464 122.7255387
  97.7261794  74.6295169 122.4257615  99.0186652  75.3185596 122.0429035
  91.5808857  73.8584323 121.6146647  90.7440765  73.4306497 121.4330648
  91.5532502  74.0516766 122.5517438  98.4206312  63.7706252 132.3187893
  98.4694468  64.6468375 131.9365663  98.9628827  63.2283646 131.7459536
 108.9061158  74.3147376 131.5989030 108.1156702  74.2971515 131.0593530
 108.6694513  74.8535669 132.3538067 109.0259033  71.1639842 128.9121759
 109.0757038  70.9989850 129.8537282 108.9172957  70.2967101 128.5219640
  97.9095292  73.8428388 116.2013848  98.0583412  74.5263852 115.5480520
  98.7161735  73.8233478 116.7163303 106.3162796  67.1470770 130.2281066
 107.2172658  67.0077235 129.9365063 106.3910770  67.3125225 131.1679243
 100.6505601  64.5237625 129.0734252  99.7808910  64.8171191 128.8016840
 100.8865081  65.1078070 129.7941515 110.5277230  73.5836784 129.1563780
 110.2362038  73.9466764 129.9927241 109.9149361  72.8703792 128.9777112
 111.7272912  71.1489663 121.6766351 112.5619804  71.5879467 121.8403911
 111.8632041  70.6728317 120.8574596 108.7764418  68.7069398 127.6243838
 109.2518540  68.8997045 126.8162690 107.8529984  68.7628584 127.3787222
  95.6647925  69.8693565 117.2074917  95.4193967  68.9655895 117.4055127
  95.8343839  69.8710716 116.2654395 103.3544635  60.7417242 126.5899672
 103.8726579  61.4778269 126.2646161 102.9999768  61.0481235 127.4246431
  94.9343572  65.6021923 114.7061078  94.2412817  65.6766278 114.0501114
  94.6895324  64.8382267 115.2282595 103.6057229  57.1617524 122.1100569
 103.8858983  56.4940713 122.7360995 104.3907836  57.3546620 121.5975233
 101.4090697  76.3376518 113.6725595 100.8364664  76.9566705 113.2196067
 101.9823491  76.8875880 114.2065517 107.4766087  65.5835158 125.8572144
 108.4283510  65.6833256 125.8784368 107.3069538  64.7913427 126.3670228
 105.4980467  62.6690742 126.0431545 104.9030399  62.9495754 125.3478033
 105.2130163  63.1584642 126.8148286 104.6287957  76.6213668 114.8034177
 105.5618630  76.5559230 115.0067053 104.5411170  77.4569935 114.3448710
 107.2575974  75.9379539 111.7638125 107.1789605  75.6039402 112.6573883
 108.0785641  76.4301307 111.7629597 109.9554165  68.8041278 124.9714444
 109.9230485  67.8657279 125.1574127 110.5654789  68.8825315 124.2380268
 101.7937496  67.6737331 111.0141648 102.7396601  67.5443539 111.0830066
 101.4151741  66.9351993 111.4911076 110.1048654  65.5952321 125.0172727
 109.5887702  64.8110778 124.8302656 110.9888602  65.2671038 125.1819246
 107.7659380  59.3393337 120.9768539 107.5684202  59.0308425 121.8611871
 108.3759086  60.0654976 121.1066469 115.7730715  69.8657285 124.1120480
 116.5034103  69.6042573 124.6728184 115.1637660  69.1286007 124.1522548
 113.8546012  68.0065147 124.7094932 113.1279176  67.8721112 124.1011423
 113.4393299  68.3141976 125.5151650 101.6776188  71.7255077 132.4742305
 102.5979198  71.9033676 132.6682351 101.6425771  70.7811122 132.3222004
  99.9780413  65.5987307 110.9496533  99.0711868  65.3020420 111.0259246
 100.2556394  65.3017125 110.0830819  90.8958353  66.9193671 121.3995579
  90.5761138  66.0658979 121.1069953  90.3491782  67.1342249 122.1553547
  94.6738261  69.6356112 125.1165086  94.8924271  70.5673220 125.1353120
  95.0864035  69.2764086 125.9019890 101.5942479  60.1424197 117.1040774
 100.7843207  59.7971282 117.4796020 102.2826896  59.8331741 117.6928386
 103.5233027  59.2202244 118.7265071 104.0764066  59.6397697 119.3855094
 103.7603113  58.2937992 118.7688027  99.5466126  65.2089318 134.5067835
  99.4462853  66.1583675 134.4379926  99.3287668  64.8807556 133.6343905
  98.7479198  62.4574243 111.0908512  99.6098362  62.7829141 111.3504329
  98.9329542  61.6705739 110.5781578  90.7646613  70.5396582 123.3688701
  90.0710085  70.1250535 122.8558655  91.5119604  70.5817119 122.7722120
 106.9011834  61.3302769 118.2343735 106.3210503  61.9887573 117.8521787
 106.6347767  60.5080114 117.8231153 105.3515401  60.7307827 120.4365055
 105.8515179  60.8424361 119.6279374 105.9951008  60.4268880 121.0765864
  99.4097396  68.6386456 133.3232896  98.9264478  69.4386817 133.5296785
  99.4958335  68.6494401 132.3700340  92.6783356  70.4714836 121.2454716
  92.6554044  70.5702523 120.2936599  92.9883992  71.3179987 121.5671882
  95.3370734  72.5290991 125.3601330  96.2913987  72.4974933 125.2931262
  95.1383257  72.0681615 126.1751556  95.9270116  71.0992107 127.9272128
  96.7463005  71.5936186 127.9506965  96.2006924  70.1824075 127.8989695
 105.6836712  63.4902859 117.2900083 104.7962567  63.7752510 117.0720278
 106.0990701  63.3296623 116.4427360 109.0351248  63.5149380 121.0054423
 109.8111638  64.0045833 121.2779039 108.3099382  63.9407435 121.4626292
 111.4723807  64.2277000 122.0628363 112.0668298  63.9872736 121.3521671
 111.5450391  63.5084130 122.6901899  93.6920963  78.0710611 122.3771528
  93.5575431  77.3111011 121.8109526  93.2753025  78.7951510 121.9100317
 104.8279926  73.2547534 111.3848103 105.5315776  73.4597537 112.0005759
 104.1042574  73.8224296 111.6497187 105.6577736  69.0057395 117.5050373
 105.6012937  69.4625947 116.6658006 106.2106078  68.2448080 117.3273216
 109.4682542  64.7947127 118.3300493 109.2119476  64.3943763 119.1608701
 108.8435410  65.5090921 118.2050632 113.7794880  67.5343201 120.8371784
 113.2194438  67.6036390 121.6103346 113.1738383  67.3584185 120.1171281
  96.8490088  78.9679928 122.5889971  96.7322473  79.9125360 122.4868661
  96.0282535  78.6653489 122.9775770 106.7366623  73.6930063 113.4346563
 107.5712227  73.2611262 113.2524038 106.5750966  73.5212077 114.3623458
 106.3912515  70.1962177 114.8002903 106.3361319  70.0306448 113.8591347
 105.7658570  70.9038210 114.9565092  91.1805030  65.4330241 128.6264325
  91.8263894  64.9229195 129.1151550  90.9722181  66.1698923 129.2007750
 103.7058422  72.5011088 134.1256465 104.5749582  72.6751741 133.7643100
 103.2265174  73.3205505 134.0032195  99.7008641  59.6970286 114.3788221
  99.6887311  60.6412126 114.5356492 100.5932063  59.5140431 114.0847682
  97.8744603  79.6208190 125.8045899  98.7771849  79.6531800 126.1212394
  97.6481973  78.6908640 125.8192235  99.6298205  78.3739176 122.4655978
  98.6793836  78.3741038 122.3520350  99.9330691  77.6271911 121.9492012
 103.5160760  56.2913062 118.6334158 102.7493156  55.7371549 118.7790840
 103.9271465  56.3634931 119.4948309  95.5202521  62.5797858 132.7239339
  96.3833983  62.2234663 132.9342664  94.9467932  62.2411753 133.4114743
 115.3650898  84.2099714 123.5301740 116.0029308  84.0906462 122.8265080
 115.2471741  85.1580558 123.5889692 112.1740604  84.1627143 123.4663265
 111.8359116  84.0468207 122.5783800 113.0430373  83.7618308 123.4464271
 108.0327420  86.0162619 119.4560156 107.4692285  85.9252556 118.6876444
 107.9179815  85.1962523 119.9362648 105.5791852  87.5113811 122.2944376
 106.3713144  87.1704635 121.8790676 105.8188502  87.6208786 123.2146530
 113.6126979  89.6833587 114.7674621 112.9614959  90.2687667 114.3808634
 114.4071342  90.2139782 114.8269658 107.5382606  86.7722724 115.1661755
 108.3113482  86.2251711 115.0274631 107.8908005  87.6366973 115.3776216
 110.3023855  85.4775955 124.9630014 110.8987428  85.2531977 124.2486977
 110.3598827  84.7360700 125.5655462 109.8748884  82.9315390 112.7980205
 110.1274404  82.4096911 112.0363668 108.9373443  82.7681535 112.9006889
 114.9192167  81.9351168 120.6054948 115.7055256  81.5170591 120.2545365
 115.1830871  82.8397260 120.7736597 115.0902244  87.3724019 115.3043605
 114.4548077  87.4458645 116.0164510 114.7599650  87.9617617 114.6262684
 120.3200594  81.8726401 121.5087927 121.0525766  81.3025618 121.7425756
 119.5639949  81.4848002 121.9494432 109.5945173  84.8343496 115.0004580
 109.4781431  84.1588399 115.6685664 109.7047432  84.3475870 114.1836733
 111.9376713  84.2953643 118.7051269 111.5734921  83.7684264 119.4164191
 112.7943829  83.9052112 118.5317755 117.8426014  75.5847976 125.9682535
 117.5109339  76.4543387 125.7443750 117.2471627  75.2684260 126.6476566
 111.5782200  79.3243543 113.7012618 111.7456603  80.1923779 114.0683089
 111.3879370  79.4870824 112.7773907 107.7870015  84.2374318 121.4015152
 106.8620512  84.1050533 121.6092844 108.0354428  85.0168538 121.8985095
 117.7354677  80.3043062 123.0475885 116.8271555  80.2358470 122.7534646
 117.6842273  80.7815007 123.8757711 111.5571421  81.7801200 114.6859284
 111.4371047  82.2258251 115.5244765 110.8624010  82.1286518 114.1272823
 105.1478826  83.8807592 122.2358941 105.2771207  84.1342071 123.1498353
 104.4676277  84.4735300 121.9163597 109.3178313  94.5504842 118.3349416
 109.2402343  95.5012667 118.4137896 108.7139957  94.2050714 118.9924342
 119.6016324  78.5059500 124.8253759 118.9590704  78.7992033 124.1793554
 119.0971252  78.3912421 125.6306956 117.2556487  82.2522673 115.5139619
 118.1674344  82.4850060 115.3387316 116.7466135  82.8359718 114.9514697
 111.8928325  81.6119908 126.5234468 112.7389520  82.0359322 126.6669117
 111.8326963  80.9553532 127.2173031 114.5992462  78.4280709 123.7629479
 113.7376941  78.7261963 124.0546217 114.6254897  78.6451108 122.8310512
 111.4154032  86.9722900 120.1703285 111.8792377  87.2510603 119.3807908
 111.1510830  86.0706344 119.9876376 108.3078113  86.5194381 123.1083048
 108.8779470  86.9481650 122.4700533 108.8986225  86.2376966 123.8067234
 110.3522918  83.0946052 116.9792850 111.0546961  83.5467096 117.4466777
 110.0203546  82.4529871 117.6072743 104.0948252  81.3529605 122.2809984
 103.3047306  81.6087133 121.8050094 104.5859499  82.1677943 122.3862024
 106.0462997  81.7174184 119.2393460 105.2494160  81.8292878 119.7576956
 105.8188589  82.0560836 118.3734351 102.3785955  81.6060095 124.7124975
 102.6293993  82.4907105 124.9782551 102.9145503  81.4264697 123.9400066
 111.5916682  89.9086995 117.0554955 111.4562357  90.7538531 117.4839803
 112.1326495  90.1106273 116.2920889 105.0446080  87.4262433 117.6282881
 105.5570600  88.2205683 117.7788445 105.6968793  86.7288723 117.5616482
 106.8540964  90.5428189 119.7105634 107.0307593  91.4646154 119.5226618
 107.6497798  90.2286608 120.1400013 106.1393321  82.5892821 129.5867797
 106.0246836  81.6878078 129.8874896 105.2837839  82.8356518 129.2352613
 114.9409146  73.4317557 125.5853849 114.5973415  74.3219198 125.5092959
 115.3088109  73.2419214 124.7223434 103.0094997  85.7551087 118.4042451
 103.8470219  86.1648096 118.1876159 103.1873264  84.8150529 118.3742645
 114.9059429  83.4226168 114.0926284 114.3906052  84.1930773 114.3314671
 114.6336737  82.7491304 114.7159345 112.4906540  78.2675869 119.1511522
 111.6348136  77.8782719 118.9717161 112.9033491  78.3467829 118.2911308
 114.0205686  75.8022212 123.5503082 113.5170482  75.7652347 122.7370887
 114.3136293  76.7114955 123.6099739 110.2648572  75.8860942 122.5569264
 111.1301569  75.6903750 122.1975153 110.3326081  75.6571293 123.4838621
 119.8793703  86.1758523 116.0279457 119.1023146  85.8369682 115.5834620
 120.5585184  86.1811146 115.3534423 114.6945732  81.2953260 115.9186065
 114.3895867  81.6099409 116.7696208 115.6476174  81.3734680 115.9613398
 113.1392164  87.4543483 117.5679019 112.6113525  86.7196243 117.2552257
 112.6379666  88.2318160 117.3218987 107.8710891  78.1163150 119.9285631
 108.4454643  77.8938331 119.1958824 108.4581874  78.1851844 120.6814232
 116.9290468  84.0036876 120.7350007 117.4422350  84.6366868 121.2371717
 117.5791692  83.4038072 120.3693367 108.1980478  80.1467611 113.9481516
 107.3617791  80.4842297 114.2690791 108.0585248  80.0116590 113.0108653
 110.1733559  74.9904398 118.6560700 109.5197971  74.6753416 118.0317315
 110.1314033  74.3680139 119.3820523 111.2844764  85.2723694 110.5713992
 110.3771826  85.0412947 110.7705141 111.7815796  84.4761313 110.7587974
 114.1912843  93.9821201 113.4910678 113.5174541  94.2852898 114.0995636
 114.5778665  94.7850281 113.1416135 113.4071299  81.4786332 122.9808348
 112.4893861  81.7001279 122.8230036 113.8231443  81.5532642 122.1220055
 114.1906347  82.8777748 118.1111028 114.9378166  83.3899145 117.8018150
 114.4597937  82.5561800 118.9715422 112.4632997  85.3736288 115.0937982
 111.5544217  85.0895321 115.1910452 112.4928081  85.7935367 114.2341289
 117.6952265  88.9842878 118.8629150 117.2414592  88.1433788 118.9194340
 117.0646231  89.6204276 119.2003930 116.6385184  79.9134864 120.0929817
 115.9007941  79.4012250 120.4240060 116.8911958  79.4735246 119.2813094
 116.1385204  90.8219375 119.7978968 116.4308178  91.3824432 119.0791334
 116.6483824  91.1147936 120.5532127 116.7396812  72.6911116 120.6871587
 117.0455688  71.8308479 120.3997502 117.4649416  73.2828736 120.4870580
 103.0321168  83.0941803 119.0753184 102.8345567  82.5011163 118.3504251
 102.4767832  82.7894013 119.7929123 111.0117891  82.9864909 121.1947778
 111.0666501  82.0338745 121.1190254 110.2009093  83.1424348 121.6789076
 112.1609085  86.9145032 112.4326061 111.7228515  86.1980891 111.9731698
 112.9019526  87.1421147 111.8711152 108.9510251  81.6041969 118.9538156
 108.1378117  81.9036139 119.3603349 109.4469245  81.2097658 119.6712639
 111.1018829  91.5999726 120.8872421 111.0595008  91.8260572 119.9580953
 112.0181528  91.3663100 121.0358222 120.2782200  85.1902229 118.4902379
 120.1400098  85.3803825 117.5623569 119.9218419  85.9521612 118.9470431
 108.4424326  79.1760324 124.5699391 109.0823705  79.0349083 123.8722355
 107.6101857  78.8894838 124.1937993 109.2184630  88.4762755 120.6834384
 110.0125228  87.9813075 120.4816959 108.5076322  87.9480618 120.3202089
 105.5267393  82.6205836 116.7594137 104.5964981  82.5590292 116.9764099
 105.6224865  82.0981789 115.9630778 105.4452942  79.1460649 119.3472378
 105.7059760  80.0605983 119.2381539 106.2670115  78.6785092 119.4968991
 106.9177868  80.5598406 126.5171203 107.5900921  80.3515769 125.8683852
 106.0907654  80.3620492 126.0776435 112.8203440  77.1860347 128.5336864
 112.1731355  77.8850297 128.4401340 113.5904455  77.6196491 128.9013112
 112.3904058  94.1500873 115.7057758 112.5655814  93.6788916 116.5203380
 111.7036846  94.7766639 115.9339018 113.3461121  88.4273379 121.7521059
 113.0110954  88.3874149 122.6478709 112.8465067  87.7618095 121.2791469
 107.3205365  83.8341009 127.2773640 107.1825163  83.1021248 127.8785179
 108.2310288  83.7449910 126.9957828 116.2820313  85.7729414 112.0258118
 115.6649483  85.0476242 111.9291171 115.8136801  86.5338774 111.6825193
 109.9487666  83.5460969 126.7657320 110.6587284  82.9054161 126.7243938
 109.9056974  83.7973864 127.6883500 108.6616600  80.5326187 128.5852959
 108.1253957  80.0816925 129.2374555 108.0733308  80.6672095 127.8423423
 108.0718859  79.9914838 111.1479423 107.1948325  79.8703639 110.7841669
 108.5476612  79.2000916 110.8958311  99.5920999  84.7791998 121.2420930
 100.2792039  84.4653728 120.6541945  99.4369127  85.6833362 120.9688181
 104.3955721  79.6682194 125.6705954 104.3113910  79.0607864 124.9356363
 103.5738427  80.1591213 125.6715450 111.2582785  92.3441128 118.3941943
 110.4750307  92.8862809 118.4880168 111.9575530  92.8615108 118.7936184
 114.5679435  78.1535758 121.0376149 115.0648134  77.4005720 120.7177219
 113.7966416  78.1900075 120.4719358 115.6509215  86.9107445 118.6114572
 114.7165494  87.0308908 118.4419276 115.8285884  86.0079912 118.3474582
 111.1514403  80.2953141 120.7647833 110.7812191  79.7424181 121.4528739
 111.6473496  79.6911274 120.2122833 119.0381767  82.7524764 119.1464606
 119.5042219  83.5852756 119.0724909 119.4889267  82.2869746 119.8509865
 117.1057998  89.0968586 116.1450758 117.3817842  88.9825180 117.0544632
 116.2362497  88.6986071 116.1062931 117.0098430  75.1205351 123.1855507
 116.0961509  75.3509578 123.3537714 117.4391531  75.2043795 124.0369540
 113.7412062  93.3454937 119.7883572 113.9234456  92.5276592 120.2511324
 114.5645048  93.5622629 119.3508462 114.0754227  92.2723122 117.0498620
 114.6041994  91.7615576 116.4368782 114.3382447  91.9565652 117.9144153
 104.5771320  90.2886991 124.7933954 105.1624757  89.5430679 124.9261858
 104.3796159  90.5990948 125.6770618 107.4309975  93.3238238 119.8096396
 106.7620351  93.8084366 119.3260436 107.2922845  93.5707459 120.7239775
  99.1688975  82.8592591 123.5138397  99.2073074  82.3256182 124.3075515
  98.6629268  82.3327797 122.8949374 106.5479737  77.7057132 127.0100939
 106.6121064  78.5671963 126.5978337 106.4846857  77.0931133 126.2773298
 106.0232010  79.7780264 130.6573974 106.6504048  79.3957341 131.2711498
 105.1659929  79.5594466 131.0229666 102.7997552  81.5856693 116.5892328
 103.0950994  80.6767372 116.5359382 101.8985588  81.5644433 116.2673331
 106.3291799  79.6612690 122.5719877 105.6078385  80.2748658 122.4327350
 107.1185055  80.1970455 122.4936523 109.1318113  76.9967116 128.8460529
 109.6552515  77.2429413 129.6086838 108.9130446  77.8287151 128.4263666
 104.5285394  79.2670791 116.7131654 104.1998100  78.3868170 116.5306759
 104.8824765  79.2118460 117.6008043 113.7764973  90.9025694 121.2226639
 113.6289935  89.9742401 121.4034209 114.6018466  90.9245784 120.7383714
 107.6427217  79.5543761 117.0807131 107.9823290  80.0829682 116.3585740
 108.0899338  79.8924167 117.8565698 110.3370658  77.9380811 126.5310199
 109.9967478  77.1388625 126.9330879 109.6309664  78.2382522 125.9587032
 110.9887130  75.0230124 124.9837522 111.8113199  74.5490602 124.8616413
 111.2325193  75.8020608 125.4836209 109.6295364  78.0518382 115.2800424
 110.3503727  78.4299635 114.7764141 109.0060668  78.7707259 115.3835402
 113.7726487  78.7563531 116.2158756 113.9890102  79.6388169 115.9147584
 113.2920554  78.3649745 115.4864398 108.5125709  81.7149245 122.7929501
 108.3670289  82.0289548 123.6853782 108.0350912  82.3334145 122.2400400
 110.3722091  78.7051793 122.8410390 110.3583660  77.8092886 122.5042688
 111.0894520  78.7122456 123.4748677 112.2248222  79.1389133 124.8863518
 111.9666000  80.0606203 124.8847848 111.6933263  78.7419567 125.5763982
 117.1694411  92.2439920 117.6653603 117.3431288  91.6786342 116.9127456
 117.6623302  93.0440815 117.4833093 102.9871371  84.2554589 125.7317162
 102.4424839  85.0314397 125.8637436 103.8650721  84.6025393 125.5736284
 109.7758987  77.5866173 118.1097961 109.8974899  76.6582819 118.3088848
 109.4861030  77.6004859 117.1976276 112.6450178  75.2721083 121.2464680
 112.6671875  75.3360416 120.2916660 113.0618237  74.4325592 121.4405187
 123.0233802  85.0076343 119.2843903 123.4664948  84.2583668 118.8863026
 122.1460312  84.9986479 118.9017635 118.1569583  91.5606684 114.7650502
 118.8520488  92.1813377 114.9837816 118.4992734  90.7102035 115.0402879
 103.7737393  83.3824485 128.6247319 103.0319129  83.5307121 129.2111949
 103.4530137  83.6432751 127.7614068 120.0561007  89.0106390 116.2937832
 120.5812331  89.3493663 115.5687152 119.9683359  88.0753405 116.1100967
 104.2194006  91.2689914 120.6557714 105.0452026  90.9693686 120.2756357
 103.8688058  90.4997536 121.1047502 109.1875539  90.6216382 122.7255387
 108.5655549  89.9587087 122.4257615 109.8580406  90.6477514 122.0429035
 102.4202611  89.1876240 121.6146647 101.5834520  88.7598415 121.4330648
 102.3926257  89.3808684 122.5517438 108.7489046  89.1720305 116.2013848
 108.8977167  89.8555770 115.5480520 109.5555490  89.1525396 116.7163303
 106.5041679  85.1985483 117.2074917 106.2587721  84.2947813 117.4055127
 106.6737594  85.2002634 116.2654395 114.1938389  76.0709160 126.5899672
 114.7120333  76.8070186 126.2646161 113.8393522  76.3773153 127.4246431
 105.7737327  80.9313841 114.7061078 105.0806572  81.0058196 114.0501114
 105.5289079  80.1674184 115.2282595 114.4450983  72.4909442 122.1100569
 114.7252737  71.8232631 122.7360995 115.2301590  72.6838538 121.5975233
 112.2484452  91.6668436 113.6725595 111.6758419  92.2858623 113.2196067
 112.8217246  92.2167798 114.2065517 116.3374221  77.9982659 126.0431545
 115.7424153  78.2787672 125.3478033 116.0523918  78.4876560 126.8148286
 115.4681712  91.9505586 114.8034177 116.4012385  91.8851148 115.0067053
 115.3804924  92.7861853 114.3448710 118.0969728  91.2671456 111.7638125
 118.0183360  90.9331320 112.6573883 118.9179395  91.7593224 111.7629597
 112.6331250  83.0029249 111.0141648 113.5790355  82.8735457 111.0830066
 112.2545495  82.2643911 111.4911076 118.6053135  74.6685255 120.9768539
 118.4077956  74.3600343 121.8611871 119.2152840  75.3946894 121.1066469
 110.8174168  80.9279225 110.9496533 109.9105623  80.6312338 111.0259246
 111.0950149  80.6309043 110.0830819 101.7352108  82.2485588 121.3995579
 101.4154892  81.3950897 121.1069953 101.1885536  82.4634167 122.1553547
 105.5132015  84.9648029 125.1165086 105.7318025  85.8965137 125.1353120
 105.9257789  84.6056004 125.9019890 112.4336233  75.4716115 117.1040774
 111.6236962  75.1263200 117.4796020 113.1220650  75.1623659 117.6928386
 114.3626782  74.5494162 118.7265071 114.9157820  74.9689615 119.3855094
 114.5996868  73.6229910 118.7688027 109.5872952  77.7866160 111.0908512
 110.4492116  78.1121059 111.3504329 109.7723296  76.9997656 110.5781578
 101.6040368  85.8688500 123.3688701 100.9103839  85.4542453 122.8558655
 102.3513359  85.9109036 122.7722120 117.7405589  76.6594687 118.2343735
 117.1604258  77.3179491 117.8521787 117.4741521  75.8372031 117.8231153
 116.1909155  76.0599744 120.4365055 116.6908933  76.1716279 119.6279374
 116.8344763  75.7560797 121.0765864 103.5177110  85.8006754 121.2454716
 103.4947799  85.8994441 120.2936599 103.8277747  86.6471905 121.5671882
 106.1764488  87.8582909 125.3601330 107.1307742  87.8266851 125.2931262
 105.9777012  87.3973533 126.1751556 116.5230467  78.8194777 117.2900083
 115.6356322  79.1044428 117.0720278 116.9384456  78.6588541 116.4427360
 119.8745003  78.8441298 121.0054423 120.6505393  79.3337751 121.2779039
 119.1493137  79.2699352 121.4626292 122.3117561  79.5568917 122.0628363
 122.9062052  79.3164653 121.3521671 122.3844145  78.8376048 122.6901899
 104.5314717  93.4002528 122.3771528 104.3969185  92.6402929 121.8109526
 104.1146779  94.1243428 121.9100317 115.6673680  88.5839452 111.3848103
 116.3709530  88.7889454 112.0005759 114.9436329  89.1516214 111.6497187
 116.4971490  84.3349313 117.5050373 116.4406692  84.7917864 116.6658006
 117.0499833  83.5739998 117.3273216 120.3076296  80.1239045 118.3300493
 120.0513231  79.7235681 119.1608701 119.6829164  80.8382839 118.2050632
 124.6188634  82.8635118 120.8371784 124.0588192  82.9328307 121.6103346
 124.0132138  82.6876103 120.1171281 117.5760378  89.0221981 113.4346563
 118.4105981  88.5903179 113.2524038 117.4144720  88.8503995 114.3623458
 117.2306270  85.5254094 114.8002903 117.1755073  85.3598366 113.8591347
 116.6052325  86.2330127 114.9565092 102.0198785  80.7622159 128.6264325
 102.6657648  80.2521113 129.1151550 101.8115936  81.4990840 129.2007750
 110.5402395  75.0262203 114.3788221 110.5281065  75.9704043 114.5356492
 111.4325817  74.8432349 114.0847682 114.3554515  71.6204980 118.6334158
 113.5886910  71.0663467 118.7790840 114.7665220  71.6926849 119.4948309
 120.7142638  98.2607308 112.7980205 120.9668159  97.7388829 112.0363668
 119.7767197  98.0973453 112.9006889 122.4175955  94.6535460 113.7012618
 122.5850357  95.5215697 114.0683089 122.2273124  94.8162742 112.7773907
 119.0374233  95.4759528 113.9481516 118.2011545  95.8134215 114.2690791
 118.8979002  95.3408508 113.0108653 121.0127313  90.3196316 118.6560700
 120.3591726  90.0045333 118.0317315 120.9707788  89.6972057 119.3820523
 122.1238518 100.6015611 110.5713992 121.2165580 100.3704865 110.7705141
 122.6209550  99.8053230 110.7587974 116.3661148  97.9497754 116.7594137
 115.4358736  97.8882210 116.9764099 116.4618620  97.4273707 115.9630778
 118.9112613  95.3206756 111.1479423 118.0342079  95.1995557 110.7841669
 119.3870366  94.5292834 110.8958311 113.6391307  96.9148611 116.5892328
 113.9344748  96.0059289 116.5359382 112.7379343  96.8936350 116.2673331
 115.3679149  94.5962709 116.7131654 115.0391855  93.7160088 116.5306759
 115.7218519  94.5410377 117.6008043 120.4689119  93.3810300 115.2800424
 121.1897481  93.7591553 114.7764141 119.8454423  94.0999177 115.3835402
 120.6152742  92.9158090 118.1097961 120.7368653  91.9874737 118.3088848
 120.3254784  92.9296776 117.1976276 116.6131081  96.2605758 114.7061078
 115.9200326  96.3350113 114.0501114 116.3682833  95.4966102 115.2282595
 123.4725005  98.3321166 111.0141648 124.4184110  98.2027374 111.0830066
 123.0939250  97.5935828 111.4911076 121.6567922  96.2571143 110.9496533
 120.7499377  95.9604255 111.0259246 121.9343903  95.9600961 110.0830819
 123.2729988  90.8008032 117.1040774 122.4630716  90.4555117 117.4796020
 123.9614405  90.4915576 117.6928386 120.4266707  93.1158078 111.0908512
 121.2885871  93.4412976 111.3504329 120.6117051  92.3289574 110.5781578
 121.3796150  90.3554121 114.3788221 121.3674819  91.2995961 114.5356492
 122.2719572  90.1724266 114.0847682 125.1948269  86.9496898 118.6334158
 124.4280665  86.3955384 118.7790840 125.6058974  87.0218766 119.4948309
  59.9944072  -5.6576265 100.2155985  59.3205770  -5.3544568 100.8240943
  60.3809893  -4.8547185  99.8661442  58.1935287  -5.4896593 102.4303064
  58.3687042  -5.9608549 103.2448687  57.5068075  -4.8630826 102.6584325
  72.0075881  -0.1005834 110.2547047  72.6454291  -0.2199086 109.5510387
  71.8896724   0.8475010 110.3134999  68.8165588  -0.1478406 110.1908571
  68.4784099  -0.2637341 109.3029106  69.6855356  -0.5487240 110.1709578
  64.6752403   1.7057071 106.1805462  64.1117269   1.6147008 105.4121750
  64.5604798   0.8856975 106.6607955  62.2216835   3.2008262 109.0189683
  63.0138127   2.8599087 108.6035982  62.4613485   3.3103237 109.9391836
  70.2551962   5.3728039 101.4919927  69.6039942   5.9582119 101.1053941
  71.0496325   5.9034233 101.5514965  64.1807589   2.4617176 101.8907062
  64.9538465   1.9146163 101.7519937  64.5332988   3.3261425 102.1021523
  66.9448839   1.1670406 111.6875321  67.5412411   0.9426429 110.9732284
  67.0023810   0.4255152 112.2900768  66.5173867  -1.3790158  99.5225512
  66.7699388  -1.9008637  98.7608975  65.5798426  -1.5424013  99.6252195
  71.7327227   3.0618470 102.0288912  71.0973060   3.1353097 102.7409816
  71.4024634   3.6512069 101.3507991  66.2370156   0.5237948 101.7249887
  66.1206414  -0.1517149 102.3930971  66.3472416   0.0370322 100.9082040
  68.5801697  -0.0151905 105.4296576  68.2159904  -0.5421284 106.1409497
  69.4368813  -0.4053436 105.2563061  70.9782517   3.4754973 112.0923755
  70.6783240   4.3780012 111.9839562  70.6333576   3.2087157 112.9444908
  64.4294998  -0.0731230 108.1260459  63.5045495  -0.2055016 108.3338151
  64.6779412   0.7062990 108.6230401  68.1996405  -2.5304348 101.4104591
  68.0796030  -2.0847297 102.2490071  67.5048993  -2.1819030 100.8518129
  61.7903809  -0.4297956 108.9604248  61.9196191  -0.1763477 109.8743660
  61.1101261   0.1629752 108.6408903  65.9603297  10.2399294 105.0594722
  65.8827326  11.1907119 105.1383203  65.3564940   9.8945166 105.7169649
  72.5051053   2.9242944 109.6298507  71.8759916   3.0888658 108.9274574
  72.1176715   3.3384553 110.4009471  76.3840285   3.8597382 106.9842870
  75.6991323   4.2396283 106.4339904  76.4684134   4.4692708 107.7174818
  73.6391217   1.5057341 113.5838214  73.8508112   2.1489100 112.9072595
  73.5920965   0.6719657 113.1160144  68.0579015   2.6617352 106.8948592
  68.5217360   2.9405055 106.1053214  67.7935813   1.7600796 106.7121682
  64.9503096   2.2088833 109.8328355  65.5204453   2.6376102 109.1945839
  65.5411208   1.9271418 110.5312541  66.9947901  -1.2159496 103.7038157
  67.6971944  -0.7638452 104.1712083  66.6628530  -1.8575677 104.3318050
  74.7537045   4.3829296 111.7560571  75.5754488   3.9809483 111.4743253
  74.7499447   4.2797530 112.7076687  62.6887980  -2.5931364 105.9638767
  61.8919144  -2.4812670 106.4822263  62.4613573  -2.2544712 105.0979658
  68.5193648   3.9313339 113.9121282  68.5838080   4.3933747 114.7479454
  67.8104572   3.3010704 114.0403592  68.2341666   5.5981447 103.7800262
  68.0987340   6.4432983 104.2085110  68.7751478   5.8000724 103.0166196
  61.6871063   3.1156885 104.3528187  62.1995584   3.9100135 104.5033752
  62.3393776   2.4183175 104.2861789  63.4965948   6.2322641 106.4350940
  63.6732576   7.1540606 106.2471924  64.2922781   5.9181060 106.8645320
  64.6197263   7.7500815 112.4361283  65.1704688   7.6217878 111.6638277
  63.7808739   8.0495704 112.0856175  71.9591380   6.5007813 115.9382005
  71.9409855   7.3216694 115.4462275  72.8811300   6.3761888 116.1632147
  59.6519980   1.4445539 105.1287758  60.4895202   1.8542547 104.9121465
  59.8298248   0.5044981 105.0987952  71.5484412  -0.8879380 100.8171591
  71.0331035  -0.1174776 101.0559978  71.2761720  -1.5614244 101.4404652
  76.5218686   1.8652974 102.7524764  75.7448129   1.5264134 102.3079926
  77.2010167   1.8705598 102.0779729  69.7817147   3.1437935 104.2924326
  69.2538509   2.4090695 103.9797563  69.2804650   3.9212612 104.0464294
  74.7609993   1.3386956 109.4091372  74.1033667   2.0286217 109.4971501
  75.5650392   1.7283388 109.7525358  73.5715452  -0.3068672 107.4595314
  74.0847334   0.3261320 107.9617024  74.2216676  -0.9067476 107.0938674
  64.8405462  -4.1637937 100.6726823  64.0042774  -3.8263251 100.9936097
  64.7010231  -4.2988958  99.7353960  67.9269747   0.9618145  97.2959299
  67.0196809   0.7307399  97.4950448  68.4240779   0.1655765  97.4833280
  70.8337826   9.6715653 100.2155985  70.1599525   9.9747349 100.8240943
  71.2203648  10.4744733  99.8661442  70.0496283  -2.8319216 109.7053654
  69.1318844  -2.6104269 109.5475342  70.4656426  -2.7572906 108.8465362
  70.8331330  -1.4327800 104.8356335  71.5803149  -0.9206403 104.5263457
  71.1022920  -1.7543748 105.6960728  69.1057981   1.0630740 101.8183289
  68.1969200   0.7789773 101.9155759  69.1353064   1.4829819 100.9586596
  74.3377248   4.6737330 105.5874456  73.8839575   3.8328240 105.6439647
  73.7071215   5.3098728 105.9249237  72.7810187   6.5113827 106.5224275
  73.0733162   7.0718884 105.8036640  73.2908808   6.8042388 107.2777434
  59.6746151  -1.2163746 105.7998491  59.4770551  -1.8094385 105.0749558
  59.1192815  -1.5211535 106.5174430  67.6542875  -1.3240639 107.9193084
  67.7091484  -2.2766803 107.8435561  66.8434077  -1.1681200 108.4034383
  68.8034068   2.6039484  99.1571368  68.3653498   1.8875343  98.6977005
  69.5444509   2.8315599  98.5956459  65.5935235  -2.7063579 105.6783463
  64.7803100  -2.4069409 106.0848655  66.0894229  -3.1007891 106.3957945
  67.7443812   7.2894178 107.6117728  67.7019991   7.5155024 106.6826260
  68.6606511   7.0557552 107.7603529  76.9207183   0.8796681 105.2147686
  76.7825082   1.0698277 104.2868875  76.5643402   1.6416064 105.6715737
  76.9476563   2.9473208 110.2258958  77.3813069   2.8548497 111.0742012
  77.6608143   2.9230709 109.5878974  65.8609613   4.1657207 107.4079691
  66.6550212   3.6707527 107.2062266  65.1501306   3.6375070 107.0447396
  70.6804458   6.5475302 111.7592058  70.7341480   7.1166238 112.5269774
  69.8119239   6.7177187 111.3946095  62.1692377  -1.6899712 103.4839443
  61.2389965  -1.7515256 103.7009405  62.2649849  -2.2123759 102.6876084
  62.0877926  -5.1644899 106.0717685  62.3484743  -4.2499566 105.9626845
  62.9095098  -5.6320456 106.2214298  77.8092112   2.9896909 112.7591843
  78.0028002   3.8942719 113.0051118  77.7092730   2.5304328 113.5930428
  69.6392557   0.7135564 113.3178990  70.5684617   0.8646724 113.1447957
  69.2183587   0.8019585 112.4627637  68.4380889   4.7386229 111.0877528
  68.2991975   4.3705013 111.9603466  67.6495485   5.2533868 110.9161485
  69.0329041   9.8395325 102.4303064  69.2080797   9.3683368 103.2448687
  68.3461829  10.4661091 102.6584325  69.9886104   4.1167831 108.4766365
  69.6535937   4.0768601 109.3724015  69.4890050   3.4512547 108.0036776
  72.9245296   1.4623866  98.7503425  72.3074467   0.7370694  98.6536478
  72.4561784   2.2233226  98.4070499  74.5799428   6.1722774 116.4109205
  74.5211974   5.4881994 115.7439788  74.9818946   6.9141764 115.9589831
  63.5990126  12.9884688 109.2042924  63.8386725  13.6203212 109.8821943
  62.7559323  12.6372728 109.4908284  64.7143842  -4.3190710  97.8724729
  63.8373308  -4.4401909  97.5086976  65.1901595  -5.1104632  97.6203618
  74.5816835   4.1362358 114.6423185  73.6943614   3.7988280 114.7649584
  75.1515386   3.4045389 114.8791951  56.2345982   0.4686450 107.9666237
  56.9217022   0.1548180 107.3787252  56.0794111   1.3727814 107.6933488
  68.1117988   8.7963810 111.6084428  68.0388160   9.6018782 112.1203733
  67.6695381   8.9955776 110.7832450  67.9007768   8.0335580 105.1187250
  67.1175290   8.5757260 105.2125474  68.6000513   8.5509560 105.5181491
  70.5716672   8.6950644 113.7642587  71.2844644   9.3298109 113.6918488
  70.0806700   8.7914510 112.9482589  72.2934199   2.6001897 105.3359879
  71.3590477   2.7203359 105.1664583  72.4710867   1.6974364 105.0719888
  65.6228585   6.4445088 114.5848158  66.3238045   7.0781571 114.7377552
  65.1523700   6.7859819 113.8243797  73.7482981   4.7863038 102.8696065
  74.0242825   4.6719632 103.7789939  72.8787480   4.3880522 102.8308238
  73.4229871  -1.0010305 112.4100708  72.7701322  -0.7534397 111.7553161
  73.8010251  -1.8146167 112.0763185  70.3837045   9.0349388 106.5128878
  70.5659440   8.2171044 106.9756631  71.2070031   9.2517081 106.0753768
  70.7179211   7.9617574 103.7743927  71.2466977   7.4510028 103.1614089
  70.9807430   7.6460104 104.6389460  61.2196303   5.9781443 111.5179260
  61.8049740   5.2325131 111.6507165  61.0221142   6.2885400 112.4015924
  64.0734959   9.0132690 106.5341703  63.4045334   9.4978818 106.0505743
  63.9347828   9.2601911 107.4485081  68.2140227  11.0476434 113.1324361
  68.7658535  11.2108055 113.8973446  68.5546421  11.6380872 112.4604386
  59.4422536  -2.7248855 103.3137635  59.7375977  -3.6338176 103.2604689
  58.5410571  -2.7461115 102.9918637  71.3508614   8.9958409 110.1188043
  71.2259754   8.1948149 109.6098989  72.0087706   9.4904603 109.6302013
  73.4143523   6.7967429 111.7467593  72.4673858   6.6772781 111.6745920
  73.7626296   5.9089927 111.8293855  61.1710377  -5.0434757 103.4376960
  60.8423083  -5.9237378 103.2552066  61.5249748  -5.0987088 104.3253349
  70.4189956   6.5920146 107.9471946  70.2714919   5.6636853 108.1279516
  71.2443450   6.6140236 107.4629021  64.2852200  -4.7561787 103.8052438
  64.6248273  -4.2275866 103.0831046  64.7324321  -4.4181381 104.5811004
  74.0224078   7.4148704 109.0336818  74.9470625   7.2091566 108.8961270
  73.8539381   7.1665105 109.9426160  73.8119394   7.9334372 104.3898910
  73.9856272   7.3680794 103.6372762  74.3048285   8.7335267 104.2078400
  74.7994567   7.2501136 101.4895808  75.4945471   7.8707829 101.7083123
  75.1417717   6.3996487 101.7648186  76.6985990   4.7000842 103.0183139
  77.2237314   5.0388114 102.2932459  76.6108342   3.7647857 102.8346274
  68.3606039   8.6134915 115.1473016  68.6693165   8.3684062 116.0195715
  69.1581521   8.8181554 114.6591886  68.3826651  10.7672825 107.3778392
  67.9431641  10.2749204 108.0711249  69.1334768  10.2245793 107.1370467
  60.8618990   6.9584366 107.3803020  61.6877009   6.6588138 107.0001664
  60.5113042   6.1891988 107.8292809  65.8300523   6.3110834 109.4500694
  65.2080532   5.6481539 109.1502922  66.5005390   6.3371966 108.7674342
  59.0627595   4.8770692 108.3391954  58.2259503   4.4492867 108.1575955
  59.0351240   5.0703136 109.2762745  76.3879896   5.3333745 118.3234337
  75.5975440   5.3157884 117.7838836  76.1513250   5.8722039 119.0783374
  76.5077771   2.1826212 115.6367065  76.5575776   2.0176219 116.5782588
  76.3991694   1.3153471 115.2464946  65.3914030   4.8614757 102.9259154
  65.5402150   5.5450222 102.2725827  66.1980473   4.8419847 103.4408610
  78.0095968   4.6023153 115.8809087  77.7180776   4.9653134 116.7172548
  77.3968099   3.8890161 115.7022419  79.2091650   2.1676033 108.4011657
  80.0438541   2.6065837 108.5649218  79.3450779   1.6914686 107.5819903
  76.2583156  -0.2744232 114.3489145  76.7337278  -0.0816586 113.5407996
  75.3348721  -0.2185046 114.1032529  63.1466663   0.8879935 103.9320223
  62.9012705  -0.0157735 104.1300433  63.3162577   0.8897085 102.9899701
  62.4162310  -3.3791707 101.4306385  61.7231555  -3.3047352 100.7746421
  62.1714062  -4.1431364 101.9527902  68.8909435   7.3562888 100.3970902
  68.3183402   7.9753075  99.9441374  69.4642229   7.9062250 100.9310824
  72.1106695   7.6400038 101.5279484  73.0437368   7.5745600 101.7312360
  72.0229908   8.4756305 101.0694017  74.7394712   6.9565908  98.4883432
  74.6608343   6.6225772  99.3819190  75.5604378   7.4487676  98.4874904
  69.2756234  -1.3076299  97.7386954  70.2215338  -1.4370091  97.8075372
  68.8970479  -2.0461638  98.2156382  67.4599151  -3.3826323  97.6741840
  66.5530606  -3.6793210  97.7504553  67.7375132  -3.6796505  96.8076126
  60.1602094   1.4901206 107.9700022  60.1372782   1.5888893 107.0181905
  60.4702730   2.3366356 108.2917188  61.1739700   9.0896980 109.1016835
  61.0394168   8.3297381 108.5354833  60.7571763   9.8137880 108.6345624
  72.3098663   4.2733904  98.1093410  73.0134514   4.4783906  98.7251066
  71.5861312   4.8410666  98.3742493  73.1396474   0.0243765 104.2295680
  73.0831675   0.4812316 103.3903313  73.6924816  -0.7365550 104.0518523
  64.3308826   9.9866297 109.3135277  64.2141210  10.9311730 109.2113968
  63.5101273   9.6839859 109.7021077  74.2185361   4.7116433 100.1591870
  75.0530965   4.2797631  99.9769345  74.0569704   4.5398447 101.0868764
  73.8731253   1.2148546 101.5248209  73.8180057   1.0492818 100.5836653
  73.2477308   1.9224579 101.6810399  65.3563340  10.6394559 112.5291206
  66.2590587  10.6718169 112.8457701  65.1300710   9.7095010 112.5437542
  67.1116942   9.3925546 109.1901284  66.1612573   9.3927407 109.0765657
  67.4149429   8.6458280 108.6737319  82.8469636  15.2286084 110.2547047
  83.4848046  15.1092831 109.5510387  82.7290479  16.1766928 110.3134999
  79.6559342  15.1813512 110.1908571  79.3177854  15.0654577 109.3029106
  80.5249110  14.7804677 110.1709578  75.5146158  17.0348989 106.1805462
  74.9511023  16.9438925 105.4121750  75.3998553  16.2148893 106.6607955
  80.1379125  16.3348364 116.1494777  80.1267766  15.9401162 115.2775281
  80.2999765  15.6014436 116.7428548  73.0610590  18.5300180 109.0189683
  73.8531882  18.1891005 108.6035982  73.3007240  18.6395155 109.9391836
  81.0945717  20.7019956 101.4919927  80.4433696  21.2874037 101.1053941
  81.8890079  21.2326151 101.5514965  75.0201344  17.7909093 101.8907062
  75.7932220  17.2438080 101.7519937  75.3726743  18.6553343 102.1021523
  76.8586386  19.1185476 115.0973961  76.5676252  20.0231106 114.9820627
  77.4943371  19.1602003 115.8118031  77.7842593  16.4962324 111.6875321
  78.3806165  16.2718347 110.9732284  77.8417565  15.7547070 112.2900768
  77.3567622  13.9501760  99.5225512  77.6093142  13.4283281  98.7608975
  76.4192181  13.7867905  99.6252195  82.4010904  12.9537538 107.3300255
  83.1873994  12.5356961 106.9790672  82.6649609  13.8583630 107.4981903
  82.5720982  18.3910388 102.0288912  81.9366815  18.4645015 102.7409816
  82.2418388  18.9803987 101.3507991  87.8019332  12.8912771 108.2333233
  88.5344503  12.3211988 108.4671063  87.0458687  12.5034372 108.6739739
  77.0763910  15.8529865 101.7249887  76.9600168  15.1774769 102.3930971
  77.1866170  15.3662239 100.9082040  79.4195451  15.3140013 105.4296576
  79.0553658  14.7870634 106.1409497  80.2762567  14.9238482 105.2563061
  85.3244752   6.6034345 112.6927842  84.9928077   7.4729756 112.4689057
  84.7290365   6.2870629 113.3721872  79.0600938  10.3429912 100.4257924
  79.2275341  11.2110149 100.7928395  78.8698107  10.5057194  99.5019214
  81.8176271  18.8046891 112.0923755  81.5176994  19.7071930 111.9839562
  81.4727331  18.5379074 112.9444908  75.2688753  15.2560688 108.1260459
  74.3439249  15.1236902 108.3338151  75.5173166  16.0354907 108.6230401
  85.2173415  11.3229431 109.7721192  84.3090293  11.2544840 109.4779953
  85.1661011  11.8001376 110.6003017  79.0390159  12.7987570 101.4104591
  78.9189784  13.2444621 102.2490071  78.3442747  13.1472887 100.8518129
  72.6297564  14.8993962 108.9604248  72.7589945  15.1528440 109.8743660
  71.9495015  15.4921670 108.6408903  76.7997051  25.5691212 105.0594722
  76.7221081  26.5199037 105.1383203  76.1958695  25.2237084 105.7169649
  79.2914281  12.7419077 117.7156089  78.5147615  13.3012997 117.7058954
  79.9304844  13.2275860 118.2370959  87.0835062   9.5245870 111.5499066
  86.4409442   9.8178403 110.9038860  86.5789990   9.4098790 112.3552263
  84.7375225  13.2709043 102.2384925  85.6493081  13.5036430 102.0632623
  84.2284872  13.8546087 101.6760004  77.5460653  15.5504530 117.2774056
  78.2875338  16.0889574 117.0008880  76.8397639  16.1770819 117.4345608
  83.0215993  17.6933671 115.8746218  83.4299349  17.2516081 115.1300850
  82.2993254  17.1186298 116.1280411  79.3747063  12.6306278 113.2479775
  80.2208258  13.0545691 113.3914424  79.3145701  11.9739902 113.9418338
  83.3444808  18.2534861 109.6298507  82.7153670  18.4180576 108.9274574
  82.9570470  18.6676471 110.4009471  87.2234039  19.1889299 106.9842870
  86.5385078  19.5688201 106.4339904  87.3077889  19.7984626 107.7174818
  82.5246508  10.2910646 114.9060948  82.2807440  11.0452706 114.3695224
  82.8006439  10.6695993 115.7408195  84.4784971  16.8349258 113.5838214
  84.6901866  17.4781018 112.9072595  84.4314719  16.0011575 113.1160144
  82.0811200   9.4467079 110.4874786  81.2195679   9.7448332 110.7791524
  82.1073635   9.6637478 109.5555819  78.8972769  17.9909269 106.8948592
  79.3611115  18.2696972 106.1053214  78.6329568  17.0892714 106.7121682
  75.7896851  17.5380751 109.8328355  76.3598208  17.9668019 109.1945839
  76.3804962  17.2563336 110.5312541  77.8341656  14.1132422 103.7038157
  78.5365699  14.5653466 104.1712083  77.5022284  13.4716241 104.3318050
  76.2822017  12.7044178 118.0789366  75.6520678  13.3860459 118.3124763
  76.1758105  12.5927260 117.1342504  71.5766989  12.3715974 109.0055290
  70.7866043  12.6273503 108.5295401  72.0678237  13.1864312 109.1107331
  85.5930799  19.7121214 111.7560571  86.4148243  19.3101401 111.4743253
  85.5893202  19.6089448 112.7076687  73.5281735  12.7360554 105.9638767
  72.7312898  12.8479248 106.4822263  73.3007327  13.0747206 105.0979658
  79.3587402  19.2605257 113.9121282  79.4231835  19.7225664 114.7479454
  78.6498326  18.6302622 114.0403592  69.8604692  12.6246465 111.4370281
  70.1112731  13.5093475 111.7027857  70.3964241  12.4451066 110.6645373
  93.6836792  16.0559962 108.1045543  92.9300500  15.4867360 107.9489547
  93.8184333  16.0222627 109.0516177  79.0735420  20.9273364 103.7800262
  78.9381095  21.7724900 104.2085110  79.6145233  21.1292642 103.0166196
  72.5264818  18.4448802 104.3528187  73.0389338  19.2392053 104.5033752
  73.1787530  17.7475093 104.2861789  74.3359702  21.5614559 106.4350940
  74.5126331  22.4832523 106.2471924  75.1316536  21.2472978 106.8645320
  78.4770721   8.4222823 118.0334874  79.2180434   9.0229977 117.9539336
  78.7088644   7.6800461 117.4752916  73.6212059  13.6079191 116.3113104
  73.5065574  12.7064448 116.6120202  72.7656577  13.8542887 115.9597920
  80.7003897  21.5496931 117.9100604  80.2567751  20.7633310 117.5921509
  81.3621110  21.7376081 117.2444495  75.4591018  23.0792733 112.4361283
  76.0098443  22.9509796 111.6638277  74.6202494  23.3787622 112.0856175
  82.7985135  21.8299731 115.9382005  82.7803610  22.6508612 115.4462275
  83.7205055  21.7053806 116.1632147  79.2558189  19.3443860 116.7805514
  79.7886526  18.5832149 116.5504822  78.7272270  19.0517512 117.5229668
  82.4227884   4.4503926 112.3099156  82.0792153   5.3405568 112.2338266
  82.7906846   4.2605584 111.4468741  70.4913734  16.7737457 105.1287758
  71.3288956  17.1834465 104.9121465  70.6692002  15.8336899 105.0987952
  82.3878166  14.4412537 100.8171591  81.8724790  15.2117142 101.0559978
  82.1155475  13.7677674 101.4404652  79.9725277   9.2862238 105.8756829
  79.1166874   8.8969089 105.6962468  80.3852229   9.3654199 105.0156615
  81.5024424   6.8208582 110.2748389  80.9989220   6.7838717 109.4616194
  81.7955031   7.7301324 110.3345045  77.7467310   6.9047311 109.2814571
  78.6120307   6.7090120 108.9220460  77.8144819   6.6757663 110.2083927
  87.3612441  17.1944892 102.7524764  86.5841883  16.8556052 102.3079926
  88.0403922  17.1997515 102.0779729  82.1764470  12.3139630 102.6431372
  81.8714605  12.6285779 103.4941515  83.1294912  12.3921049 102.6858705
  80.6210901  18.4729853 104.2924326  80.0932263  17.7382612 103.9797563
  80.1198404  19.2504529 104.0464294  85.6003747  16.6678873 109.4091372
  84.9427422  17.3578135 109.4971501  86.4044147  17.0575305 109.7525358
  75.3529629   9.1349519 106.6530937  75.9273381   8.9124701 105.9204130
  75.9400611   9.2038214 107.4059539  84.4109206  15.0223246 107.4595314
  84.9241088  15.6553238 107.9617024  85.0610430  14.4224442 107.0938674
  75.6799216  11.1653980 100.6726823  74.8436528  11.5028667 100.9936097
  75.5403986  11.0302960  99.7353960  77.6552297   6.0090768 105.3806007
  77.0016709   5.6939785 104.7562622  77.6132771   5.3866509 106.1065830
  78.7663502  16.2910063  97.2959299  77.8590563  16.0599317  97.4950448
  79.2634534  15.4947682  97.4833280  81.6731580  25.0007570 100.2155985
  80.9993279  25.3039267 100.8240943  82.0597402  25.8036651  99.8661442
  80.8890037  12.4972702 109.7053654  79.9712598  12.7187649 109.5475342
  81.3050181  12.5719012 108.8465362  81.6725085  13.8964117 104.8356335
  82.4196904  14.4085514 104.5263457  81.9416674  13.5748170 105.6960728
  79.9451735  16.3922658 101.8183289  79.0362954  16.1081691 101.9155759
  79.9746819  16.8121737 100.9586596  85.1771002  20.0029247 105.5874456
  84.7233330  19.1620157 105.6439647  84.5464969  20.6390646 105.9249237
  84.1203922  10.9321234 106.8175124  83.3826679  10.4198620 107.1485367
  84.3730696  10.4921615 106.0058401  83.6203942  21.8405744 106.5224275
  83.9126916  22.4010801 105.8036640  84.1302562  22.1334305 107.2777434
  84.2215549   3.7097486 107.4116893  84.5274426   2.8494849 107.1242808
  84.9468154   4.3015106 107.2115887  70.5139905  14.1128172 105.7998491
  70.3164305  13.5197533 105.0749558  69.9586569  13.8080382 106.5174430
  78.4936629  14.0051279 107.9193084  78.5485239  13.0525115 107.8435561
  77.6827831  14.1610718 108.4034383  79.6427823  17.9331402  99.1571368
  79.2047253  17.2167261  98.6977005  80.3838264  18.1607516  98.5956459
  76.4328989  12.6228338 105.6783463  75.6196855  12.9222509 106.0848655
  76.9287983  12.2284027 106.3957945  78.5837567  22.6186095 107.6117728
  78.5413746  22.8446942 106.6826260  79.5000266  22.3849470 107.7603529
  82.0303201  13.0870163 114.5098357  82.3852588  13.3141636 115.3692823
  82.6775332  13.4188540 113.8875612  87.7600938  16.2088599 105.2147686
  87.6218836  16.3990195 104.2868875  87.4037156  16.9707982 105.6715737
  75.9243064  10.1946694 111.2944698  76.5642443  10.0535453 110.5967661
  75.0920594   9.9081207 110.9183300  87.7870317  18.2765126 110.2258958
  88.2206824  18.1840415 111.0742012  88.5001898  18.2522626 109.5878974
  76.7003368  19.4949124 107.4079691  77.4943966  18.9999444 107.2062266
  75.9895060  18.9666987 107.0447396  81.5198212  21.8767220 111.7592058
  81.5735234  22.4458156 112.5269774  80.6512994  22.0469105 111.3946095
  73.0086131  13.6392206 103.4839443  72.0783719  13.5776662 103.7009405
  73.1043603  13.1168159 102.6876084  72.9271680  10.1647019 106.0717685
  73.1878497  11.0792352 105.9626845  73.7488853   9.6971461 106.2214298
  74.3996606  11.5784776 113.2416509  75.0719659  11.3702138 112.5929158
  73.5726392  11.3806862 112.8021742  88.6485867  18.3188826 112.7591843
  88.8421757  19.2234637 113.0051118  88.5486485  17.8596245 113.5930428
  80.3022178   8.2046717 115.2582170  79.6550093   8.9036667 115.1646647
  81.0723193   8.6382861 115.6258419  83.7100975  18.4695569 118.3332724
  83.5586482  18.2406121 117.4162807  83.7005655  19.4266171 118.3464069
  80.4786312  16.0427482 113.3178990  81.4078372  16.1938641 113.1447957
  80.0577342  16.1311503 112.4627637  79.2774644  20.0678146 111.0877528
  79.1385729  19.6996931 111.9603466  78.4889240  20.5825786 110.9161485
  79.8722796  25.1687243 102.4303064  80.0474551  24.6975286 103.2448687
  79.1855584  25.7953009 102.6584325  80.8279859  19.4459749 108.4766365
  80.4929691  19.4060519 109.3724015  80.3283804  18.7804465 108.0036776
  74.8024103  14.8527379 114.0018947  74.6643901  14.1207618 114.6030486
  75.7129026  14.7636279 113.7203134  83.7639050  16.7915783  98.7503425
  83.1468221  16.0662611  98.6536478  83.2955539  17.5525144  98.4070499
  77.4306403  14.5647338 113.4902626  78.1406022  13.9240531 113.4489245
  77.3875712  14.8160233 114.4128807  85.4193182  21.5014692 116.4109205
  85.3605728  20.8173912 115.7439788  85.8212701  22.2433682 115.9589831
  76.1435337  11.5512556 115.3098266  75.6072694  11.1003295 115.9619862
  75.5552046  11.6858465 114.5668730  74.4383881  28.3176606 109.2042924
  74.6780479  28.9495130 109.8821943  73.5953077  27.9664646 109.4908284
  75.5537596  11.0101208  97.8724729  74.6767063  10.8890008  97.5086976
  76.0295349  10.2187286  97.6203618  85.4210589  19.4654276 114.6423185
  84.5337368  19.1280197 114.7649584  85.9909140  18.7337307 114.8791951
  67.0739737  15.7978367 107.9666237  67.7610776  15.4840097 107.3787252
  66.9187865  16.7019732 107.6933488  71.8774459  10.6868564 112.3951260
  71.7932647  10.0794233 111.6601670  71.0557165  11.1777582 112.3960757
  78.9511743  24.1255728 111.6084428  78.8781914  24.9310699 112.1203733
  78.5089136  24.3247694 110.7832450  78.7401522  23.3627498 105.1187250
  77.9569044  23.9049178 105.2125474  79.4394268  23.8801478 105.5181491
  82.0498173   9.1722127 107.7621455  82.5466872   8.4192090 107.4422525
  81.2785154   9.2086444 107.1964665  89.9027930  14.8762493 109.4039747
  89.8917806  15.7587208 109.0333680  89.0345309  14.5234044 109.2094284
  81.4110426  24.0242562 113.7642587  82.1238399  24.6590027 113.6918488
  80.9200455  24.1206428 112.9482589  83.1327953  17.9293815 105.3359879
  82.1984232  18.0495277 105.1664583  83.3104622  17.0266281 105.0719888
  78.6333141  11.3139510 107.4893140  78.2630929  10.7610551 108.1774045
  79.1292234  10.7097644 106.9368140  86.5200505  13.7711134 105.8709913
  86.9860957  14.6039126 105.7970215  86.9708005  13.3056116 106.5755171
  76.4622340  21.7737005 114.5848158  77.1631799  22.4073488 114.7377552
  75.9917455  22.1151737 113.8243797  84.5876736  20.1154955 102.8696065
  84.8636580  20.0011550 103.7789939  83.7181234  19.7172440 102.8308238
  84.4917167   6.1391721 109.9100814  83.5780247   6.3695948 110.0783021
  84.9210269   6.2230165 110.7614846  84.2623626  14.3281613 112.4100708
  83.6095076  14.5757520 111.7553161  84.6404006  13.5145751 112.0763185
  81.2230800  24.3641306 106.5128878  81.4053194  23.5462962 106.9756631
  82.0463786  24.5808998 106.0753768  81.5572965  23.2909491 103.7743927
  82.0860732  22.7801946 103.1614089  81.8201185  22.9752021 104.6389460
  80.3111199  15.0701424 118.8966745  79.6351836  14.9695553 119.5669120
  81.1338833  14.9140638 119.3602742  72.0590058  21.3073360 111.5179260
  72.6443495  20.5617048 111.6507165  71.8614896  21.6177317 112.4015924
  74.9128713  24.3424608 106.5341703  74.2439088  24.8270736 106.0505743
  74.7741583  24.5893828 107.4485081  66.6507713  13.8778961 110.2383704
  66.6891812  13.3442551 111.0320822  66.1448005  13.3514166 109.6194681
  79.0533982  26.3768351 113.1324361  79.6052290  26.5399973 113.8973446
  79.3940175  26.9672789 112.4604386  74.0298475   8.7243501 113.7346246
  74.0939801   9.5858332 113.3223644  73.9665595   8.1117503 113.0018604
  73.5050747  10.7966634 117.3819280  74.1322786  10.4143711 117.9956805
  72.6478666  10.5780836 117.7474973  83.9044856  21.2029609 118.9873016
  84.4484760  21.8159567 118.4927970  83.3231701  21.7609187 119.5040029
  70.2816290  12.6043063 103.3137635  70.5769731  11.6953741 103.2604689
  69.3804326  12.5830802 102.9918637  82.1902369  24.3250327 110.1188043
  82.0653508  23.5240067 109.6098989  82.8481460  24.8196520 109.6302013
  73.8110537  10.6799059 109.2965184  73.0897123  11.2935027 109.1572657
  74.6003793  11.2156824 109.2181830  84.2537277  22.1259347 111.7467593
  83.3067613  22.0064698 111.6745920  84.6020050  21.2381845 111.8293855
  76.6136851   8.0153486 115.5705835  77.1371253   8.2615782 116.3332145
  76.3949184   8.8473521 115.1508973  72.0104132  10.2857161 103.4376960
  71.6816838   9.4054539 103.2552066  72.3643502  10.2304829 104.3253349
  81.2583711  21.9212063 107.9471946  81.1108673  20.9928771 108.1279516
  82.0837204  21.9432154 107.4629021  75.1245955  10.5730130 103.8052438
  75.4642027  11.1016052 103.0831046  75.5718075  10.9110536 104.5811004
  84.8617833  22.7440622 109.0336818  85.7864380  22.5383483 108.8961270
  84.6933136  22.4957023 109.9426160  77.8189396   8.9567181 113.2555506
  77.4786216   8.1574994 113.6576186  77.1128402   9.2568892 112.6832339
  78.4705868   6.0416493 111.7082829  79.2931937   5.5676972 111.5861719
  78.7143931   6.8206977 112.2081515  77.1114102   9.0704752 102.0045731
  77.8322465   9.4486005 101.5009447  76.4879406   9.7893629 102.1080709
  81.2545225   9.7749901 102.9404063  81.4708839  10.6574539 102.6392891
  80.7739292   9.3836114 102.2109705  75.9944446  12.7335614 109.5174808
  75.8489027  13.0475917 110.4099089  75.5169650  13.3520514 108.9645706
  77.8540829   9.7238162 109.5655697  77.8402398   8.8279255 109.2287995
  78.5713257   9.7308826 110.1993983  79.7066960  10.1575502 111.6108825
  79.4484738  11.0792573 111.6093155  79.1752000   9.7605937 112.3009289
  84.6513149  23.2626289 104.3898910  84.8250026  22.6972712 103.6372762
  85.1442040  24.0627184 104.2078400  70.4690109  15.2740958 112.4562469
  69.9243577  16.0500766 112.5882743  71.3469458  15.6211763 112.2981590
  77.2577725   8.6052542 104.8343267  77.3793636   7.6769189 105.0334155
  76.9679768   8.6191228 103.9221583  80.1268916   6.2907453 107.9709987
  80.1490612   6.3546786 107.0161967  80.5436975   5.4511961 108.1650493
  90.5052540  16.0262712 106.0089210  90.9483686  15.2770038 105.6108333
  89.6279050  16.0172849 105.6262942  85.6388321  22.5793054 101.4895808
  86.3339226  23.1999746 101.7083123  85.9811471  21.7288405 101.7648186
  71.2556130  14.4010855 115.3492626  70.5137866  14.5493490 115.9357256
  70.9348875  14.6619120 114.4859375  87.5379744  20.0292759 103.0183139
  88.0631068  20.3680032 102.2932459  87.4502097  19.0939775 102.8346274
  79.1999793  23.9426833 115.1473016  79.5086919  23.6975980 116.0195715
  79.9975275  24.1473471 114.6591886  79.2220405  26.0964743 107.3778392
  78.7825395  25.6041121 108.0711249  79.9728522  25.5537710 107.1370467
  71.7012744  22.2876283 107.3803020  72.5270764  21.9880055 107.0001664
  71.3506796  21.5183906 107.8292809  76.6694277  21.6402752 109.4500694
  76.0474287  20.9773457 109.1502922  77.3399144  21.6663884 108.7674342
  69.9021349  20.2062610 108.3391954  69.0653257  19.7784784 108.1575955
  69.8744995  20.3995053 109.2762745  76.7418805  10.1184540 119.0433200
  76.7906960  10.9946663 118.6610969  77.2841319   9.5761933 118.4704843
  87.2273650  20.6625663 118.3234337  86.4369194  20.6449802 117.7838836
  86.9907005  21.2013957 119.0783374  87.3471525  17.5118129 115.6367065
  87.3969530  17.3468137 116.5782588  87.2385449  16.6445388 115.2464946
  76.2307784  20.1906675 102.9259154  76.3795905  20.8742139 102.2725827
  77.0374228  20.1711765 103.4408610  84.6375288  13.4949057 116.9526372
  85.5385151  13.3555522 116.6610370  84.7123262  13.6603512 117.8924550
  78.9718093  10.8715912 115.7979558  78.1021403  11.1649478 115.5262147
  79.2077574  11.4556357 116.5186822  88.8489722  19.9315071 115.8809087
  88.5574531  20.2945051 116.7172548  88.2361854  19.2182079 115.7022419
  90.0485405  17.4967951 108.4011657  90.8832296  17.9357755 108.5649218
  90.1844533  17.0206604 107.5819903  87.0976911  15.0547685 114.3489145
  87.5731032  15.2475332 113.5407996  86.1742476  15.1106871 114.1032529
  73.9860417  16.2171853 103.9320223  73.7406459  15.3134183 104.1300433
  74.1556332  16.2189003 102.9899701  81.6757127   7.0895529 113.3144979
  82.1939071   7.8256556 112.9891467  81.3212260   7.3959522 114.1491738
  73.2556065  11.9500210 101.4306385  72.5625310  12.0244565 100.7746421
  73.0107817  11.1860554 101.9527902  81.9269721   3.5095812 108.8345875
  82.2071475   2.8419001 109.4606302  82.7120328   3.7024907 108.3220539
  79.7303190  22.6854805 100.3970902  79.1577157  23.3044993  99.9441374
  80.3035983  23.2354167 100.9310824  85.7978580  11.9313446 112.5817451
  86.7496002  12.0311543 112.6029675  85.6282030  11.1391714 113.0915535
  83.8192959   9.0169029 112.7676852  83.2242891   9.2974042 112.0723340
  83.5342656   9.5062930 113.5393593  82.9500449  22.9691956 101.5279484
  83.8831123  22.9037517 101.7312360  82.8623662  23.8048222 101.0694017
  85.5788466  22.2857826  98.4883432  85.5002098  21.9517690  99.3819190
  86.3998133  22.7779594  98.4874904  88.2766657  15.1519565 111.6959750
  88.2442977  14.2135566 111.8819434  88.8867281  15.2303602 110.9625575
  80.1149988  14.0215618  97.7386954  81.0609093  13.8921826  97.8075372
  79.7364233  13.2830280  98.2156382  88.4261146  11.9430609 111.7418033
  87.9100194  11.1589065 111.5547962  89.3101094  11.6149325 111.9064553
  86.0871873   5.6871624 107.7013846  85.8896694   5.3786712 108.5857178
  86.6971578   6.4133263 107.8311776  94.0943207  16.2135572 110.8365787
  94.8246596  15.9520860 111.3973490  93.4850153  15.4764294 110.8767855
  92.1758504  14.3543435 111.4340238  91.4491668  14.2199400 110.8256730
  91.7605791  14.6620263 112.2396956  79.9988681  18.0733364 119.1987611
  80.9191690  18.2511963 119.3927658  79.9638264  17.1289410 119.0467311
  78.2992905  11.9465595  97.6741840  77.3924361  11.6498707  97.7504553
  78.5768886  11.6495413  96.8076126  69.2170846  13.2671958 108.1240886
  68.8973630  12.4137266 107.8315260  68.6704274  13.4820536 108.8798853
  72.9950753  15.9834399 111.8410392  73.2136763  16.9151507 111.8598426
  73.4076527  15.6242373 112.6265196  79.9154971   6.4902484 103.8286081
  79.1055699   6.1449569 104.2041327  80.6039388   6.1810028 104.4173692
  81.8445519   5.5680531 105.4510377  82.3976558   5.9875985 106.1100401
  82.0815606   4.6416279 105.4933333  77.8678619  11.5567605 121.2313141
  77.7675345  12.5061962 121.1625232  77.6500161  11.2285844 120.3589211
  77.0691690   8.8052530  97.8153819  77.9310854   9.1307428  98.0749636
  77.2542034   8.0184026  97.3026884  69.0859106  16.8874870 110.0934007
  68.3922577  16.4728822 109.5803962  69.8332097  16.9295406 109.4967426
  85.2224326   7.6781056 104.9589042  84.6422995   8.3365860 104.5767094
  84.9560259   6.8558401 104.5476459  83.6727893   7.0786114 107.1610362
  84.1727671   7.1902649 106.3524681  84.3163501   6.7747167 107.8011170
  77.7309889  14.9864744 120.0478203  77.2476970  15.7865104 120.2542092
  77.8170828  14.9972689 119.0945647  70.9995848  16.8193123 107.9700022
  70.9766536  16.9180811 107.0181905  71.3096485  17.6658274 108.2917188
  73.6583226  18.8769278 112.0846637  74.6126480  18.8453221 112.0176568
  73.4595750  18.4159902 112.8996863  74.2482608  17.4470394 114.6517434
  75.0675497  17.9414473 114.6752272  74.5219416  16.5302363 114.6235002
  84.0049204   9.8381147 104.0145390  83.1175059  10.1230797 103.7965585
  84.4203194   9.6774910 103.1672667  87.3563741   9.8627668 107.7299729
  88.1324131  10.3524120 108.0024346  86.6311875  10.2885722 108.1871599
  89.7936299  10.5755287 108.7873670  90.3880790  10.3351023 108.0766978
  89.8662883   9.8562417 109.4147206  72.0133455  24.4188898 109.1016835
  71.8787923  23.6589299 108.5354833  71.5965517  25.1429798 108.6345624
  83.1492418  19.6025821  98.1093410  83.8528268  19.8075824  98.7251066
  82.4255067  20.1702583  98.3742493  83.9790228  15.3535683 104.2295680
  83.9225430  15.8104234 103.3903313  84.5318571  14.5926367 104.0518523
  87.7895034  11.1425415 105.0545800  87.5331968  10.7422050 105.8854007
  87.1647902  11.8569208 104.9295939  92.1007372  13.8821488 107.5617091
  91.5406930  13.9514677 108.3348653  91.4950875  13.7062472 106.8416587
  75.1702581  25.3158215 109.3135277  75.0534965  26.2603647 109.2113968
  74.3495027  25.0131776 109.7021077  85.0579115  20.0408351 100.1591870
  85.8924719  19.6089549  99.9769345  84.8963458  19.8690364 101.0868764
  84.7125007  16.5440464 101.5248209  84.6573811  16.3784735 100.5836653
  84.0871063  17.2516497 101.6810399  69.5017522  11.7808528 115.3509632
  70.1476386  11.2707482 115.8396857  69.2934674  12.5177210 115.9253057
  82.0270915  18.8489376 120.8501772  82.8962074  19.0230028 120.4888407
  81.5477666  19.6683793 120.7277501  78.0221133   6.0448573 101.1033528
  78.0099803   6.9890413 101.2601799  78.9144555   5.8618718 100.8092989
  76.1957095  25.9686477 112.5291206  77.0984342  26.0010087 112.8457701
  75.9694465  25.0386928 112.5437542  77.9510697  24.7217463 109.1901284
  77.0006328  24.7219325 109.0765657  78.2543183  23.9750198 108.6737319
  81.8373252   2.6391350 105.3579464  81.0705648   2.0849836 105.5036147
  82.2483957   2.7113218 106.2193616  93.6863390  30.5578002 110.2547047
  94.3241800  30.4384749 109.5510387  93.5684233  31.5058846 110.3134999
  90.4953097  30.5105430 110.1908571  90.1571608  30.3946494 109.3029106
  91.3642865  30.1096595 110.1709578  86.3539912  32.3640906 106.1805462
  85.7904778  32.2730843 105.4121750  86.2392307  31.5440811 106.6607955
  90.9772880  31.6640282 116.1494777  90.9661520  31.2693080 115.2775281
  91.1393519  30.9306354 116.7428548  83.9004344  33.8592098 109.0189683
  84.6925636  33.5182922 108.6035982  84.1400994  33.9687073 109.9391836
  91.9339471  36.0311874 101.4919927  91.2827451  36.6165954 101.1053941
  92.7283834  36.5618069 101.5514965  85.8595098  33.1201011 101.8907062
  86.6325974  32.5729998 101.7519937  86.2120497  33.9845260 102.1021523
  87.6980141  34.4477393 115.0973961  87.4070007  35.3523024 114.9820627
  88.3337125  34.4893921 115.8118031  88.6236348  31.8254242 111.6875321
  89.2199920  31.6010264 110.9732284  88.6811319  31.0838987 112.2900768
  88.1961376  29.2793677  99.5225512  88.4486897  28.7575198  98.7608975
  87.2585935  29.1159823  99.6252195  93.2404659  28.2829456 107.3300255
  94.0267748  27.8648879 106.9790672  93.5043363  29.1875548 107.4981903
  93.4114736  33.7202306 102.0288912  92.7760569  33.7936932 102.7409816
  93.0812143  34.3095905 101.3507991  98.6413086  28.2204689 108.2333233
  99.3738258  27.6503906 108.4671063  97.8852442  27.8326289 108.6739739
  87.9157665  31.1821783 101.7249887  87.7993923  30.5066687 102.3930971
  88.0259925  30.6954157 100.9082040  90.2589206  30.6431930 105.4296576
  89.8947413  30.1162551 106.1409497  91.1156322  30.2530399 105.2563061
  96.1638506  21.9326263 112.6927842  95.8321831  22.8021674 112.4689057
  95.5684120  21.6162547 113.3721872  89.8994693  25.6721830 100.4257924
  90.0669095  26.5402066 100.7928395  89.7091862  25.8349112  99.5019214
  92.6570026  34.1338809 112.0923755  92.3570749  35.0363848 111.9839562
  92.3121085  33.8670992 112.9444908  86.1082507  30.5852606 108.1260459
  85.1833004  30.4528820 108.3338151  86.3566921  31.3646825 108.6230401
  96.0567170  26.6521349 109.7721192  95.1484047  26.5836757 109.4779953
  96.0054765  27.1293294 110.6003017  89.8783914  28.1279487 101.4104591
  89.7583539  28.5736538 102.2490071  89.1836502  28.4764805 100.8518129
  83.4691318  30.2285879 108.9604248  83.5983700  30.4820358 109.8743660
  82.7888770  30.8213587 108.6408903  87.6390806  40.8983129 105.0594722
  87.5614835  41.8490954 105.1383203  87.0352449  40.5529002 105.7169649
  90.1308035  28.0710995 117.7156089  89.3541370  28.6304915 117.7058954
  90.7698599  28.5567778 118.2370959  97.9228816  24.8537787 111.5499066
  97.2803196  25.1470321 110.9038860  97.4183745  24.7390708 112.3552263
  95.5768980  28.6000961 102.2384925  96.4886836  28.8328347 102.0632623
  95.0678627  29.1838005 101.6760004  88.3854408  30.8796448 117.2774056
  89.1269092  31.4181492 117.0008880  87.6791393  31.5062737 117.4345608
  93.8609747  33.0225588 115.8746218  94.2693103  32.5807999 115.1300850
  93.1387009  32.4478216 116.1280411  90.2140817  27.9598195 113.2479775
  91.0602013  28.3837609 113.3914424  90.1539455  27.3031820 113.9418338
  94.1838562  33.5826779 109.6298507  93.5547425  33.7472493 108.9274574
  93.7964224  33.9968389 110.4009471  98.0627794  34.5181217 106.9842870
  97.3778832  34.8980118 106.4339904  98.1471643  35.1276544 107.7174818
  93.3640263  25.6202564 114.9060948  93.1201195  26.3744624 114.3695224
  93.6400193  25.9987911 115.7408195  95.3178726  32.1641176 113.5838214
  95.5295621  32.8072936 112.9072595  95.2708474  31.3303492 113.1160144
  92.9204955  24.7758997 110.4874786  92.0589434  25.0740250 110.7791524
  92.9467389  24.9929395 109.5555819  89.7366524  33.3201187 106.8948592
  90.2004869  33.5988890 106.1053214  89.4723322  32.4184632 106.7121682
  86.6290605  32.8672669 109.8328355  87.1991962  33.2959937 109.1945839
  87.2198717  32.5855253 110.5312541  88.6735410  29.4424340 103.7038157
  89.3759453  29.8945383 104.1712083  88.3416038  28.8008158 104.3318050
  87.1215772  28.0336096 118.0789366  86.4914432  28.7152377 118.3124763
  87.0151859  27.9219178 117.1342504  82.4160744  27.7007892 109.0055290
  81.6259798  27.9565421 108.5295401  82.9071991  28.5156230 109.1107331
  96.4324554  35.0413131 111.7560571  97.2541997  34.6393319 111.4743253
  96.4286956  34.9381366 112.7076687  84.3675489  28.0652471 105.9638767
  83.5706653  28.1771166 106.4822263  84.1401082  28.4039124 105.0979658
  90.1981157  34.5897175 113.9121282  90.2625589  35.0517582 114.7479454
  89.4892081  33.9594540 114.0403592  80.6998447  27.9538383 111.4370281
  80.9506485  28.8385393 111.7027857  81.2357995  27.7742984 110.6645373
 104.5230547  31.3851880 108.1045543 103.7694255  30.8159278 107.9489547
 104.6578088  31.3514544 109.0516177  89.9129175  36.2565282 103.7800262
  89.7774849  37.1016818 104.2085110  90.4538987  36.4584560 103.0166196
  86.3996514  22.3356862 120.4414617  86.0063460  21.7823061 121.1162262
  87.2162655  22.6467440 120.8321135  83.3658572  33.7740720 104.3528187
  83.8783093  34.5683970 104.5033752  84.0181285  33.0767011 104.2861789
  85.1753457  36.8906476 106.4350940  85.3520085  37.8124441 106.2471924
  85.9710290  36.5764896 106.8645320  89.3164475  23.7514741 118.0334874
  90.0574189  24.3521894 117.9539336  89.5482398  23.0092379 117.4752916
  84.4605813  28.9371108 116.3113104  84.3459328  28.0356366 116.6120202
  83.6050331  29.1834805 115.9597920  91.5397651  36.8788849 117.9100604
  91.0961505  36.0925227 117.5921509  92.2014865  37.0667999 117.2444495
  86.2984772  38.4084650 112.4361283  86.8492197  38.2801714 111.6638277
  85.4596248  38.7079539 112.0856175  93.6378889  37.1591649 115.9382005
  93.6197364  37.9800530 115.4462275  94.5598809  37.0345724 116.1632147
  90.0951943  34.6735778 116.7805514  90.6280280  33.9124066 116.5504822
  89.5666024  34.3809430 117.5229668  93.2621638  19.7795844 112.3099156
  92.9185908  20.6697486 112.2338266  93.6300601  19.5897502 111.4468741
  81.3307489  32.1029374 105.1287758  82.1682711  32.5126383 104.9121465
  81.5085756  31.1628817 105.0987952  93.2271921  29.7704455 100.8171591
  92.7118544  30.5409060 101.0559978  92.9549229  29.0969591 101.4404652
  90.8119032  24.6154156 105.8756829  89.9560628  24.2261006 105.6962468
  91.2245984  24.6946117 105.0156615  92.3418179  22.1500499 110.2748389
  91.8382974  22.1130634 109.4616194  92.6348785  23.0593242 110.3345045
  88.5861064  22.2339229 109.2814571  89.4514061  22.0382038 108.9220460
  88.6538573  22.0049581 110.2083927  98.2006195  32.5236810 102.7524764
  97.4235638  32.1847969 102.3079926  98.8797676  32.5289433 102.0779729
  93.0158224  27.6431547 102.6431372  92.7108360  27.9577696 103.4941515
  93.9688666  27.7212967 102.6858705  91.4604656  33.8021771 104.2924326
  90.9326017  33.0674530 103.9797563  90.9592159  34.5796447 104.0464294
  96.4397502  31.9970791 109.4091372  95.7821176  32.6870052 109.4971501
  97.2437901  32.3867223 109.7525358  86.1923384  24.4641437 106.6530937
  86.7667135  24.2416618 105.9204130  86.7794366  24.5330131 107.4059539
  95.2502961  30.3515164 107.4595314  95.7634842  30.9845156 107.9617024
  95.9004185  29.7516359 107.0938674  86.5192971  26.4945898 100.6726823
  85.6830283  26.8320584 100.9936097  86.3797740  26.3594878  99.7353960
  88.4946051  21.3382686 105.3806007  87.8410464  21.0231703 104.7562622
  88.4526525  20.7158426 106.1065830  89.6057256  31.6201981  97.2959299
  88.6984318  31.3891234  97.4950448  90.1028288  30.8239600  97.4833280
  92.5125335  40.3299488 100.2155985  91.8387034  40.6331185 100.8240943
  92.8991157  41.1328568  99.8661442  91.7283792  27.8264619 109.7053654
  90.8106353  28.0479566 109.5475342  92.1443935  27.9010930 108.8465362
  92.5118839  29.2256035 104.8356335  93.2590658  29.7377432 104.5263457
  92.7810429  28.9040088 105.6960728  90.7845490  31.7214576 101.8183289
  89.8756709  31.4373608 101.9155759  90.8140573  32.1413654 100.9586596
  96.0164757  35.3321165 105.5874456  95.5627084  34.4912075 105.6439647
  95.3858724  35.9682564 105.9249237  94.9597677  26.2613151 106.8175124
  94.2220433  25.7490537 107.1485367  95.2124450  25.8213533 106.0058401
  94.4597696  37.1697662 106.5224275  94.7520671  37.7302719 105.8036640
  94.9696317  37.4626223 107.2777434  95.0609304  19.0389403 107.4116893
  95.3668181  18.1786767 107.1242808  95.7861909  19.6307023 107.2115887
  81.3533660  29.4420090 105.7998491  81.1558060  28.8489451 105.0749558
  80.7980324  29.1372300 106.5174430  89.3330384  29.3343196 107.9193084
  89.3878993  28.3817033 107.8435561  88.5221586  29.4902635 108.4034383
  90.4821577  33.2623319  99.1571368  90.0441007  32.5459178  98.6977005
  91.2232018  33.4899434  98.5956459  87.2722744  27.9520256 105.6783463
  86.4590609  28.2514427 106.0848655  87.7681738  27.5575945 106.3957945
  89.4231321  37.9478013 107.6117728  89.3807500  38.1738859 106.6826260
  90.3394020  37.7141388 107.7603529  92.8696955  28.4162080 114.5098357
  93.2246343  28.6433554 115.3692823  93.5169086  28.7480457 113.8875612
  98.5994692  31.5380516 105.2147686  98.4612591  31.7282112 104.2868875
  98.2430911  32.2999899 105.6715737  86.7636818  25.5238612 111.2944698
  87.4036198  25.3827371 110.5967661  85.9314349  25.2373125 110.9183300
  98.6264072  33.6057043 110.2258958  99.0600578  33.5132332 111.0742012
  99.3395652  33.5814544 109.5878974  87.5397122  34.8241042 107.4079691
  88.3337721  34.3291362 107.2062266  86.8288815  34.2958905 107.0447396
  92.3591967  37.2059137 111.7592058  92.4128989  37.7750074 112.5269774
  91.4906748  37.3761023 111.3946095  83.8479886  28.9684124 103.4839443
  82.9177474  28.9068579 103.7009405  83.9437358  28.4460076 102.6876084
  83.7665435  25.4938937 106.0717685  84.0272252  26.4084270 105.9626845
  84.5882607  25.0263379 106.2214298  85.2390360  26.9076694 113.2416509
  85.9113413  26.6994056 112.5929158  84.4120147  26.7098780 112.8021742
  99.4879621  33.6480744 112.7591843  99.6815511  34.5526555 113.0051118
  99.3880239  33.1888163 113.5930428  91.1415932  23.5338635 115.2582170
  90.4943847  24.2328584 115.1646647  91.9116947  23.9674779 115.6258419
  94.5494730  33.7987487 118.3332724  94.3980236  33.5698038 117.4162807
  94.5399409  34.7558088 118.3464069  91.3180066  31.3719400 113.3178990
  92.2472126  31.5230559 113.1447957  90.8971096  31.4603420 112.4627637
  90.1168398  35.3970064 111.0877528  89.9779484  35.0288848 111.9603466
  89.3282994  35.9117703 110.9161485  90.7116550  40.4979160 102.4303064
  90.8868306  40.0267204 103.2448687  90.0249338  41.1244927 102.6584325
  91.6673613  34.7751667 108.4766365  91.3323446  34.7352437 109.3724015
  91.1677559  34.1096383 108.0036776  85.6417857  30.1819297 114.0018947
  85.5037655  29.4499536 114.6030486  86.5522781  30.0928197 113.7203134
  94.6032805  32.1207701  98.7503425  93.9861976  31.3954529  98.6536478
  94.1349293  32.8817061  98.4070499  88.2700158  29.8939256 113.4902626
  88.9799776  29.2532448 113.4489245  88.2269466  30.1452151 114.4128807
  96.2586937  36.8306609 116.4109205  96.1999483  36.1465829 115.7439788
  96.6606455  37.5725599 115.9589831  86.9829092  26.8804474 115.3098266
  86.4466449  26.4295212 115.9619862  86.3945800  27.0150383 114.5668730
  85.2777635  43.6468523 109.2042924  85.5174234  44.2787047 109.8821943
  84.4346832  43.2956563 109.4908284  86.3931351  26.3393125  97.8724729
  85.5160817  26.2181926  97.5086976  86.8689104  25.5479204  97.6203618
  96.2604344  34.7946193 114.6423185  95.3731123  34.4572115 114.7649584
  96.8302895  34.0629225 114.8791951  77.9133491  31.1270285 107.9666237
  78.6004531  30.8132015 107.3787252  77.7581620  32.0311650 107.6933488
  82.7168213  26.0160482 112.3951260  82.6326402  25.4086151 111.6601670
  81.8950920  26.5069500 112.3960757  89.7905497  39.4547646 111.6084428
  89.7175669  40.2602617 112.1203733  89.3482890  39.6539611 110.7832450
  89.5795277  38.6919416 105.1187250  88.7962799  39.2341096 105.2125474
  90.2788022  39.2093395 105.5181491  92.8891927  24.5014045 107.7621455
  93.3860627  23.7484007 107.4422525  92.1178909  24.5378362 107.1964665
 100.7421684  30.2054411 109.4039747 100.7311561  31.0879126 109.0333680
  99.8739064  29.8525961 109.2094284  92.2504181  39.3534480 113.7642587
  92.9632153  39.9881944 113.6918488  91.7594209  39.4498346 112.9482589
  93.9721708  33.2585732 105.3359879  93.0377986  33.3787195 105.1664583
  94.1498376  32.3558199 105.0719888  89.4726896  26.6431428 107.4893140
  89.1024683  26.0902468 108.1774045  89.9685988  26.0389562 106.9368140
  97.3594259  29.1003052 105.8709913  97.8254711  29.9331043 105.7970215
  97.8101760  28.6348033 106.5755171  87.3016094  37.1028923 114.5848158
  88.0025554  37.7365406 114.7377552  86.8311209  37.4443655 113.8243797
  95.4270490  35.4446873 102.8696065  95.7030334  35.3303467 103.7789939
  94.5574989  35.0464358 102.8308238  95.3310922  21.4683639 109.9100814
  94.4174002  21.6987865 110.0783021  95.7604023  21.5522083 110.7614846
  95.1017380  29.6573531 112.4100708  94.4488831  29.9049438 111.7553161
  95.4797760  28.8437669 112.0763185  92.0624554  39.6933224 106.5128878
  92.2446949  38.8754880 106.9756631  92.8857540  39.9100916 106.0753768
  92.3966720  38.6201409 103.7743927  92.9254486  38.1093863 103.1614089
  92.6594939  38.3043939 104.6389460  91.1504953  30.3993342 118.8966745
  90.4745590  30.2987471 119.5669120  91.9732587  30.2432555 119.3602742
  82.8983812  36.6365278 111.5179260  83.4837249  35.8908966 111.6507165
  82.7008651  36.9469235 112.4015924  85.7522468  39.6716526 106.5341703
  85.0832843  40.1562653 106.0505743  85.6135337  39.9185746 107.4485081
  77.4901467  29.2070878 110.2383704  77.5285567  28.6734469 111.0320822
  76.9841760  28.6806084 109.6194681  89.8927736  41.7060269 113.1324361
  90.4446044  41.8691891 113.8973446  90.2333930  42.2964707 112.4604386
  84.8692229  24.0535419 113.7346246  84.9333556  24.9150250 113.3223644
  84.8059350  23.4409421 113.0018604  84.3444502  26.1258551 117.3819280
  84.9716541  25.7435629 117.9956805  83.4872421  25.9072753 117.7474973
  94.7438611  36.5321527 118.9873016  95.2878515  37.1451485 118.4927970
  94.1625455  37.0901105 119.5040029  81.1210045  27.9334981 103.3137635
  81.4163486  27.0245659 103.2604689  80.2198080  27.9122720 102.9918637
  93.0296123  39.6542245 110.1188043  92.9047263  38.8531984 109.6098989
  93.6875215  40.1488438 109.6302013  84.6504292  26.0090977 109.2965184
  83.9290877  26.6226945 109.1572657  85.4397547  26.5448742 109.2181830
  95.0931032  37.4551265 111.7467593  94.1461367  37.3356616 111.6745920
  95.4413805  36.5673763 111.8293855  87.4530605  23.3445404 115.5705835
  87.9765007  23.5907700 116.3332145  87.2342939  24.1765438 115.1508973
  82.8497886  25.6149078 103.4376960  82.5210592  24.7346457 103.2552066
  83.2037257  25.5596747 104.3253349  92.0977465  37.2503981 107.9471946
  91.9502428  36.3220688 108.1279516  92.9230959  37.2724072 107.4629021
  85.9639709  25.9022048 103.8052438  86.3035782  26.4307969 103.0831046
  86.4111830  26.2402454 104.5811004  95.7011587  38.0732540 109.0336818
  96.6258134  37.8675401 108.8961270  95.5326890  37.8248941 109.9426160
  88.6583150  24.2859099 113.2555506  88.3179971  23.4866912 113.6576186
  87.9522157  24.5860810 112.6832339  89.3099622  21.3708411 111.7082829
  90.1325691  20.8968889 111.5861719  89.5537686  22.1498895 112.2081515
  87.9507857  24.3996670 102.0045731  88.6716219  24.7777922 101.5009447
  87.3273161  25.1185546 102.1080709  92.0938979  25.1041819 102.9404063
  92.3102594  25.9866456 102.6392891  91.6133047  24.7128032 102.2109705
  86.8338201  28.0627532 109.5174808  86.6882782  28.3767835 110.4099089
  86.3563404  28.6812432 108.9645706  88.6934584  25.0530080 109.5655697
  88.6796152  24.1571173 109.2287995  89.4107012  25.0600744 110.1993983
  90.5460714  25.4867420 111.6108825  90.2878492  26.4084491 111.6093155
  90.0145755  25.0897855 112.3009289  95.4906903  38.5918207 104.3898910
  95.6643781  38.0264630 103.6372762  95.9835794  39.3919102 104.2078400
  81.3083863  30.6032876 112.4562469  80.7637331  31.3792684 112.5882743
  82.1863213  30.9503681 112.2981590  88.0971480  23.9344460 104.8343267
  88.2187391  23.0061106 105.0334155  87.8073522  23.9483146 103.9221583
  90.9662670  21.6199370 107.9709987  90.9884367  21.6838704 107.0161967
  91.3830729  20.7803879 108.1650493 101.3446294  31.3554630 106.0089210
 101.7877440  30.6061955 105.6108333 100.4672805  31.3464766 105.6262942
  96.4782076  37.9084971 101.4895808  97.1732980  38.5291664 101.7083123
  96.8205226  37.0580323 101.7648186  82.0949885  29.7302772 115.3492626
  81.3531621  29.8785408 115.9357256  81.7742629  29.9911038 114.4859375
  98.3773499  35.3584677 103.0183139  98.9024823  35.6971950 102.2932459
  98.2895851  34.4231692 102.8346274  90.0393548  39.2718751 115.1473016
  90.3480674  39.0267897 116.0195715  90.8369030  39.4765389 114.6591886
  90.0614160  41.4256660 107.3778392  89.6219150  40.9333039 108.0711249
  90.8122277  40.8829628 107.1370467  82.5406499  37.6168201 107.3803020
  83.3664518  37.3171973 107.0001664  82.1900551  36.8475824 107.8292809
  87.5088032  36.9694669 109.4500694  86.8868041  36.3065374 109.1502922
  88.1792899  36.9955801 108.7674342  80.7415104  35.5354528 108.3391954
  79.9047012  35.1076702 108.1575955  80.7138749  35.7286971 109.2762745
  87.5812559  25.4476457 119.0433200  87.6300715  26.3238580 118.6610969
  88.1235073  24.9053850 118.4704843  98.0667405  35.9917581 118.3234337
  97.2762949  35.9741720 117.7838836  97.8300759  36.5305874 119.0783374
  98.1865280  32.8410047 115.6367065  98.2363285  32.6760054 116.5782588
  98.0779203  31.9737306 115.2464946  87.0701539  35.5198593 102.9259154
  87.2189659  36.2034057 102.2725827  87.8767982  35.5003683 103.4408610
  95.4769042  28.8240975 116.9526372  96.3778905  28.6847440 116.6610370
  95.5517017  28.9895430 117.8924550  89.8111848  26.2007830 115.7979558
  88.9415157  26.4941396 115.5262147  90.0471328  26.7848275 116.5186822
  99.6883477  35.2606989 115.8809087  99.3968285  35.6236969 116.7172548
  99.0755608  34.5473997 115.7022419 100.8879159  32.8259868 108.4011657
 101.7226050  33.2649672 108.5649218 101.0238288  32.3498522 107.5819903
  97.9370665  30.3839603 114.3489145  98.4124787  30.5767249 113.5407996
  97.0136230  30.4398789 114.1032529  84.8254172  31.5463770 103.9320223
  84.5800214  30.6426100 104.1300433  84.9950086  31.5480921 102.9899701
  92.5150881  22.4187447 113.3144979  93.0332825  23.1548474 112.9891467
  92.1606014  22.7251440 114.1491738  84.0949819  27.2792128 101.4306385
  83.4019064  27.3536483 100.7746421  83.8501571  26.5152472 101.9527902
  92.7663476  18.8387729 108.8345875  93.0465229  18.1710918 109.4606302
  93.5514083  19.0316825 108.3220539  90.5696944  38.0146723 100.3970902
  89.9970911  38.6336910  99.9441374  91.1429738  38.5646085 100.9310824
  96.6372334  27.2605363 112.5817451  97.5889757  27.3603461 112.6029675
  96.4675784  26.4683632 113.0915535  94.6586713  24.3460946 112.7676852
  94.0636646  24.6265959 112.0723340  94.3736410  24.8354847 113.5393593
  93.7894204  38.2983873 101.5279484  94.7224877  38.2329435 101.7312360
  93.7017417  39.1340140 101.0694017  96.4182221  37.6149744  98.4883432
  96.3395852  37.2809607  99.3819190  97.2391887  38.1071512  98.4874904
  99.1160412  30.4811483 111.6959750  99.0836732  29.5427484 111.8819434
  99.7261035  30.5595520 110.9625575  90.9543743  29.3507536  97.7386954
  91.9002847  29.2213744  97.8075372  90.5757988  28.6122198  98.2156382
  99.2654900  27.2722526 111.7418033  98.7493949  26.4880983 111.5547962
 100.1494849  26.9441243 111.9064553  96.9265627  21.0163542 107.7013846
  96.7290448  20.7078630 108.5857178  97.5365333  21.7425181 107.8311776
 104.9336962  31.5427490 110.8365787 105.6640350  31.2812778 111.3973490
 104.3243907  30.8056212 110.8767855 103.0152259  29.6835352 111.4340238
 102.2885422  29.5491317 110.8256730 102.5999546  29.9912181 112.2396956
  90.8382435  33.4025282 119.1987611  91.7585445  33.5803881 119.3927658
  90.8032018  32.4581327 119.0467311  89.1386660  27.2757512  97.6741840
  88.2318115  26.9790625  97.7504553  89.4162641  26.9787330  96.8076126
  80.0564600  28.5963876 108.1240886  79.7367385  27.7429184 107.8315260
  79.5098028  28.8112454 108.8798853  83.8344508  31.3126317 111.8410392
  84.0530518  32.2443425 111.8598426  84.2470282  30.9534291 112.6265196
  90.7548726  21.8194402 103.8286081  89.9449454  21.4741487 104.2041327
  91.4433142  21.5101946 104.4173692  92.6839274  20.8972449 105.4510377
  93.2370312  21.3167902 106.1100401  92.9209360  19.9708197 105.4933333
  88.7072373  26.8859522 121.2313141  88.6069100  27.8353879 121.1625232
  88.4893915  26.5577761 120.3589211  87.9085444  24.1344448  97.8153819
  88.7704608  24.4599346  98.0749636  88.0935789  23.3475943  97.3026884
  79.9252860  32.2166787 110.0934007  79.2316332  31.8020740 109.5803962
  80.6725851  32.2587324 109.4967426  96.0618081  23.0072974 104.9589042
  95.4816750  23.6657778 104.5767094  95.7954014  22.1850319 104.5476459
  94.5121647  22.4078032 107.1610362  95.0121426  22.5194566 106.3524681
  95.1557255  22.1039085 107.8011170  88.5703643  30.3156661 120.0478203
  88.0870725  31.1157021 120.2542092  88.6564582  30.3264606 119.0945647
  81.8389603  32.1485041 107.9700022  81.8160291  32.2472728 107.0181905
  82.1490239  32.9950192 108.2917188  84.4976981  34.2061196 112.0846637
  85.4520234  34.1745138 112.0176568  84.2989504  33.7451820 112.8996863
  85.0876363  32.7762312 114.6517434  85.9069252  33.2706391 114.6752272
  85.3613170  31.8594280 114.6235002  94.8442959  25.1673064 104.0145390
  93.9568814  25.4522715 103.7965585  95.2596948  25.0066828 103.1672667
  98.1957495  25.1919585 107.7299729  98.9717885  25.6816038 108.0024346
  97.4705629  25.6177640 108.1871599 100.6330054  25.9047205 108.7873670
 101.2274544  25.6642941 108.0766978 100.7056637  25.1854335 109.4147206
  82.8527209  39.7480816 109.1016835  82.7181677  38.9881216 108.5354833
  82.4359272  40.4721715 108.6345624  93.9886172  34.9317739  98.1093410
  94.6922023  35.1367742  98.7251066  93.2648821  35.4994501  98.3742493
  94.8183983  30.6827600 104.2295680  94.7619184  31.1396152 103.3903313
  95.3712325  29.9218285 104.0518523  98.6288789  26.4717332 105.0545800
  98.3725723  26.0713968 105.8854007  98.0041657  27.1861126 104.9295939
 102.9401126  29.2113405 107.5617091 102.3800684  29.2806595 108.3348653
 102.3344630  29.0354390 106.8416587  86.0096335  40.6450133 109.3135277
  85.8928719  41.5895565 109.2113968  85.1888782  40.3423694 109.7021077
  95.8972870  35.3700268 100.1591870  96.7318474  34.9381467  99.9769345
  95.7357213  35.1982282 101.0868764  95.5518762  31.8732382 101.5248209
  95.4967566  31.7076653 100.5836653  94.9264817  32.5808414 101.6810399
  80.3411277  27.1100446 115.3509632  80.9870141  26.5999400 115.8396857
  80.1328428  27.8469128 115.9253057  92.8664669  34.1781293 120.8501772
  93.7355829  34.3521946 120.4888407  92.3871421  34.9975710 120.7277501
  88.8614887  21.3740491 101.1033528  88.8493557  22.3182330 101.2601799
  89.7538309  21.1910636 100.8092989  87.0350849  41.2978394 112.5291206
  87.9378096  41.3302005 112.8457701  86.8088219  40.3678845 112.5437542
  88.7904451  40.0509381 109.1901284  87.8400082  40.0511243 109.0765657
  89.0936938  39.3042116 108.6737319  92.6767007  17.9683267 105.3579464
  91.9099403  17.4141754 105.5036147  93.0877712  18.0405136 106.2193616
  84.6808768  24.2568063 119.4484646  85.5440230  23.9004868 119.6587970
  84.1074179  23.9181958 120.1360050 104.5257145  45.8869919 110.2547047
 105.1635555  45.7676667 109.5510387 104.4077988  46.8350763 110.3134999
 101.3346851  45.8397347 110.1908571 100.9965363  45.7238412 109.3029106
 102.2036619  45.4388513 110.1709578  97.1933667  47.6932824 106.1805462
  96.6298532  47.6022761 105.4121750  97.0786062  46.8732728 106.6607955
 101.8166634  46.9932199 116.1494777 101.8055275  46.5984997 115.2775281
 101.9787274  46.2598272 116.7428548  94.7398099  49.1884015 109.0189683
  95.5319391  48.8474840 108.6035982  94.9794749  49.2978991 109.9391836
 102.7733226  51.3603792 101.4919927 102.1221205  51.9457872 101.1053941
 103.5677588  51.8909986 101.5514965  96.6988853  48.4492929 101.8907062
  97.4719729  47.9021916 101.7519937  97.0514252  49.3137178 102.1021523
  98.5373895  49.7769311 115.0973961  98.2463761  50.6814942 114.9820627
  99.1730880  49.8185839 115.8118031  99.4630102  47.1546160 111.6875321
 100.0593674  46.9302182 110.9732284  99.5205074  46.4130905 112.2900768
  99.0355131  44.6085595  99.5225512  99.2880651  44.0867116  98.7608975
  98.0979690  44.4451740  99.6252195 104.0798413  43.6121373 107.3300255
 104.8661503  43.1940796 106.9790672 104.3437118  44.5167465 107.4981903
 104.2508491  49.0494224 102.0288912 103.6154324  49.1228850 102.7409816
 103.9205897  49.6387822 101.3507991 109.4806841  43.5496606 108.2333233
 110.2132012  42.9795823 108.4671063 108.7246196  43.1618207 108.6739739
  98.7551419  46.5113701 101.7249887  98.6387677  45.8358604 102.3930971
  98.8653679  46.0246075 100.9082040 101.0982960  45.9723848 105.4296576
 100.7341167  45.4454469 106.1409497 101.9550076  45.5822317 105.2563061
 107.0032261  37.2618181 112.6927842 106.6715586  38.1313591 112.4689057
 106.4077874  36.9454465 113.3721872 100.7388447  41.0013748 100.4257924
 100.9062850  41.8693984 100.7928395 100.5485616  41.1641029  99.5019214
 103.4963780  49.4630727 112.0923755 103.1964503  50.3655765 111.9839562
 103.1514840  49.1962910 112.9444908  96.9476262  45.9144523 108.1260459
  96.0226758  45.7820737 108.3338151  97.1960675  46.6938743 108.6230401
 106.8960924  41.9813267 109.7721192 105.9877802  41.9128675 109.4779953
 106.8448520  42.4585212 110.6003017 100.7177668  43.4571405 101.4104591
 100.5977293  43.9028456 102.2490071 100.0230256  43.8056723 100.8518129
  94.3085073  45.5577797 108.9604248  94.4377454  45.8112276 109.8743660
  93.6282524  46.1505505 108.6408903  98.4784560  56.2275047 105.0594722
  98.4008590  57.1782872 105.1383203  97.8746204  55.8820919 105.7169649
 100.9701790  43.4002912 117.7156089 100.1935124  43.9596832 117.7058954
 101.6092353  43.8859695 118.2370959 108.7622571  40.1829705 111.5499066
 108.1196951  40.4762238 110.9038860 108.2577499  40.0682625 112.3552263
 106.4162734  43.9292878 102.2384925 107.3280590  44.1620265 102.0632623
 105.9072381  44.5129922 101.6760004  99.2248162  46.2088366 117.2774056
  99.9662847  46.7473410 117.0008880  98.5185148  46.8354654 117.4345608
 104.7003502  48.3517506 115.8746218 105.1086858  47.9099917 115.1300850
 103.9780763  47.7770134 116.1280411 101.0534572  43.2890113 113.2479775
 101.8995767  43.7129526 113.3914424 100.9933210  42.6323737 113.9418338
 105.0232317  48.9118697 109.6298507 104.3941179  49.0764411 108.9274574
 104.6357979  49.3260306 110.4009471 108.9021548  49.8473135 106.9842870
 108.2172587  50.2272036 106.4339904 108.9865398  50.4568461 107.7174818
 104.2034017  40.9494481 114.9060948 103.9594949  41.7036542 114.3695224
 104.4793948  41.3279829 115.7408195 106.1572480  47.4933094 113.5838214
 106.3689375  48.1364854 112.9072595 106.1102228  46.6595410 113.1160144
 103.7598709  40.1050914 110.4874786 102.8983188  40.4032168 110.7791524
 103.7861144  40.3221313 109.5555819 100.5760278  48.6493105 106.8948592
 101.0398624  48.9280808 106.1053214 100.3117077  47.7476549 106.7121682
  97.4684359  48.1964586 109.8328355  98.0385717  48.6251855 109.1945839
  98.0592471  47.9147171 110.5312541  99.5129164  44.7716257 103.7038157
 100.2153208  45.2237301 104.1712083  99.1809793  44.1300076 104.3318050
  97.9609526  43.3628014 118.0789366  97.3308187  44.0444295 118.3124763
  97.8545614  43.2511095 117.1342504  93.2554498  43.0299810 109.0055290
  92.4653552  43.2857338 108.5295401  93.7465746  43.8448148 109.1107331
 107.2718308  50.3705049 111.7560571 108.0935752  49.9685236 111.4743253
 107.2680711  50.2673283 112.7076687  95.2069244  43.3944389 105.9638767
  94.4100407  43.5063083 106.4822263  94.9794836  43.7331041 105.0979658
 101.0374911  49.9189092 113.9121282 101.1019344  50.3809500 114.7479454
 100.3285835  49.2886457 114.0403592  91.5392201  43.2830300 111.4370281
  91.7900240  44.1677310 111.7027857  92.0751750  43.1034902 110.6645373
 115.3624301  46.7143798 108.1045543 114.6088009  46.1451196 107.9489547
 115.4971842  46.6806462 109.0516177 100.7522929  51.5857200 103.7800262
 100.6168604  52.4308736 104.2085110 101.2932742  51.7876477 103.0166196
  97.2390269  37.6648780 120.4414617  96.8457214  37.1114978 121.1162262
  98.0556409  37.9759358 120.8321135  94.2052326  49.1032638 104.3528187
  94.7176847  49.8975888 104.5033752  94.8575039  48.4058928 104.2861789
  96.0147211  52.2198394 106.4350940  96.1913840  53.1416359 106.2471924
  96.8104045  51.9056813 106.8645320 100.1558230  39.0806659 118.0334874
 100.8967943  39.6813812 117.9539336 100.3876153  38.3384297 117.4752916
  95.2999568  44.2663026 116.3113104  95.1853083  43.3648283 116.6120202
  94.4444085  44.5126723 115.9597920 102.3791405  52.2080766 117.9100604
 101.9355260  51.4217145 117.5921509 103.0408619  52.3959917 117.2444495
  97.1378527  53.7376568 112.4361283  97.6885952  53.6093631 111.6638277
  96.2990003  54.0371457 112.0856175 104.4772644  52.4883566 115.9382005
 104.4591119  53.3092447 115.4462275 105.3992564  52.3637641 116.1632147
 100.9345698  50.0027696 116.7805514 101.4674035  49.2415984 116.5504822
 100.4059779  49.7101348 117.5229668 104.1015393  35.1087762 112.3099156
 103.7579662  35.9989403 112.2338266 104.4694355  34.9189419 111.4468741
  92.1701243  47.4321292 105.1287758  93.0076465  47.8418301 104.9121465
  92.3479511  46.4920734 105.0987952 104.0665675  45.0996373 100.8171591
 103.5512299  45.8700977 101.0559978 103.7942984  44.4261509 101.4404652
 101.6512786  39.9446074 105.8756829 100.7954383  39.5552924 105.6962468
 102.0639738  40.0238034 105.0156615 103.1811933  37.4792417 110.2748389
 102.6776729  37.4422552 109.4616194 103.4742540  38.3885160 110.3345045
  99.4254819  37.5631147 109.2814571 100.2907816  37.3673955 108.9220460
  99.4932328  37.3341498 110.2083927 109.0399950  47.8528727 102.7524764
 108.2629392  47.5139887 102.3079926 109.7191430  47.8581351 102.0779729
 103.8551979  42.9723465 102.6431372 103.5502114  43.2869614 103.4941515
 104.8082421  43.0504885 102.6858705 102.2998410  49.1313688 104.2924326
 101.7719772  48.3966448 103.9797563 101.7985913  49.9088365 104.0464294
 107.2791256  47.3262709 109.4091372 106.6214931  48.0161970 109.4971501
 108.0831656  47.7159141 109.7525358  97.0317138  39.7933355 106.6530937
  97.6060890  39.5708536 105.9204130  97.6188120  39.8622049 107.4059539
 106.0896715  45.6807081 107.4595314 106.6028597  46.3137073 107.9617024
 106.7397939  45.0808277 107.0938674  97.3586725  41.8237816 100.6726823
  96.5224037  42.1612502 100.9936097  97.2191495  41.6886795  99.7353960
  99.3339806  36.6674603 105.3806007  98.6804218  36.3523621 104.7562622
  99.2920280  36.0450344 106.1065830 100.4451011  46.9493898  97.2959299
  99.5378072  46.7183152  97.4950448 100.9422043  46.1531518  97.4833280
 103.3519089  55.6591406 100.2155985 102.6780788  55.9623102 100.8240943
 103.7384911  56.4620486  99.8661442 102.5677546  43.1556537 109.7053654
 101.6500107  43.3771484 109.5475342 102.9837690  43.2302847 108.8465362
 103.3512594  44.5547953 104.8356335 104.0984413  45.0669350 104.5263457
 103.6204183  44.2332005 105.6960728 101.6239244  47.0506493 101.8183289
 100.7150463  46.7665526 101.9155759 101.6534328  47.4705572 100.9586596
 106.8558511  50.6613083 105.5874456 106.4020839  49.8203993 105.6439647
 106.2252478  51.2974481 105.9249237 105.7991431  41.5905069 106.8175124
 105.0614188  41.0782455 107.1485367 106.0518205  41.1505450 106.0058401
 105.2991451  52.4989580 106.5224275 105.5914425  53.0594637 105.8036640
 105.8090071  52.7918141 107.2777434 105.9003058  34.3681321 107.4116893
 106.2061935  33.5078684 107.1242808 106.6255663  34.9598941 107.2115887
  92.1927414  44.7712007 105.7998491  91.9951814  44.1781368 105.0749558
  91.6374078  44.4664218 106.5174430 100.1724138  44.6635114 107.9193084
 100.2272748  43.7108950 107.8435561  99.3615340  44.8194553 108.4034383
 101.3215332  48.5915237  99.1571368 100.8834762  47.8751096  98.6977005
 102.0625773  48.8191352  98.5956459  98.1116498  43.2812174 105.6783463
  97.2984364  43.5806344 106.0848655  98.6075492  42.8867862 106.3957945
 100.2625076  53.2769931 107.6117728 100.2201255  53.5030777 106.6826260
 101.1787775  53.0433305 107.7603529 103.7090710  43.7453998 114.5098357
 104.0640097  43.9725471 115.3692823 104.3562841  44.0772375 113.8875612
 109.4388447  46.8672434 105.2147686 109.3006345  47.0574030 104.2868875
 109.0824665  47.6291817 105.6715737  97.6030573  40.8530529 111.2944698
  98.2429952  40.7119288 110.5967661  96.7708103  40.5665043 110.9183300
 109.4657826  48.9348961 110.2258958 109.8994333  48.8424250 111.0742012
 110.1789407  48.9106462 109.5878974  98.3790877  50.1532960 107.4079691
  99.1731475  49.6583280 107.2062266  97.6682569  49.6250823 107.0447396
 103.1985721  52.5351055 111.7592058 103.2522743  53.1041991 112.5269774
 102.3300502  52.7052940 111.3946095  94.6873640  44.2976041 103.4839443
  93.7571228  44.2360497 103.7009405  94.7831112  43.7751994 102.6876084
  94.6059189  40.8230854 106.0717685  94.8666006  41.7376187 105.9626845
  95.4276361  40.3555297 106.2214298  96.0784115  42.2368611 113.2416509
  96.7507168  42.0285974 112.5929158  95.2513901  42.0390697 112.8021742
 110.3273376  48.9772662 112.7591843 110.5209266  49.8818472 113.0051118
 110.2273994  48.5180081 113.5930428 101.9809687  38.8630552 115.2582170
 101.3337602  39.5620502 115.1646647 102.7510702  39.2966696 115.6258419
 105.3888484  49.1279404 118.3332724 105.2373991  48.8989956 117.4162807
 105.3793164  50.0850006 118.3464069 102.1573821  46.7011317 113.3178990
 103.0865881  46.8522477 113.1447957 101.7364851  46.7895338 112.4627637
 100.9562153  50.7261982 111.0877528 100.8173238  50.3580766 111.9603466
 100.1676749  51.2409621 110.9161485 101.5510305  55.8271078 102.4303064
 101.7262060  55.3559121 103.2448687 100.8643093  56.4536844 102.6584325
 102.5067368  50.1043584 108.4766365 102.1717200  50.0644354 109.3724015
 102.0071313  49.4388300 108.0036776  96.4811612  45.5111214 114.0018947
  96.3431410  44.7791453 114.6030486  97.3916535  45.4220114 113.7203134
 105.4426559  47.4499619  98.7503425 104.8255730  46.7246447  98.6536478
 104.9743048  48.2108979  98.4070499  99.1093912  45.2231174 113.4902626
  99.8193531  44.5824366 113.4489245  99.0663221  45.4744069 114.4128807
 107.0980691  52.1598527 116.4109205 107.0393237  51.4757747 115.7439788
 107.5000209  52.9017517 115.9589831  97.8222846  42.2096392 115.3098266
  97.2860203  41.7587130 115.9619862  97.2339555  42.3442300 114.5668730
  96.1171390  58.9760441 109.2042924  96.3567988  59.6078965 109.8821943
  95.2740586  58.6248481 109.4908284  97.2325105  41.6685043  97.8724729
  96.3554572  41.5473844  97.5086976  97.7082858  40.8771121  97.6203618
 107.0998098  50.1238111 114.6423185 106.2124877  49.7864033 114.7649584
 107.6696649  49.3921142 114.8791951  88.7527245  46.4562203 107.9666237
  89.4398285  46.1423933 107.3787252  88.5975374  47.3603567 107.6933488
  93.5561968  41.3452399 112.3951260  93.4720156  40.7378069 111.6601670
  92.7344674  41.8361418 112.3960757 100.6299252  54.7839563 111.6084428
 100.5569423  55.5894535 112.1203733 100.1876645  54.9831529 110.7832450
 100.4189031  54.0211333 105.1187250  99.6356553  54.5633014 105.2125474
 101.1181777  54.5385313 105.5181491 103.7285681  39.8305963 107.7621455
 104.2254381  39.0775925 107.4422525 102.9572663  39.8670279 107.1964665
 111.5815439  45.5346328 109.4039747 111.5705315  46.4171044 109.0333680
 110.7132818  45.1817879 109.2094284 103.0897935  54.6826397 113.7642587
 103.8025907  55.3173862 113.6918488 102.5987964  54.7790263 112.9482589
 104.8115462  48.5877650 105.3359879 103.8771741  48.7079112 105.1664583
 104.9892131  47.6850117 105.0719888 100.3120650  41.9723346 107.4893140
  99.9418438  41.4194386 108.1774045 100.8079743  41.3681479 106.9368140
 108.1988014  44.4294969 105.8709913 108.6648466  45.2622961 105.7970215
 108.6495514  43.9639951 106.5755171  98.1409849  52.4320841 114.5848158
  98.8419308  53.0657324 114.7377552  97.6704964  52.7735572 113.8243797
 106.2664245  50.7738791 102.8696065 106.5424089  50.6595385 103.7789939
 105.3968743  50.3756275 102.8308238 106.1704676  36.7975556 109.9100814
 105.2567756  37.0279783 110.0783021 106.5997778  36.8814000 110.7614846
 105.9411135  44.9865448 112.4100708 105.2882585  45.2341356 111.7553161
 106.3191515  44.1729586 112.0763185 102.9018309  55.0225141 106.5128878
 103.0840703  54.2046797 106.9756631 103.7251295  55.2392834 106.0753768
 103.2360474  53.9493327 103.7743927 103.7648241  53.4385781 103.1614089
 103.4988694  53.6335857 104.6389460 101.9898708  45.7285259 118.8966745
 101.3139345  45.6279389 119.5669120 102.8126342  45.5724473 119.3602742
  93.7377567  51.9657196 111.5179260  94.3231004  51.2200884 111.6507165
  93.5402405  52.2761153 112.4015924  96.5916222  55.0008443 106.5341703
  95.9226597  55.4854571 106.0505743  96.4529092  55.2477664 107.4485081
  88.3295222  44.5362796 110.2383704  88.3679321  44.0026387 111.0320822
  87.8235514  44.0098002 109.6194681 100.7321491  57.0352187 113.1324361
 101.2839799  57.1983808 113.8973446 101.0727684  57.6256625 112.4604386
  95.7085984  39.3827337 113.7346246  95.7727310  40.2442167 113.3223644
  95.6453104  38.7701338 113.0018604  95.1838256  41.4550469 117.3819280
  95.8110295  41.0727546 117.9956805  94.3266175  41.2364671 117.7474973
 105.5832365  51.8613444 118.9873016 106.1272269  52.4743403 118.4927970
 105.0019210  52.4193023 119.5040029  91.9603799  43.2626898 103.3137635
  92.2557240  42.3537577 103.2604689  91.0591835  43.2414638 102.9918637
 103.8689878  54.9834162 110.1188043 103.7441017  54.1823902 109.6098989
 104.5268969  55.4780356 109.6302013  95.4898046  41.3382895 109.2965184
  94.7684632  41.9518862 109.1572657  96.2791302  41.8740660 109.2181830
 105.9324786  52.7843182 111.7467593 104.9855122  52.6648534 111.6745920
 106.2807559  51.8965680 111.8293855  98.2924360  38.6737321 115.5705835
  98.8158762  38.9199618 116.3332145  98.0736693  39.5057356 115.1508973
  93.6891641  40.9440996 103.4376960  93.3604347  40.0638375 103.2552066
  94.0431011  40.8888665 104.3253349 102.9371220  52.5795899 107.9471946
 102.7896182  51.6512606 108.1279516 103.7624713  52.6015989 107.4629021
  96.8033464  41.2313966 103.8052438  97.1429536  41.7599887 103.0831046
  97.2505584  41.5694372 104.5811004 106.5405341  53.4024457 109.0336818
 107.4651889  53.1967319 108.8961270 106.3720645  53.1540858 109.9426160
  99.4976905  39.6151016 113.2555506  99.1573725  38.8158829 113.6576186
  98.7915911  39.9152727 112.6832339 100.1493377  36.7000329 111.7082829
 100.9719446  36.2260807 111.5861719 100.3931440  37.4790813 112.2081515
  98.7901611  39.7288587 102.0045731  99.5109974  40.1069840 101.5009447
  98.1666915  40.4477464 102.1080709 102.9332734  40.4333736 102.9404063
 103.1496348  41.3158374 102.6392891 102.4526801  40.0419950 102.2109705
  97.6731955  43.3919449 109.5174808  97.5276536  43.7059753 110.4099089
  97.1957159  44.0104350 108.9645706  99.5328338  40.3821997 109.5655697
  99.5189907  39.4863091 109.2287995 100.2500766  40.3892661 110.1993983
 101.3854469  40.8159338 111.6108825 101.1272247  41.7376408 111.6093155
 100.8539509  40.4189772 112.3009289 106.3300658  53.9210125 104.3898910
 106.5037535  53.3556547 103.6372762 106.8229549  54.7211020 104.2078400
  92.1477618  45.9324794 112.4562469  91.6031086  46.7084602 112.5882743
  93.0256967  46.2795598 112.2981590  98.9365234  39.2636378 104.8343267
  99.0581145  38.3353024 105.0334155  98.6467277  39.2775064 103.9221583
 101.8056425  36.9491288 107.9709987 101.8278121  37.0130621 107.0161967
 102.2224484  36.1095797 108.1650493 112.1840049  46.6846548 106.0089210
 112.6271195  45.9353873 105.6108333 111.3066559  46.6756684 105.6262942
 107.3175830  53.2376889 101.4895808 108.0126735  53.8583582 101.7083123
 107.6598980  52.3872240 101.7648186  92.9343639  45.0594690 115.3492626
  92.1925375  45.2077325 115.9357256  92.6136384  45.3202956 114.4859375
 109.2167253  50.6876595 103.0183139 109.7418577  51.0263867 102.2932459
 109.1289606  49.7523610 102.8346274 100.8787302  54.6010668 115.1473016
 101.1874428  54.3559815 116.0195715 101.6762784  54.8057307 114.6591886
 100.9007914  56.7548578 107.3778392 100.4612904  56.2624957 108.0711249
 101.6516031  56.2121546 107.1370467  93.3800253  52.9460119 107.3803020
  94.2058273  52.6463891 107.0001664  93.0294305  52.1767741 107.8292809
  98.3481786  52.2986587 109.4500694  97.7261795  51.6357292 109.1502922
  99.0186653  52.3247719 108.7674342  91.5808858  50.8646445 108.3391954
  90.7440766  50.4368620 108.1575955  91.5532504  51.0578889 109.2762745
  98.4206314  40.7768375 119.0433200  98.4694469  41.6530498 118.6610969
  98.9628828  40.2345768 118.4704843 108.9061159  51.3209498 118.3234337
 108.1156703  51.3033637 117.7838836 108.6694514  51.8597792 119.0783374
 109.0259034  48.1701965 115.6367065 109.0757039  48.0051972 116.5782588
 108.9172958  47.3029224 115.2464946  97.9095293  50.8490510 102.9259154
  98.0583413  51.5325975 102.2725827  98.7161737  50.8295600 103.4408610
 106.3162797  44.1532893 116.9526372 107.2172660  44.0139358 116.6610370
 106.3910771  44.3187348 117.8924550 100.6505602  41.5299747 115.7979558
  99.7808912  41.8233314 115.5262147 100.8865083  42.1140192 116.5186822
 110.5277231  50.5898906 115.8809087 110.2362040  50.9528887 116.7172548
 109.9149363  49.8765915 115.7022419 111.7272914  48.1551786 108.4011657
 112.5619805  48.5941590 108.5649218 111.8632042  47.6790439 107.5819903
 108.7764420  45.7131521 114.3489145 109.2518541  45.9059167 113.5407996
 107.8529985  45.7690707 114.1032529  95.6647926  46.8755688 103.9320223
  95.4193968  45.9718018 104.1300433  95.8343841  46.8772838 102.9899701
 103.3544636  37.7479364 113.3144979 103.8726580  38.4840391 112.9891467
 102.9999769  38.0543358 114.1491738  94.9343574  42.6084046 101.4306385
  94.2412819  42.6828401 100.7746421  94.6895326  41.8444389 101.9527902
 103.6057230  34.1679647 108.8345875 103.8858984  33.5002836 109.4606302
 104.3907837  34.3608743 108.3220539 101.4090699  53.3438641 100.3970902
 100.8364666  53.9628828  99.9441374 101.9823492  53.8938003 100.9310824
 107.4766088  42.5897281 112.5817451 108.4283511  42.6895379 112.6029675
 107.3069539  41.7975549 113.0915535 105.4980468  39.6752864 112.7676852
 104.9030400  39.9557877 112.0723340 105.2130165  40.1646765 113.5393593
 104.6287958  53.6275791 101.5279484 105.5618632  53.5621353 101.7312360
 104.5411171  54.4632058 101.0694017 107.2575975  52.9441661  98.4883432
 107.1789607  52.6101525  99.3819190 108.0785642  53.4363429  98.4874904
 109.9554166  45.8103401 111.6959750 109.9230486  44.8719401 111.8819434
 110.5654790  45.8887437 110.9625575 101.7937497  44.6799454  97.7386954
 102.7396602  44.5505662  97.8075372 101.4151742  43.9414116  98.2156382
 110.1048655  42.6014444 111.7418033 109.5887703  41.8172901 111.5547962
 110.9888603  42.2733161 111.9064553 107.7659382  36.3455460 107.7013846
 107.5684203  36.0370548 108.5857178 108.3759087  37.0717099 107.8311776
 115.7730716  46.8719407 110.8365787 116.5034105  46.6104696 111.3973490
 115.1637662  46.1348129 110.8767855 113.8546013  45.0127270 111.4340238
 113.1279177  44.8783235 110.8256730 113.4393300  45.3204099 112.2396956
 101.6776190  48.7317200 119.1987611 102.5979199  48.9095799 119.3927658
 101.6425773  47.7873245 119.0467311  99.9780414  42.6049430  97.6741840
  99.0711870  42.3082543  97.7504553 100.2556395  42.3079248  96.8076126
  90.8958355  43.9255793 108.1240886  90.5761139  43.0721102 107.8315260
  90.3491783  44.1404372 108.8798853  94.6738262  46.6418234 111.8410392
  94.8924272  47.5735342 111.8598426  95.0864036  46.2826209 112.6265196
 101.5942480  37.1486320 103.8286081 100.7843208  36.8033405 104.2041327
 102.2826897  36.8393863 104.4173692 103.5233028  36.2264367 105.4510377
 104.0764067  36.6459820 106.1100401 103.7603115  35.3000115 105.4933333
  99.5466128  42.2151440 121.2313141  99.4462854  43.1645797 121.1625232
  99.3287670  41.8869679 120.3589211  98.7479199  39.4636365  97.8153819
  99.6098363  39.7891264  98.0749636  98.9329543  38.6767861  97.3026884
  90.7646615  47.5458705 110.0934007  90.0710086  47.1312658 109.5803962
  91.5119606  47.5879241 109.4967426 106.9011835  38.3364892 104.9589042
 106.3210504  38.9949696 104.5767094 106.6347768  37.5142236 104.5476459
 105.3515402  37.7369949 107.1610362 105.8515180  37.8486484 106.3524681
 105.9951010  37.4331002 107.8011170  99.4097398  45.6448579 120.0478203
  98.9264479  46.4448939 120.2542092  99.4958337  45.6556524 119.0945647
  92.6783357  47.4776959 107.9700022  92.6554045  47.5764646 107.0181905
  92.9883994  48.3242109 108.2917188  95.3370735  49.5353114 112.0846637
  96.2913989  49.5037056 112.0176568  95.1383259  49.0743737 112.8996863
  95.9270117  48.1054230 114.6517434  96.7463006  48.5998308 114.6752272
  96.2006925  47.1886198 114.6235002 105.6836713  40.4964982 104.0145390
 104.7962568  40.7814633 103.7965585 106.0990702  40.3358745 103.1672667
 109.0351250  40.5211503 107.7299729 109.8111640  41.0107955 108.0024346
 108.3099384  40.9469557 108.1871599 111.4723808  41.2339122 108.7873670
 112.0668299  40.9934858 108.0766978 111.5450392  40.5146253 109.4147206
  93.6920964  55.0772733 109.1016835  93.5575432  54.3173134 108.5354833
  93.2753026  55.8013633 108.6345624 104.8279927  50.2609657  98.1093410
 105.5315777  50.4659659  98.7251066 104.1042576  50.8286419  98.3742493
 105.6577737  46.0119518 104.2295680 105.6012939  46.4688069 103.3903313
 106.2106080  45.2510203 104.0518523 109.4682543  41.8009250 105.0545800
 109.2119477  41.4005886 105.8854007 108.8435411  42.5153044 104.9295939
 113.7794881  44.5405323 107.5617091 113.2194439  44.6098512 108.3348653
 113.1738384  44.3646308 106.8416587  96.8490090  55.9742050 109.3135277
  96.7322474  56.9187483 109.2113968  96.0282536  55.6715612 109.7021077
 106.7366624  50.6992186 100.1591870 107.5712228  50.2673384  99.9769345
 106.5750967  50.5274200 101.0868764 106.3912516  47.2024299 101.5248209
 106.3361320  47.0368571 100.5836653 105.7658572  47.9100332 101.6810399
  91.1805031  42.4392364 115.3509632  91.8263895  41.9291318 115.8396857
  90.9722183  43.1761045 115.9253057 103.7058424  49.5073211 120.8501772
 104.5749583  49.6813863 120.4888407 103.2265175  50.3267628 120.7277501
  99.7008642  36.7032408 101.1033528  99.6887312  37.6474248 101.2601799
 100.5932064  36.5202554 100.8092989  97.8744604  56.6270312 112.5291206
  98.7771851  56.6593922 112.8457701  97.6481974  55.6970763 112.5437542
  99.6298206  55.3801299 109.1901284  98.6793837  55.3803160 109.0765657
  99.9330692  54.6334033 108.6737319 103.5160761  33.2975185 105.3579464
 102.7493157  32.7433672 105.5036147 103.9271466  33.3697054 106.2193616
  95.5202522  39.5859981 119.4484646  96.3833984  39.2296786 119.6587970
  94.9467933  39.2473876 120.1360050 115.3650899  61.2161837 110.2547047
 116.0029309  61.0968584 109.5510387 115.2471742  62.1642681 110.3134999
 112.1740606  61.1689265 110.1908571 111.8359117  61.0530330 109.3029106
 113.0430374  60.7680430 110.1709578 108.0327421  63.0224742 106.1805462
 107.4692286  62.9314678 105.4121750 107.9179816  62.2024646 106.6607955
 112.6560389  62.3224117 116.1494777 112.6449029  61.9276915 115.2775281
 112.8181028  61.5890189 116.7428548 105.5791853  64.5175933 109.0189683
 106.3713145  64.1766758 108.6035982 105.8188503  64.6270908 109.9391836
 113.6126980  66.6895709 101.4919927 112.9614960  67.2749790 101.1053941
 114.4071343  67.2201904 101.5514965 107.5382607  63.7784846 101.8907062
 108.3113483  63.2313833 101.7519937 107.8908006  64.6429096 102.1021523
 109.3767650  65.1061229 115.0973961 109.0857516  66.0106860 114.9820627
 110.0124634  65.1477756 115.8118031 110.3023857  62.4838077 111.6875321
 110.8987429  62.2594100 110.9732284 110.3598828  61.7422823 112.2900768
 109.8748885  59.9377513  99.5225512 110.1274406  59.4159034  98.7608975
 108.9373444  59.7743658  99.6252195 114.9192168  58.9413291 107.3300255
 115.7055257  58.5232714 106.9790672 115.1830872  59.8459383 107.4981903
 115.0902245  64.3786141 102.0288912 114.4548078  64.4520768 102.7409816
 114.7599652  64.9679740 101.3507991 120.3200595  58.8788524 108.2333233
 121.0525767  58.3087741 108.4671063 119.5639951  58.4910125 108.6739739
 109.5945174  61.8405618 101.7249887 109.4781432  61.1650522 102.3930971
 109.7047434  61.3537992 100.9082040 111.9376715  61.3015766 105.4296576
 111.5734922  60.7746387 106.1409497 112.7943831  60.9114235 105.2563061
 117.8426015  52.5910098 112.6927842 117.5109340  53.4605509 112.4689057
 117.2471629  52.2746382 113.3721872 111.5782202  56.3305665 100.4257924
 111.7456604  57.1985902 100.7928395 111.3879371  56.4932947  99.5019214
 114.3357535  64.7922644 112.0923755 114.0358258  65.6947683 111.9839562
 113.9908594  64.5254827 112.9444908 107.7870016  61.2436441 108.1260459
 106.8620513  61.1112655 108.3338151 108.0354430  62.0230660 108.6230401
 117.7354679  57.3105184 109.7721192 116.8271556  57.2420593 109.4779953
 117.6842274  57.7877129 110.6003017 111.5571423  58.7863323 101.4104591
 111.4371048  59.2320374 102.2490071 110.8624011  59.1348640 100.8518129
 105.1478827  60.8869715 108.9604248 105.2771209  61.1404194 109.8743660
 104.4676279  61.4797423 108.6408903 109.3178315  71.5566965 105.0594722
 109.2402344  72.5074790 105.1383203 108.7139958  71.2112837 105.7169649
 111.8095544  58.7294830 117.7156089 111.0328879  59.2888750 117.7058954
 112.4486108  59.2151613 118.2370959 119.6016325  55.5121623 111.5499066
 118.9590705  55.8054156 110.9038860 119.0971254  55.3974543 112.3552263
 117.2556489  59.2584796 102.2384925 118.1674345  59.4912183 102.0632623
 116.7466136  59.8421840 101.6760004 110.0641917  61.5380283 117.2774056
 110.8056601  62.0765327 117.0008880 109.3578902  62.1646572 117.4345608
 115.5397256  63.6809424 115.8746218 115.9480612  63.2391834 115.1300850
 114.8174518  63.1062051 116.1280411 111.8928326  58.6182031 113.2479775
 112.7389522  59.0421444 113.3914424 111.8326964  57.9615655 113.9418338
 115.8626071  64.2410614 109.6298507 115.2334933  64.4056329 108.9274574
 115.4751733  64.6552224 110.4009471 119.7415303  65.1765052 106.9842870
 119.0566341  65.5563954 106.4339904 119.8259152  65.7860379 107.7174818
 115.0427772  56.2786399 114.9060948 114.7988704  57.0328459 114.3695224
 115.3187702  56.6571747 115.7408195 116.9966235  62.8225011 113.5838214
 117.2083130  63.4656771 112.9072595 116.9495983  61.9887328 113.1160144
 114.5992464  55.4342832 110.4874786 113.7376943  55.7324086 110.7791524
 114.6254898  55.6513231 109.5555819 111.4154033  63.9785023 106.8948592
 111.8792378  64.2572725 106.1053214 111.1510831  63.0768467 106.7121682
 108.3078114  63.5256504 109.8328355 108.8779471  63.9543772 109.1945839
 108.8986226  63.2439089 110.5312541 110.3522919  60.1008175 103.7038157
 111.0546962  60.5529219 104.1712083 110.0203547  59.4591994 104.3318050
 108.8003281  58.6919931 118.0789366 108.1701941  59.3736212 118.3124763
 108.6939368  58.5803013 117.1342504 104.0948253  58.3591728 109.0055290
 103.3047307  58.6149256 108.5295401 104.5859500  59.1740065 109.1107331
 118.1112062  65.6996967 111.7560571 118.9329506  65.2977154 111.4743253
 118.1074465  65.5965201 112.7076687 106.0462998  58.7236307 105.9638767
 105.2494162  58.8355001 106.4822263 105.8188591  59.0622959 105.0979658
 111.8768666  65.2481010 113.9121282 111.9413098  65.7101417 114.7479454
 111.1679590  64.6178375 114.0403592 102.3785956  58.6122218 111.4370281
 102.6293994  59.4969228 111.7027857 102.9145504  58.4326820 110.6645373
 126.2018056  62.0435715 108.1045543 125.4481764  61.4743113 107.9489547
 126.3365597  62.0098380 109.0516177 111.5916684  66.9149117 103.7800262
 111.4562358  67.7600653 104.2085110 112.1326496  67.1168395 103.0166196
 108.0784023  52.9940697 120.4414617 107.6850969  52.4406896 121.1162262
 108.8950164  53.3051276 120.8321135 105.0446081  64.4324556 104.3528187
 105.5570602  65.2267806 104.5033752 105.6968794  63.7350846 104.2861789
 106.8540966  67.5490312 106.4350940 107.0307594  68.4708277 106.2471924
 107.6497799  67.2348731 106.8645320 110.9951984  54.4098576 118.0334874
 111.7361698  55.0105730 117.9539336 111.2269907  53.6676214 117.4752916
 106.1393322  59.5954944 116.3113104 106.0246837  58.6940201 116.6120202
 105.2837840  59.8418640 115.9597920 113.2185160  67.5372684 117.9100604
 112.7749014  66.7509063 117.5921509 113.8802374  67.7251835 117.2444495
 107.9772281  69.0668486 112.4361283 108.5279706  68.9385549 111.6638277
 107.1383757  69.3663375 112.0856175 115.3166398  67.8175484 115.9382005
 115.2984873  68.6384365 115.4462275 116.2386318  67.6929559 116.1632147
 111.7739452  65.3319613 116.7805514 112.3067789  64.5707902 116.5504822
 111.2453533  65.0393265 117.5229668 114.9409147  50.4379679 112.3099156
 114.5973417  51.3281321 112.2338266 115.3088110  50.2481337 111.4468741
 103.0094998  62.7613210 105.1287758 103.8470220  63.1710218 104.9121465
 103.1873265  61.8212652 105.0987952 114.9059430  60.4288290 100.8171591
 114.3906053  61.1992895 101.0559978 114.6336738  59.7553427 101.4404652
 112.4906541  55.2737991 105.8756829 111.6348137  54.8844842 105.6962468
 112.9033493  55.3529952 105.0156615 114.0205688  52.8084335 110.2748389
 113.5170483  52.7714470 109.4616194 114.3136294  53.7177077 110.3345045
 110.2648573  52.8923064 109.2814571 111.1301570  52.6965873 108.9220460
 110.3326082  52.6633416 110.2083927 119.8793704  63.1820645 102.7524764
 119.1023147  62.8431805 102.3079926 120.5585185  63.1873268 102.0779729
 114.6945733  58.3015383 102.6431372 114.3895869  58.6161532 103.4941515
 115.6476175  58.3796802 102.6858705 113.1392165  64.4605606 104.2924326
 112.6113526  63.7258365 103.9797563 112.6379668  65.2380282 104.0464294
 118.1185011  62.6554626 109.4091372 117.4608685  63.3453888 109.4971501
 118.9225410  63.0451058 109.7525358 107.8710893  55.1225272 106.6530937
 108.4454644  54.9000454 105.9204130 108.4581875  55.1913967 107.4059539
 116.9290470  61.0098999 107.4595314 117.4422351  61.6428991 107.9617024
 117.5791694  60.4100195 107.0938674 108.1980480  57.1529733 100.6726823
 107.3617792  57.4904420 100.9936097 108.0585249  57.0178713  99.7353960
 110.1733560  51.9966521 105.3806007 109.5197973  51.6815538 104.7562622
 110.1314034  51.3742262 106.1065830 111.2844765  62.2785816  97.2959299
 110.3771827  62.0475070  97.4950448 111.7815797  61.4823435  97.4833280
 114.1912844  70.9883323 100.2155985 113.5174543  71.2915020 100.8240943
 114.5778666  71.7912404  99.8661442 113.4071301  58.4848455 109.7053654
 112.4893862  58.7063402 109.5475342 113.8231444  58.5594765 108.8465362
 114.1906348  59.8839870 104.8356335 114.9378167  60.3961268 104.5263457
 114.4597938  59.5623923 105.6960728 112.4632999  62.3798411 101.8183289
 111.5544218  62.0957444 101.9155759 112.4928082  62.7997490 100.9586596
 117.6952266  65.9905001 105.5874456 117.2414593  65.1495910 105.6439647
 117.0646233  66.6266399 105.9249237 116.6385185  56.9196987 106.8175124
 115.9007942  56.4074373 107.1485367 116.8911959  56.4797368 106.0058401
 116.1385205  67.8281497 106.5224275 116.4308180  68.3886554 105.8036640
 116.6483826  68.1210058 107.2777434 116.7396813  49.6973239 107.4116893
 117.0455690  48.8370602 107.1242808 117.4649418  50.2890859 107.2115887
 103.0321169  60.1003925 105.7998491 102.8345569  59.5073286 105.0749558
 102.4767833  59.7956135 106.5174430 111.0117893  59.9927032 107.9193084
 111.0666502  59.0400868 107.8435561 110.2009095  60.1486471 108.4034383
 112.1609086  63.9207155  99.1571368 111.7228516  63.2043014  98.6977005
 112.9019527  64.1483270  98.5956459 108.9510252  58.6104091 105.6783463
 108.1378118  58.9098262 106.0848655 109.4469247  58.2159780 106.3957945
 111.1018830  68.6061848 107.6117728 111.0595009  68.8322695 106.6826260
 112.0181529  68.3725223 107.7603529 114.5484464  59.0745916 114.5098357
 114.9033852  59.3017389 115.3692823 115.1956595  59.4064293 113.8875612
 120.2782201  62.1964352 105.2147686 120.1400100  62.3865948 104.2868875
 119.9218420  62.9583735 105.6715737 108.4424327  56.1822447 111.2944698
 109.0823707  56.0411206 110.5967661 107.6101858  55.8956960 110.9183300
 120.3051581  64.2640879 110.2258958 120.7388087  64.1716168 111.0742012
 121.0183161  64.2398379 109.5878974 109.2184631  65.4824877 107.4079691
 110.0125230  64.9875197 107.2062266 108.5076324  64.9542740 107.0447396
 114.0379476  67.8642973 111.7592058 114.0916498  68.4333909 112.5269774
 113.1694257  68.0344858 111.3946095 105.5267395  59.6267959 103.4839443
 104.5964983  59.5652415 103.7009405 105.6224867  59.1043912 102.6876084
 105.4452944  56.1522772 106.0717685 105.7059761  57.0668105 105.9626845
 106.2670116  55.6847214 106.2214298 106.9177869  57.5660529 113.2416509
 107.5900922  57.3577891 112.5929158 106.0907656  57.3682615 112.8021742
 121.1667130  64.3064579 112.7591843 121.3603020  65.2110390 113.0051118
 121.0667748  63.8471998 113.5930428 112.8203441  54.1922470 115.2582170
 112.1731356  54.8912420 115.1646647 113.5904456  54.6258614 115.6258419
 116.2282239  64.4571322 118.3332724 116.0767745  64.2281874 117.4162807
 116.2186918  65.4141924 118.3464069 112.9967575  62.0303235 113.3178990
 113.9259635  62.1814394 113.1447957 112.5758605  62.1187256 112.4627637
 111.7955907  66.0553899 111.0877528 111.6566993  65.6872684 111.9603466
 111.0070503  66.5701539 110.9161485 112.3904059  71.1562996 102.4303064
 112.5655815  70.6851039 103.2448687 111.7036847  71.7828762 102.6584325
 113.3461122  65.4335502 108.4766365 113.0110955  65.3936272 109.3724015
 112.8465068  64.7680218 108.0036776 107.3205366  60.8403132 114.0018947
 107.1825164  60.1083371 114.6030486 108.2310290  60.7512032 113.7203134
 116.2820314  62.7791536  98.7503425 115.6649485  62.0538365  98.6536478
 115.8136802  63.5400897  98.4070499 109.9487667  60.5523091 113.4902626
 110.6587285  59.9116284 113.4489245 109.9056975  60.8035986 114.4128807
 117.9374446  67.4890445 116.4109205 117.8786992  66.8049665 115.7439788
 118.3393964  68.2309435 115.9589831 108.6616601  57.5388309 115.3098266
 108.1253958  57.0879048 115.9619862 108.0733309  57.6734218 114.5668730
 106.9565144  74.3052359 109.2042924 107.1961743  74.9370883 109.8821943
 106.1134341  73.9540399 109.4908284 108.0718860  56.9976961  97.8724729
 107.1948326  56.8765761  97.5086976 108.5476613  56.2063039  97.6203618
 117.9391853  65.4530029 114.6423185 117.0518632  65.1155950 114.7649584
 118.5090404  64.7213060 114.8791951  99.5921000  61.7854120 107.9666237
 100.2792040  61.4715850 107.3787252  99.4369129  62.6895485 107.6933488
 104.3955722  56.6744317 112.3951260 104.3113911  56.0669986 111.6601670
 103.5738429  57.1653335 112.3960757 111.4693006  70.1131481 111.6084428
 111.3963178  70.9186452 112.1203733 111.0270399  70.3123447 110.7832450
 111.2582786  69.3503251 105.1187250 110.4750308  69.8924931 105.2125474
 111.9575531  69.8677231 105.5181491 114.5679436  55.1597880 107.7621455
 115.0648136  54.4067843 107.4422525 113.7966417  55.1962197 107.1964665
 122.4209193  60.8638246 109.4039747 122.4099070  61.7462961 109.0333680
 121.5526573  60.5109797 109.2094284 113.9291690  70.0118315 113.7642587
 114.6419662  70.6465780 113.6918488 113.4381718  70.1082181 112.9482589
 115.6509217  63.9169568 105.3359879 114.7165495  64.0371030 105.1664583
 115.8285885  63.0142034 105.0719888 111.1514405  57.3015263 107.4893140
 110.7812192  56.7486304 108.1774045 111.6473497  56.6973397 106.9368140
 119.0381768  59.7586887 105.8709913 119.5042220  60.5914879 105.7970215
 119.4889269  59.2931869 106.5755171 108.9803603  67.7612758 114.5848158
 109.6813063  68.3949241 114.7377552 108.5098718  68.1027490 113.8243797
 117.1057999  66.1030708 102.8696065 117.3817843  65.9887303 103.7789939
 116.2362498  65.7048193 102.8308238 117.0098431  52.1267474 109.9100814
 116.0961511  52.3571701 110.0783021 117.4391532  52.2105918 110.7614846
 116.7804889  60.3157366 112.4100708 116.1276340  60.5633273 111.7553161
 117.1585269  59.5021504 112.0763185 113.7412063  70.3517059 106.5128878
 113.9234458  69.5338715 106.9756631 114.5645049  70.5684751 106.0753768
 114.0754229  69.2785244 103.7743927 114.6041995  68.7677699 103.1614089
 114.3382448  68.9627774 104.6389460 112.8292462  61.0577177 118.8966745
 112.1533099  60.9571306 119.5669120 113.6520096  60.9016391 119.3602742
 104.5771321  67.2949114 111.5179260 105.1624758  66.5492801 111.6507165
 104.3796160  67.6053070 112.4015924 107.4309977  70.3300361 106.5341703
 106.7620352  70.8146489 106.0505743 107.2922846  70.5769581 107.4485081
  99.1688976  59.8654714 110.2383704  99.2073076  59.3318304 111.0320822
  98.6629269  59.3389919 109.6194681 111.5715245  72.3644104 113.1324361
 112.1233553  72.5275726 113.8973446 111.9121439  72.9548542 112.4604386
 106.5479738  54.7119254 113.7346246 106.6121065  55.5734085 113.3223644
 106.4846859  54.0993256 113.0018604 106.0232011  56.7842387 117.3819280
 106.6504050  56.4019464 117.9956805 105.1659930  56.5656589 117.7474973
 116.4226120  67.1905362 118.9873016 116.9666023  67.8035320 118.4927970
 115.8412964  67.7484940 119.5040029 102.7997554  58.5918816 103.3137635
 103.0950995  57.6829494 103.2604689 101.8985589  58.5706555 102.9918637
 114.7083632  70.3126080 110.1188043 114.5834772  69.5115820 109.6098989
 115.3662724  70.8072273 109.6302013 106.3291801  56.6674812 109.2965184
 105.6078386  57.2810780 109.1572657 107.1185056  57.2032577 109.2181830
 116.7718541  68.1135100 111.7467593 115.8248876  67.9940451 111.6745920
 117.1201314  67.2257598 111.8293855 109.1318114  54.0029239 115.5705835
 109.6552516  54.2491536 116.3332145 108.9130447  54.8349274 115.1508973
 104.5285395  56.2732914 103.4376960 104.1998101  55.3930292 103.2552066
 104.8824766  56.2180582 104.3253349 113.7764974  67.9087816 107.9471946
 113.6289937  66.9804524 108.1279516 114.6018468  67.9307907 107.4629021
 107.6427218  56.5605883 103.8052438 107.9823291  57.0891805 103.0831046
 108.0899339  56.8986289 104.5811004 117.3799096  68.7316375 109.0336818
 118.3045643  68.5259236 108.8961270 117.2114399  68.4832776 109.9426160
 110.3370659  54.9442934 113.2555506 109.9967480  54.1450747 113.6576186
 109.6309666  55.2444645 112.6832339 110.9887131  52.0292246 111.7082829
 111.8113200  51.5552725 111.5861719 111.2325195  52.8082730 112.2081515
 109.6295366  55.0580505 102.0045731 110.3503728  55.4361758 101.5009447
 109.0060670  55.7769382 102.1080709 113.7726488  55.7625654 102.9404063
 113.9890103  56.6450292 102.6392891 113.2920556  55.3711867 102.2109705
 108.5125710  58.7211367 109.5174808 108.3670291  59.0351670 110.4099089
 108.0350913  59.3396267 108.9645706 110.3722093  55.7113915 109.5655697
 110.3583661  54.8155008 109.2287995 111.0894521  55.7184579 110.1993983
 112.2248223  56.1451255 111.6108825 111.9666001  57.0668326 111.6093155
 111.6933264  55.7481690 112.3009289 117.1694412  69.2502042 104.3898910
 117.3431290  68.6848465 103.6372762 117.6623303  70.0502937 104.2078400
 102.9871372  61.2616712 112.4562469 102.4424840  62.0376519 112.5882743
 103.8650722  61.6087516 112.2981590 109.7758989  54.5928295 104.8343267
 109.8974900  53.6644942 105.0334155 109.4861031  54.6066981 103.9221583
 112.6450179  52.2783206 107.9709987 112.6671876  52.3422539 107.0161967
 113.0618238  51.4387714 108.1650493 123.0233803  62.0138465 106.0089210
 123.4664949  61.2645791 105.6108333 122.1460314  62.0048602 105.6262942
 118.1569585  68.5668807 101.4895808 118.8520489  69.1875500 101.7083123
 118.4992735  67.7164158 101.7648186 103.7737394  60.3886608 115.3492626
 103.0319130  60.5369243 115.9357256 103.4530138  60.6494873 114.4859375
 120.0561008  66.0168512 103.0183139 120.5812332  66.3555785 102.2932459
 119.9683360  65.0815528 102.8346274 111.7181056  69.9302586 115.1473016
 112.0268183  69.6851733 116.0195715 112.5156539  70.1349224 114.6591886
 111.7401669  72.0840496 107.3778392 111.3006659  71.5916874 108.0711249
 112.4909786  71.5413463 107.1370467 104.2194008  68.2752037 107.3803020
 105.0452027  67.9755808 107.0001664 103.8688060  67.5059659 107.8292809
 109.1875541  67.6278505 109.4500694 108.5655550  66.9649210 109.1502922
 109.8580408  67.6539637 108.7674342 102.4202613  66.1938363 108.3391954
 101.5834521  65.7660537 108.1575955 102.3926258  66.3870806 109.2762745
 109.2600068  56.1060293 119.0433200 109.3088224  56.9822416 118.6610969
 109.8022582  55.5637686 118.4704843 119.7454914  66.6501416 118.3234337
 118.9550458  66.6325555 117.7838836 119.5088268  67.1889710 119.0783374
 119.8652789  63.4993882 115.6367065 119.9150794  63.3343890 116.5782588
 119.7566712  62.6321141 115.2464946 108.7489048  66.1782428 102.9259154
 108.8977168  66.8617892 102.2725827 109.5555491  66.1587518 103.4408610
 117.1556551  59.4824810 116.9526372 118.0566414  59.3431275 116.6610370
 117.2304526  59.6479265 117.8924550 111.4899357  56.8591665 115.7979558
 110.6202666  57.1525231 115.5262147 111.7258837  57.4432110 116.5186822
 121.3670986  65.9190824 115.8809087 121.0755794  66.2820804 116.7172548
 120.7543117  65.2057832 115.7022419 122.5666668  63.4843704 108.4011657
 123.4013559  63.9233508 108.5649218 122.7025797  63.0082357 107.5819903
 119.6158174  61.0423439 114.3489145 120.0912296  61.2351085 113.5407996
 118.6923739  61.0982624 114.1032529 106.5041681  62.2047606 103.9320223
 106.2587723  61.3009936 104.1300433 106.6737595  62.2064756 102.9899701
 114.1938390  53.0771282 113.3144979 114.7120334  53.8132309 112.9891467
 113.8393523  53.3835275 114.1491738 105.7737328  57.9375963 101.4306385
 105.0806573  58.0120318 100.7746421 105.5289080  57.1736307 101.9527902
 114.4450985  49.4971565 108.8345875 114.7252738  48.8294754 109.4606302
 115.2301592  49.6900660 108.3220539 112.2484453  68.6730559 100.3970902
 111.6758420  69.2920746  99.9441374 112.8217247  69.2229920 100.9310824
 118.3159843  57.9189199 112.5817451 119.2677266  58.0187296 112.6029675
 118.1463293  57.1267467 113.0915535 116.3374222  55.0044782 112.7676852
 115.7424155  55.2849795 112.0723340 116.0523919  55.4938683 113.5393593
 115.4681713  68.9567709 101.5279484 116.4012386  68.8913270 101.7312360
 115.3804926  69.7923976 101.0694017 118.0969730  68.2733579  98.4883432
 118.0183361  67.9393443  99.3819190 118.9179396  68.7655347  98.4874904
 120.7947921  61.1395318 111.6959750 120.7624241  60.2011319 111.8819434
 121.4048544  61.2179355 110.9625575 112.6331252  60.0091371  97.7386954
 113.5790356  59.8797579  97.8075372 112.2545497  59.2706033  98.2156382
 120.9442409  57.9306362 111.7418033 120.4281458  57.1464818 111.5547962
 121.8282358  57.6025078 111.9064553 118.6053136  51.6747377 107.7013846
 118.4077957  51.3662465 108.5857178 119.2152842  52.4009016 107.8311776
 126.6124471  62.2011325 110.8365787 127.3427859  61.9396613 111.3973490
 126.0031416  61.4640047 110.8767855 124.6939768  60.3419188 111.4340238
 123.9672931  60.2075153 110.8256730 124.2787055  60.6496016 112.2396956
 112.5169944  64.0609117 119.1987611 113.4372954  64.2387716 119.3927658
 112.4819527  63.1165163 119.0467311 110.8174169  57.9341348  97.6741840
 109.9105624  57.6374460  97.7504553 111.0950150  57.6371166  96.8076126
 101.7352109  59.2547711 108.1240886 101.4154894  58.4013019 107.8315260
 101.1885537  59.4696289 108.8798853 105.5132017  61.9710152 111.8410392
 105.7318026  62.9027260 111.8598426 105.9257791  61.6118126 112.6265196
 112.4336235  52.4778237 103.8286081 111.6236963  52.1325322 104.2041327
 113.1220651  52.1685781 104.4173692 114.3626783  51.5556284 105.4510377
 114.9157821  51.9751738 106.1100401 114.5996869  50.6292032 105.4933333
 110.3859882  57.5443358 121.2313141 110.2856609  58.4937715 121.1625232
 110.1681424  57.2161597 120.3589211 109.5872953  54.7928283  97.8153819
 110.4492117  55.1183181  98.0749636 109.7723298  54.0059779  97.3026884
 101.6040369  62.8750623 110.0934007 100.9103841  62.4604575 109.5803962
 102.3513360  62.9171159 109.4967426 117.7405590  53.6656809 104.9589042
 117.1604259  54.3241613 104.5767094 117.4741523  52.8434154 104.5476459
 116.1909156  53.0661867 107.1610362 116.6908935  53.1778402 106.3524681
 116.8344764  52.7622920 107.8011170 110.2491152  60.9740497 120.0478203
 109.7658234  61.7740857 120.2542092 110.3352091  60.9848442 119.0945647
 103.5177112  62.8068876 107.9700022 103.4947800  62.9056564 107.0181905
 103.8277748  63.6534027 108.2917188 106.1764490  64.8645031 112.0846637
 107.1307743  64.8328974 112.0176568 105.9777013  64.4035655 112.8996863
 106.7663872  63.4346147 114.6517434 107.5856761  63.9290226 114.6752272
 107.0400679  62.5178116 114.6235002 116.5230468  55.8256900 104.0145390
 115.6356323  56.1106550 103.7965585 116.9384457  55.6650663 103.1672667
 119.8745004  55.8503421 107.7299729 120.6505394  56.3399873 108.0024346
 119.1493138  56.2761475 108.1871599 122.3117563  56.5631040 108.7873670
 122.9062053  56.3226776 108.0766978 122.3844146  55.8438171 109.4147206
 104.5314718  70.4064651 109.1016835 104.3969186  69.6465052 108.5354833
 104.1146781  71.1305551 108.6345624 115.6673681  65.5901574  98.1093410
 116.3709531  65.7951577  98.7251066 114.9436330  66.1578336  98.3742493
 116.4971492  61.3411436 104.2295680 116.4406693  61.7979987 103.3903313
 117.0499834  60.5802120 104.0518523 120.3076298  57.1301168 105.0545800
 120.0513232  56.7297803 105.8854007 119.6829166  57.8444961 104.9295939
 124.6188635  59.8697241 107.5617091 124.0588193  59.9390430 108.3348653
 124.0132139  59.6938225 106.8416587 107.6883844  71.3033968 109.3135277
 107.5716228  72.2479400 109.2113968 106.8676291  71.0007529 109.7021077
 117.5760379  66.0284104 100.1591870 118.4105983  65.5965302  99.9769345
 117.4144722  65.8566117 101.0868764 117.2306271  62.5316217 101.5248209
 117.1755075  62.3660488 100.5836653 116.6052326  63.2392250 101.6810399
 102.0198786  57.7684281 115.3509632 102.6657650  57.2583235 115.8396857
 101.8115937  58.5052963 115.9253057 114.5452178  64.8365129 120.8501772
 115.4143338  65.0105781 120.4888407 114.0658930  65.6559546 120.7277501
 110.5402396  52.0324326 101.1033528 110.5281066  52.9766166 101.2601799
 111.4325818  51.8494471 100.8092989 108.7138358  71.9562230 112.5291206
 109.6165605  71.9885840 112.8457701 108.4875728  71.0262681 112.5437542
 110.4691960  70.7093216 109.1901284 109.5187591  70.7095078 109.0765657
 110.7724447  69.9625951 108.6737319 114.3554516  48.6267103 105.3579464
 113.5886912  48.0725589 105.5036147 114.7665221  48.6988971 106.2193616
 106.3596277  54.9151898 119.4484646 107.2227739  54.5588703 119.6587970
 105.7861688  54.5765793 120.1360050 126.2044654  76.5453755 110.2547047
 126.8423064  76.4260502 109.5510387 126.0865497  77.4934599 110.3134999
 123.0134360  76.4981183 110.1908571 122.6752872  76.3822248 109.3029106
 123.8824128  76.0972348 110.1709578 118.8721176  78.3516659 106.1805462
 118.3086041  78.2606596 105.4121750 118.7573571  77.5316564 106.6607955
 123.4954143  77.6516035 116.1494777 123.4842784  77.2568833 115.2775281
 123.6574783  76.9182107 116.7428548 116.4185608  79.8467851 109.0189683
 117.2106900  79.5058675 108.6035982 116.6582258  79.9562826 109.9391836
 124.4520735  82.0187627 101.4919927 123.8008714  82.6041707 101.1053941
 125.2465097  82.5493822 101.5514965 118.3776362  79.1076764 101.8907062
 119.1507238  78.5605751 101.7519937 118.7301761  79.9721013 102.1021523
 120.2161404  80.4353146 115.0973961 119.9251270  81.3398777 114.9820627
 120.8518389  80.4769674 115.8118031 121.1417611  77.8129995 111.6875321
 121.7381183  77.5886017 110.9732284 121.1992583  77.0714740 112.2900768
 120.7142640  75.2669430  99.5225512 120.9668160  74.7450951  98.7608975
 119.7767199  75.1035576  99.6252195 125.7585922  74.2705209 107.3300255
 126.5449012  73.8524632 106.9790672 126.0224627  75.1751301 107.4981903
 125.9296000  79.7078059 102.0288912 125.2941833  79.7812685 102.7409816
 125.5993406  80.2971658 101.3507991 131.1594349  74.2080442 108.2333233
 131.8919521  73.6379659 108.4671063 130.4033705  73.8202042 108.6739739
 120.4338928  77.1697536 101.7249887 120.3175186  76.4942440 102.3930971
 120.5441188  76.6829910 100.9082040 122.7770469  76.6307683 105.4296576
 122.4128676  76.1038304 106.1409497 123.6337585  76.2406152 105.2563061
 128.6819770  67.9202016 112.6927842 128.3503095  68.7897427 112.4689057
 128.0865383  67.6038300 113.3721872 122.4175956  71.6597583 100.4257924
 122.5850359  72.5277819 100.7928395 122.2273125  71.8224865  99.5019214
 125.1751289  80.1214562 112.0923755 124.8752012  81.0239601 111.9839562
 124.8302349  79.8546745 112.9444908 118.6263771  76.5728359 108.1260459
 117.7014267  76.4404573 108.3338151 118.8748184  77.3522578 108.6230401
 128.5748433  72.6397102 109.7721192 127.6665310  72.5712510 109.4779953
 128.5236029  73.1169047 110.6003017 122.3965177  74.1155240 101.4104591
 122.2764802  74.5612291 102.2490071 121.7017765  74.4640558 100.8518129
 115.9872582  76.2161632 108.9604248 116.1164963  76.4696111 109.8743660
 115.3070033  76.8089340 108.6408903 120.1572069  86.8858882 105.0594722
 120.0796099  87.8366707 105.1383203 119.5533713  86.5404755 105.7169649
 122.6489299  74.0586748 117.7156089 121.8722633  74.6180668 117.7058954
 123.2879862  74.5443531 118.2370959 130.4410080  70.8413540 111.5499066
 129.7984460  71.1346074 110.9038860 129.9365008  70.7266461 112.3552263
 128.0950243  74.5876714 102.2384925 129.0068099  74.8204100 102.0632623
 127.5859890  75.1713758 101.6760004 120.9035671  76.8672201 117.2774056
 121.6450356  77.4057245 117.0008880 120.1972657  77.4938490 117.4345608
 126.3791011  79.0101341 115.8746218 126.7874367  78.5683752 115.1300850
 125.6568272  78.4353969 116.1280411 122.7322081  73.9473948 113.2479775
 123.5783276  74.3713362 113.3914424 122.6720719  73.2907573 113.9418338
 126.7019826  79.5702532 109.6298507 126.0728688  79.7348246 108.9274574
 126.3145488  79.9844142 110.4009471 130.5809057  80.5056970 106.9842870
 129.8960096  80.8855871 106.4339904 130.6652907  81.1152297 107.7174818
 125.8821526  71.6078317 114.9060948 125.6382458  72.3620377 114.3695224
 126.1581457  71.9863664 115.7408195 127.8359989  78.1516929 113.5838214
 128.0476884  78.7948689 112.9072595 127.7889737  77.3179246 113.1160144
 125.4386218  70.7634750 110.4874786 124.5770697  71.0616003 110.7791524
 125.4648653  70.9805149 109.5555819 122.2547787  79.3076940 106.8948592
 122.7186133  79.5864643 106.1053214 121.9904586  78.4060385 106.7121682
 119.1471868  78.8548422 109.8328355 119.7173226  79.2835690 109.1945839
 119.7379980  78.5731006 110.5312541 121.1916673  75.4300093 103.7038157
 121.8940717  75.8821136 104.1712083 120.8597302  74.7883911 104.3318050
 119.6397035  74.0211849 118.0789366 119.0095696  74.7028130 118.3124763
 119.5333123  73.9094931 117.1342504 114.9342007  73.6883645 109.0055290
 114.1441061  73.9441174 108.5295401 115.4253255  74.5031983 109.1107331
 128.9505817  81.0288884 111.7560571 129.7723261  80.6269072 111.4743253
 128.9468220  80.9257119 112.7076687 116.8856753  74.0528224 105.9638767
 116.0887916  74.1646919 106.4822263 116.6582345  74.3914877 105.0979658
 122.7162420  80.5772928 113.9121282 122.7806853  81.0393335 114.7479454
 122.0073344  79.9470293 114.0403592 113.2179710  73.9414136 111.4370281
 113.4687749  74.8261146 111.7027857 113.7539259  73.7618737 110.6645373
 137.0411810  77.3727633 108.1045543 136.2875518  76.8035031 107.9489547
 137.1759351  77.3390297 109.0516177 122.4310438  82.2441035 103.7800262
 122.2956113  83.0892571 104.2085110 122.9720251  82.4460313 103.0166196
 118.9177778  68.3232615 120.4414617 118.5244723  67.7698814 121.1162262
 119.7343918  68.6343193 120.8321135 115.8839835  79.7616473 104.3528187
 116.3964356  80.5559723 104.5033752 116.5362548  79.0642764 104.2861789
 117.6934720  82.8782229 106.4350940 117.8701349  83.8000194 106.2471924
 118.4891554  82.5640649 106.8645320 121.8345739  69.7390494 118.0334874
 122.5755452  70.3397647 117.9539336 122.0663662  68.9968132 117.4752916
 116.9787077  74.9246861 116.3113104 116.8640592  74.0232119 116.6120202
 116.1231594  75.1710558 115.9597920 124.0578914  82.8664602 117.9100604
 123.6142769  82.0800980 117.5921509 124.7196128  83.0543752 117.2444495
 118.8166036  84.3960403 112.4361283 119.3673461  84.2677467 111.6638277
 117.9777512  84.6955292 112.0856175 126.1560153  83.1467402 115.9382005
 126.1378628  83.9676283 115.4462275 127.0780073  83.0221477 116.1632147
 122.6133207  80.6611531 116.7805514 123.1461543  79.8999819 116.5504822
 122.0847288  80.3685183 117.5229668 125.7802902  65.7671597 112.3099156
 125.4367171  66.6573239 112.2338266 126.1481864  65.5773255 111.4468741
 113.8488752  78.0905128 105.1287758 114.6863974  78.5002136 104.9121465
 114.0267020  77.1504570 105.0987952 125.7453184  75.7580208 100.8171591
 125.2299808  76.5284813 101.0559978 125.4730493  75.0845344 101.4404652
 123.3300295  70.6029909 105.8756829 122.4741892  70.2136759 105.6962468
 123.7427247  70.6821870 105.0156615 124.8599442  68.1376252 110.2748389
 124.3564238  68.1006387 109.4616194 125.1530049  69.0468995 110.3345045
 121.1042328  68.2214982 109.2814571 121.9695325  68.0257791 108.9220460
 121.1719837  67.9925334 110.2083927 130.7187459  78.5112563 102.7524764
 129.9416901  78.1723722 102.3079926 131.3978939  78.5165186 102.0779729
 125.5339488  73.6307300 102.6431372 125.2289623  73.9453449 103.4941515
 126.4869930  73.7088720 102.6858705 123.9785919  79.7897524 104.2924326
 123.4507281  79.0550283 103.9797563 123.4773422  80.5672200 104.0464294
 128.9578765  77.9846544 109.4091372 128.3002440  78.6745805 109.4971501
 129.7619165  78.3742976 109.7525358 118.7104647  70.4517190 106.6530937
 119.2848399  70.2292371 105.9204130 119.2975629  70.5205884 107.4059539
 127.7684224  76.3390917 107.4595314 128.2816106  76.9720909 107.9617024
 128.4185448  75.7392112 107.0938674 119.0374234  72.4821651 100.6726823
 118.2011546  72.8196337 100.9936097 118.8979004  72.3470631  99.7353960
 121.0127315  67.3258439 105.3806007 120.3591727  67.0107456 104.7562622
 120.9707789  66.7034179 106.1065830 122.1238520  77.6077734  97.2959299
 121.2165581  77.3766987  97.4950448 122.6209552  76.8115353  97.4833280
 125.0306598  86.3175241 100.2155985 124.3568297  86.6206938 100.8240943
 125.4172420  87.1204321  99.8661442 124.2465055  73.8140372 109.7053654
 123.3287616  74.0355319 109.5475342 124.6625199  73.8886683 108.8465362
 125.0300103  75.2131788 104.8356335 125.7771922  75.7253185 104.5263457
 125.2991692  74.8915841 105.6960728 123.3026753  77.7090329 101.8183289
 122.3937972  77.4249362 101.9155759 123.3321837  78.1289407 100.9586596
 128.5346020  81.3196918 105.5874456 128.0808348  80.4787828 105.6439647
 127.9039987  81.9558317 105.9249237 127.4778940  72.2488904 106.8175124
 126.7401697  71.7366290 107.1485367 127.7305714  71.8089286 106.0058401
 126.9778960  83.1573415 106.5224275 127.2701934  83.7178472 105.8036640
 127.4877580  83.4501976 107.2777434 127.5790567  65.0265156 107.4116893
 127.8849444  64.1662520 107.1242808 128.3043172  65.6182776 107.2115887
 113.8714923  75.4295843 105.7998491 113.6739323  74.8365204 105.0749558
 113.3161587  75.1248053 106.5174430 121.8511647  75.3218949 107.9193084
 121.9060257  74.3692786 107.8435561 121.0402849  75.4778388 108.4034383
 123.0002841  79.2499072  99.1571368 122.5622271  78.5334931  98.6977005
 123.7413282  79.4775187  98.5956459 119.7904007  73.9396009 105.6783463
 118.9771873  74.2390180 106.0848655 120.2863001  73.5451698 106.3957945
 121.9412585  83.9353766 107.6117728 121.8988764  84.1614612 106.6826260
 122.8575284  83.7017141 107.7603529 125.3878219  74.4037834 114.5098357
 125.7427606  74.6309307 115.3692823 126.0350350  74.7356210 113.8875612
 131.1175956  77.5256269 105.2147686 130.9793854  77.7157865 104.2868875
 130.7612174  78.2875652 105.6715737 119.2818082  71.5114365 111.2944698
 119.9217461  71.3703124 110.5967661 118.4495612  71.2248878 110.9183300
 131.1445335  79.5932796 110.2258958 131.5781842  79.5008086 111.0742012
 131.8576916  79.5690297 109.5878974 120.0578386  80.8116795 107.4079691
 120.8518984  80.3167115 107.2062266 119.3470078  80.2834658 107.0447396
 124.8773230  83.1934891 111.7592058 124.9310252  83.7625827 112.5269774
 124.0088011  83.3636776 111.3946095 116.3661149  74.9559877 103.4839443
 115.4358737  74.8944332 103.7009405 116.4618621  74.4335829 102.6876084
 116.2846698  71.4814690 106.0717685 116.5453515  72.3960023 105.9626845
 117.1063870  71.0139132 106.2214298 117.7571623  72.8952447 113.2416509
 118.4294677  72.6869809 112.5929158 116.9301410  72.6974533 112.8021742
 132.0060885  79.6356497 112.7591843 132.1996775  80.5402308 113.0051118
 131.9061503  79.1763916 113.5930428 123.6597195  69.5214388 115.2582170
 123.0125111  70.2204337 115.1646647 124.4298211  69.9550532 115.6258419
 127.0675993  79.7863240 118.3332724 126.9161500  79.5573792 117.4162807
 127.0580673  80.7433841 118.3464069 123.8361330  77.3595153 113.3178990
 124.7653390  77.5106312 113.1447957 123.4152360  77.4479173 112.4627637
 122.6349662  81.3845817 111.0877528 122.4960747  81.0164601 111.9603466
 121.8464258  81.8993456 110.9161485 123.2297814  86.4854913 102.4303064
 123.4049569  86.0142957 103.2448687 122.5430602  87.1120680 102.6584325
 124.1854877  80.7627420 108.4766365 123.8504709  80.7228190 109.3724015
 123.6858822  80.0972136 108.0036776 118.1599121  76.1695050 114.0018947
 118.0218919  75.4375289 114.6030486 119.0704044  76.0803950 113.7203134
 127.1214068  78.1083454  98.7503425 126.5043239  77.3830282  98.6536478
 126.6530557  78.8692814  98.4070499 120.7881421  75.8815009 113.4902626
 121.4981040  75.2408201 113.4489245 120.7450730  76.1327904 114.4128807
 128.7768200  82.8182362 116.4109205 128.7180746  82.1341583 115.7439788
 129.1787718  83.5601352 115.9589831 119.5010355  72.8680227 115.3098266
 118.9647712  72.4170965 115.9619862 118.9127064  73.0026136 114.5668730
 117.7958899  89.6344276 109.2042924 118.0355497  90.2662800 109.8821943
 116.9528095  89.2832316 109.4908284 118.9112614  72.3268878  97.8724729
 118.0342081  72.2057679  97.5086976 119.3870367  71.5354957  97.6203618
 128.7785607  80.7821946 114.6423185 127.8912386  80.4447868 114.7649584
 129.3484158  80.0504978 114.8791951 110.4314754  77.1146038 107.9666237
 111.1185794  76.8007768 107.3787252 110.2762883  78.0187403 107.6933488
 115.2349477  72.0036235 112.3951260 115.1507665  71.3961904 111.6601670
 114.4132183  72.4945253 112.3960757 122.3086761  85.4423399 111.6084428
 122.2356932  86.2478370 112.1203733 121.8664154  85.6415364 110.7832450
 122.0976540  84.6795169 105.1187250 121.3144062  85.2216849 105.2125474
 122.7969286  85.1969148 105.5181491 125.4073190  70.4889798 107.7621455
 125.9041890  69.7359760 107.4422525 124.6360172  70.5254115 107.1964665
 133.2602948  76.1930164 109.4039747 133.2492824  77.0754879 109.0333680
 132.3920327  75.8401715 109.2094284 124.7685444  85.3410233 113.7642587
 125.4813416  85.9757698 113.6918488 124.2775473  85.4374099 112.9482589
 126.4902971  79.2461485 105.3359879 125.5559250  79.3662948 105.1664583
 126.6679640  78.3433952 105.0719888 121.9908159  72.6307181 107.4893140
 121.6205947  72.0778222 108.1774045 122.4867252  72.0265315 106.9368140
 129.8775523  75.0878805 105.8709913 130.3435975  75.9206796 105.7970215
 130.3283023  74.6223786 106.5755171 119.8197358  83.0904676 114.5848158
 120.5206817  83.7241159 114.7377552 119.3492473  83.4319408 113.8243797
 127.9451754  81.4322626 102.8696065 128.2211598  81.3179221 103.7789939
 127.0756252  81.0340111 102.8308238 127.8492185  67.4559392 109.9100814
 126.9355265  67.6863618 110.0783021 128.2785287  67.5397836 110.7614846
 127.6198644  75.6449284 112.4100708 126.9670094  75.8925191 111.7553161
 127.9979024  74.8313422 112.0763185 124.5805818  85.6808977 106.5128878
 124.7628212  84.8630633 106.9756631 125.4038804  85.8976669 106.0753768
 124.9147983  84.6077162 103.7743927 125.4435750  84.0969616 103.1614089
 125.1776203  84.2919692 104.6389460 123.6686217  76.3869095 118.8966745
 122.9926854  76.2863224 119.5669120 124.4913851  76.2308308 119.3602742
 115.4165076  82.6241031 111.5179260 116.0018513  81.8784719 111.6507165
 115.2189914  82.9344988 112.4015924 118.2703731  85.6592279 106.5341703
 117.6014106  86.1438406 106.0505743 118.1316601  85.9061499 107.4485081
 110.0082731  75.1946631 110.2383704 110.0466830  74.6610222 111.0320822
 109.5023023  74.6681837 109.6194681 122.4109000  87.6936022 113.1324361
 122.9627308  87.8567644 113.8973446 122.7515193  88.2840460 112.4604386
 117.3873493  70.0411172 113.7346246 117.4514819  70.9026003 113.3223644
 117.3240613  69.4285174 113.0018604 116.8625765  72.1134304 117.3819280
 117.4897804  71.7311382 117.9956805 116.0053684  71.8948506 117.7474973
 127.2619874  82.5197280 118.9873016 127.8059778  83.1327238 118.4927970
 126.6806719  83.0776858 119.5040029 113.6391308  73.9210734 103.3137635
 113.9344749  73.0121412 103.2604689 112.7379344  73.8998473 102.9918637
 125.5477387  85.6417998 110.1188043 125.4228526  84.8407737 109.6098989
 126.2056478  86.1364191 109.6302013 117.1685555  71.9966730 109.2965184
 116.4472141  72.6102698 109.1572657 117.9578811  72.5324495 109.2181830
 127.6112295  83.4427018 111.7467593 126.6642631  83.3232369 111.6745920
 127.9595068  82.5549516 111.8293855 119.9711869  69.3321157 115.5705835
 120.4946271  69.5783453 116.3332145 119.7524202  70.1641191 115.1508973
 115.3679150  71.6024831 103.4376960 115.0391856  70.7222210 103.2552066
 115.7218520  71.5472500 104.3253349 124.6158729  83.2379734 107.9471946
 124.4683691  82.3096441 108.1279516 125.4412222  83.2599825 107.4629021
 118.4820973  71.8897801 103.8052438 118.8217045  72.4183722 103.0831046
 118.9293093  72.2278207 104.5811004 128.2192850  84.0608293 109.0336818
 129.1439398  83.8551154 108.8961270 128.0508154  83.8124694 109.9426160
 121.1764414  70.2734852 113.2555506 120.8361234  69.4742665 113.6576186
 120.4703420  70.5736563 112.6832339 121.8280886  67.3584164 111.7082829
 122.6506955  66.8844642 111.5861719 122.0718949  68.1374648 112.2081515
 120.4689120  70.3872423 102.0045731 121.1897483  70.7653675 101.5009447
 119.8454424  71.1061299 102.1080709 124.6120243  71.0917572 102.9404063
 124.8283857  71.9742209 102.6392891 124.1314310  70.7003785 102.2109705
 119.3519464  74.0503285 109.5174808 119.2064045  74.3643588 110.4099089
 118.8744668  74.6688185 108.9645706 121.2115847  71.0405833 109.5655697
 121.1977416  70.1446926 109.2287995 121.9288275  71.0476497 110.1993983
 123.0641978  71.4743173 111.6108825 122.8059756  72.3960244 111.6093155
 122.5327018  71.0773608 112.3009289 128.0088167  84.5793960 104.3898910
 128.1825044  84.0140383 103.6372762 128.5017058  85.3794855 104.2078400
 113.8265126  76.5908629 112.4562469 113.2818595  77.3668437 112.5882743
 114.7044476  76.9379434 112.2981590 120.6152743  69.9220213 104.8343267
 120.7368654  68.9936859 105.0334155 120.3254786  69.9358899 103.9221583
 123.4843934  67.6075124 107.9709987 123.5065630  67.6714457 107.0161967
 123.9011993  66.7679632 108.1650493 133.8627558  77.3430383 106.0089210
 134.3058704  76.5937708 105.6108333 132.9854068  77.3340519 105.6262942
 128.9963339  83.8960725 101.4895808 129.6914244  84.5167417 101.7083123
 129.3386489  83.0456076 101.7648186 114.6131148  75.7178525 115.3492626
 113.8712884  75.8661161 115.9357256 114.2923893  75.9786791 114.4859375
 130.8954762  81.3460430 103.0183139 131.4206086  81.6847703 102.2932459
 130.8077115  80.4107445 102.8346274 122.5574811  85.2594504 115.1473016
 122.8661937  85.0143650 116.0195715 123.3550293  85.4641142 114.6591886
 122.5795423  87.4132413 107.3778392 122.1400413  86.9208792 108.0711249
 123.3303540  86.8705381 107.1370467 115.0587762  83.6043954 107.3803020
 115.8845782  83.3047726 107.0001664 114.7081814  82.8351577 107.8292809
 120.0269295  82.9570422 109.4500694 119.4049304  82.2941127 109.1502922
 120.6974162  82.9831554 108.7674342 113.2596367  81.5230281 108.3391954
 112.4228275  81.0952455 108.1575955 113.2320012  81.7162724 109.2762745
 120.0993823  71.4352210 119.0433200 120.1481978  72.3114333 118.6610969
 120.6416337  70.8929603 118.4704843 130.5848668  81.9793334 118.3234337
 129.7944212  81.9617473 117.7838836 130.3482023  82.5181627 119.0783374
 130.7046543  78.8285800 115.6367065 130.7544548  78.6635808 116.5782588
 130.5960467  77.9613059 115.2464946 119.5882802  81.5074346 102.9259154
 119.7370922  82.1909810 102.2725827 120.3949246  81.4879436 103.4408610
 127.9950306  74.8116728 116.9526372 128.8960169  74.6723193 116.6610370
 128.0698280  74.9771183 117.8924550 122.3293111  72.1883583 115.7979558
 121.4596421  72.4817149 115.5262147 122.5652591  72.7724028 116.5186822
 132.2064740  81.2482742 115.8809087 131.9149549  81.6112722 116.7172548
 131.5936872  80.5349750 115.7022419 133.4060423  78.8135621 108.4011657
 134.2407314  79.2525425 108.5649218 133.5419551  78.3374275 107.5819903
 130.4551928  76.3715356 114.3489145 130.9306050  76.5643003 113.5407996
 129.5317494  76.4274542 114.1032529 117.3435435  77.5339523 103.9320223
 117.0981477  76.6301853 104.1300433 117.5131350  77.5356674 102.9899701
 125.0332145  68.4063200 113.3144979 125.5514089  69.1424227 112.9891467
 124.6787278  68.7127193 114.1491738 116.6131083  73.2667881 101.4306385
 115.9200328  73.3412236 100.7746421 116.3682835  72.5028225 101.9527902
 125.2844739  64.8263482 108.8345875 125.5646493  64.1586671 109.4606302
 126.0695346  65.0192578 108.3220539 123.0878208  84.0022476 100.3970902
 122.5152175  84.6212663  99.9441374 123.6611001  84.5521838 100.9310824
 129.1553597  73.2481116 112.5817451 130.1071020  73.3479214 112.6029675
 128.9857048  72.4559385 113.0915535 127.1767977  70.3336700 112.7676852
 126.5817909  70.6141712 112.0723340 126.8917674  70.8230600 113.5393593
 126.3075467  84.2859626 101.5279484 127.2406141  84.2205188 101.7312360
 126.2198680  85.1215893 101.0694017 128.9363484  83.6025497  98.4883432
 128.8577116  83.2685360  99.3819190 129.7573151  84.0947265  98.4874904
 131.6341675  76.4687236 111.6959750 131.6017995  75.5303237 111.8819434
 132.2442299  76.5471273 110.9625575 123.4725006  75.3383289  97.7386954
 124.4184111  75.2089497  97.8075372 123.0939251  74.5997951  98.2156382
 131.7836164  73.2598279 111.7418033 131.2675212  72.4756736 111.5547962
 132.6676112  72.9316996 111.9064553 129.4446891  67.0039295 107.7013846
 129.2471712  66.6954383 108.5857178 130.0546596  67.7300934 107.8311776
 135.5333522  75.6711105 111.4340238 134.8066686  75.5367070 110.8256730
 135.1180809  75.9787934 112.2396956 123.3563699  79.3901035 119.1987611
 124.2766708  79.5679634 119.3927658 123.3213282  78.4457080 119.0467311
 121.6567923  73.2633265  97.6741840 120.7499379  72.9666378  97.7504553
 121.9343904  72.9663083  96.8076126 112.5745864  74.5839629 108.1240886
 112.2548648  73.7304937 107.8315260 112.0279292  74.7988207 108.8798853
 116.3525771  77.3002070 111.8410392 116.5711781  78.2319178 111.8598426
 116.7651545  76.9410044 112.6265196 123.2729989  67.8070155 103.8286081
 122.4630717  67.4617240 104.2041327 123.9614406  67.4977699 104.4173692
 125.2020537  66.8848202 105.4510377 125.7551576  67.3043655 106.1100401
 125.4390624  65.9583950 105.4933333 121.2253637  72.8735276 121.2313141
 121.1250363  73.8229632 121.1625232 121.0075179  72.5453514 120.3589211
 120.4266708  70.1220201  97.8153819 121.2885872  70.4475099  98.0749636
 120.6117052  69.3351696  97.3026884 112.4434124  78.2042540 110.0934007
 111.7497595  77.7896493 109.5803962 113.1907115  78.2463077 109.4967426
 128.5799344  68.9948727 104.9589042 127.9998013  69.6533531 104.5767094
 128.3135277  68.1726072 104.5476459 127.0302911  68.3953785 107.1610362
 127.5302689  68.5070319 106.3524681 127.6738519  68.0914838 107.8011170
 121.0884907  76.3032414 120.0478203 120.6051988  77.1032774 120.2542092
 121.1745846  76.3140359 119.0945647 114.3570866  78.1360794 107.9700022
 114.3341554  78.2348481 107.0181905 114.6671503  78.9825945 108.2917188
 117.0158244  80.1936949 112.0846637 117.9701498  80.1620891 112.0176568
 116.8170768  79.7327573 112.8996863 117.6057626  78.7638065 114.6517434
 118.4250515  79.2582144 114.6752272 117.8794434  77.8470033 114.6235002
 127.3624222  71.1548817 104.0145390 126.4750077  71.4398468 103.7965585
 127.7778211  70.9942581 103.1672667 130.7138759  71.1795338 107.7299729
 131.4899149  71.6691791 108.0024346 129.9886893  71.6053393 108.1871599
 133.1511317  71.8922958 108.7873670 133.7455808  71.6518694 108.0766978
 133.2237901  71.1730088 109.4147206 115.3708473  85.7356569 109.1016835
 115.2362941  84.9756969 108.5354833 114.9540535  86.4597468 108.6345624
 126.5067436  80.9193492  98.1093410 127.2103286  81.1243495  98.7251066
 125.7830085  81.4870254  98.3742493 127.3365246  76.6703353 104.2295680
 127.2800448  77.1271905 103.3903313 127.8893589  75.9094038 104.0518523
 131.1470052  72.4593085 105.0545800 130.8906986  72.0589721 105.8854007
 130.5222920  73.1736879 104.9295939 135.4582390  75.1989158 107.5617091
 134.8981948  75.2682348 108.3348653 134.8525893  75.0230143 106.8416587
 118.5277599  86.6325886 109.3135277 118.4109983  87.5771318 109.2113968
 117.7070045  86.3299447 109.7021077 128.4154133  81.3576021 100.1591870
 129.2499737  80.9257220  99.9769345 128.2538476  81.1858035 101.0868764
 128.0700025  77.8608135 101.5248209 128.0148829  77.6952406 100.5836653
 127.4446081  78.5684167 101.6810399 112.8592540  73.0976199 115.3509632
 113.5051404  72.5875153 115.8396857 112.6509692  73.8344881 115.9253057
 125.3845933  80.1657046 120.8501772 126.2537092  80.3397699 120.4888407
 124.9052684  80.9851463 120.7277501 121.3796151  67.3616244 101.1033528
 121.3674821  68.3058084 101.2601799 122.2719573  67.1786389 100.8092989
 119.5532113  87.2854147 112.5291206 120.4559360  87.3177758 112.8457701
 119.3269483  86.3554598 112.5437542 121.3085715  86.0385134 109.1901284
 120.3581346  86.0386996 109.0765657 121.6118201  85.2917869 108.6737319
 125.1948270  63.9559020 105.3579464 124.4280666  63.4017507 105.5036147
 125.6058975  64.0280889 106.2193616 117.1990031  70.2443816 119.4484646
 118.0621493  69.8880621 119.6587970 116.6255442  69.9057711 120.1360050
 133.8528115  91.8273100 110.1908571 133.5146626  91.7114165 109.3029106
 134.7217883  91.4264266 110.1709578 129.7114930  93.6808577 106.1805462
 129.1479795  93.5898514 105.4121750 129.5967325  92.8608481 106.6607955
 127.2579362  95.1759769 109.0189683 128.0500654  94.8350593 108.6035982
 127.4976012  95.2854744 109.9391836 135.2914489  97.3479545 101.4919927
 134.6402469  97.9333625 101.1053941 136.0858852  97.8785740 101.5514965
 129.2170116  94.4368682 101.8907062 129.9900992  93.8897669 101.7519937
 129.5695515  95.3012931 102.1021523 131.9811366  93.1421913 111.6875321
 132.5774938  92.9177935 110.9732284 132.0386337  92.4006658 112.2900768
 131.5536394  90.5961348  99.5225512 131.8061915  90.0742869  98.7608975
 130.6160953  90.4327493  99.6252195 136.5979677  89.5997126 107.3300255
 137.3842766  89.1816549 106.9790672 136.8618381  90.5043218 107.4981903
 136.7689754  95.0369977 102.0288912 136.1335587  95.1104603 102.7409816
 136.4387161  95.6263575 101.3507991 131.2732683  92.4989454 101.7249887
 131.1568941  91.8234357 102.3930971 131.3834943  92.0121828 100.9082040
 133.6164224  91.9599601 105.4296576 133.2522431  91.4330222 106.1409497
 134.4731340  91.5698070 105.2563061 133.2569711  86.9889501 100.4257924
 133.4244113  87.8569737 100.7928395 133.0666880  87.1516782  99.5019214
 129.4657525  91.9020276 108.1260459 128.5408022  91.7696490 108.3338151
 129.7141939  92.6814496 108.6230401 133.2358932  89.4447158 101.4104591
 133.1158557  89.8904209 102.2490071 132.5411520  89.7932476 100.8518129
 126.8266336  91.5453550 108.9604248 126.9558718  91.7988029 109.8743660
 126.1463788  92.1381258 108.6408903 130.9965824 102.2150800 105.0594722
 130.9189853 103.1658625 105.1383203 130.3927467 101.8696672 105.7169649
 133.5715835  89.2765866 113.2479775 134.4177031  89.7005279 113.3914424
 133.5114473  88.6199490 113.9418338 136.2779972  86.0926667 110.4874786
 135.4164452  86.3907921 110.7791524 136.3042407  86.3097066 109.5555819
 133.0941542  94.6368858 106.8948592 133.5579887  94.9156561 106.1053214
 132.8298340  93.7352302 106.7121682 129.9865623  94.1840339 109.8328355
 130.5566980  94.6127608 109.1945839 130.5773735  93.9022924 110.5312541
 132.0310428  90.7592010 103.7038157 132.7334471  91.2113054 104.1712083
 131.6991056  90.1175829 104.3318050 125.7735762  89.0175563 109.0055290
 124.9834816  89.2733091 108.5295401 126.2647009  89.8323901 109.1107331
 127.7250507  89.3820142 105.9638767 126.9281671  89.4938836 106.4822263
 127.4976099  89.7206794 105.0979658 124.0573465  89.2706053 111.4370281
 124.3081503  90.1553063 111.7027857 124.5933013  89.0910655 110.6645373
 133.2704193  97.5732953 103.7800262 133.1349867  98.4184489 104.2085110
 133.8114005  97.7752230 103.0166196 126.7233590  95.0908391 104.3528187
 127.2358111  95.8851641 104.5033752 127.3756303  94.3934681 104.2861789
 128.5328475  98.2074147 106.4350940 128.7095103  99.1292112 106.2471924
 129.3285308  97.8932566 106.8645320 127.8180831  90.2538779 116.3113104
 127.7034346  89.3524036 116.6120202 126.9625349  90.5002476 115.9597920
 136.6196656  81.0963515 112.3099156 136.2760926  81.9865156 112.2338266
 136.9875619  80.9065172 111.4468741 124.6882507  93.4197045 105.1287758
 125.5257729  93.8294054 104.9121465 124.8660774  92.4796487 105.0987952
 136.5846939  91.0872126 100.8171591 136.0693562  91.8576730 101.0559978
 136.3124247  90.4137262 101.4404652 134.1694050  85.9321827 105.8756829
 133.3135646  85.5428677 105.6962468 134.5821002  86.0113787 105.0156615
 135.6993197  83.4668170 110.2748389 135.1957992  83.4298305 109.4616194
 135.9923803  84.3760913 110.3345045 131.9436082  83.5506900 109.2814571
 132.8089079  83.3549708 108.9220460 132.0113591  83.3217251 110.2083927
 136.3733242  88.9599218 102.6431372 136.0683378  89.2745367 103.4941515
 137.3263684  89.0380638 102.6858705 134.8179674  95.1189441 104.2924326
 134.2901035  94.3842201 103.9797563 134.3167177  95.8964118 104.0464294
 129.5498401  85.7809108 106.6530937 130.1242153  85.5584289 105.9204130
 130.1369384  85.8497802 107.4059539 129.8767989  87.8113569 100.6726823
 129.0405301  88.1488255 100.9936097 129.7372758  87.6762548  99.7353960
 131.8521069  82.6550356 105.3806007 131.1985482  82.3399374 104.7562622
 131.8101543  82.0326097 106.1065830 132.9632274  92.9369652  97.2959299
 132.0559336  92.7058905  97.4950448 133.4603306  92.1407271  97.4833280
 135.8700353 101.6467159 100.2155985 135.1962052 101.9498855 100.8240943
 136.2566175 102.4496239  99.8661442 135.0858810  89.1432290 109.7053654
 134.1681371  89.3647237 109.5475342 135.5018953  89.2178600 108.8465362
 135.8693857  90.5423706 104.8356335 136.6165676  91.0545103 104.5263457
 136.1385447  90.2207758 105.6960728 134.1420507  93.0382246 101.8183289
 133.2331727  92.7541279 101.9155759 134.1715591  93.4581325 100.9586596
 124.7108678  90.7587761 105.7998491 124.5133078  90.1657121 105.0749558
 124.1555342  90.4539971 106.5174430 132.6905402  90.6510867 107.9193084
 132.7454011  89.6984703 107.8435561 131.8796604  90.8070306 108.4034383
 133.8396595  94.5790990  99.1571368 133.4016025  93.8626849  98.6977005
 134.5807036  94.8067105  98.5956459 130.6297761  89.2687927 105.6783463
 129.8165627  89.5682097 106.0848655 131.1256756  88.8743615 106.3957945
 132.7806339  99.2645684 107.6117728 132.7382518  99.4906530 106.6826260
 133.6969038  99.0309058 107.7603529 130.1211836  86.8406282 111.2944698
 130.7611216  86.6995041 110.5967661 129.2889367  86.5540796 110.9183300
 130.8972140  96.1408713 107.4079691 131.6912739  95.6459033 107.2062266
 130.1863833  95.6126576 107.0447396 127.2054904  90.2851794 103.4839443
 126.2752492  90.2236250 103.7009405 127.3012376  89.7627747 102.6876084
 127.1240453  86.8106607 106.0717685 127.3847270  87.7251940 105.9626845
 127.9457625  86.3431050 106.2214298 128.5965378  88.2244364 113.2416509
 129.2688431  88.0161727 112.5929158 127.7695164  88.0266450 112.8021742
 134.4990950  84.8506305 115.2582170 133.8518865  85.5496255 115.1646647
 135.2691965  85.2842449 115.6258419 134.0691568 101.8146831 102.4303064
 134.2443324 101.3434874 103.2448687 133.3824356 102.4412597 102.6584325
 135.0248631  96.0919337 108.4766365 134.6898464  96.0520107 109.3724015
 134.5252577  95.4264053 108.0036776 128.9992875  91.4986967 114.0018947
 128.8612673  90.7667206 114.6030486 129.9097799  91.4095867 113.7203134
 131.6275176  91.2106927 113.4902626 132.3374794  90.5700119 113.4489245
 131.5844484  91.4619822 114.4128807 130.3404110  88.1972145 115.3098266
 129.8041467  87.7462883 115.9619862 129.7520818  88.3318053 114.5668730
 129.7506369  87.6560796  97.8724729 128.8735835  87.5349597  97.5086976
 130.2264122  86.8646874  97.6203618 121.2708509  92.4437956 107.9666237
 121.9579549  92.1299686 107.3787252 121.1156638  93.3479320 107.6933488
 126.0743231  87.3328152 112.3951260 125.9901420  86.7253822 111.6601670
 125.2525938  87.8237171 112.3960757 132.9370295 100.0087086 105.1187250
 132.1537817 100.5508767 105.2125474 133.6363040 100.5261066 105.5181491
 136.2466945  85.8181716 107.7621455 136.7435645  85.0651678 107.4422525
 135.4753926  85.8546032 107.1964665 137.3296726  94.5753403 105.3359879
 136.3953004  94.6954866 105.1664583 137.5073394  93.6725870 105.0719888
 132.8301914  87.9599099 107.4893140 132.4599701  87.4070139 108.1774045
 133.3261006  87.3557232 106.9368140 135.4199572 101.0100894 106.5128878
 135.6021967 100.1922550 106.9756631 136.2432558 101.2268587 106.0753768
 135.7541738  99.9369080 103.7743927 136.2829504  99.4261534 103.1614089
 136.0169957  99.6211610 104.6389460 126.2558830  97.9532949 111.5179260
 126.8412267  97.2076637 111.6507165 126.0583669  98.2636906 112.4015924
 129.1097486 100.9884196 106.5341703 128.4407861 101.4730324 106.0505743
 128.9710355 101.2353417 107.4485081 120.8476485  90.5238549 110.2383704
 120.8860585  89.9902140 111.0320822 120.3416778  89.9973755 109.6194681
 128.2267247  85.3703090 113.7346246 128.2908574  86.2317920 113.3223644
 128.1634368  84.7577091 113.0018604 127.7019520  87.4426222 117.3819280
 128.3291559  87.0603299 117.9956805 126.8447439  87.2240424 117.7474973
 124.4785063  89.2502651 103.3137635 124.7738504  88.3413330 103.2604689
 123.5773098  89.2290391 102.9918637 128.0079310  87.3258648 109.2965184
 127.2865895  87.9394616 109.1572657 128.7972565  87.8616413 109.2181830
 130.8105623  84.6613074 115.5705835 131.3340025  84.9075371 116.3332145
 130.5917956  85.4933109 115.1508973 126.2072904  86.9316749 103.4376960
 125.8785610  86.0514128 103.2552066 126.5612275  86.8764418 104.3253349
 135.4552483  98.5671652 107.9471946 135.3077446  97.6388359 108.1279516
 136.2805977  98.5891742 107.4629021 129.3214727  87.2189719 103.8052438
 129.6610800  87.7475640 103.0831046 129.7686848  87.5570125 104.5811004
 132.0158168  85.6026769 113.2555506 131.6754989  84.8034582 113.6576186
 131.3097175  85.9028480 112.6832339 132.6674640  82.6876082 111.7082829
 133.4900709  82.2136560 111.5861719 132.9112704  83.4666566 112.2081515
 131.3082875  85.7164340 102.0045731 132.0291237  86.0945593 101.5009447
 130.6848179  86.4353217 102.1080709 135.4513997  86.4209489 102.9404063
 135.6677612  87.3034127 102.6392891 134.9708065  86.0295703 102.2109705
 130.1913219  89.3795202 109.5174808 130.0457800  89.6935506 110.4099089
 129.7138422  89.9980103 108.9645706 132.0509602  86.3697750 109.5655697
 132.0371170  85.4738844 109.2287995 132.7682030  86.3768414 110.1993983
 133.9035732  86.8035091 111.6108825 133.6453510  87.7252161 111.6093155
 133.3720773  86.4065525 112.3009289 124.6658881  91.9200547 112.4562469
 124.1212349  92.6960355 112.5882743 125.5438231  92.2671351 112.2981590
 131.4546498  85.2512131 104.8343267 131.5762409  84.3228777 105.0334155
 131.1648540  85.2650817 103.9221583 134.3237688  82.9367041 107.9709987
 134.3459385  83.0006374 107.0161967 134.7405747  82.0971550 108.1650493
 125.4524903  91.0470443 115.3492626 124.7106639  91.1953079 115.9357256
 125.1317647  91.3078709 114.4859375 125.8981517  98.9335872 107.3803020
 126.7239536  98.6339644 107.0001664 125.5475569  98.1643494 107.8292809
 130.8663050  98.2862340 109.4500694 130.2443059  97.6233045 109.1502922
 131.5367917  98.3123472 108.7674342 124.0990122  96.8522198 108.3391954
 123.2622030  96.4244373 108.1575955 124.0713767  97.0454642 109.2762745
 130.4276557  96.8366263 102.9259154 130.5764677  97.5201728 102.2725827
 131.2343000  96.8171353 103.4408610 128.1829190  92.8631441 103.9320223
 127.9375232  91.9593771 104.1300433 128.3525104  92.8648592 102.9899701
 135.8725899  83.7355117 113.3144979 136.3907843  84.4716144 112.9891467
 135.5181032  84.0419111 114.1491738 127.4524837  88.5959799 101.4306385
 126.7594082  88.6704154 100.7746421 127.2076589  87.8320142 101.9527902
 136.1238494  80.1555400 108.8345875 136.4040247  79.4878589 109.4606302
 136.9089101  80.3484496 108.3220539 133.9271962  99.3314394 100.3970902
 133.3545929  99.9504581  99.9441374 134.5004756  99.8813756 100.9310824
 134.3118761  90.6675207  97.7386954 135.2577865  90.5381415  97.8075372
 133.9333006  89.9289869  98.2156382 132.4961678  88.5925183  97.6741840
 131.5893133  88.2958296  97.7504553 132.7737659  88.2955001  96.8076126
 123.4139618  89.9131546 108.1240886 123.0942402  89.0596855 107.8315260
 122.8673046  90.1280125 108.8798853 127.1919526  92.6293987 111.8410392
 127.4105535  93.5611095 111.8598426 127.6045300  92.2701962 112.6265196
 134.1123743  83.1362073 103.8286081 133.3024472  82.7909158 104.2041327
 134.8008160  82.8269616 104.4173692 136.0414292  82.2140120 105.4510377
 136.5945330  82.6335573 106.1100401 136.2784378  81.2875868 105.4933333
 131.2660462  85.4512118  97.8153819 132.1279626  85.7767017  98.0749636
 131.4510807  84.6643614  97.3026884 123.2827878  93.5334458 110.0934007
 122.5891350  93.1188411 109.5803962 124.0300869  93.5754994 109.4967426
 125.1964621  93.4652712 107.9700022 125.1735309  93.5640399 107.0181905
 125.5065257  94.3117863 108.2917188 127.8551999  95.5228867 112.0846637
 128.8095252  95.4912809 112.0176568 127.6564522  95.0619490 112.8996863
 126.2102227 101.0648486 109.1016835 126.0756695 100.3048887 108.5354833
 125.7934290 101.7889386 108.6345624 123.6986295  88.4268117 115.3509632
 124.3445159  87.9167071 115.8396857 123.4903446  89.1636798 115.9253057
 132.2189905  82.6908161 101.1033528 132.2068575  83.6350001 101.2601799
 133.1113327  82.5078307 100.8092989 136.0342025  79.2850938 105.3579464
 135.2674421  78.7309425 105.5036147 136.4452730  79.3572807 106.2193616
 135.3178817 104.5794569 103.3137635 135.6132258 103.6705247 103.2604689
 134.4166853 104.5582308 102.9918637 137.0466659 102.2608667 103.4376960
 136.7179365 101.3806045 103.2552066 137.4006029 102.2056335 104.3253349
  76.7997052   2.5753334  91.7840029  76.7221082   3.5261159  91.8628510
  76.1958696   2.2299207  92.4414955  75.4591019   0.0854855  99.1606589
  76.0098444  -0.0428081  98.3883583  74.6202495   0.3849744  98.8101482
  81.6731582   2.0069693  86.9401292  80.9993281   2.3101390  87.5486249
  82.0597404   2.8098773  86.5906749  79.8722797   2.1749365  89.1548371
  80.0474553   1.7037409  89.9693993  79.1855585   2.8015132  89.3829632
  74.4383882   5.3238728  95.9288231  74.6780480   5.9557252  96.6067250
  73.5953079   4.9726768  96.2153590  78.9511744   1.1317851  98.3329735
  78.8781916   1.9372822  98.8449040  78.5089137   1.3309816  97.5077756
  78.7401524   0.3689621  91.8432556  77.9569046   0.9111301  91.9370781
  79.4394269   0.8863600  92.2426798  81.4110428   1.0304685 100.4887894
  82.1238400   1.6652149 100.4163795  80.9200456   1.1268551  99.6727895
  72.0590059  -1.6864517  98.2424567  72.6443496  -2.4320829  98.3752471
  71.8614898  -1.3760560  99.1261231  74.9128714   1.3486730  93.2587009
  74.2439090   1.8332858  92.7751050  74.7741584   1.5955951  94.1730388
  79.0533983   3.3830474  99.8569668  79.6052291   3.5462095 100.6218753
  79.3940176   3.9734912  99.1849693  79.1999794   0.9488956 101.8718322
  79.5086921   0.7038102 102.7441022  79.9975276   1.1535594 101.3837192
  79.2220406   3.1026865  94.1023699  78.7825397   2.6103244  94.7956555
  79.9728523   2.5599833  93.8615774  71.7012745  -0.7061594  94.1048327
  72.5270765  -1.0057822  93.7246970  71.3506797  -1.4753971  94.5538116
  69.9021350  -2.7875267  95.0637260  69.0653259  -3.2153093  94.8821262
  69.8744996  -2.5942824  96.0008052  72.0133456   1.4251020  95.8262141
  71.8787924   0.6651421  95.2600139  71.5965518   2.1491920  95.3590930
  75.1702582   2.3220337  96.0380584  75.0534966   3.2665770  95.9359274
  74.3495028   2.0193899  96.4266383  76.1957096   2.9748599  99.2536512
  77.0984343   3.0072210  99.5703007  75.9694466   2.0449050  99.2682848
  77.9510698   1.7279586  95.9146591  77.0006329   1.7281447  95.8010963
  78.2543184   0.9812320  95.3982626  93.6863392   7.5640124  96.9792353
  94.3241802   7.4446872  96.2755693  93.5684235   8.5120968  97.0380306
  90.4953098   7.5167552  96.9153878  90.1571609   7.4008617  96.0274413
  91.3642866   7.1158717  96.8954884  86.3539914   9.3703029  92.9050769
  85.7904779   9.2792966  92.1367057  86.2392309   8.5502933  93.3853262
  90.9772881   8.6702404 102.8740084  90.9661522   8.2755202 102.0020587
  91.1393520   7.9368477 103.4673855  83.9004346  10.8654220  95.7434989
  84.6925637  10.5245045  95.3281289  84.1400996  10.9749195  96.6637143
  91.9339472  13.0373996  88.2165234  91.2827452  13.6228077  87.8299248
  92.7283835  13.5680191  88.2760271  85.8595099  10.1263134  88.6152368
  86.6325976   9.5792121  88.4765244  86.2120498  10.9907383  88.8266830
  87.6980142  11.4539516 101.8219268  87.4070008  12.3585147 101.7065934
  88.3337126  11.4956044 102.5363337  88.6236349   8.8316364  98.4120627
  89.2199921   8.6072387  97.6977590  88.6811320   8.0901110  99.0146075
  88.1961377   6.2855800  86.2470818  88.4486898   5.7637321  85.4854281
  87.2585936   6.1221945  86.3497502  93.4114737  10.7264428  88.7534218
  92.7760570  10.7999055  89.4655123  93.0812144  11.3158027  88.0753297
  87.9157666   8.1883906  88.4495193  87.7993924   7.5128809  89.1176277
  88.0259926   7.7016280  87.6327346  90.2589207   7.6494053  92.1541882
  89.8947414   7.1224674  92.8654804  91.1156323   7.2592522  91.9808368
  92.6570027  11.1400931  98.8169061  92.3570750  12.0425970  98.7084868
  92.3121087  10.8733115  99.6690214  86.1082509   7.5914728  94.8505766
  85.1833005   7.4590942  95.0583457  86.3566922   8.3708948  95.3475708
  89.8783915   5.1341610  88.1349898  89.7583540   5.5798661  88.9735378
  89.1836503   5.4826928  87.5763436  83.4691320   7.2348002  95.6849555
  83.5983701   7.4882481  96.5988966  82.7888771   7.8275710  95.3654210
  87.6390807  17.9045252  91.7840029  87.5614837  18.8553077  91.8628510
  87.0352451  17.5591124  92.4414955  90.1308037   5.0773117 104.4401396
  89.3541371   5.6367037 104.4304261  90.7698600   5.5629900 104.9616266
  88.3854409   7.8858571 104.0019363  89.1269093   8.4243615 103.7254186
  87.6791394   8.5124859 104.1590915  93.8609749  10.0287711 102.5991524
  94.2693105   9.5870122 101.8546157  93.1387010   9.4540339 102.8525717
  90.2140819   4.9660318  99.9725081  91.0602014   5.3899731 100.1159730
  90.1539456   4.3093942 100.6663644  94.1838563  10.5888902  96.3543813
  93.5547426  10.7534616  95.6519881  93.7964225  11.0030511  97.1254777
  98.0627795  11.5243340  93.7088177  97.3778833  11.9042241  93.1585210
  98.1471645  12.1338666  94.4420125  95.3178727   9.1703299 100.3083521
  95.5295622   9.8135058  99.6317902  95.2708475   8.3365615  99.8405451
  89.7366525  10.3263310  93.6193898  90.2004871  10.6051013  92.8298521
  89.4723323   9.4246754  93.4366989  86.6290606   9.8734791  96.5573662
  87.1991963  10.3022060  95.9191146  87.2198718   9.5917376  97.2557847
  88.6735411   6.4486462  90.4283463  89.3759455   6.9007506  90.8957390
  88.3416040   5.8070281  91.0563357  87.1215773   5.0398219 104.8034673
  86.4914433   5.7214500 105.0370070  87.0151861   4.9281300 103.8587811
  82.4160745   4.7070015  95.7300597  81.6259799   4.9627543  95.2540708
  82.9071993   5.5218353  95.8352638  96.4324555  12.0475254  98.4805878
  97.2541998  11.6455441  98.1988559  96.4286958  11.9443488  99.4321994
  84.3675491   5.0714594  92.6884074  83.5706654   5.1833288  93.2067569
  84.1401083   5.4101246  91.8224964  90.1981158  11.5959297 100.6366588
  90.2625591  12.0579704 101.4724760  89.4892082  10.9656662 100.7648898
  80.6998448   4.9600505  98.1615588  80.9506487   5.8447515  98.4273164
  81.2357997   4.7805107  97.3890680  89.9129176  13.2627405  90.5045569
  89.7774851  14.1078940  90.9330417  90.4538988  13.4646682  89.7411502
  83.3658573  10.7802843  91.0773494  83.8783094  11.5746093  91.2279058
  84.0181286  10.0829133  91.0107095  85.1753458  13.8968599  93.1596247
  85.3520086  14.8186564  92.9717231  85.9710291  13.5827018  93.5890627
  84.4605815   5.9433231 103.0358410  84.3459330   5.0418488 103.3365509
  83.6050332   6.1896928 102.6843227  91.5397652  13.8850971 104.6345911
  91.0961506  13.0987350 104.3166815  92.2014866  14.0730122 103.9689802
  86.2984773  15.4146773  99.1606589  86.8492199  15.2863836  98.3883583
  85.4596249  15.7141662  98.8101482  93.6378890  14.1653771 102.6627312
  93.6197366  14.9862652 102.1707581  94.5598810  14.0407846 102.8877453
  90.0951944  11.6797901 103.5050820  90.6280281  10.9186189 103.2750128
  89.5666026  11.3871552 104.2474975  81.3307490   9.1091497  91.8533064
  82.1682712   9.5188505  91.6366772  81.5085758   8.1690939  91.8233258
  93.2271922   6.7766578  87.5416897  92.7118546   7.5471182  87.7805285
  92.9549231   6.1031714  88.1649959  98.2006196   9.5298932  89.4770071
  97.4235639   9.1910092  89.0325233  98.8797677   9.5351556  88.8025036
  91.4604657  10.8083893  91.0169632  90.9326019  10.0736653  90.7042870
  90.9592160  11.5858569  90.7709601  96.4397503   9.0032914  96.1336679
  95.7821178   9.6932175  96.2216807  97.2437902   9.3929346  96.4770665
  95.2502962   7.3577286  94.1840620  95.7634844   7.9907278  94.6862330
  95.9004186   6.7578482  93.8183980  86.5192972   3.5008020  87.3972129
  85.6830284   3.8382707  87.7181404  86.3797742   3.3657000  86.4599266
  89.6057257   8.6264103  84.0204605  88.6984319   8.3953357  84.2195754
  90.1028289   7.8301723  84.2078587  92.5125336  17.3361611  86.9401292
  91.8387035  17.6393307  87.5486249  92.8991158  18.1390691  86.5906749
  91.7283793   4.8326742  96.4298961  90.8106354   5.0541689  96.2720649
  92.1443936   4.9073052  95.5710668  92.5118841   6.2318158  91.5601641
  93.2590660   6.7439555  91.2508763  92.7810430   5.9102210  92.4206035
  90.7845491   8.7276698  88.5428596  89.8756710   8.4435731  88.6401065
  90.8140575   9.1475777  87.6831902  96.0164758  12.3383288  92.3119763
  95.5627085  11.4974198  92.3684954  95.3858725  12.9744686  92.6494543
  94.4597697  14.1759784  93.2469581  94.7520672  14.7364842  92.5281947
  94.9696318  14.4688345  94.0022740  81.3533661   6.4482212  92.5243798
  81.1558061   5.8551573  91.7994864  80.7980325   6.1434423  93.2419737
  89.3330385   6.3405319  94.6438391  89.3878995   5.3879155  94.5680867
  88.5221587   6.4964758  95.1279689  90.4821579  10.2685442  85.8816674
  90.0441009   9.5521301  85.4222311  91.2232019  10.4961557  85.3201766
  87.2722745   4.9582379  92.4028770  86.4590610   5.2576549  92.8093962
  87.7681739   4.5638067  93.1203252  89.4231323  14.9540136  94.3363034
  89.3807501  15.1800982  93.4071566  90.3394022  14.7203510  94.4848836
  92.8696956   5.4224203 101.2343664  93.2246344   5.6495676 102.0938129
  93.5169088   5.7542580 100.6120919  98.5994693   8.5442639  91.9392993
  98.4612592   8.7344235  91.0114182  98.2430912   9.3062022  92.3961044
  98.6264073  10.6119166  96.9504264  99.0600580  10.5194455  97.7987318
  99.3395654  10.5876666  96.3124280  87.5397123  11.8303165  94.1324997
  88.3337722  11.3353485  93.9307572  86.8288816  11.3021028  93.7692703
  92.3591968  14.2121260  98.4837365  92.4128990  14.7812196  99.2515081
  91.4906749  14.3823145  98.1191402  83.8479887   5.9746246  90.2084750
  82.9177475   5.9130702  90.4254712  83.9437359   5.4522199  89.4121391
  83.7665436   2.5001059  92.7962992  84.0272253   3.4146392  92.6872152
  84.5882608   2.0325502  92.9459604  85.2390361   3.9138816  99.9661816
  85.9113415   3.7056178  99.3174465  84.4120148   3.7160902  99.5267048
  99.4879623  10.6542867  99.4837150  99.6815513  11.5588677  99.7296425
  99.3880241  10.1950286 100.3175735  94.5494731  10.8049609 105.0578030
  94.3980238  10.5760161 104.1408114  94.5399411  11.7620211 105.0709375
  91.3180068   8.3781522 100.0424297  92.2472128   8.5292682  99.8693264
  90.8971098   8.4665543  99.1872943  90.1168399  12.4032187  97.8122834
  89.9779485  12.0350971  98.6848772  89.3282996  12.9179826  97.6406792
  90.7116551  17.5041283  89.1548371  90.8868307  17.0329326  89.9693993
  90.0249339  18.1307049  89.3829632  91.6673615  11.7813789  95.2011672
  91.3323447  11.7414559  96.0969322  91.1677560  11.1158505  94.7282082
  85.6417859   7.1881419 100.7264253  85.5037656   6.4561658 101.3275792
  86.5522782   7.0990319 100.4448441  94.6032806   9.1269824  85.4748732
  93.9861977   8.4016652  85.3781784  94.1349295   9.8879184  85.1315806
  88.2700159   6.9001379 100.2147933  88.9799778   6.2594571 100.1734551
  88.2269467   7.1514273 101.1374114  96.2586938  13.8368732 103.1354512
  96.1999484  13.1527952 102.4685095  96.6606456  14.5787722 102.6835138
  86.9829093   3.8866596 102.0343572  86.4466450   3.4357335 102.6865169
  86.3945802   4.0212505 101.2914037  85.2777637  20.6530646  95.9288231
  85.5174235  21.2849170  96.6067250  84.4346833  20.3018686  96.2153590
  86.3931352   3.3455248  84.5970036  85.5160818   3.2244049  84.2332283
  86.8689105   2.5541326  84.3448925  96.2604345  11.8008316 101.3668492
  95.3731124  11.4634238 101.4894891  96.8302896  11.0691347 101.6037257
  77.9133492   8.1332408  94.6911543  78.6004532   7.8194138  94.1032558
  77.7581621   9.0373772  94.4178795  82.7168214   3.0222604  99.1196567
  82.6326403   2.4148274  98.3846977  81.8950921   3.5131622  99.1206063
  89.7905499  16.4609768  98.3329735  89.7175670  17.2664740  98.8449040
  89.3482892  16.6601734  97.5077756  89.5795278  15.6981538  91.8432556
  88.7962800  16.2403218  91.9370781  90.2788023  16.2155518  92.2426798
  92.2504182  16.3596602 100.4887894  92.9632154  16.9944067 100.4163795
  91.7594211  16.4560468  99.6727895  93.9721709  10.2647855  92.0605185
  93.0377988  10.3849317  91.8909890  94.1498377   9.3620322  91.7965195
  87.3016096  14.1091046 101.3093464  88.0025555  14.7427529 101.4622859
  86.8311211  14.4505777 100.5489104  95.4270491  12.4508996  89.5941371
  95.7030335  12.3365590  90.5035246  94.5574990  12.0526480  89.5553545
  95.1017382   6.6635653  99.1346015  94.4488832   6.9111561  98.4798468
  95.4797761   5.8499791  98.8008492  92.0624555  16.6995346  93.2374185
  92.2446950  15.8817002  93.7001937  92.8857541  16.9163039  92.7999075
  92.3966721  15.6263531  90.4989234  92.9254487  15.1155986  89.8859396
  92.6594941  15.3106062  91.3634767  91.1504955   7.4055464 105.6212052
  90.4745592   7.3049594 106.2914427  91.9732588   7.2494678 106.0848049
  82.8983814  13.6427401  98.2424567  83.4837250  12.8971089  98.3752471
  82.7008652  13.9531357  99.1261231  85.7522469  16.6778648  93.2587009
  85.0832844  17.1624776  92.7751050  85.6135339  16.9247869  94.1730388
  77.4901468   6.2133001  96.9629010  77.5285568   5.6796592  97.7566128
  76.9841761   5.6868206  96.3439987  89.8927737  18.7122392  99.8569668
  90.4446045  18.8754013 100.6218753  90.2333931  19.3026829  99.1849693
  84.3444503   3.1320674 104.1064587  84.9716542   2.7497751 104.7202111
  83.4872422   2.9134876 104.4720279  94.7438612  13.5383649 105.7118322
  95.2878516  14.1513607 105.2173277  94.1625457  14.0963228 106.2285335
  81.1210046   4.9397103  90.0382942  81.4163487   4.0307782  89.9849995
  80.2198082   4.9184843  89.7163944  93.0296125  16.6604367  96.8433350
  92.9047264  15.8594107  96.3344296  93.6875216  17.1550561  96.3547320
  84.6504293   3.0153100  96.0210490  83.9290879   3.6289067  95.8817964
  85.4397549   3.5510865  95.9427136  95.0931033  14.4613387  98.4712900
  94.1461369  14.3418738  98.3991227  95.4413806  13.5735885  98.5539162
  82.8497888   2.6211201  90.1622267  82.5210594   1.7408580  89.9797373
  83.2037258   2.5658869  91.0498656  92.0977466  14.2566104  94.6717252
  91.9502429  13.3282811  94.8524822  92.9230960  14.2786194  94.1874328
  85.9639711   2.9084171  90.5297744  86.3035783   3.4370092  89.8076353
  86.4111831   3.2464577  91.3056311  95.7011588  15.0794662  95.7582125
  96.6258136  14.8737524  95.6206576  95.5326892  14.8311063  96.6671467
  86.8338202   5.0689654  96.2420114  86.6882783   5.3829957  97.1344396
  86.3563406   5.6874555  95.6891013  95.4906904  15.5980330  91.1144217
  95.6643782  15.0326752  90.3618069  95.9835796  16.3981225  90.9323706
  81.3083864   7.6094999  99.1807775  80.7637332   8.3854807  99.3128050
  82.1863214   7.9565803  99.0226897  96.4782077  14.9147094  88.2141115
  97.1732982  15.5353787  88.4328429  96.8205227  14.0642445  88.4893493
  82.0949886   6.7364895 102.0737932  81.3531622   6.8847530 102.6602563
  81.7742630   6.9973161 101.2104682  98.3773500  12.3646800  89.7428446
  98.9024824  12.7034072  89.0177766  98.2895853  11.4293815  89.5591580
  90.0393549  16.2780873 101.8718322  90.3480675  16.0330020 102.7441022
  90.8369031  16.4827512 101.3837192  90.0614161  18.4318783  94.1023699
  89.6219151  17.9395162  94.7956555  90.8122278  17.8891751  93.8615774
  82.5406500  14.6230324  94.1048327  83.3664520  14.3234096  93.7246970
  82.1900552  13.8537946  94.5538116  87.5088033  13.9756792  96.1746000
  86.8868042  13.3127497  95.8748228  88.1792900  14.0017924  95.4919648
  80.7415105  12.5416650  95.0637260  79.9047013  12.1138825  94.8821262
  80.7138750  12.7349094  96.0008052  98.0667406  12.9979703 105.0479644
  97.2762950  12.9803842 104.5084143  97.8300761  13.5367997 105.8028680
  98.1865281   9.8472170 102.3612372  98.2363286   9.6822177 103.3027895
  98.0779205   8.9799429 101.9710253  87.0701540  12.5260715  89.6504461
  87.2189660  13.2096180  88.9971134  87.8767983  12.5065805  90.1653917
  99.6883478  12.2669111 102.6054394  99.3968286  12.6299092 103.4417855
  99.0755609  11.5536119 102.4267726 100.8879160   9.8321991  95.1256964
 101.7226052  10.2711795  95.2894524 101.0238289   9.3560644  94.3065210
  97.9370666   7.3901726 101.0734452  98.4124788   7.5829372 100.2653303
  97.0136232   7.4460912 100.8277835  84.8254173   8.5525893  90.6565530
  84.5800215   7.6488223  90.8545740  84.9950087   8.5543043  89.7145008
  84.0949820   4.2854251  88.1551691  83.4019065   4.3598606  87.4991727
  83.8501572   3.5214594  88.6773208  90.5696945  15.0208846  87.1216208
  89.9970912  15.6399033  86.6686680  91.1429739  15.5708207  87.6556130
  93.7894205  15.3045996  88.2524791  94.7224878  15.2391558  88.4557666
  93.7017418  16.1402263  87.7939323  96.4182222  14.6211866  85.2128738
  96.3395853  14.2871730  86.1064496  97.2391889  15.1133634  85.2120211
  90.9543744   6.3569659  84.4632261  91.9002849   6.2275867  84.5320679
  90.5757989   5.6184320  84.9401689  90.8382436  10.4087405 105.9232918
  91.7585446  10.5866004 106.1172964  90.8032019   9.4643450 105.7712617
  89.1386661   4.2819635  84.3987146  88.2318116   3.9852748  84.4749860
  89.4162642   3.9849453  83.5321432  80.0564601   5.6025998  94.8486193
  79.7367386   4.7491307  94.5560567  79.5098030   5.8174576  95.6044160
  83.8344509   8.3188439  98.5655699  84.0530519   9.2505547  98.5843733
  84.2470283   7.9596414  99.3510503  88.7072374   3.8921645 107.9558448
  88.6069101   4.8416002 107.8870539  88.4893916   3.5639884 107.0834518
  79.9252861   9.2228910  96.8179314  79.2316333   8.8082863  96.3049269
  80.6725852   9.2649446  96.2212733  88.5703644   7.3218784 106.7723510
  88.0870726   8.1219144 106.9787399  88.6564583   7.3326729 105.8190954
  81.8389604   9.1547164  94.6945329  81.8160292   9.2534851  93.7427212
  82.1490240  10.0012314  95.0162495  84.4976982  11.2123319  98.8091943
  85.4520235  11.1807261  98.7421875  84.2989505  10.7513942  99.6242169
  85.0876364   9.7824435 101.3762741  85.9069253  10.2768513 101.3997578
  85.3613172   8.8656403 101.3480309  82.8527211  16.7542938  95.8262141
  82.7181679  15.9943339  95.2600139  82.4359273  17.4783838  95.3590930
  93.9886174  11.9379862  84.8338717  94.6922024  12.1429864  85.4496372
  93.2648822  12.5056624  85.0987800  94.8183984   7.6889723  90.9540987
  94.7619185   8.1458274  90.1148619  95.3712326   6.9280408  90.7763830
  86.0096337  17.6512255  96.0380584  85.8928721  18.5957688  95.9359274
  85.1888783  17.3485817  96.4266383  95.8972871  12.3762391  86.8837177
  96.7318475  11.9443589  86.7014651  95.7357214  12.2044405  87.8114071
  95.5518763   8.8794504  88.2493516  95.4967567   8.7138776  87.3081960
  94.9264819   9.5870537  88.4055706  80.3411278   4.1162569 102.0754938
  80.9870142   3.6061523 102.5642163  80.1328429   4.8531250 102.6498363
  92.8664670  11.1843416 107.5747079  93.7355830  11.3584068 107.2133714
  92.3871422  12.0037833 107.4522808  87.0350851  18.3040517  99.2536512
  87.9378097  18.3364127  99.5703007  86.8088221  17.3740968  99.2682848
  88.7904453  17.0571504  95.9146591  87.8400084  17.0573365  95.8010963
  89.0936939  16.3104238  95.3982626 104.5257146  22.8932042  96.9792353
 105.1635556  22.7738789  96.2755693 104.4077989  23.8412886  97.0380306
 101.3346852  22.8459470  96.9153878 100.9965364  22.7300535  96.0274413
 102.2036621  22.4450635  96.8954884  97.1933668  24.6994946  92.9050769
  96.6298533  24.6084883  92.1367057  97.0786063  23.8794851  93.3853262
 101.8166635  23.9994322 102.8740084 101.8055276  23.6047120 102.0020587
 101.9787275  23.2660394 103.4673855  94.7398100  26.1946138  95.7434989
  95.5319392  25.8536963  95.3281289  94.9794750  26.3041113  96.6637143
 102.7733227  28.3665914  88.2165234 102.1221207  28.9519995  87.8299248
 103.5677590  28.8972109  88.2760271  96.6988854  25.4555051  88.6152368
  97.4719730  24.9084038  88.4765244  97.0514253  26.3199301  88.8266830
  98.5373897  26.7831434 101.8219268  98.2463763  27.6877064 101.7065934
  99.1730881  26.8247961 102.5363337  99.4630103  24.1608282  98.4120627
 100.0593676  23.9364305  97.6977590  99.5205075  23.4193028  99.0146075
  99.0355132  21.6147717  86.2470818  99.2880652  21.0929239  85.4854281
  98.0979691  21.4513863  86.3497502 104.0798415  20.6183496  94.0545561
 104.8661504  20.2002919  93.7035978 104.3437119  21.5229588  94.2227210
 104.2508492  26.0556346  88.7534218 103.6154325  26.1290973  89.4655123
 103.9205898  26.6449945  88.0753297 109.4806842  20.5558729  94.9578540
 110.2132014  19.9857946  95.1916369 108.7246197  20.1680329  95.3985046
  98.7551421  23.5175823  88.4495193  98.6387679  22.8420727  89.1176277
  98.8653680  23.0308197  87.6327346 101.0982961  22.9785971  92.1541882
 100.7341169  22.4516591  92.8654804 101.9550077  22.5884440  91.9808368
 107.0032262  14.2680303  99.4173149 106.6715587  15.1375714  99.1934364
 106.4077876  13.9516587 100.0967179 100.7388448  18.0075870  87.1503231
 100.9062851  18.8756107  87.5173702 100.5485618  18.1703152  86.2264520
 103.4963782  26.4692849  98.8169061 103.1964505  27.3717888  98.7084868
 103.1514841  26.2025032  99.6690214  96.9476263  22.9206646  94.8505766
  96.0226760  22.7882860  95.0583457  97.1960676  23.7000865  95.3475708
 106.8960925  18.9875389  96.4966499 105.9877803  18.9190798  96.2025260
 106.8448521  19.4647334  97.3248324 100.7177669  20.4633528  88.1349898
 100.5977295  20.9090578  88.9735378 100.0230258  20.8118845  87.5763436
  94.3085074  22.5639919  95.6849555  94.4377455  22.8174398  96.5988966
  93.6282525  23.1567627  95.3654210  98.4784561  33.2337169  91.7840029
  98.4008591  34.1844995  91.8628510  97.8746205  32.8883042  92.4414955
 100.9701791  20.4065035 104.4401396 100.1935125  20.9658955 104.4304261
 101.6092354  20.8921818 104.9616266 108.7622572  17.1891828  98.2744373
 108.1196952  17.4824361  97.6284167 108.2577500  17.0744748  99.0797569
 106.4162735  20.9355001  88.9630232 107.3280592  21.1682388  88.7877929
 105.9072383  21.5192045  88.4005310  99.2248164  23.2150488 104.0019363
  99.9662848  23.7535532 103.7254186  98.5185149  23.8416777 104.1590915
 104.7003503  25.3579629 102.5991524 105.1086859  24.9162039 101.8546157
 103.9780765  24.7832256 102.8525717 101.0534573  20.2952235  99.9725081
 101.8995768  20.7191649 100.1159730 100.9933211  19.6385860 100.6663644
 105.0232318  25.9180819  96.3543813 104.3941180  26.0826533  95.6519881
 104.6357980  26.3322429  97.1254777 108.9021550  26.8535257  93.7088177
 108.2172588  27.2334159  93.1585210 108.9865399  27.4630584  94.4420125
 104.2034019  17.9556604 101.6306255 103.9594950  18.7098664 101.0940531
 104.4793949  18.3341951 102.4653502 106.1572481  24.4995216 100.3083521
 106.3689377  25.1426976  99.6317902 106.1102230  23.6657533  99.8405451
 103.7598710  17.1113037  97.2120093 102.8983189  17.4094290  97.5036830
 103.7861145  17.3283436  96.2801125 100.5760280  25.6555227  93.6193898
 101.0398625  25.9342930  92.8298521 100.3117078  24.7538672  93.4366989
  97.4684361  25.2026709  96.5573662  98.0385718  25.6313977  95.9191146
  98.0592473  24.9209294  97.2557847  99.5129166  21.7778380  90.4283463
 100.2153209  22.2299423  90.8957390  99.1809794  21.1362199  91.0563357
  97.9609527  20.3690136 104.8034673  97.3308188  21.0506417 105.0370070
  97.8545615  20.2573218 103.8587811  93.2554500  20.0361932  95.7300597
  92.4653554  20.2919461  95.2540708  93.7465747  20.8510270  95.8352638
 107.2718309  27.3767172  98.4805878 108.0935753  26.9747359  98.1988559
 107.2680712  27.2735406  99.4321994  95.2069245  20.4006512  92.6884074
  94.4100408  20.5125206  93.2067569  94.9794837  20.7393164  91.8224964
 101.0374913  26.9251215 100.6366588 101.1019345  27.3871622 101.4724760
 100.3285837  26.2948580 100.7648898  91.5392203  20.2892423  98.1615588
  91.7900241  21.1739433  98.4273164  92.0751751  20.1097024  97.3890680
 115.3624302  23.7205920  94.8290849 114.6088011  23.1513318  94.6734854
 115.4971844  23.6868585  95.7761484 100.7522930  28.5919322  90.5045569
 100.6168605  29.4370858  90.9330417 101.2932743  28.7938600  89.7411502
  97.2390270  14.6710902 107.1659924  96.8457216  14.1177101 107.8407568
  98.0556410  14.9821481 107.5566441  94.2052328  26.1094760  91.0773494
  94.7176848  26.9038011  91.2279058  94.8575041  25.4121051  91.0107095
  96.0147212  29.2260517  93.1596247  96.1913841  30.1478481  92.9717231
  96.8104046  28.9118936  93.5890627 100.1558231  16.0868781 104.7580180
 100.8967944  16.6875934 104.6784643 100.3876154  15.3446419 104.1998223
  95.2999569  21.2725149 103.0358410  95.1853084  20.3710406 103.3365509
  94.4444087  21.5188845 102.6843227 102.3791407  29.2142889 104.6345911
 101.9355261  28.4279267 104.3166815 103.0408620  29.4022039 103.9689802
  97.1378528  30.7438691  99.1606589  97.6885953  30.6155754  98.3883583
  96.2990004  31.0433580  98.8101482 104.4772645  29.4945689 102.6627312
 104.4591120  30.3154570 102.1707581 105.3992565  29.3699764 102.8877453
 100.9345699  27.0089818 103.5050820 101.4674036  26.2478107 103.2750128
 100.4059780  26.7163470 104.2474975 104.1015394  12.1149884  99.0344462
 103.7579663  13.0051526  98.9583573 104.4694357  11.9251542  98.1714047
  92.1701245  24.4383415  91.8533064  93.0076467  24.8480423  91.6366772
  92.3479512  23.4982857  91.8233258 104.0665677  22.1058495  87.5416897
 103.5512300  22.8763100  87.7805285 103.7942985  21.4323632  88.1649959
 101.6512788  16.9508196  92.6002136 100.7954384  16.5615047  92.4207774
 102.0639739  17.0300157  91.7401921 103.1811934  14.4854539  96.9993695
 102.6776730  14.4484675  96.1861501 103.4742541  15.3947282  97.0590352
  99.4254820  14.5693269  96.0059877 100.2907817  14.3736078  95.6465767
  99.4932329  14.3403621  96.9329234 109.0399951  24.8590850  89.4770071
 108.2629394  24.5202010  89.0325233 109.7191432  24.8643473  88.8025036
 103.8551980  19.9785587  89.3676678 103.5502115  20.2931737  90.2186822
 104.8082422  20.0567007  89.4104011 102.2998412  26.1375811  91.0169632
 101.7719773  25.4028570  90.7042870 101.7985914  26.9150487  90.7709601
 107.2791258  24.3324831  96.1336679 106.6214932  25.0224093  96.2216807
 108.0831657  24.7221263  96.4770665  97.0317139  16.7995477  93.3776244
  97.6060891  16.5770659  92.6449437  97.6188122  16.8684172  94.1304845
 106.0896716  22.6869204  94.1840620 106.6028598  23.3199196  94.6862330
 106.7397940  22.0870400  93.8183980  97.3586726  18.8299938  87.3972129
  96.5224039  19.1674625  87.7181404  97.2191496  18.6948918  86.4599266
  99.3339807  13.6736726  92.1051313  98.6804219  13.3585743  91.4807928
  99.2920281  13.0512466  92.8311136 100.4451012  23.9556021  84.0204605
  99.5378074  23.7245275  84.2195754 100.9422044  23.1593640  84.2078587
 103.3519091  32.6653528  86.9401292 102.6780789  32.9685225  87.5486249
 103.7384913  33.4682609  86.5906749 102.5677547  20.1618660  96.4298961
 101.6500109  20.3833607  96.2720649 102.9837691  20.2364970  95.5710668
 103.3512595  21.5610075  91.5601641 104.0984414  22.0731472  91.2508763
 103.6204185  21.2394128  92.4206035 101.6239245  24.0568616  88.5428596
 100.7150465  23.7727649  88.6401065 101.6534329  24.4767695  87.6831902
 106.8558513  27.6675205  92.3119763 106.4020840  26.8266115  92.3684954
 106.2252479  28.3036604  92.6494543 105.7991432  18.5967191  93.5420431
 105.0614189  18.0844578  93.8730673 106.0518206  18.1567573  92.7303707
 105.2991452  29.5051702  93.2469581 105.5914426  30.0656759  92.5281947
 105.8090073  29.7980263  94.0022740 105.9003060  11.3743443  94.1362200
 106.2061936  10.5140807  93.8488115 106.6255664  11.9661064  93.9361194
  92.1927416  21.7774130  92.5243798  91.9951815  21.1843491  91.7994864
  91.6374080  21.4726340  93.2419737 100.1724139  21.6697237  94.6438391
 100.2272749  20.7171073  94.5680867  99.3615341  21.8256676  95.1279689
 101.3215333  25.5977360  85.8816674 100.8834763  24.8813219  85.4222311
 102.0625774  25.8253474  85.3201766  98.1116499  20.2874296  92.4028770
  97.2984365  20.5868467  92.8093962  98.6075493  19.8929985  93.1203252
 100.2625077  30.2832053  94.3363034 100.2201256  30.5092900  93.4071566
 101.1787776  30.0495428  94.4848836 103.7090711  20.7516121 101.2343664
 104.0640099  20.9787594 102.0938129 104.3562842  21.0834498 100.6120919
 109.4388448  23.8734557  91.9392993 109.3006346  24.0636153  91.0114182
 109.0824667  24.6353939  92.3961044  97.6030574  17.8592652  98.0190005
  98.2429953  17.7181411  97.3212968  96.7708105  17.5727165  97.6428607
 109.4657827  25.9411084  96.9504264 109.8994334  25.8486373  97.7987318
 110.1789408  25.9168584  96.3124280  98.3790878  27.1595082  94.1324997
  99.1731476  26.6645402  93.9307572  97.6682570  26.6312945  93.7692703
 103.1985722  29.5413178  98.4837365 103.2522745  30.1104114  99.2515081
 102.3300504  29.7115063  98.1191402  94.6873641  21.3038164  90.2084750
  93.7571229  21.2422619  90.4254712  94.7831113  20.7814117  89.4121391
  94.6059190  17.8292977  92.7962992  94.8666008  18.7438310  92.6872152
  95.4276363  17.3617419  92.9459604  96.0784116  19.2430734  99.9661816
  96.7507169  19.0348096  99.3174465  95.2513902  19.0452820  99.5267048
 110.3273377  25.9834784  99.4837150 110.5209267  26.8880595  99.7296425
 110.2273995  25.5242203 100.3175735 101.9809688  15.8692675 101.9827477
 101.3337603  16.5682625 101.8891953 102.7510703  16.3028819 102.3503725
 105.3888486  26.1341527 105.0578030 105.2373992  25.9052079 104.1408114
 105.3793165  27.0912128 105.0709375 102.1573822  23.7073440 100.0424297
 103.0865882  23.8584599  99.8693264 101.7364852  23.7957461  99.1872943
 100.9562154  27.7324104  97.8122834 100.8173240  27.3642889  98.6848772
 100.1676750  28.2471744  97.6406792 101.5510306  32.8333201  89.1548371
 101.7262062  32.3621244  89.9693993 100.8643094  33.4598967  89.3829632
 102.5067369  27.1105707  95.2011672 102.1717202  27.0706477  96.0969322
 102.0071315  26.4450423  94.7282082  96.4811613  22.5173337 100.7264253
  96.3431411  21.7853576 101.3275792  97.3916536  22.4282237 100.4448441
 105.4426561  24.4561741  85.4748732 104.8255731  23.7308569  85.3781784
 104.9743049  25.2171102  85.1315806  99.1093914  22.2293296 100.2147933
  99.8193532  21.5886488 100.1734551  99.0663222  22.4806191 101.1374114
 107.0980692  29.1660650 103.1354512 107.0393239  28.4819870 102.4685095
 107.5000211  29.9079640 102.6835138  97.8222848  19.2158514 102.0343572
  97.2860205  18.7649253 102.6865169  97.2339556  19.3504423 101.2914037
  96.1171391  35.9822563  95.9288231  96.3567989  36.6141088  96.6067250
  95.2740588  35.6310603  96.2153590  97.2325107  18.6747166  84.5970036
  96.3554573  18.5535966  84.2332283  97.7082860  17.8833244  84.3448925
 107.0998100  27.1300234 101.3668492 106.2124878  26.7926155 101.4894891
 107.6696651  26.3983265 101.6037257  88.7527247  23.4624325  94.6911543
  89.4398287  23.1486055  94.1032558  88.5975375  24.3665690  94.4178795
  93.5561969  18.3514522  99.1196567  93.4720158  17.7440191  98.3846977
  92.7344675  18.8423540  99.1206063 100.6299253  31.7901686  98.3329735
 100.5569425  32.5956657  98.8449040 100.1876646  31.9893652  97.5077756
 100.4189033  31.0273456  91.8432556  99.6356555  31.5695136  91.9370781
 101.1181778  31.5447436  92.2426798 103.7285683  16.8368085  94.4866762
 104.2254382  16.0838048  94.1667832 102.9572664  16.8732402  93.9209971
 111.5815440  22.5408451  96.1285053 111.5705316  23.4233166  95.7578986
 110.7132820  22.1880002  95.9339590 103.0897937  31.6888520 100.4887894
 103.8025909  32.3235985 100.4163795 102.5987965  31.7852386  99.6727895
 104.8115463  25.5939773  92.0605185 103.8771742  25.7141235  91.8909890
 104.9892132  24.6912239  91.7965195 100.3120652  18.9785468  94.2138446
  99.9418439  18.4256509  94.9019352 100.8079744  18.3743602  93.6613447
 108.1988015  21.4357092  92.5955219 108.6648467  22.2685083  92.5215522
 108.6495515  20.9702073  93.3000478  98.1409850  29.4382963 101.3093464
  98.8419310  30.0719446 101.4622859  97.6704965  29.7797695 100.5489104
 106.2664246  27.7800913  89.5941371 106.5424090  27.6657508  90.5035246
 105.3968745  27.3818398  89.5553545 106.1704678  13.8037679  96.6346121
 105.2567757  14.0341906  96.8028328 106.5997779  13.8876123  97.4860153
 105.9411136  21.9927571  99.1346015 105.2882586  22.2403478  98.4798468
 106.3191516  21.1791709  98.8008492 102.9018310  32.0287264  93.2374185
 103.0840704  31.2108920  93.7001937 103.7251296  32.2454956  92.7999075
 103.2360475  30.9555449  90.4989234 103.7648242  30.4447904  89.8859396
 103.4988695  30.6397979  91.3634767 101.9898709  22.7347382 105.6212052
 101.3139346  22.6341511 106.2914427 102.8126343  22.5786596 106.0848049
  93.7377568  28.9719318  98.2424567  94.3231005  28.2263006  98.3752471
  93.5402407  29.2823275  99.1261231  96.5916223  32.0070566  93.2587009
  95.9226599  32.4916693  92.7751050  96.4529093  32.2539786  94.1730388
  88.3295223  21.5424919  96.9629010  88.3679322  21.0088509  97.7566128
  87.8235516  21.0160124  96.3439987 100.7321492  34.0414309  99.8569668
 101.2839800  34.2045931 100.6218753 101.0727685  34.6318747  99.1849693
  95.7085985  16.3889459 100.4591553  95.7727312  17.2504290 100.0468950
  95.6453105  15.7763461  99.7263911  95.1838258  18.4612592 104.1064587
  95.8110297  18.0789669 104.7202111  94.3266177  18.2426794 104.4720279
 105.5832366  28.8675567 105.7118322 106.1272270  29.4805525 105.2173277
 105.0019211  29.4255145 106.2285335  91.9603800  20.2689021  90.0382942
  92.2557242  19.3599699  89.9849995  91.0591836  20.2476760  89.7163944
 103.8689879  31.9896285  96.8433350 103.7441019  31.1886025  96.3344296
 104.5268970  32.4842478  96.3547320  95.4898047  18.3445017  96.0210490
  94.7684633  18.9580985  95.8817964  96.2791303  18.8802782  95.9427136
 105.9324788  29.7905305  98.4712900 104.9855123  29.6710656  98.3991227
 106.2807561  28.9027803  98.5539162  98.2924361  15.6799444 102.2951142
  98.8158763  15.9261740 103.0577451  98.0736694  16.5119479 101.8754279
  93.6891642  17.9503118  90.1622267  93.3604348  17.0700497  89.9797373
  94.0431013  17.8950787  91.0498656 102.9371221  29.5858021  94.6717252
 102.7896183  28.6574729  94.8524822 103.7624714  29.6078112  94.1874328
  96.8033465  18.2376088  90.5297744  97.1429538  18.7662010  89.8076353
  97.2505586  18.5756494  91.3056311 106.5405343  30.4086580  95.7582125
 107.4651890  30.2029441  95.6206576 106.3720646  30.1602981  96.6671467
  99.4976906  16.6213139  99.9800813  99.1573726  15.8220952 100.3821492
  98.7915912  16.9214850  99.4077646 100.1493378  13.7062451  98.4328136
 100.9719447  13.2322930  98.3107026 100.3931441  14.4852935  98.9326822
  98.7901612  16.7350710  88.7291037  99.5109975  17.1131963  88.2254754
  98.1666916  17.4539587  88.8326015 102.9332735  17.4395859  89.6649370
 103.1496350  18.3220497  89.3638198 102.4526802  17.0482072  88.9355012
  97.6731957  20.3981572  96.2420114  97.5276537  20.7121875  97.1344396
  97.1957160  21.0166472  95.6891013  99.5328339  17.3884120  96.2901004
  99.5189908  16.4925213  95.9533302 100.2500768  17.3954784  96.9239290
 101.3854470  17.8221460  98.3354131 101.1272248  18.7438531  98.3338462
 100.8539511  17.4251895  99.0254595 106.3300659  30.9272247  91.1144217
 106.5037536  30.3618670  90.3618069 106.8229550  31.7273142  90.9323706
  92.1477619  22.9386916  99.1807775  91.6031087  23.7146724  99.3128050
  93.0256969  23.2857721  99.0226897  98.9365235  16.2698500  91.5588574
  99.0581147  15.3415146  91.7579461  98.6467278  16.2837186  90.6466889
 101.8056426  13.9553411  94.6955294 101.8278123  14.0192744  93.7407273
 102.2224485  13.1157919  94.8895800 112.1840050  23.6908670  92.7334516
 112.6271196  22.9415996  92.3353640 111.3066560  23.6818807  92.3508248
 107.3175831  30.2439012  88.2141115 108.0126736  30.8645704  88.4328429
 107.6598982  29.3934363  88.4893493  92.9343641  22.0656813 102.0737932
  92.1925377  22.2139448 102.6602563  92.6136385  22.3265078 101.2104682
 109.2167255  27.6938717  89.7428446 109.7418579  28.0325990  89.0177766
 109.1289607  26.7585733  89.5591580 100.8787303  31.6072791 101.8718322
 101.1874430  31.3621938 102.7441022 101.6762785  31.8119429 101.3837192
 100.9007915  33.7610701  94.1023699 100.4612906  33.2687079  94.7956555
 101.6516032  33.2183668  93.8615774  93.3800254  29.9522241  94.1048327
  94.2058274  29.6526013  93.7246970  93.0294306  29.1829864  94.5538116
  98.3481787  29.3048710  96.1746000  97.7261797  28.6419415  95.8748228
  99.0186654  29.3309842  95.4919648  91.5808859  27.8708568  95.0637260
  90.7440768  27.4430742  94.8821262  91.5532505  28.0641011  96.0008052
  98.4206315  17.7830498 105.7678506  98.4694470  18.6592620 105.3856276
  98.9628829  17.2407891 105.1950150 108.9061161  28.3271621 105.0479644
 108.1156704  28.3095760 104.5084143 108.6694515  28.8659915 105.8028680
 109.0259036  25.1764087 102.3612372 109.0757041  25.0114095 103.3027895
 108.9172959  24.3091346 101.9710253  97.9095294  27.8552633  89.6504461
  98.0583415  28.5388097  88.9971134  98.7161738  27.8357723  90.1653917
 106.3162798  21.1595015 103.6771679 107.2172661  21.0201480 103.3855677
 106.3910773  21.3249470 104.6169856 100.6505603  18.5361870 102.5224865
  99.7808913  18.8295436 102.2507454 100.8865084  19.1202315 103.2432129
 110.5277233  27.5961029 102.6054394 110.2362041  27.9591009 103.4417855
 109.9149364  26.8828037 102.4267726 111.7272915  25.1613909  95.1256964
 112.5619806  25.6003713  95.2894524 111.8632044  24.6852562  94.3065210
 108.7764421  22.7193643 101.0734452 109.2518542  22.9121290 100.2653303
 107.8529986  22.7752829 100.8277835  95.6647927  23.8817811  90.6565530
  95.4193969  22.9780141  90.8545740  95.8343842  23.8834961  89.7145008
 103.3544637  14.7541487 100.0390286 103.8726581  15.4902514  99.7136774
 102.9999770  15.0605480 100.8737045  94.9343575  19.6146168  88.1551691
  94.2412820  19.6890523  87.4991727  94.6895327  18.8506512  88.6773208
 103.6057231  11.1741770  95.5591182 103.8858985  10.5064959  96.1851609
 104.3907838  11.3670865  95.0465846 101.4090700  30.3500763  87.1216208
 100.8364667  30.9690951  86.6686680 101.9823494  30.9000125  87.6556130
 107.4766090  19.5959404  99.3062757 108.4283513  19.6957501  99.3274981
 107.3069540  18.8037672  99.8160842 105.4980469  16.6814987  99.4922158
 104.9030401  16.9619999  98.7968647 105.2130166  17.1708888 100.2638899
 104.6287960  30.6337914  88.2524791 105.5618633  30.5683475  88.4557666
 104.5411173  31.4694180  87.7939323 107.2575976  29.9503784  85.2128738
 107.1789608  29.6163648  86.1064496 108.0785643  30.4425552  85.2120211
 109.9554168  22.8165523  98.4205057 109.9230488  21.8781524  98.6064741
 110.5654791  22.8949560  97.6870882 101.7937498  21.6861576  84.4632261
 102.7396603  21.5567784  84.5320679 101.4151743  20.9476238  84.9401689
 110.1048656  19.6076567  98.4663340 109.5887705  18.8235023  98.2793269
 110.9888605  19.2795283  98.6309860 107.7659383  13.3517582  94.4259153
 107.5684204  13.0432670  95.3102485 108.3759089  14.0779221  94.5557083
 115.7730717  23.8781530  97.5611094 116.5034106  23.6166818  98.1218797
 115.1637663  23.1410252  97.6013162 113.8546015  22.0189393  98.1585545
 113.1279178  21.8845358  97.5502036 113.4393301  22.3266221  98.9642263
 101.6776191  25.7379322 105.9232918 102.5979200  25.9157921 106.1172964
 101.6425774  24.7935368 105.7712617  99.9780416  19.6111553  84.3987146
  99.0711871  19.3144665  84.4749860 100.2556397  19.3141371  83.5321432
  90.8958356  20.9317916  94.8486193  90.5761140  20.0783224  94.5560567
  90.3491784  21.1466494  95.6044160  94.6738263  23.6480357  98.5655699
  94.8924273  24.5797465  98.5843733  95.0864037  23.2888331  99.3510503
 101.5942481  14.1548442  90.5531387 100.7843210  13.8095527  90.9286634
 102.2826898  13.8455986  91.1418999 103.5233030  13.2326489  92.1755684
 104.0764068  13.6521943  92.8345707 103.7603116  12.3062237  92.2178640
  99.5466129  19.2213563 107.9558448  99.4462856  20.1707920 107.8870539
  99.3287671  18.8931802 107.0834518  98.7479200  16.4698488  84.5399125
  99.6098364  16.7953386  84.7994943  98.9329544  15.6829984  84.0272191
  90.7646616  24.5520827  96.8179314  90.0710087  24.1374780  96.3049269
  91.5119607  24.5941364  96.2212733 106.9011837  15.3427014  91.6834348
 106.3210506  16.0011818  91.3012401 106.6347769  14.5204359  91.2721766
 105.3515403  14.7432072  93.8855669 105.8515181  14.8548607  93.0769988
 105.9951011  14.4393125  94.5256477  99.4097399  22.6510702 106.7723510
  98.9264481  23.4511062 106.9787399  99.4958338  22.6618646 105.8190954
  92.6783358  24.4839081  94.6945329  92.6554047  24.5826769  93.7427212
  92.9883995  25.3304232  95.0162495  95.3370736  26.5415236  98.8091943
  96.2913990  26.5099179  98.7421875  95.1383260  26.0805860  99.6242169
  95.9270118  25.1116352 101.3762741  96.7463007  25.6060431 101.3997578
  96.2006926  24.1948320 101.3480309 105.6836715  17.5027105  90.7390697
 104.7962570  17.7876755  90.5210891 106.0990704  17.3420868  89.8917973
 109.0351251  17.5273626  94.4545036 109.8111641  18.0170078  94.7269653
 108.3099385  17.9531680  94.9116905 111.4723809  18.2401245  95.5118976
 112.0668300  17.9996981  94.8012285 111.5450393  17.5208375  96.1392513
  93.6920965  32.0834856  95.8262141  93.5575433  31.3235257  95.2600139
  93.2753027  32.8075756  95.3590930 104.8279928  27.2671779  84.8338717
 105.5315778  27.4721782  85.4496372 104.1042577  27.8348541  85.0987800
 105.6577738  23.0181641  90.9540987 105.6012940  23.4750192  90.1148619
 106.2106081  22.2572325  90.7763830 109.4682544  18.8071372  91.7791106
 109.2119479  18.4068008  92.6099314 108.8435412  19.5215166  91.6541245
 113.7794882  21.5467446  94.2862398 113.2194440  21.6160635  95.0593960
 113.1738386  21.3708430  93.5661894  96.8490091  32.9804173  96.0380584
  96.7322475  33.9249605  95.9359274  96.0282537  32.6777734  96.4266383
 106.7366626  27.7054309  86.8837177 107.5712229  27.2735507  86.7014651
 106.5750968  27.5336322  87.8114071 106.3912518  24.2086422  88.2493516
 106.3361322  24.0430693  87.3081960 105.7658573  24.9162455  88.4055706
  91.1805033  19.4454486 102.0754938  91.8263896  18.9353440 102.5642163
  90.9722184  20.1823168 102.6498363 103.7058425  26.5135334 107.5747079
 104.5749585  26.6875986 107.2133714 103.2265176  27.3329751 107.4522808
  99.7008643  13.7094531  87.8278834  99.6887313  14.6536371  87.9847105
 100.5932065  13.5264676  87.5338296  97.8744605  33.6332435  99.2536512
  98.7771852  33.6656045  99.5703007  97.6481975  32.7032886  99.2682848
  99.6298207  32.3863421  95.9146591  98.6793838  32.3865283  95.8010963
  99.9330693  31.6396156  95.3982626 103.5160763  10.3037307  92.0824771
 102.7493158   9.7495794  92.2281453 103.9271468  10.3759176  92.9438923
  95.5202524  16.5922103 106.1729952  96.3833985  16.2358908 106.3833277
  94.9467934  16.2535998 106.8605357 115.3650901  38.2223960  96.9792353
 116.0029311  38.1030707  96.2755693 115.2471744  39.1704804  97.0380306
 112.1740607  38.1751388  96.9153878 111.8359118  38.0592452  96.0274413
 113.0430375  37.7742553  96.8954884 108.0327423  40.0286864  92.9050769
 107.4692288  39.9376801  92.1367057 107.9179818  39.2086769  93.3853262
 112.6560390  39.3286239 102.8740084 112.6449031  38.9339038 102.0020587
 112.8181029  38.5952312 103.4673855 105.5791855  41.5238056  95.7434989
 106.3713146  41.1828880  95.3281289 105.8188505  41.6333031  96.6637143
 113.6126981  43.6957832  88.2165234 112.9614961  44.2811912  87.8299248
 114.4071344  44.2264027  88.2760271 107.5382608  40.7846969  88.6152368
 108.3113484  40.2375956  88.4765244 107.8908007  41.6491218  88.8266830
 109.3767651  42.1123351 101.8219268 109.0857517  43.0168982 101.7065934
 110.0124635  42.1539879 102.5363337 110.3023858  39.4900200  98.4120627
 110.8987430  39.2656222  97.6977590 110.3598829  38.7484945  99.0146075
 109.8748886  36.9439635  86.2470818 110.1274407  36.4221156  85.4854281
 108.9373445  36.7805781  86.3497502 114.9192169  35.9475413  94.0545561
 115.7055258  35.5294837  93.7035978 115.1830873  36.8521506  94.2227210
 115.0902246  41.3848264  88.7534218 114.4548079  41.4582890  89.4655123
 114.7599653  41.9741863  88.0753297 120.3200596  35.8850647  94.9578540
 121.0525768  35.3149863  95.1916369 119.5639952  35.4972247  95.3985046
 109.5945175  38.8467741  88.4495193 109.4781433  38.1712644  89.1176277
 109.7047435  38.3600115  87.6327346 111.9376716  38.3077888  92.1541882
 111.5734923  37.7808509  92.8654804 112.7943832  37.9176357  91.9808368
 117.8426017  29.5972221  99.4173149 117.5109341  30.4667632  99.1934364
 117.2471630  29.2808505 100.0967179 111.5782203  33.3367788  87.1503231
 111.7456605  34.2048024  87.5173702 111.3879372  33.4995070  86.2264520
 114.3357536  41.7984767  98.8169061 114.0358259  42.7009806  98.7084868
 113.9908596  41.5316950  99.6690214 107.7870018  38.2498564  94.8505766
 106.8620514  38.1174778  95.0583457 108.0354431  39.0292783  95.3475708
 117.7354680  34.3167307  96.4966499 116.8271557  34.2482715  96.2025260
 117.6842276  34.7939252  97.3248324 111.5571424  35.7925445  88.1349898
 111.4371049  36.2382496  88.9735378 110.8624012  36.1410763  87.5763436
 105.1478829  37.8931837  95.6849555 105.2771210  38.1466316  96.5988966
 104.4676280  38.4859545  95.3654210 109.3178316  48.5629087  91.7840029
 109.2402346  49.5136912  91.8628510 108.7139960  48.2174960  92.4414955
 111.8095546  35.7356953 104.4401396 111.0328880  36.2950873 104.4304261
 112.4486109  36.2213736 104.9616266 119.6016326  32.5183745  98.2744373
 118.9590707  32.8116279  97.6284167 119.0971255  32.4036666  99.0797569
 117.2556490  36.2646919  88.9630232 118.1674346  36.4974305  88.7877929
 116.7466137  36.8483963  88.4005310 110.0641918  38.5442406 104.0019363
 110.8056602  39.0827450 103.7254186 109.3578903  39.1708695 104.1590915
 115.5397258  40.6871546 102.5991524 115.9480614  40.2453957 101.8546157
 114.8174519  40.1124174 102.8525717 111.8928328  35.6244153  99.9725081
 112.7389523  36.0483567 100.1159730 111.8326965  34.9677777 100.6663644
 115.8626072  41.2472737  96.3543813 115.2334935  41.4118451  95.6519881
 115.4751734  41.6614347  97.1254777 119.7415304  42.1827175  93.7088177
 119.0566342  42.5626076  93.1585210 119.8259154  42.7922502  94.4420125
 115.0427773  33.2848522 101.6306255 114.7988705  34.0390582 101.0940531
 115.3187704  33.6633869 102.4653502 116.9966236  39.8287134 100.3083521
 117.2083131  40.4718894  99.6317902 116.9495984  38.9949450  99.8405451
 114.5992465  32.4404955  97.2120093 113.7376944  32.7386208  97.5036830
 114.6254899  32.6575353  96.2801125 111.4154034  40.9847145  93.6193898
 111.8792380  41.2634848  92.8298521 111.1510832  40.0830590  93.4366989
 108.3078115  40.5318627  96.5573662 108.8779472  40.9605895  95.9191146
 108.8986227  40.2501211  97.2557847 110.3522920  37.1070297  90.4283463
 111.0546964  37.5591341  90.8957390 110.0203549  36.4654116  91.0563357
 108.8003282  35.6982054 104.8034673 108.1701942  36.3798335 105.0370070
 108.6939370  35.5865136 103.8587811 104.0948254  35.3653850  95.7300597
 103.3047308  35.6211379  95.2540708 104.5859502  36.1802188  95.8352638
 118.1112064  42.7059089  98.4805878 118.9329507  42.3039277  98.1988559
 118.1074467  42.6027323  99.4321994 106.0463000  35.7298429  92.6884074
 105.2494163  35.8417124  93.2067569 105.8188592  36.0685082  91.8224964
 111.8768667  42.2543133 100.6366588 111.9413100  42.7163540 101.4724760
 111.1679591  41.6240498 100.7648898 102.3785957  35.6184341  98.1615588
 102.6293996  36.5031350  98.4273164 102.9145506  35.4388942  97.3890680
 126.2018057  39.0497838  94.8290849 125.4481765  38.4805236  94.6734854
 126.3365598  39.0160502  95.7761484 111.5916685  43.9211240  90.5045569
 111.4562360  44.7662776  90.9330417 112.1326497  44.1230518  89.7411502
 108.0784024  30.0002820 107.1659924 107.6850970  29.4469018 107.8407568
 108.8950165  30.3113398 107.5566441 105.0446082  41.4386678  91.0773494
 105.5570603  42.2329928  91.2279058 105.6968795  40.7412969  91.0107095
 106.8540967  44.5552434  93.1596247 107.0307595  45.4770399  92.9717231
 107.6497800  44.2410854  93.5890627 110.9951985  31.4160699 104.7580180
 111.7361699  32.0167852 104.6784643 111.2269908  30.6738337 104.1998223
 106.1393323  36.6017066 103.0358410 106.0246839  35.7002324 103.3365509
 105.2837841  36.8480763 102.6843227 113.2185161  44.5434807 104.6345911
 112.7749015  43.7571185 104.3166815 113.8802375  44.7313957 103.9689802
 107.9772282  46.0730608  99.1606589 108.5279708  45.9447672  98.3883583
 107.1383758  46.3725497  98.8101482 115.3166399  44.8237607 102.6627312
 115.2984875  45.6446488 102.1707581 116.2386319  44.6991682 102.8877453
 111.7739453  42.3381736 103.5050820 112.3067790  41.5770024 103.2750128
 111.2453535  42.0455388 104.2474975 114.9409148  27.4441802  99.0344462
 114.5973418  28.3343444  98.9583573 115.3088111  27.2543460  98.1714047
 103.0094999  39.7675332  91.8533064 103.8470221  40.1772341  91.6366772
 103.1873267  38.8274775  91.8233258 114.9059431  37.4350413  87.5416897
 114.3906055  38.2055018  87.7805285 114.6336740  36.7615549  88.1649959
 112.4906542  32.2800114  92.6002136 111.6348139  31.8906964  92.4207774
 112.9033494  32.3592075  91.7401921 114.0205689  29.8146457  96.9993695
 113.5170484  29.7776592  96.1861501 114.3136296  30.7239200  97.0590352
 110.2648575  29.8985187  96.0059877 111.1301571  29.7027996  95.6465767
 110.3326084  29.6695539  96.9329234 119.8793705  40.1882768  89.4770071
 119.1023148  39.8493927  89.0325233 120.5585186  40.1935391  88.8025036
 114.6945734  35.3077505  89.3676678 114.3895870  35.6223654  90.2186822
 115.6476176  35.3858925  89.4104011 113.1392166  41.4667728  91.0169632
 112.6113528  40.7320488  90.7042870 112.6379669  42.2442405  90.7709601
 118.1185012  39.6616749  96.1336679 117.4608687  40.3516010  96.2216807
 118.9225411  40.0513181  96.4770665 107.8710894  32.1287395  93.3776244
 108.4454646  31.9062576  92.6449437 108.4581876  32.1976089  94.1304845
 116.9290471  38.0161122  94.1840620 117.4422353  38.6491114  94.6862330
 117.5791695  37.4162317  93.8183980 108.1980481  34.1591856  87.3972129
 107.3617793  34.4966542  87.7181404 108.0585251  34.0240836  86.4599266
 110.1733561  29.0028644  92.1051313 109.5197974  28.6877661  91.4807928
 110.1314036  28.3804384  92.8311136 111.2844766  39.2847939  84.0204605
 110.3771828  39.0537192  84.2195754 111.7815798  38.4885558  84.2078587
 114.1912845  47.9945446  86.9401292 113.5174544  48.2977143  87.5486249
 114.5778667  48.7974526  86.5906749 113.4071302  35.4910577  96.4298961
 112.4893863  35.7125524  96.2720649 113.8231445  35.5656888  95.5710668
 114.1906350  36.8901993  91.5601641 114.9378169  37.4023390  91.2508763
 114.4597939  36.5686046  92.4206035 112.4633000  39.3860534  88.5428596
 111.5544219  39.1019566  88.6401065 112.4928084  39.8059612  87.6831902
 117.6952267  42.9967123  92.3119763 117.2414594  42.1558033  92.3684954
 117.0646234  43.6328521  92.6494543 116.6385187  33.9259109  93.5420431
 115.9007944  33.4136495  93.8730673 116.8911960  33.4859491  92.7303707
 116.1385206  44.8343620  93.2469581 116.4308181  45.3948677  92.5281947
 116.6483827  45.1272181  94.0022740 116.7396814  26.7035361  94.1362200
 117.0455691  25.8432725  93.8488115 117.4649419  27.2952981  93.9361194
 103.0321170  37.1066048  92.5243798 102.8345570  36.5135408  91.7994864
 102.4767834  36.8018258  93.2419737 111.0117894  36.9989154  94.6438391
 111.0666504  36.0462991  94.5680867 110.2009096  37.1548593  95.1279689
 112.1609088  40.9269277  85.8816674 111.7228518  40.2105136  85.4222311
 112.9019528  41.1545392  85.3201766 108.9510254  35.6166214  92.4028770
 108.1378119  35.9160385  92.8093962 109.4469248  35.2221903  93.1203252
 111.1018832  45.6123971  94.3363034 111.0595010  45.8384817  93.4071566
 112.0181530  45.3787345  94.4848836 114.5484465  36.0808038 101.2343664
 114.9033853  36.3079512 102.0938129 115.1956597  36.4126415 100.6120919
 120.2782202  39.2026474  91.9392993 120.1400101  39.3928070  91.0114182
 119.9218421  39.9645857  92.3961044 108.4424328  33.1884569  98.0190005
 109.0823708  33.0473329  97.3212968 107.6101859  32.9019083  97.6428607
 120.3051582  41.2703001  96.9504264 120.7388089  41.1778290  97.7987318
 121.0183163  41.2460502  96.3124280 109.2184632  42.4887000  94.1324997
 110.0125231  41.9937320  93.9307572 108.5076325  41.9604863  93.7692703
 114.0379477  44.8705095  98.4837365 114.0916499  45.4396032  99.2515081
 113.1694258  45.0406980  98.1191402 105.5267396  36.6330082  90.2084750
 104.5964984  36.5714537  90.4254712 105.6224868  36.1106034  89.4121391
 105.4452945  33.1584894  92.7962992 105.7059762  34.0730228  92.6872152
 106.2670117  32.6909337  92.9459604 106.9177870  34.5722652  99.9661816
 107.5900924  34.3640014  99.3174465 106.0907657  34.3744738  99.5267048
 121.1667132  41.3126702  99.4837150 121.3603022  42.2172512  99.7296425
 121.0667750  40.8534121 100.3175735 112.8203442  31.1984593 101.9827477
 112.1731357  31.8974542 101.8891953 113.5904458  31.6320736 102.3503725
 116.2282240  41.4633445 105.0578030 116.0767747  41.2343996 104.1408114
 116.2186920  42.4204046 105.0709375 112.9967577  39.0365357 100.0424297
 113.9259637  39.1876517  99.8693264 112.5758607  39.1249378  99.1872943
 111.7955908  43.0616022  97.8122834 111.6566994  42.6934806  98.6848772
 111.0070505  43.5763661  97.6406792 112.3904060  48.1625118  89.1548371
 112.5655816  47.6913162  89.9693993 111.7036848  48.7890885  89.3829632
 113.3461124  42.4397625  95.2011672 113.0110956  42.3998395  96.0969322
 112.8465069  41.7742341  94.7282082 107.3205368  37.8465255 100.7264253
 107.1825165  37.1145493 101.3275792 108.2310291  37.7574155 100.4448441
 116.2820315  39.7853659  85.4748732 115.6649486  39.0600487  85.3781784
 115.8136804  40.5463019  85.1315806 109.9487668  37.5585214 100.2147933
 110.6587287  36.9178406 100.1734551 109.9056976  37.8098109 101.1374114
 117.9374447  44.4952567 103.1354512 117.8786993  43.8111787 102.4685095
 118.3393965  45.2371557 102.6835138 108.6616602  34.5450432 102.0343572
 108.1253959  34.0941170 102.6865169 108.0733311  34.6796341 101.2914037
 106.9565146  51.3114481  95.9288231 107.1961744  51.9433005  96.6067250
 106.1134342  50.9602521  96.2153590 108.0718861  34.0039083  84.5970036
 107.1948327  33.8827884  84.2332283 108.5476614  33.2125162  84.3448925
 117.9391854  42.4592151 101.3668492 117.0518633  42.1218073 101.4894891
 118.5090405  41.7275182 101.6037257  99.5921001  38.7916243  94.6911543
 100.2792041  38.4777973  94.1032558  99.4369130  39.6957608  94.4178795
 104.3955723  33.6806440  99.1196567 104.3113912  33.0732109  98.3846977
 103.5738430  34.1715458  99.1206063 111.4693008  47.1193604  98.3329735
 111.3963179  47.9248575  98.8449040 111.0270401  47.3185569  97.5077756
 111.2582787  46.3565374  91.8432556 110.4750309  46.8987054  91.9370781
 111.9575532  46.8739353  92.2426798 114.5679437  32.1660003  94.4866762
 115.0648137  31.4129965  94.1667832 113.7966419  32.2024320  93.9209971
 122.4209195  37.8700369  96.1285053 122.4099071  38.7525084  95.7578986
 121.5526574  37.5171919  95.9339590 113.9291691  47.0180438 100.4887894
 114.6419663  47.6527902 100.4163795 113.4381720  47.1144304  99.6727895
 115.6509218  40.9231690  92.0605185 114.7165497  41.0433153  91.8909890
 115.8285886  40.0204157  91.7965195 111.1514406  34.3077386  94.2138446
 110.7812194  33.7548426  94.9019352 111.6473498  33.7035520  93.6613447
 119.0381769  36.7649010  92.5955219 119.5042221  37.5977001  92.5215522
 119.4889270  36.2993991  93.3000478 108.9803605  44.7674881 101.3093464
 109.6813064  45.4011364 101.4622859 108.5098720  45.1089613 100.5489104
 117.1058000  43.1092831  89.5941371 117.3817844  42.9949425  90.5035246
 116.2362499  42.7110316  89.5553545 117.0098432  29.1329597  96.6346121
 116.0961512  29.3633823  96.8028328 117.4391534  29.2168041  97.4860153
 116.7804891  37.3219489  99.1346015 116.1276341  37.5695396  98.4798468
 117.1585270  36.5083627  98.8008492 113.7412064  47.3579182  93.2374185
 113.9234459  46.5400838  93.7001937 114.5645050  47.5746874  92.7999075
 114.0754230  46.2847367  90.4989234 114.6041996  45.7739821  89.8859396
 114.3382449  45.9689897  91.3634767 112.8292464  38.0639300 105.6212052
 112.1533101  37.9633429 106.2914427 113.6520097  37.9078513 106.0848049
 104.5771323  44.3011236  98.2424567 105.1624759  43.5554924  98.3752471
 104.3796161  44.6115193  99.1261231 107.4309978  47.3362484  93.2587009
 106.7620353  47.8208611  92.7751050 107.2922848  47.5831704  94.1730388
  99.1688977  36.8716836  96.9629010  99.2073077  36.3380427  97.7566128
  98.6629270  36.3452042  96.3439987 111.5715246  49.3706227  99.8569668
 112.1233554  49.5337849 100.6218753 111.9121440  49.9610665  99.1849693
 106.5479740  31.7181377 100.4591553 106.6121066  32.5796208 100.0468950
 106.4846860  31.1055378  99.7263911 106.0232012  33.7904509 104.1064587
 106.6504051  33.4081587 104.7202111 105.1659931  33.5718711 104.4720279
 116.4226121  44.1967485 105.7118322 116.9666025  44.8097443 105.2173277
 115.8412966  44.7547063 106.2285335 102.7997555  35.5980938  90.0382942
 103.0950996  34.6891617  89.9849995 101.8985591  35.5768678  89.7163944
 114.7083634  47.3188203  96.8433350 114.5834773  46.5177942  96.3344296
 115.3662725  47.8134396  96.3547320 106.3291802  33.6736935  96.0210490
 105.6078388  34.2872903  95.8817964 107.1185058  34.2094700  95.9427136
 116.7718542  45.1197223  98.4712900 115.8248878  45.0002574  98.3991227
 117.1201315  44.2319721  98.5539162 109.1318115  31.0091362 102.2951142
 109.6552517  31.2553658 103.0577451 108.9130449  31.8411396 101.8754279
 104.5285397  33.2795036  90.1622267 104.1998103  32.3992415  89.9797373
 104.8824767  33.2242705  91.0498656 113.7764975  44.9149939  94.6717252
 113.6289938  43.9866646  94.8524822 114.6018469  44.9370030  94.1874328
 107.6427220  33.5668006  90.5297744 107.9823292  34.0953927  89.8076353
 108.0899340  33.9048412  91.3056311 117.3799097  45.7378498  95.7582125
 118.3045645  45.5321359  95.6206576 117.2114401  45.4894899  96.6671467
 110.3370661  31.9505057  99.9800813 109.9967481  31.1512870 100.3821492
 109.6309667  32.2506768  99.4077646 110.9887132  29.0354369  98.4328136
 111.8113202  28.5614847  98.3107026 111.2325196  29.8144853  98.9326822
 109.6295367  32.0642628  88.7291037 110.3503729  32.4423880  88.2254754
 109.0060671  32.7831504  88.8326015 113.7726490  32.7687777  89.6649370
 113.9890104  33.6512414  89.3638198 113.2920557  32.3773990  88.9355012
 108.5125711  35.7273490  96.2420114 108.3670292  36.0413793  97.1344396
 108.0350915  36.3458390  95.6891013 110.3722094  32.7176038  96.2901004
 110.3583663  31.8217131  95.9533302 111.0894522  32.7246701  96.9239290
 112.2248225  33.1513378  98.3354131 111.9666003  34.0730449  98.3338462
 111.6933265  32.7543812  99.0254595 117.1694413  46.2564165  91.1144217
 117.3431291  45.6910588  90.3618069 117.6623305  47.0565060  90.9323706
 102.9871373  38.2678834  99.1807775 102.4424841  39.0438642  99.3128050
 103.8650723  38.6149639  99.0226897 109.7758990  31.5990418  91.5588574
 109.8974901  30.6707064  91.7579461 109.4861032  31.6129104  90.6466889
 112.6450180  29.2845328  94.6955294 112.6671877  29.3484662  93.7407273
 113.0618239  28.4449837  94.8895800 123.0233805  39.0200588  92.7334516
 123.4664951  38.2707913  92.3353640 122.1460315  39.0110724  92.3508248
 118.1569586  45.5730929  88.2141115 118.8520491  46.1937622  88.4328429
 118.4992736  44.7226281  88.4893493 103.7737395  37.3948730 102.0737932
 103.0319131  37.5431366 102.6602563 103.4530139  37.6556996 101.2104682
 120.0561009  43.0230635  89.7428446 120.5812333  43.3617908  89.0177766
 119.9683362  42.0877650  89.5591580 111.7181058  46.9364709 101.8718322
 112.0268184  46.6913855 102.7441022 112.5156540  47.1411347 101.3837192
 111.7401670  49.0902618  94.1023699 111.3006660  48.5978997  94.7956555
 112.4909787  48.5475586  93.8615774 104.2194009  45.2814159  94.1048327
 105.0452029  44.9817931  93.7246970 103.8688061  44.5121782  94.5538116
 109.1875542  44.6340627  96.1746000 108.5655551  43.9711332  95.8748228
 109.8580409  44.6601759  95.4919648 102.4202614  43.2000486  95.0637260
 101.5834522  42.7722660  94.8821262 102.3926259  43.3932929  96.0008052
 109.2600069  33.1122415 105.7678506 109.3088225  33.9884538 105.3856276
 109.8022584  32.5699808 105.1950150 119.7454915  43.6563539 105.0479644
 118.9550459  43.6387677 104.5084143 119.5088270  44.1951832 105.8028680
 119.8652790  40.5056005 102.3612372 119.9150795  40.3406012 103.3027895
 119.7566714  39.6383264 101.9710253 108.7489049  43.1844551  89.6504461
 108.8977169  43.8680015  88.9971134 109.5555492  43.1649641  90.1653917
 117.1556553  36.4886933 103.6771679 118.0566415  36.3493398 103.3855677
 117.2304527  36.6541388 104.6169856 111.4899358  33.8653788 102.5224865
 110.6202667  34.1587354 102.2507454 111.7258838  34.4494233 103.2432129
 121.3670987  42.9252946 102.6054394 121.0755795  43.2882927 103.4417855
 120.7543118  42.2119955 102.4267726 122.5666669  40.4905826  95.1256964
 123.4013561  40.9295630  95.2894524 122.7025798  40.0144479  94.3065210
 119.6158175  38.0485561 101.0734452 120.0912297  38.2413207 100.2653303
 118.6923741  38.1044747 100.8277835 106.5041682  39.2109728  90.6565530
 106.2587724  38.3072058  90.8545740 106.6737596  39.2126879  89.7145008
 114.1938392  30.0833405 100.0390286 114.7120336  30.8194432  99.7136774
 113.8393525  30.3897398 100.8737045 105.7737329  34.9438086  88.1551691
 105.0806574  35.0182441  87.4991727 105.5289081  34.1798430  88.6773208
 114.4450986  26.5033687  95.5591182 114.7252740  25.8356876  96.1851609
 115.2301593  26.6962783  95.0465846 112.2484454  45.6792681  87.1216208
 111.6758421  46.2982868  86.6686680 112.8217248  46.2292043  87.6556130
 118.3159844  34.9251321  99.3062757 119.2677267  35.0249419  99.3274981
 118.1463295  34.1329590  99.8160842 116.3374224  32.0106904  99.4922158
 115.7424156  32.2911917  98.7968647 116.0523920  32.5000805 100.2638899
 115.4681714  45.9629831  88.2524791 116.4012387  45.8975393  88.4557666
 115.3804927  46.7986098  87.7939323 118.0969731  45.2795702  85.2128738
 118.0183362  44.9455565  86.1064496 118.9179398  45.7717470  85.2120211
 120.7947922  38.1457441  98.4205057 120.7624242  37.2073442  98.6064741
 121.4048546  38.2241478  97.6870882 112.6331253  37.0153494  84.4632261
 113.5790358  36.8859702  84.5320679 112.2545498  36.2768156  84.9401689
 120.9442411  34.9368484  98.4663340 120.4281459  34.1526941  98.2793269
 121.8282359  34.6087201  98.6309860 118.6053137  28.6809500  94.4259153
 118.4077959  28.3724588  95.3102485 119.2152843  29.4071139  94.5557083
 126.6124472  39.2073448  97.5611094 127.3427860  38.9458736  98.1218797
 126.0031417  38.4702170  97.6013162 124.6939769  37.3481310  98.1585545
 123.9672933  37.2137275  97.5502036 124.2787056  37.6558139  98.9642263
 112.5169945  41.0671240 105.9232918 113.4372955  41.2449839 106.1172964
 112.4819528  40.1227285 105.7712617 110.8174170  34.9403470  84.3987146
 109.9105625  34.6436583  84.4749860 111.0950151  34.6433288  83.5321432
 101.7352110  36.2609834  94.8486193 101.4154895  35.4075142  94.5560567
 101.1885539  36.4758412  95.6044160 105.5132018  38.9772275  98.5655699
 105.7318028  39.9089382  98.5843733 105.9257792  38.6180249  99.3510503
 112.4336236  29.4840360  90.5531387 111.6236964  29.1387445  90.9286634
 113.1220653  29.1747904  91.1418999 114.3626784  28.5618407  92.1755684
 114.9157823  28.9813860  92.8345707 114.5996870  27.6354155  92.2178640
 110.3859883  34.5505480 107.9558448 110.2856610  35.4999837 107.8870539
 110.1681425  34.2223719 107.0834518 109.5872955  31.7990405  84.5399125
 110.4492119  32.1245304  84.7994943 109.7723299  31.0121901  84.0272191
 101.6040370  39.8812745  96.8179314 100.9103842  39.4666698  96.3049269
 102.3513361  39.9233282  96.2212733 117.7405591  30.6718932  91.6834348
 117.1604260  31.3303736  91.3012401 117.4741524  29.8496277  91.2721766
 116.1909158  30.0723990  93.8855669 116.6908936  30.1840524  93.0769988
 116.8344765  29.7685042  94.5256477 110.2491153  37.9802619 106.7723510
 109.7658235  38.7802979 106.9787399 110.3352092  37.9910564 105.8190954
 103.5177113  39.8130999  94.6945329 103.4947801  39.9118686  93.7427212
 103.8277749  40.6596150  95.0162495 106.1764491  41.8707154  98.8091943
 107.1307744  41.8391096  98.7421875 105.9777014  41.4097778  99.6242169
 106.7663873  40.4408270 101.3762741 107.5856762  40.9352349 101.3997578
 107.0400681  39.5240238 101.3480309 116.5230469  32.8319022  90.7390697
 115.6356324  33.1168673  90.5210891 116.9384458  32.6712786  89.8917973
 119.8745005  32.8565543  94.4545036 120.6505395  33.3461996  94.7269653
 119.1493139  33.2823598  94.9116905 122.3117564  33.5693163  95.5118976
 122.9062055  33.3288898  94.8012285 122.3844148  32.8500293  96.1392513
 104.5314720  47.4126773  95.8262141 104.3969188  46.6527174  95.2600139
 104.1146782  48.1367673  95.3590930 115.6673683  42.5963697  84.8338717
 116.3709533  42.8013699  85.4496372 114.9436331  43.1640459  85.0987800
 116.4971493  38.3473558  90.9540987 116.4406694  38.8042110  90.1148619
 117.0499835  37.5864243  90.7763830 120.3076299  34.1363290  91.7791106
 120.0513233  33.7359926  92.6099314 119.6829167  34.8507084  91.6541245
 124.6188637  36.8759363  94.2862398 124.0588195  36.9452553  95.0593960
 124.0132140  36.7000348  93.5661894 107.6883845  48.3096090  96.0380584
 107.5716230  49.2541523  95.9359274 106.8676292  48.0069652  96.4266383
 117.5760380  43.0346226  86.8837177 118.4105984  42.6027425  86.7014651
 117.4144723  42.8628240  87.8114071 117.2306272  39.5378340  88.2493516
 117.1755076  39.3722611  87.3081960 116.6052327  40.2454372  88.4055706
 102.0198787  34.7746404 102.0754938 102.6657651  34.2645358 102.5642163
 101.8115938  35.5115086 102.6498363 114.5452179  41.8427251 107.5747079
 115.4143339  42.0167904 107.2133714 114.0658931  42.6621668 107.4522808
 110.5402398  29.0386449  87.8278834 110.5281068  29.9828288  87.9847105
 111.4325820  28.8556594  87.5338296 108.7138360  48.9624352  99.2536512
 109.6165606  48.9947963  99.5703007 108.4875730  48.0324803  99.2682848
 110.4691962  47.7155339  95.9146591 109.5187593  47.7157201  95.8010963
 110.7724448  46.9688073  95.3982626 114.3554517  25.6329225  92.0824771
 113.5886913  25.0787712  92.2281453 114.7665222  25.7051094  92.9438923
 106.3596278  31.9214021 106.1729952 107.2227740  31.5650826 106.3833277
 105.7861689  31.5827916 106.8605357 126.2044655  53.5515877  96.9792353
 126.8423065  53.4322625  96.2755693 126.0865498  54.4996721  97.0380306
 123.0134361  53.5043305  96.9153878 122.6752873  53.3884370  96.0274413
 123.8824130  53.1034471  96.8954884 118.8721177  55.3578782  92.9050769
 118.3086042  55.2668719  92.1367057 118.7573572  54.5378686  93.3853262
 123.4954144  54.6578157 102.8740084 123.4842785  54.2630955 102.0020587
 123.6574784  53.9244230 103.4673855 116.4185609  56.8529973  95.7434989
 117.2106901  56.5120798  95.3281289 116.6582259  56.9624948  96.6637143
 124.4520736  59.0249750  88.2165234 123.8008716  59.6103830  87.8299248
 125.2465099  59.5555944  88.2760271 118.3776363  56.1138887  88.6152368
 119.1507239  55.5667874  88.4765244 118.7301762  56.9783136  88.8266830
 120.2161406  57.4415269 101.8219268 119.9251272  58.3460900 101.7065934
 120.8518390  57.4831797 102.5363337 121.1417612  54.8192117  98.4120627
 121.7381185  54.5948140  97.6977590 121.1992584  54.0776863  99.0146075
 120.7142641  52.2731553  86.2470818 120.9668161  51.7513074  85.4854281
 119.7767200  52.1097698  86.3497502 125.7585924  51.2767331  94.0545561
 126.5449013  50.8586754  93.7035978 126.0224628  52.1813423  94.2227210
 125.9296001  56.7140181  88.7534218 125.2941834  56.7874808  89.4655123
 125.5993407  57.3033780  88.0753297 131.1594351  51.2142564  94.9578540
 131.8919523  50.6441781  95.1916369 130.4033706  50.8264165  95.3985046
 120.4338930  54.1759659  88.4495193 120.3175188  53.5004562  89.1176277
 120.5441189  53.6892033  87.6327346 122.7770470  53.6369806  92.1541882
 122.4128678  53.1100427  92.8654804 123.6337586  53.2468275  91.9808368
 128.6819771  44.9264138  99.4173149 128.3503096  45.7959549  99.1934364
 128.0865384  44.6100422 100.0967179 122.4175957  48.6659706  87.1503231
 122.5850360  49.5339942  87.5173702 122.2273127  48.8286987  86.2264520
 125.1751291  57.1276684  98.8169061 124.8752014  58.0301723  98.7084868
 124.8302350  56.8608868  99.6690214 118.6263772  53.5790481  94.8505766
 117.7014269  53.4466695  95.0583457 118.8748185  54.3584701  95.3475708
 128.5748434  49.6459225  96.4966499 127.6665312  49.5774633  96.2025260
 128.5236030  50.1231170  97.3248324 122.3965178  51.1217363  88.1349898
 122.2764804  51.5674414  88.9735378 121.7017767  51.4702681  87.5763436
 115.9872583  53.2223755  95.6849555 116.1164964  53.4758234  96.5988966
 115.3070034  53.8151463  95.3654210 120.1572070  63.8921005  91.7840029
 120.0796100  64.8428830  91.8628510 119.5533714  63.5466877  92.4414955
 122.6489300  51.0648870 104.4401396 121.8722634  51.6242790 104.4304261
 123.2879863  51.5505653 104.9616266 130.4410081  47.8475663  98.2744373
 129.7984461  48.1408196  97.6284167 129.9365009  47.7328583  99.0797569
 128.0950244  51.5938836  88.9630232 129.0068101  51.8266223  88.7877929
 127.5859892  52.1775880  88.4005310 120.9035673  53.8734324 104.0019363
 121.6450357  54.4119368 103.7254186 120.1972658  54.5000612 104.1590915
 126.3791012  56.0163464 102.5991524 126.7874368  55.5745875 101.8546157
 125.6568274  55.4416092 102.8525717 122.7322082  50.9536071  99.9725081
 123.5783277  51.3775484 100.1159730 122.6720720  50.2969695 100.6663644
 126.7019827  56.5764655  96.3543813 126.0728689  56.7410369  95.6519881
 126.3145489  56.9906264  97.1254777 130.5809059  57.5119093  93.7088177
 129.8960097  57.8917994  93.1585210 130.6652908  58.1214419  94.4420125
 125.8821528  48.6140439 101.6306255 125.6382459  49.3682500 101.0940531
 126.1581458  48.9925787 102.4653502 127.8359990  55.1579052 100.3083521
 128.0476886  55.8010811  99.6317902 127.7889739  54.3241368  99.8405451
 125.4386219  47.7696872  97.2120093 124.5770698  48.0678126  97.5036830
 125.4648654  47.9867271  96.2801125 122.2547789  56.3139063  93.6193898
 122.7186134  56.5926766  92.8298521 121.9904587  55.4122507  93.4366989
 119.1471870  55.8610544  96.5573662 119.7173227  56.2897813  95.9191146
 119.7379982  55.5793129  97.2557847 121.1916675  52.4362215  90.4283463
 121.8940718  52.8883259  90.8957390 120.8597303  51.7946034  91.0563357
 119.6397036  51.0273972 104.8034673 119.0095697  51.7090253 105.0370070
 119.5333124  50.9157053 103.8587811 114.9342009  50.6945768  95.7300597
 114.1441063  50.9503296  95.2540708 115.4253256  51.5094106  95.8352638
 128.9505818  58.0351007  98.4805878 129.7723262  57.6331194  98.1988559
 128.9468221  57.9319241  99.4321994 116.8856754  51.0590347  92.6884074
 116.0887917  51.1709041  93.2067569 116.6582346  51.3976999  91.8224964
 122.7162422  57.5835050 100.6366588 122.7806854  58.0455458 101.4724760
 122.0073346  56.9532415 100.7648898 113.2179712  50.9476258  98.1615588
 113.4687750  51.8323268  98.4273164 113.7539260  50.7680860  97.3890680
 137.0411811  54.3789755  94.8290849 136.2875520  53.8097154  94.6734854
 137.1759352  54.3452420  95.7761484 122.4310439  59.2503158  90.5045569
 122.2956114  60.0954693  90.9330417 122.9720252  59.4522435  89.7411502
 118.9177779  45.3294738 107.1659924 118.5244725  44.7760936 107.8407568
 119.7343919  45.6405316 107.5566441 115.8839837  56.7678596  91.0773494
 116.3964357  57.5621846  91.2279058 116.5362550  56.0704886  91.0107095
 117.6934721  59.8844352  93.1596247 117.8701350  60.8062317  92.9717231
 118.4891555  59.5702771  93.5890627 121.8345740  46.7452617 104.7580180
 122.5755453  47.3459770 104.6784643 122.0663663  46.0030254 104.1998223
 116.9787078  51.9308984 103.0358410 116.8640593  51.0294241 103.3365509
 116.1231596  52.1772681 102.6843227 124.0578916  59.8726724 104.6345911
 123.6142770  59.0863103 104.3166815 124.7196129  60.0605875 103.9689802
 118.8166037  61.4022526  99.1606589 119.3673462  61.2739589  98.3883583
 117.9777513  61.7017415  98.8101482 126.1560154  60.1529524 102.6627312
 126.1378629  60.9738405 102.1707581 127.0780074  60.0283599 102.8877453
 122.6133208  57.6673654 103.5050820 123.1461545  56.9061942 103.2750128
 122.0847289  57.3747306 104.2474975 125.7802903  42.7733720  99.0344462
 125.4367172  43.6635361  98.9583573 126.1481866  42.5835377  98.1714047
 113.8488754  55.0967250  91.8533064 114.6863976  55.5064258  91.6366772
 114.0267021  54.1566692  91.8233258 125.7453186  52.7642331  87.5416897
 125.2299809  53.5346935  87.7805285 125.4730494  52.0907467  88.1649959
 123.3300297  47.6092032  92.6002136 122.4741893  47.2198882  92.4207774
 123.7427248  47.6883992  91.7401921 124.8599443  45.1438375  96.9993695
 124.3564239  45.1068510  96.1861501 125.1530050  46.0531118  97.0590352
 121.1042329  45.2277105  96.0059877 121.9695326  45.0319913  95.6465767
 121.1719838  44.9987456  96.9329234 130.7187460  55.5174685  89.4770071
 129.9416903  55.1785845  89.0325233 131.3978941  55.5227309  88.8025036
 125.5339489  50.6369423  89.3676678 125.2289624  50.9515572  90.2186822
 126.4869931  50.7150843  89.4104011 123.9785921  56.7959646  91.0169632
 123.4507282  56.0612406  90.7042870 123.4773423  57.5734323  90.7709601
 128.9578767  54.9908667  96.1336679 128.3002441  55.6807928  96.2216807
 129.7619166  55.3805099  96.4770665 118.7104648  47.4579312  93.3776244
 119.2848400  47.2354494  92.6449437 119.2975631  47.5268007  94.1304845
 127.7684225  53.3453039  94.1840620 128.2816107  53.9783031  94.6862330
 128.4185449  52.7454235  93.8183980 119.0374235  49.4883773  87.3972129
 118.2011548  49.8258460  87.7181404 118.8979005  49.3532753  86.4599266
 121.0127316  44.3320561  92.1051313 120.3591728  44.0169579  91.4807928
 120.9707790  43.7096302  92.8311136 122.1238521  54.6139856  84.0204605
 121.2165583  54.3829110  84.2195754 122.6209553  53.8177476  84.2078587
 125.0306600  63.3237364  86.9401292 124.3568298  63.6269060  87.5486249
 125.4172422  64.1266444  86.5906749 124.2465056  50.8202495  96.4298961
 123.3287618  51.0417442  96.2720649 124.6625200  50.8948805  95.5710668
 125.0300104  52.2193911  91.5601641 125.7771923  52.7315308  91.2508763
 125.2991694  51.8977963  92.4206035 123.3026754  54.7152451  88.5428596
 122.3937974  54.4311484  88.6401065 123.3321838  55.1351530  87.6831902
 128.5346022  58.3259041  92.3119763 128.0808349  57.4849951  92.3684954
 127.9039988  58.9620439  92.6494543 127.4778941  49.2551027  93.5420431
 126.7401698  48.7428413  93.8730673 127.7305715  48.8151408  92.7303707
 126.9778961  60.1635537  93.2469581 127.2701935  60.7240595  92.5281947
 127.4877581  60.4564098  94.0022740 127.5790569  42.0327279  94.1362200
 127.8849445  41.1724642  93.8488115 128.3043173  42.6244899  93.9361194
 113.8714925  52.4357965  92.5243798 113.6739324  51.8427326  91.7994864
 113.3161589  52.1310176  93.2419737 121.8511648  52.3281072  94.6438391
 121.9060258  51.3754908  94.5680867 121.0402850  52.4840511  95.1279689
 123.0002842  56.2561195  85.8816674 122.5622272  55.5397054  85.4222311
 123.7413283  56.4837310  85.3201766 119.7904008  50.9458132  92.4028770
 118.9771874  51.2452302  92.8093962 120.2863002  50.5513820  93.1203252
 121.9412586  60.9415889  94.3363034 121.8988765  61.1676735  93.4071566
 122.8575285  60.7079263  94.4848836 125.3878220  51.4099956 101.2343664
 125.7427608  51.6371429 102.0938129 126.0350351  51.7418333 100.6120919
 131.1175957  54.5318392  91.9392993 130.9793855  54.7219988  91.0114182
 130.7612176  55.2937775  92.3961044 119.2818083  48.5176487  98.0190005
 119.9217462  48.3765246  97.3212968 118.4495614  48.2311001  97.6428607
 131.1445336  56.5994919  96.9504264 131.5781843  56.5070208  97.7987318
 131.8576917  56.5752419  96.3124280 120.0578387  57.8178918  94.1324997
 120.8518985  57.3229238  93.9307572 119.3470079  57.2896781  93.7692703
 124.8773231  60.1997013  98.4837365 124.9310254  60.7687949  99.2515081
 124.0088013  60.3698898  98.1191402 116.3661150  51.9621999  90.2084750
 115.4358738  51.9006455  90.4254712 116.4618622  51.4397952  89.4121391
 116.2846699  48.4876812  92.7962992 116.5453517  49.4022145  92.6872152
 117.1063872  48.0201255  92.9459604 117.7571625  49.9014569  99.9661816
 118.4294678  49.6931931  99.3174465 116.9301411  49.7036655  99.5267048
 132.0060886  56.6418620  99.4837150 132.1996776  57.5464430  99.7296425
 131.9061504  56.1826039 100.3175735 123.6597197  46.5276510 101.9827477
 123.0125112  47.2266460 101.8891953 124.4298212  46.9612654 102.3503725
 127.0675995  56.7925362 105.0578030 126.9161501  56.5635914 104.1408114
 127.0580674  57.7495964 105.0709375 123.8361331  54.3657275 100.0424297
 124.7653391  54.5168435  99.8693264 123.4152361  54.4541296  99.1872943
 122.6349663  58.3907940  97.8122834 122.4960749  58.0226724  98.6848772
 121.8464259  58.9055579  97.6406792 123.2297815  63.4917036  89.1548371
 123.4049571  63.0205079  89.9693993 122.5430603  64.1182802  89.3829632
 124.1854878  57.7689542  95.2011672 123.8504711  57.7290312  96.0969322
 123.6858824  57.1034258  94.7282082 118.1599122  53.1757172 100.7264253
 118.0218920  52.4437411 101.3275792 119.0704045  53.0866072 100.4448441
 127.1214070  55.1145577  85.4748732 126.5043240  54.3892405  85.3781784
 126.6530558  55.8754937  85.1315806 120.7881423  52.8877132 100.2147933
 121.4981041  52.2470324 100.1734551 120.7450731  53.1390026 101.1374114
 128.7768201  59.8244485 103.1354512 128.7180747  59.1403705 102.4685095
 129.1787720  60.5663475 102.6835138 119.5010357  49.8742350 102.0343572
 118.9647714  49.4233088 102.6865169 118.9127065  50.0088258 101.2914037
 117.7958900  66.6406399  95.9288231 118.0355498  67.2724923  96.6067250
 116.9528097  66.2894439  96.2153590 118.9112616  49.3331001  84.5970036
 118.0342082  49.2119802  84.2332283 119.3870369  48.5417079  84.3448925
 128.7785609  57.7884069 101.3668492 127.8912387  57.4509991 101.4894891
 129.3484160  57.0567100 101.6037257 110.4314756  54.1208161  94.6911543
 111.1185796  53.8069891  94.1032558 110.2762884  55.0249525  94.4178795
 115.2349478  49.0098357  99.1196567 115.1507667  48.4024027  98.3846977
 114.4132184  49.5007376  99.1206063 122.3086762  62.4485521  98.3329735
 122.2356933  63.2540493  98.8449040 121.8664155  62.6477487  97.5077756
 122.0976542  61.6857291  91.8432556 121.3144064  62.2278971  91.9370781
 122.7969287  62.2031271  92.2426798 125.4073192  47.4951921  94.4866762
 125.9041891  46.7421883  94.1667832 124.6360173  47.5316237  93.9209971
 133.2602949  53.1992286  96.1285053 133.2492825  54.0817002  95.7578986
 132.3920329  52.8463837  95.9339590 124.7685446  62.3472355 100.4887894
 125.4813418  62.9819820 100.4163795 124.2775474  62.4436221  99.6727895
 126.4902972  56.2523608  92.0605185 125.5559251  56.3725070  91.8909890
 126.6679641  55.3496075  91.7965195 121.9908160  49.6369304  94.2138446
 121.6205948  49.0840344  94.9019352 122.4867253  49.0327437  93.6613447
 129.8775524  52.0940927  92.5955219 130.3435976  52.9268919  92.5215522
 130.3283024  51.6285909  93.3000478 119.8197359  60.0966799 101.3093464
 120.5206819  60.7303282 101.4622859 119.3492474  60.4381530 100.5489104
 127.9451755  58.4384749  89.5941371 128.2211599  58.3241343  90.5035246
 127.0756254  58.0402233  89.5553545 127.8492187  44.4621514  96.6346121
 126.9355266  44.6925741  96.8028328 128.2785288  44.5459958  97.4860153
 127.6198645  52.6511406  99.1346015 126.9670095  52.8987314  98.4798468
 127.9979025  51.8375544  98.8008492 124.5805819  62.6871099  93.2374185
 124.7628213  61.8692755  93.7001937 125.4038805  62.9038792  92.7999075
 124.9147984  61.6139285  90.4989234 125.4435751  61.1031739  89.8859396
 125.1776204  61.2981815  91.3634767 123.6686218  53.3931217 105.6212052
 122.9926855  53.2925347 106.2914427 124.4913852  53.2370431 106.0848049
 115.4165077  59.6303154  98.2424567 116.0018514  58.8846842  98.3752471
 115.2189916  59.9407111  99.1261231 118.2703732  62.6654401  93.2587009
 117.6014108  63.1500529  92.7751050 118.1316602  62.9123622  94.1730388
 110.0082732  52.2008754  96.9629010 110.0466831  51.6672345  97.7566128
 109.5023025  51.6743960  96.3439987 122.4109001  64.6998145  99.8569668
 122.9627309  64.8629766 100.6218753 122.7515194  65.2902583  99.1849693
 117.3873494  47.0473295 100.4591553 117.4514821  47.9088125 100.0468950
 117.3240614  46.4347296  99.7263911 116.8625767  49.1196427 104.1064587
 117.4897805  48.7373504 104.7202111 116.0053686  48.9010629 104.4720279
 127.2619875  59.5259402 105.7118322 127.8059779  60.1389360 105.2173277
 126.6806720  60.0838981 106.2285335 113.6391309  50.9272856  90.0382942
 113.9344751  50.0183535  89.9849995 112.7379345  50.9060596  89.7163944
 125.5477388  62.6480120  96.8433350 125.4228528  61.8469860  96.3344296
 126.2056479  63.1426314  96.3547320 117.1685556  49.0028853  96.0210490
 116.4472142  49.6164820  95.8817964 117.9578812  49.5386618  95.9427136
 127.6112297  60.4489140  98.4712900 126.6642632  60.3294492  98.3991227
 127.9595070  59.5611638  98.5539162 119.9711870  46.3383279 102.2951142
 120.4946272  46.5845576 103.0577451 119.7524203  47.1703314 101.8754279
 115.3679151  48.6086954  90.1622267 115.0391857  47.7284333  89.9797373
 115.7218522  48.5534623  91.0498656 124.6158730  60.2441857  94.6717252
 124.4683692  59.3158564  94.8524822 125.4412223  60.2661947  94.1874328
 118.4820974  48.8959924  90.5297744 118.8217047  49.4245845  89.8076353
 118.9293095  49.2340330  91.3056311 128.2192852  61.0670415  95.7582125
 129.1439399  60.8613277  95.6206576 128.0508155  60.8186816  96.6671467
 121.1764415  47.2796974  99.9800813 120.8361235  46.4804787 100.3821492
 120.4703421  47.5798685  99.4077646 121.8280887  44.3646287  98.4328136
 122.6506956  43.8906765  98.3107026 122.0718950  45.1436771  98.9326822
 120.4689121  47.3934545  88.7291037 121.1897484  47.7715798  88.2254754
 119.8454425  48.1123422  88.8326015 124.6120244  48.0979694  89.6649370
 124.8283859  48.9804332  89.3638198 124.1314311  47.7065908  88.9355012
 119.3519466  51.0565407  96.2420114 119.2064046  51.3705710  97.1344396
 118.8744669  51.6750308  95.6891013 121.2115848  48.0467955  96.2901004
 121.1977417  47.1509049  95.9533302 121.9288277  48.0538619  96.9239290
 123.0641979  48.4805296  98.3354131 122.8059757  49.4022366  98.3338462
 122.5327020  48.0835730  99.0254595 128.0088168  61.5856083  91.1144217
 128.1825045  61.0202505  90.3618069 128.5017059  62.3856978  90.9323706
 113.8265128  53.5970752  99.1807775 113.2818596  54.3730560  99.3128050
 114.7044478  53.9441556  99.0226897 120.6152744  46.9282336  91.5588574
 120.7368656  45.9998982  91.7579461 120.3254787  46.9421022  90.6466889
 123.4843935  44.6137246  94.6955294 123.5065632  44.6776579  93.7407273
 123.9011994  43.7741755  94.8895800 133.8627559  54.3492506  92.7334516
 134.3058705  53.5999831  92.3353640 132.9854069  54.3402642  92.3508248
 128.9963340  60.9022847  88.2141115 129.6914245  61.5229540  88.4328429
 129.3386491  60.0518198  88.4893493 114.6131150  52.7240648 102.0737932
 113.8712886  52.8723283 102.6602563 114.2923894  52.9848914 101.2104682
 130.8954764  58.3522553  89.7428446 131.4206088  58.6909825  89.0177766
 130.8077116  57.4169568  89.5591580 122.5574812  62.2656626 101.8718322
 122.8661939  62.0205773 102.7441022 123.3550294  62.4703265 101.3837192
 122.5795424  64.4194536  94.1023699 122.1400415  63.9270915  94.7956555
 123.3303541  63.8767504  93.8615774 115.0587763  60.6106077  94.1048327
 115.8845783  60.3109849  93.7246970 114.7081815  59.8413699  94.5538116
 120.0269296  59.9632545  96.1746000 119.4049306  59.3003250  95.8748228
 120.6974163  59.9893677  95.4919648 113.2596368  58.5292403  95.0637260
 112.4228277  58.1014578  94.8821262 113.2320014  58.7224847  96.0008052
 120.0993824  48.4414333 105.7678506 120.1481979  49.3176456 105.3856276
 120.6416338  47.8991726 105.1950150 130.5848670  58.9855456 105.0479644
 129.7944213  58.9679595 104.5084143 130.3482024  59.5243750 105.8028680
 130.7046545  55.8347923 102.3612372 130.7544550  55.6697930 103.3027895
 130.5960468  54.9675182 101.9710253 119.5882803  58.5136468  89.6504461
 119.7370924  59.1971933  88.9971134 120.3949247  58.4941558  90.1653917
 127.9950307  51.8178851 103.6771679 128.8960170  51.6785316 103.3855677
 128.0698282  51.9833306 104.6169856 122.3293112  49.1945705 102.5224865
 121.4596422  49.4879271 102.2507454 122.5652593  49.7786150 103.2432129
 132.2064741  58.2544864 102.6054394 131.9149550  58.6174845 103.4417855
 131.5936873  57.5411872 102.4267726 133.4060424  55.8197744  95.1256964
 134.2407315  56.2587548  95.2894524 133.5419553  55.3436397  94.3065210
 130.4551930  53.3777479 101.0734452 130.9306051  53.5705125 100.2653303
 129.5317495  53.4336665 100.8277835 117.3435436  54.5401646  90.6565530
 117.0981478  53.6363976  90.8545740 117.5131351  54.5418796  89.7145008
 125.0332146  45.4125322 100.0390286 125.5514090  46.1486349  99.7136774
 124.6787279  45.7189316 100.8737045 116.6131084  50.2730004  88.1551691
 115.9200329  50.3474359  87.4991727 116.3682836  49.5090347  88.6773208
 125.2844740  41.8325605  95.5591182 125.5646494  41.1648794  96.1851609
 126.0695347  42.0254701  95.0465846 123.0878209  61.0084599  87.1216208
 122.5152176  61.6274786  86.6686680 123.6611003  61.5583960  87.6556130
 129.1553599  50.2543239  99.3062757 130.1071022  50.3541337  99.3274981
 128.9857049  49.4621507  99.8160842 127.1767978  47.3398822  99.4922158
 126.5817910  47.6203835  98.7968647 126.8917675  47.8292723 100.2638899
 126.3075469  61.2921749  88.2524791 127.2406142  61.2267311  88.4557666
 126.2198681  62.1278016  87.7939323 128.9363485  60.6087619  85.2128738
 128.8577117  60.2747483  86.1064496 129.7573152  61.1009387  85.2120211
 131.6341677  53.4749359  98.4205057 131.6017997  52.5365359  98.6064741
 132.2442300  53.5533395  97.6870882 123.4725007  52.3445412  84.4632261
 124.4184112  52.2151620  84.5320679 123.0939252  51.6060073  84.9401689
 131.7836165  50.2660402  98.4663340 131.2675214  49.4818859  98.2793269
 132.6676114  49.9379119  98.6309860 129.4446892  44.0101418  94.4259153
 129.2471713  43.7016506  95.3102485 130.0546598  44.7363056  94.5557083
 135.5333523  52.6773228  98.1585545 134.8066687  52.5429193  97.5502036
 135.1180810  52.9850057  98.9642263 123.3563700  56.3963158 105.9232918
 124.2766709  56.5741757 106.1172964 123.3213283  55.4519203 105.7712617
 121.6567925  50.2695388  84.3987146 120.7499380  49.9728501  84.4749860
 121.9343906  49.9725206  83.5321432 112.5745865  51.5901751  94.8486193
 112.2548649  50.7367060  94.5560567 112.0279293  51.8050329  95.6044160
 116.3525772  54.3064192  98.5655699 116.5711782  55.2381300  98.5843733
 116.7651546  53.9472167  99.3510503 123.2729990  44.8132278  90.5531387
 122.4630719  44.4679363  90.9286634 123.9614407  44.5039821  91.1418999
 125.2020539  43.8910324  92.1755684 125.7551577  44.3105778  92.8345707
 125.4390625  42.9646073  92.2178640 121.2253638  49.8797398 107.9558448
 121.1250365  50.8291755 107.8870539 121.0075180  49.5515637 107.0834518
 120.4266709  47.1282323  84.5399125 121.2885873  47.4537221  84.7994943
 120.6117053  46.3413819  84.0272191 112.4434125  55.2104663  96.8179314
 111.7497596  54.7958616  96.3049269 113.1907116  55.2525199  96.2212733
 128.5799346  46.0010850  91.6834348 127.9998015  46.6595654  91.3012401
 128.3135278  45.1788194  91.2721766 127.0302912  45.4015907  93.8855669
 127.5302690  45.5132442  93.0769988 127.6738520  45.0976960  94.5256477
 121.0884908  53.3094537 106.7723510 120.6051990  54.1094897 106.9787399
 121.1745847  53.3202482 105.8190954 114.3570867  55.1422917  94.6945329
 114.3341556  55.2410604  93.7427212 114.6671504  55.9888067  95.0162495
 117.0158245  57.1999072  98.8091943 117.9701499  57.1683014  98.7421875
 116.8170769  56.7389695  99.6242169 117.6057627  55.7700188 101.3762741
 118.4250516  56.2644266 101.3997578 117.8794435  54.8532156 101.3480309
 127.3624224  48.1610940  90.7390697 126.4750079  48.4460591  90.5210891
 127.7778213  48.0004703  89.8917973 130.7138760  48.1857461  94.4545036
 131.4899150  48.6753913  94.7269653 129.9886894  48.6115515  94.9116905
 133.1511318  48.8985080  95.5118976 133.7455809  48.6580816  94.8012285
 133.2237902  48.1792211  96.1392513 115.3708474  62.7418691  95.8262141
 115.2362942  61.9819092  95.2600139 114.9540536  63.4659591  95.3590930
 126.5067437  57.9255615  84.8338717 127.2103287  58.1305617  85.4496372
 125.7830086  58.4932377  85.0987800 127.3365247  53.6765476  90.9540987
 127.2800449  54.1334027  90.1148619 127.8893590  52.9156161  90.7763830
 131.1470053  49.4655208  91.7791106 130.8906988  49.0651843  92.6099314
 130.5222921  50.1799002  91.6541245 135.4582391  52.2051281  94.2862398
 134.8981949  52.2744470  95.0593960 134.8525895  52.0292266  93.5661894
 118.5277600  63.6388008  96.0380584 118.4109984  64.5833441  95.9359274
 117.7070046  63.3361570  96.4266383 128.4154135  58.3638144  86.8837177
 129.2499738  57.9319342  86.7014651 128.2538477  58.1920158  87.8114071
 128.0700027  54.8670257  88.2493516 128.0148831  54.7014529  87.3081960
 127.4446082  55.5746290  88.4055706 112.8592542  50.1038322 102.0754938
 113.5051405  49.5937276 102.5642163 112.6509693  50.8407003 102.6498363
 125.3845934  57.1719169 107.5747079 126.2537094  57.3459821 107.2133714
 124.9052685  57.9913586 107.4522808 121.3796152  44.3678366  87.8278834
 121.3674822  45.3120206  87.9847105 122.2719574  44.1848512  87.5338296
 119.5532114  64.2916270  99.2536512 120.4559361  64.3239880  99.5703007
 119.3269484  63.3616721  99.2682848 121.3085716  63.0447257  95.9146591
 120.3581347  63.0449118  95.8010963 121.6118202  62.2979991  95.3982626
 125.1948272  40.9621143  92.0824771 124.4280667  40.4079630  92.2281453
 125.6058977  41.0343012  92.9438923 117.1990033  47.2505939 106.1729952
 118.0621494  46.8942743 106.3833277 116.6255443  46.9119833 106.8605357
 133.8528116  68.8335223  96.9153878 133.5146627  68.7176288  96.0274413
 134.7217884  68.4326388  96.8954884 129.7114932  70.6870700  92.9050769
 129.1479797  70.5960636  92.1367057 129.5967327  69.8670604  93.3853262
 134.3347899  69.9870075 102.8740084 134.3236540  69.5922873 102.0020587
 134.4968538  69.2536147 103.4673855 127.2579364  72.1821891  95.7434989
 128.0500655  71.8412716  95.3281289 127.4976014  72.2916866  96.6637143
 135.2914490  74.3541667  88.2165234 134.6402470  74.9395748  87.8299248
 136.0858853  74.8847862  88.2760271 129.2170117  71.4430804  88.6152368
 129.9900993  70.8959791  88.4765244 129.5695516  72.3075054  88.8266830
 131.0555160  72.7707187 101.8219268 130.7645026  73.6752817 101.7065934
 131.6912144  72.8123714 102.5363337 131.9811367  70.1484035  98.4120627
 132.5774939  69.9240058  97.6977590 132.0386338  69.4068781  99.0146075
 131.5536395  67.6023470  86.2470818 131.8061916  67.0804992  85.4854281
 130.6160954  67.4389616  86.3497502 136.5979678  66.6059249  94.0545561
 137.3842767  66.1878672  93.7035978 136.8618382  67.5105341  94.2227210
 136.7689755  72.0432099  88.7534218 136.1335588  72.1166726  89.4655123
 136.4387162  72.6325698  88.0753297 131.2732684  69.5051576  88.4495193
 131.1568942  68.8296480  89.1176277 131.3834944  69.0183950  87.6327346
 133.6164225  68.9661724  92.1541882 133.2522432  68.4392345  92.8654804
 134.4731341  68.5760193  91.9808368 133.2569712  63.9951623  87.1503231
 133.4244114  64.8631860  87.5173702 133.0666881  64.1578905  86.2264520
 136.0145045  72.4568602  98.8169061 135.7145768  73.3593641  98.7084868
 135.6696105  72.1900785  99.6690214 129.4657527  68.9082399  94.8505766
 128.5408023  68.7758613  95.0583457 129.7141940  69.6876618  95.3475708
 133.2358933  66.4509281  88.1349898 133.1158558  66.8966331  88.9735378
 132.5411521  66.7994598  87.5763436 126.8266338  68.5515673  95.6849555
 126.9558719  68.8050151  96.5988966 126.1463789  69.1443381  95.3654210
 130.9965825  79.2212922  91.7840029 130.9189855  80.1720748  91.8628510
 130.3927469  78.8758795  92.4414955 133.4883055  66.3940788 104.4401396
 132.7116389  66.9534708 104.4304261 134.1273618  66.8797571 104.9616266
 131.7429427  69.2026241 104.0019363 132.4844111  69.7411285 103.7254186
 131.0366412  69.8292530 104.1590915 137.2184767  71.3455382 102.5991524
 137.6268123  70.9037792 101.8546157 136.4962028  70.7708009 102.8525717
 133.5715837  66.2827989  99.9725081 134.4177032  66.7067402 100.1159730
 133.5114474  65.6261613 100.6663644 137.5413581  71.9056572  96.3543813
 136.9122444  72.0702286  95.6519881 137.1539243  72.3198182  97.1254777
 136.7215282  63.9432357 101.6306255 136.4776214  64.6974417 101.0940531
 136.9975213  64.3217704 102.4653502 136.2779974  63.0988790  97.2120093
 135.4164453  63.3970043  97.5036830 136.3042408  63.3159189  96.2801125
 133.0941543  71.6430980  93.6193898 133.5579889  71.9218683  92.8298521
 132.8298341  70.7414425  93.4366989 129.9865624  71.1902462  96.5573662
 130.5566981  71.6189730  95.9191146 130.5773736  70.9085047  97.2557847
 132.0310429  67.7654133  90.4283463 132.7334473  68.2175176  90.8957390
 131.6991058  67.1237952  91.0563357 130.4790791  66.3565889 104.8034673
 129.8489451  67.0382170 105.0370070 130.3726879  66.2448971 103.8587811
 125.7735763  66.0237685  95.7300597 124.9834817  66.2795214  95.2540708
 126.2647011  66.8386023  95.8352638 127.7250509  66.3882265  92.6884074
 126.9281672  66.5000959  93.2067569 127.4976101  66.7268917  91.8224964
 133.5556176  72.9126968 100.6366588 133.6200609  73.3747375 101.4724760
 132.8467100  72.2824333 100.7648898 124.0573466  66.2768176  98.1615588
 124.3081505  67.1615186  98.4273164 124.5933015  66.0972777  97.3890680
 133.2704194  74.5795075  90.5045569 133.1349869  75.4246611  90.9330417
 133.8114006  74.7814353  89.7411502 129.7571533  60.6586655 107.1659924
 129.3638479  60.1052854 107.8407568 130.5737674  60.9697234 107.5566441
 126.7233591  72.0970513  91.0773494 127.2358112  72.8913764  91.2279058
 127.3756304  71.3996804  91.0107095 128.5328476  75.2136270  93.1596247
 128.7095104  76.1354234  92.9717231 129.3285309  74.8994689  93.5890627
 132.6739494  62.0744534 104.7580180 133.4149208  62.6751688 104.6784643
 132.9057417  61.3322172 104.1998223 127.8180832  67.2600902 103.0358410
 127.7034348  66.3586159 103.3365509 126.9625350  67.5064598 102.6843227
 134.8972670  75.2018642 104.6345911 134.4536524  74.4155021 104.3166815
 135.5589884  75.3897792 103.9689802 129.6559791  76.7314444  99.1606589
 130.2067217  76.6031507  98.3883583 128.8171267  77.0309333  98.8101482
 133.4526962  72.9965571 103.5050820 133.9855299  72.2353860 103.2750128
 132.9241044  72.7039223 104.2474975 136.6196657  58.1025637  99.0344462
 136.2760927  58.9927279  98.9583573 136.9875620  57.9127295  98.1714047
 124.6882508  70.4259168  91.8533064 125.5257730  70.8356176  91.6366772
 124.8660776  69.4858610  91.8233258 136.5846940  68.0934248  87.5416897
 136.0693564  68.8638853  87.7805285 136.3124249  67.4199385  88.1649959
 134.1694051  62.9383949  92.6002136 133.3135647  62.5490800  92.4207774
 134.5821003  63.0175910  91.7401921 135.6993198  60.4730292  96.9993695
 135.1957993  60.4360428  96.1861501 135.9923805  61.3823035  97.0590352
 131.9436084  60.5569022  96.0059877 132.8089080  60.3611831  95.6465767
 132.0113593  60.3279374  96.9329234 136.3733243  65.9661341  89.3676678
 136.0683379  66.2807490  90.2186822 137.3263685  66.0442760  89.4104011
 134.8179675  72.1251564  91.0169632 134.2901037  71.3904323  90.7042870
 134.3167178  72.9026240  90.7709601 129.5498403  62.7871230  93.3776244
 130.1242155  62.5646412  92.6449437 130.1369385  62.8559925  94.1304845
 129.8767990  64.8175691  87.3972129 129.0405302  65.1550378  87.7181404
 129.7372760  64.6824671  86.4599266 131.8521070  59.6612479  92.1051313
 131.1985483  59.3461496  91.4807928 131.8101545  59.0388219  92.8311136
 132.9632275  69.9431774  84.0204605 132.0559337  69.7121028  84.2195754
 133.4603307  69.1469393  84.2078587 135.8700354  78.6529281  86.9401292
 135.1962053  78.9560978  87.5486249 136.2566176  79.4558362  86.5906749
 135.0858811  66.1494413  96.4298961 134.1681372  66.3709360  96.2720649
 135.5018954  66.2240723  95.5710668 135.8693859  67.5485828  91.5601641
 136.6165678  68.0607225  91.2508763 136.1385448  67.2269881  92.4206035
 134.1420509  70.0444369  88.5428596 133.2331728  69.7603402  88.6401065
 134.1715593  70.4643448  87.6831902 124.7108679  67.7649883  92.5243798
 124.5133079  67.1719244  91.7994864 124.1555343  67.4602093  93.2419737
 132.6905403  67.6572990  94.6438391 132.7454013  66.7046826  94.5680867
 131.8796605  67.8132429  95.1279689 133.8396597  71.5853113  85.8816674
 133.4016026  70.8688972  85.4222311 134.5807037  71.8129227  85.3201766
 130.6297763  66.2750049  92.4028770 129.8165628  66.5744220  92.8093962
 131.1256757  65.8805738  93.1203252 132.7806341  76.2707806  94.3363034
 132.7382519  76.4968653  93.4071566 133.6969039  76.0371181  94.4848836
 136.2271974  66.7391874 101.2343664 136.5821362  66.9663347 102.0938129
 136.8744106  67.0710251 100.6120919 130.1211837  63.8468405  98.0190005
 130.7611217  63.7057164  97.3212968 129.2889368  63.5602918  97.6428607
 130.8972141  73.1470835  94.1324997 131.6912740  72.6521155  93.9307572
 130.1863834  72.6188698  93.7692703 135.7166986  75.5288931  98.4837365
 135.7704008  76.0979867  99.2515081 134.8481767  75.6990816  98.1191402
 127.2054905  67.2913917  90.2084750 126.2752493  67.2298372  90.4254712
 127.3012377  66.7689870  89.4121391 127.1240454  63.8168730  92.7962992
 127.3847271  64.7314063  92.6872152 127.9457626  63.3493172  92.9459604
 128.5965379  65.2306487  99.9661816 129.2688433  65.0223849  99.3174465
 127.7695166  65.0328573  99.5267048 134.4990951  61.8568428 101.9827477
 133.8518866  62.5558378 101.8891953 135.2691967  62.2904572 102.3503725
 134.6755086  69.6949193 100.0424297 135.6047146  69.8460352  99.8693264
 134.2546116  69.7833214  99.1872943 133.4743417  73.7199857  97.8122834
 133.3354503  73.3518642  98.6848772 132.6858014  74.2347497  97.6406792
 134.0691569  78.8208954  89.1548371 134.2443325  78.3496997  89.9693993
 133.3824357  79.4474720  89.3829632 135.0248633  73.0981460  95.2011672
 134.6898465  73.0582230  96.0969322 134.5252578  72.4326176  94.7282082
 128.9992876  68.5049090 100.7264253 128.8612674  67.7729329 101.3275792
 129.9097800  68.4157990 100.4448441 131.6275177  68.2169049 100.2147933
 132.3374796  67.5762241 100.1734551 131.5844485  68.4681944 101.1374114
 130.3404111  65.2034267 102.0343572 129.8041468  64.7525006 102.6865169
 129.7520820  65.3380176 101.2914037 128.6352655  81.9698316  95.9288231
 128.8749253  82.6016841  96.6067250 127.7921851  81.6186357  96.2153590
 129.7506370  64.6622919  84.5970036 128.8735836  64.5411719  84.2332283
 130.2264123  63.8708997  84.3448925 121.2708510  69.4500078  94.6911543
 121.9579550  69.1361808  94.1032558 121.1156639  70.3541443  94.4178795
 126.0743232  64.3390275  99.1196567 125.9901421  63.7315944  98.3846977
 125.2525939  64.8299293  99.1206063 133.1480517  77.7777439  98.3329735
 133.0750688  78.5832410  98.8449040 132.7057910  77.9769405  97.5077756
 132.9370296  77.0149209  91.8432556 132.1537818  77.5570889  91.9370781
 133.6363041  77.5323189  92.2426798 136.2466946  62.8243838  94.4866762
 136.7435646  62.0713801  94.1667832 135.4753928  62.8608155  93.9209971
 135.6079200  77.6764273 100.4887894 136.3207172  78.3111738 100.4163795
 135.1169229  77.7728139  99.6727895 137.3296727  71.5815526  92.0605185
 136.3953006  71.7016988  91.8909890 137.5073395  70.6787992  91.7965195
 132.8301915  64.9661221  94.2138446 132.4599703  64.4132262  94.9019352
 133.3261007  64.3619355  93.6613447 130.6591114  75.4258716 101.3093464
 131.3600573  76.0595199 101.4622859 130.1886229  75.7673448 100.5489104
 135.4199573  78.0163017  93.2374185 135.6021968  77.1984673  93.7001937
 136.2432559  78.2330709  92.7999075 135.7541739  76.9431202  90.4989234
 136.2829505  76.4323657  89.8859396 136.0169958  76.6273732  91.3634767
 134.5079973  68.7223135 105.6212052 133.8320610  68.6217264 106.2914427
 135.3307606  68.5662349 106.0848049 126.2558832  74.9595071  98.2424567
 126.8412268  74.2138759  98.3752471 126.0583670  75.2699028  99.1261231
 129.1097487  77.9946319  93.2587009 128.4407862  78.4792446  92.7751050
 128.9710357  78.2415539  94.1730388 120.8476486  67.5300672  96.9629010
 120.8860586  66.9964262  97.7566128 120.3416779  67.0035877  96.3439987
 133.2502755  80.0290062  99.8569668 133.8021063  80.1921684 100.6218753
 133.5908949  80.6194500  99.1849693 128.2267249  62.3765212 100.4591553
 128.2908575  63.2380043 100.0468950 128.1634369  61.7639214  99.7263911
 127.7019521  64.4488345 104.1064587 128.3291560  64.0665422 104.7202111
 126.8447440  64.2302547 104.4720279 124.4785064  66.2564774  90.0382942
 124.7738505  65.3475452  89.9849995 123.5773100  66.2352513  89.7163944
 136.3871143  77.9772038  96.8433350 136.2622282  77.1761778  96.3344296
 137.0450234  78.4718231  96.3547320 128.0079311  64.3320770  96.0210490
 127.2865897  64.9456738  95.8817964 128.7972567  64.8678535  95.9427136
 130.8105624  61.6675197 102.2951142 131.3340026  61.9137493 103.0577451
 130.5917958  62.4995232 101.8754279 126.2072906  63.9378871  90.1622267
 125.8785612  63.0576250  89.9797373 126.5612276  63.8826540  91.0498656
 135.4552484  75.5733774  94.6717252 135.3077447  74.6450482  94.8524822
 136.2805978  75.5953865  94.1874328 129.3214729  64.2251841  90.5297744
 129.6610801  64.7537763  89.8076353 129.7686849  64.5632247  91.3056311
 132.0158169  62.6088892  99.9800813 131.6754990  61.8096705 100.3821492
 131.3097176  62.9090603  99.4077646 132.6674641  59.6938204  98.4328136
 133.4900711  59.2198683  98.3107026 132.9112705  60.4728688  98.9326822
 131.3082876  62.7226463  88.7291037 132.0291238  63.1007716  88.2254754
 130.6848180  63.4415340  88.8326015 135.4513999  63.4271612  89.6649370
 135.6677613  64.3096250  89.3638198 134.9708066  63.0357825  88.9355012
 130.1913220  66.3857325  96.2420114 130.0457801  66.6997628  97.1344396
 129.7138424  67.0042225  95.6891013 132.0509603  63.3759873  96.2901004
 132.0371172  62.4800966  95.9533302 132.7682031  63.3830537  96.9239290
 133.9035734  63.8097213  98.3354131 133.6453511  64.7314284  98.3338462
 133.3720774  63.4127648  99.0254595 124.6658882  68.9262669  99.1807775
 124.1212350  69.7022477  99.3128050 125.5438232  69.2733474  99.0226897
 131.4546499  62.2574253  91.5588574 131.5762410  61.3290900  91.7579461
 131.1648541  62.2712939  90.6466889 134.3237689  59.9429164  94.6955294
 134.3459386  60.0068497  93.7407273 134.7405748  59.1033672  94.8895800
 125.4524904  68.0532566 102.0737932 124.7106640  68.2015201 102.6602563
 125.1317648  68.3140831 101.2104682 133.3968567  77.5948544 101.8718322
 133.7055693  77.3497691 102.7441022 134.1944049  77.7995182 101.3837192
 133.4189179  79.7486454  94.1023699 132.9794169  79.2562832  94.7956555
 134.1697296  79.2059421  93.8615774 125.8981518  75.9397994  94.1048327
 126.7239538  75.6401766  93.7246970 125.5475570  75.1705617  94.5538116
 130.8663051  75.2924463  96.1746000 130.2443060  74.6295168  95.8748228
 131.5367918  75.3185595  95.4919648 124.0990123  73.8584321  95.0637260
 123.2622031  73.4306495  94.8821262 124.0713768  74.0516764  96.0008052
 130.9387578  63.7706251 105.7678506 130.9875734  64.6468374 105.3856276
 131.4810093  63.2283644 105.1950150 130.4276558  73.8428386  89.6504461
 130.5764678  74.5263850  88.9971134 131.2343001  73.8233476  90.1653917
 133.1686867  64.5237623 102.5224865 132.2990176  64.8171189 102.2507454
 133.4046347  65.1078068 103.2432129 128.1829191  69.8693564  90.6565530
 127.9375233  68.9655894  90.8545740 128.3525105  69.8710714  89.7145008
 135.8725901  60.7417240 100.0390286 136.3907845  61.4778267  99.7136774
 135.5181033  61.0481233 100.8737045 127.4524838  65.6021921  88.1551691
 126.7594083  65.6766276  87.4991727 127.2076590  64.8382265  88.6773208
 136.1238495  57.1617523  95.5591182 136.4040249  56.4940712  96.1851609
 136.9089102  57.3546618  95.0465846 133.9271963  76.3376516  87.1216208
 133.3545930  76.9566704  86.6686680 134.5004757  76.8875878  87.6556130
 134.3118762  67.6737329  84.4632261 135.2577867  67.5443537  84.5320679
 133.9333007  66.9351991  84.9401689 134.1957454  71.7255075 105.9232918
 135.1160464  71.9033674 106.1172964 134.1607037  70.7811121 105.7712617
 132.4961679  65.5987306  84.3987146 131.5893134  65.3020418  84.4749860
 132.7737660  65.3017124  83.5321432 123.4139619  66.9193669  94.8486193
 123.0942404  66.0658977  94.5560567 122.8673048  67.1342247  95.6044160
 127.1919527  69.6356110  98.5655699 127.4105537  70.5673218  98.5843733
 127.6045301  69.2764084  99.3510503 134.1123745  60.1424195  90.5531387
 133.3024473  59.7971280  90.9286634 134.8008162  59.8331739  91.1418999
 136.0414293  59.2202242  92.1755684 136.5945332  59.6397696  92.8345707
 136.2784379  58.2937990  92.2178640 132.0647392  65.2089316 107.9558448
 131.9644119  66.1583673 107.8870539 131.8468934  64.8807555 107.0834518
 131.2660464  62.4574241  84.5399125 132.1279628  62.7829139  84.7994943
 131.4510808  61.6705737  84.0272191 123.2827879  70.5396581  96.8179314
 122.5891351  70.1250533  96.3049269 124.0300870  70.5817117  96.2212733
 131.9278662  68.6386455 106.7723510 131.4445744  69.4386815 106.9787399
 132.0139601  68.6494399 105.8190954 125.1964622  70.4714834  94.6945329
 125.1735310  70.5702522  93.7427212 125.5065258  71.3179985  95.0162495
 127.8552000  72.5290989  98.8091943 128.8095253  72.4974932  98.7421875
 127.6564523  72.0681613  99.6242169 128.4451382  71.0992105 101.3762741
 129.2644271  71.5936184 101.3997578 128.7188190  70.1824074 101.3480309
 126.2102229  78.0710609  95.8262141 126.0756697  77.3111010  95.2600139
 125.7934291  78.7951509  95.3590930 129.3671354  78.9679926  96.0380584
 129.2503739  79.9125358  95.9359274 128.5463801  78.6653487  96.4266383
 123.6986296  65.4330239 102.0754938 124.3445160  64.9229193 102.5642163
 123.4903447  66.1698921 102.6498363 136.2239688  72.5011087 107.5747079
 137.0930848  72.6751739 107.2133714 135.7446440  73.3205504 107.4522808
 132.2189907  59.6970284  87.8278834 132.2068576  60.6412124  87.9847105
 133.1113329  59.5140429  87.5338296 130.3925869  79.6208188  99.2536512
 131.2953115  79.6531798  99.5703007 130.1663239  78.6908639  99.2682848
 132.1479471  78.3739174  95.9146591 131.1975102  78.3741036  95.8010963
 132.4511957  77.6271909  95.3982626 136.0342026  56.2913061  92.0824771
 135.2674422  55.7371547  92.2281453 136.4452731  56.3634929  92.9438923
 128.0383787  62.5797856 106.1729952 128.9015249  62.2234661 106.3833277
 127.4649198  62.2411751 106.8605357 136.6129518  81.3529603  95.7300597
 135.8228572  81.6087132  95.2540708 137.1040765  82.1677941  95.8352638
 134.8967221  81.6060094  98.1615588 135.1475259  82.4907104  98.4273164
 135.4326769  81.4264695  97.3890680 135.5276262  85.7551085  91.8533064
 136.3651484  86.1648094  91.6366772 135.7054530  84.8150528  91.8233258
 135.5502434  83.0941801  92.5243798 135.3526833  82.5011161  91.7994864
 134.9949098  82.7894011  93.2419737 132.1102265  84.7791996  94.6911543
 132.7973305  84.4653726  94.1032558 131.9550393  85.6833361  94.4178795
 136.9136987  79.6682193  99.1196567 136.8295176  79.0607862  98.3846977
 136.0919693  80.1591211  99.1206063 131.6870241  82.8592589  96.9629010
 131.7254340  82.3256180  97.7566128 131.1810534  82.3327795  96.3439987
 135.3178818  81.5856692  90.0382942 135.6132260  80.6767370  89.9849995
 134.4166854  81.5644431  89.7163944 137.0466660  79.2670789  90.1622267
 136.7179366  78.3868168  89.9797373 137.4006031  79.2118458  91.0498656
 135.5052637  84.2554587  99.1807775 134.9606105  85.0314395  99.3128050
 136.3831987  84.6025392  99.0226897 136.2918659  83.3824483 102.0737932
 135.5500395  83.5307119 102.6602563 135.9711403  83.6432749 101.2104682
 136.7375272  91.2689912  94.1048327 137.5633292  90.9693684  93.7246970
 136.3869324  90.4997535  94.5538116 134.9383877  89.1876239  95.0637260
 134.1015786  88.7598413  94.8821262 134.9107523  89.3808682  96.0008052
 134.2533374  82.2485587  94.8486193 133.9336158  81.3950895  94.5560567
 133.7066802  82.4634165  95.6044160 134.1221634  85.8688498  96.8179314
 133.4285105  85.4542451  96.3049269 134.8694625  85.9109035  96.2212733
 136.0358376  85.8006752  94.6945329 136.0129065  85.8994439  93.7427212
 136.3459013  86.6471903  95.0162495 137.0495983  93.4002526  95.8262141
 136.9150451  92.6402927  95.2600139 136.6328045  94.1243426  95.3590930
 134.5380051  80.7622157 102.0754938 135.1838914  80.2521111 102.5642163
 134.3297202  81.4990839 102.6498363  98.4784563  10.2399292  78.5085336
  98.4008592  11.1907117  78.5873816  97.8746206   9.8945165  79.1660262
  97.1378529   7.7500813  85.8851896  97.6885954   7.6217876  85.1128890
  96.2990005   8.0495702  85.5346789 103.3519092   9.6715651  73.6646598
 102.6780791   9.9747348  74.2731556 103.7384914  10.4744731  73.3152055
 101.5510307   9.8395323  75.8793677 101.7262063   9.3683366  76.6939300
 100.8643095  10.4661089  76.1074938  96.1171392  12.9884686  82.6533538
  96.3567991  13.6203210  83.3312556  95.2740589  12.6372726  82.9398897
 100.6299254   8.7963808  85.0575042 100.5569426   9.6018780  85.5694346
 100.1876647   8.9955774  84.2323063 100.4189034   8.0335579  78.5677863
  99.6356556   8.5757259  78.6616088 101.1181779   8.5509558  78.9672104
 103.0897938   8.6950643  87.2133200 103.8025910   9.3298107  87.1409102
 102.5987966   8.7914509  86.3973202  93.7377569   5.9781441  84.9669874
  94.3231006   5.2325129  85.0997778  93.5402408   6.2885398  85.8506538
  96.5916225   9.0132688  79.9832316  95.9226600   9.4978816  79.4996356
  96.4529094   9.2601909  80.8975695 100.7321493  11.0476432  86.5814975
 101.2839801  11.2108053  87.3464060 101.0727687  11.6380870  85.9094999
 100.8787305   8.6134914  88.5963629 101.1874431   8.3684060  89.4686328
 101.6762787   8.8181552  88.1082499 100.9007917  10.7672823  80.8269005
 100.4612907  10.2749202  81.5201862 101.6516034  10.2245791  80.5861081
  93.3800256   6.9584364  80.8293633  94.2058275   6.6588136  80.4492277
  93.0294308   6.1891986  81.2783422  91.5808861   4.8770690  81.7882567
  90.7440769   4.4492865  81.6066568  91.5532506   5.0703134  82.7253358
  93.6920966   9.0896978  82.5507448  93.5575434   8.3297379  81.9845446
  93.2753029   9.8137878  82.0836237  96.8490092   9.9866295  82.7625891
  96.7322476  10.9311728  82.6604581  96.0282539   9.6839857  83.1511690
  97.8744606  10.6394557  85.9781819  98.7771853  10.6718168  86.2948314
  97.6481976   9.7095008  85.9928155  99.6298208   9.3925544  82.6391898
  98.6793839   9.3927405  82.5256270  99.9330695   8.6458278  82.1227932
 115.3650902  15.2286082  83.7037660 116.0029312  15.1092830  83.0001000
 115.2471745  16.1766926  83.7625612 112.1740608  15.1813510  83.6399185
 111.8359120  15.0654575  82.7519720 113.0430376  14.7804675  83.6200191
 108.0327424  17.0348987  79.6296076 107.4692289  16.9438924  78.8612363
 107.9179819  16.2148891  80.1098568 112.6560391  16.3348362  89.5985390
 112.6449032  15.9401160  88.7265894 112.8181031  15.6014435  90.1919162
 105.5791856  18.5300178  82.4680296 106.3713148  18.1891003  82.0526595
 105.8188506  18.6395153  83.3882449 113.6126983  20.7019954  74.9410541
 112.9614962  21.2874035  74.5544554 114.4071345  21.2326149  75.0005578
 107.5382610  17.7909092  75.3397675 108.3113486  17.2438079  75.2010551
 107.8908009  18.6553341  75.5512136 109.3767652  19.1185474  88.5464574
 109.0857518  20.0231105  88.4311241 110.0124637  19.1602001  89.2608644
 110.3023859  16.4962322  85.1365934 110.8987431  16.2718345  84.4222897
 110.3598831  15.7547068  85.7391382 109.8748888  13.9501758  72.9716125
 110.1274408  13.4283279  72.2099588 108.9373447  13.7867903  73.0742808
 115.0902248  18.3910386  75.4779525 114.4548081  18.4645013  76.1900430
 114.7599654  18.9803985  74.7998604 109.5945176  15.8529864  75.1740500
 109.4781434  15.1774767  75.8421584 109.7047436  15.3662238  74.3572653
 111.9376717  15.3140011  78.8787189 111.5734924  14.7870632  79.5900110
 112.7943833  14.9238480  78.7053674 114.3357537  18.8046889  85.5414368
 114.0358260  19.7071928  85.4330175 113.9908597  18.5379073  86.3935521
 107.7870019  15.2560686  81.5751072 106.8620515  15.1236900  81.7828764
 108.0354432  16.0354905  82.0721015 111.5571425  12.7987568  74.8595204
 111.4371050  13.2444619  75.6980685 110.8624013  13.1472886  74.3008743
 105.1478830  14.8993960  82.4094861 105.2771211  15.1528439  83.3234273
 104.4676281  15.4921668  82.0899516 109.3178317  25.5691210  78.5085336
 109.2402347  26.5199035  78.5873816 108.7139961  25.2237082  79.1660262
 111.8095547  12.7419075  91.1646703 111.0328881  13.3012995  91.1549567
 112.4486110  13.2275858  91.6861573 110.0641919  15.5504529  90.7264670
 110.8056604  16.0889572  90.4499493 109.3578905  16.1770817  90.8836221
 115.5397259  17.6933669  89.3236831 115.9480615  17.2516080  88.5791463
 114.8174520  17.1186296  89.5771024 111.8928329  12.6306276  86.6970388
 112.7389524  13.0545689  86.8405037 111.8326967  11.9739900  87.3908951
 115.8626074  18.2534860  83.0789120 115.2334936  18.4180574  82.3765188
 115.4751736  18.6676469  83.8500084 119.7415305  19.1889297  80.4333484
 119.0566344  19.5688199  79.8830517 119.8259155  19.7984624  81.1665431
 116.9966237  16.8349256  87.0328827 117.2083132  17.4781016  86.3563208
 116.9495985  16.0011573  86.5650757 111.4154035  17.9909268  80.3439205
 111.8792381  18.2696971  79.5543827 111.1510834  17.0892712  80.1612296
 108.3078116  17.5380749  83.2818968 108.8779474  17.9668018  82.6436453
 108.8986228  17.2563334  83.9803154 110.3522921  14.1132420  77.1528770
 111.0546965  14.5653464  77.6202696 110.0203550  13.4716239  77.7808663
 108.8003283  12.7044177  91.5279980 108.1701944  13.3860458  91.7615376
 108.6939371  12.5927258  90.5833118 104.0948255  12.3715973  82.4545904
 103.3047309  12.6273501  81.9786014 104.5859503  13.1864311  82.5597944
 118.1112065  19.7121212  85.2051185 118.9329509  19.3101399  84.9233866
 118.1074468  19.6089446  86.1567300 106.0463001  12.7360552  79.4129380
 105.2494164  12.8479246  79.9312876 105.8188593  13.0747204  78.5470271
 111.8768668  19.2605255  87.3611895 111.9413101  19.7225662  88.1970067
 111.1679592  18.6302620  87.4894205 102.3785958  12.6246463  84.8860894
 102.6293997  13.5093473  85.1518470 102.9145507  12.4451065  84.1135986
 111.5916686  20.9273363  77.2290875 111.4562361  21.7724898  77.6575723
 112.1326499  21.1292640  76.4656809 105.0446084  18.4448801  77.8018800
 105.5570604  19.2392051  77.9524365 105.6968796  17.7475091  77.7352402
 106.8540968  21.5614557  79.8841554 107.0307597  22.4832522  79.6962537
 107.6497802  21.2472976  80.3135933 106.1393325  13.6079189  89.7603717
 106.0246840  12.7064446  90.0610816 105.2837842  13.8542886  89.4088533
 113.2185162  21.5496929  91.3591217 112.7749017  20.7633308  91.0412122
 113.8802376  21.7376080  90.6935108 107.9772284  23.0792731  85.8851896
 108.5279709  22.9509794  85.1128890 107.1383760  23.3787620  85.5346789
 115.3166401  21.8299729  89.3872619 115.2984876  22.6508610  88.8952888
 116.2386321  21.7053804  89.6122760 111.7739455  19.3443859  90.2296127
 112.3067792  18.5832147  89.9995435 111.2453536  19.0517510  90.9720282
 103.0095000  16.7737455  78.5778371 103.8470222  17.1834463  78.3612079
 103.1873268  15.8336897  78.5478565 114.9059432  14.4412536  74.2662204
 114.3906056  15.2117140  74.5050591 114.6336741  13.7677672  74.8895265
 119.8793707  17.1944890  76.2015377 119.1023149  16.8556050  75.7570539
 120.5585188  17.1997513  75.5270342 113.1392167  18.4729851  77.7414939
 112.6113529  17.7382611  77.4288177 112.6379670  19.2504527  77.4954907
 118.1185013  16.6678872  82.8581985 117.4608688  17.3578133  82.9462114
 118.9225413  17.0575304  83.2015972 116.9290472  15.0223244  80.9085927
 117.4422354  15.6553236  81.4107637 117.5791696  14.4224440  80.5429287
 108.1980482  11.1653978  74.1217436 107.3617794  11.5028665  74.4426711
 108.0585252  11.0302958  73.1844573 111.2844768  16.2910061  70.7449912
 110.3771829  16.0599315  70.9441061 111.7815800  15.4947681  70.9323894
 114.1912846  25.0007569  73.6646598 113.5174545  25.3039265  74.2731556
 114.5778668  25.8036649  73.3152055 113.4071303  12.4972700  83.1544268
 112.4893864  12.7187647  82.9965956 113.8231447  12.5719010  82.2955975
 114.1906351  13.8964115  78.2846948 114.9378170  14.4085513  77.9754070
 114.4597940  13.5748168  79.1451341 112.4633001  16.3922656  75.2673902
 111.5544220  16.1081689  75.3646372 112.4928085  16.8121735  74.4077209
 117.6952268  20.0029246  79.0365070 117.2414596  19.1620156  79.0930260
 117.0646235  20.6390644  79.3739850 116.1385208  21.8405742  79.9714888
 116.4308182  22.4010800  79.2527254 116.6483828  22.1334303  80.7268047
 103.0321171  14.1128170  79.2489104 102.8345571  13.5197531  78.5240171
 102.4767835  13.8080381  79.9665043 111.0117895  14.0051277  81.3683698
 111.0666505  13.0525113  81.2926174 110.2009097  14.1610716  81.8524996
 112.1609089  17.9331400  72.6061981 111.7228519  17.2167259  72.1467618
 112.9019530  18.1607515  72.0447072 108.9510255  12.6228337  79.1274076
 108.1378121  12.9222507  79.5339269 109.4469249  12.2284025  79.8448559
 111.1018833  22.6186093  81.0608341 111.0595012  22.8446940  80.1316873
 112.0181532  22.3849468  81.2094142 114.5484467  13.0870161  87.9588970
 114.9033854  13.3141634  88.8183436 115.1956598  13.4188538  87.3366226
 120.2782204  16.2088597  78.6638299 120.1400102  16.3990193  77.7359489
 119.9218422  16.9707980  79.1206350 120.3051583  18.2765124  83.6749571
 120.7388090  18.1840413  84.5232625 121.0183164  18.2522624  83.0369587
 109.2184634  19.4949123  80.8570304 110.0125232  18.9999443  80.6552879
 108.5076326  18.9666986  80.4938009 114.0379478  21.8767218  85.2082671
 114.0916500  22.4458154  85.9760387 113.1694259  22.0469103  84.8436709
 105.5267397  13.6392204  76.9330057 104.5964985  13.5776660  77.1500019
 105.6224869  13.1168157  76.1366698 105.4452946  10.1647017  79.5208298
 105.7059763  11.0792350  79.4117459 106.2670119   9.6971460  79.6704911
 106.9177872  11.5784774  86.6907123 107.5900925  11.3702136  86.0419772
 106.0907658  11.3806860  86.2512355 121.1667133  18.3188825  86.2082456
 121.3603023  19.2234635  86.4541731 121.0667751  17.8596244  87.0421041
 116.2282241  18.4695567  91.7823337 116.0767748  18.2406119  90.8653421
 116.2186921  19.4266169  91.7954682 112.9967578  16.0427480  86.7669603
 113.9259638  16.1938640  86.5938571 112.5758608  16.1311501  85.9118250
 111.7955910  20.0678144  84.5368141 111.6566995  19.6996929  85.4094079
 111.0070506  20.5825784  84.3652099 112.3904062  25.1687241  75.8793677
 112.5655817  24.6975284  76.6939300 111.7036850  25.7953007  76.1074938
 113.3461125  19.4459747  81.9256979 113.0110957  19.4060517  82.8214629
 112.8465070  18.7804463  81.4527389 107.3205369  14.8527377  87.4509560
 107.1825167  14.1207616  88.0521099 108.2310292  14.7636277  87.1693748
 116.2820316  16.7915782  72.1994038 115.6649487  16.0662610  72.1027091
 115.8136805  17.5525142  71.8561113 109.9487669  14.5647337  86.9393240
 110.6587288  13.9240529  86.8979858 109.9056978  14.8160231  87.8619420
 117.9374448  21.5014690  89.8599819 117.8786994  20.8173910  89.1930402
 118.3393966  22.2433680  89.4080445 108.6616603  11.5512554  88.7588879
 108.1253960  11.1003293  89.4110475 108.0733312  11.6858463  88.0159343
 106.9565147  28.3176604  82.6533538 107.1961745  28.9495128  83.3312556
 106.1134343  27.9664644  82.9398897 108.0718862  11.0101206  71.3215343
 107.1948329  10.8890007  70.9577589 108.5476615  10.2187284  71.0694231
 117.9391855  19.4654274  88.0913798 117.0518634  19.1280196  88.2140197
 118.5090406  18.7337305  88.3282564  99.5921002  15.7978366  81.4156850
 100.2792042  15.4840096  80.8277865  99.4369131  16.7019730  81.1424101
 104.3955725  10.6868562  85.8441873 104.3113913  10.0794232  85.1092283
 103.5738431  11.1777580  85.8451370 111.4693009  24.1255726  85.0575042
 111.3963180  24.9310698  85.5694346 111.0270402  24.3247692  84.2323063
 111.2582788  23.3627496  78.5677863 110.4750310  23.9049176  78.6616088
 111.9575534  23.8801476  78.9672104 113.9291692  24.0242560  87.2133200
 114.6419664  24.6590025  87.1409102 113.4381721  24.1206426  86.3973202
 115.6509219  17.9293813  78.7850492 114.7165498  18.0495275  78.6155196
 115.8285888  17.0266280  78.5210502 108.9803606  21.7737004  88.0338771
 109.6813065  22.4073487  88.1868165 108.5098721  22.1151735  87.2734410
 117.1058002  20.1154953  76.3186678 117.3817846  20.0011548  77.2280552
 116.2362500  19.7172438  76.2798851 116.7804892  14.3281611  85.8591321
 116.1276342  14.5757519  85.2043774 117.1585272  13.5145749  85.5253799
 113.7412066  24.3641304  79.9619492 113.9234460  23.5462960  80.4247244
 114.5645052  24.5808997  79.5244382 114.0754231  23.2909489  77.2234540
 114.6041998  22.7801944  76.6104702 114.3382451  22.9752020  78.0880073
 112.8292465  15.0701422  92.3457359 112.1533102  14.9695551  93.0159734
 113.6520099  14.9140636  92.8093356 104.5771324  21.3073359  84.9669874
 105.1624761  20.5617047  85.0997778 104.3796162  21.6177315  85.8506538
 107.4309979  24.3424606  79.9832316 106.7620354  24.8270734  79.4996356
 107.2922849  24.5893827  80.8975695  99.1688979  13.8778959  83.6874317
  99.2073078  13.3442550  84.4811435  98.6629271  13.3514164  83.0685294
 111.5715248  26.3768350  86.5814975 112.1233556  26.5399971  87.3464060
 111.9121441  26.9672787  85.9094999 106.0232013  10.7966632  90.8309893
 106.6504052  10.4143709  91.4447418 105.1659932  10.5780834  91.1965586
 116.4226122  21.2029607  92.4363629 116.9666026  21.8159565  91.9418584
 115.8412967  21.7609186  92.9530642 102.7997556  12.6043061  76.7628248
 103.0950997  11.6953739  76.7095302 101.8985592  12.5830801  76.4409251
 114.7083635  24.3250325  83.5678657 114.5834774  23.5240065  83.0589602
 115.3662726  24.8196519  83.0792627 106.3291803  10.6799058  82.7455797
 105.6078389  11.2935025  82.6063270 107.1185059  11.2156822  82.6672443
 116.7718543  22.1259345  85.1958207 115.8248879  22.0064696  85.1236533
 117.1201316  21.2381843  85.2784468 104.5285398  10.2857159  76.8867573
 104.1998104   9.4054538  76.7042679 104.8824768  10.2304827  77.7743963
 113.7764977  21.9212061  81.3962559 113.6289939  20.9928769  81.5770129
 114.6018470  21.9432152  80.9119634 107.6427221  10.5730129  77.2543051
 107.9823293  11.1016050  76.5321659 108.0899341  10.9110535  78.0301618
 117.3799098  22.7440620  82.4827432 118.3045646  22.5383482  82.3451883
 117.2114402  22.4957021  83.3916773 108.5125712  12.7335612  82.9665421
 108.3670293  13.0475915  83.8589702 108.0350916  13.3520513  82.4136319
 117.1694415  23.2626288  77.8389523 117.3431292  22.6972710  77.0863376
 117.6623306  24.0627183  77.6569013 102.9871375  15.2740957  85.9053082
 102.4424843  16.0500765  86.0373356 103.8650724  15.6211761  85.7472203
 118.1569587  22.5793052  74.9386421 118.8520492  23.1999745  75.1573736
 118.4992737  21.7288403  75.2138799 103.7737396  14.4010853  88.7983239
 103.0319132  14.5493488  89.3847869 103.4530141  14.6619119  87.9349988
 120.0561010  20.0292758  76.4673752 120.5812334  20.3680030  75.7423072
 119.9683363  19.0939773  76.2836887 111.7181059  23.9426831  88.5963629
 112.0268185  23.6975978  89.4686328 112.5156541  24.1473470  88.1082499
 111.7401671  26.0964741  80.8269005 111.3006661  25.6041120  81.5201862
 112.4909788  25.5537709  80.5861081 104.2194010  22.2876282  80.8293633
 105.0452030  21.9880054  80.4492277 103.8688062  21.5183904  81.2783422
 109.1875543  21.6402750  82.8991307 108.5655553  20.9773455  82.5993535
 109.8580410  21.6663882  82.2164955 102.4202615  20.2062608  81.7882567
 101.5834523  19.7784783  81.6066568 102.3926261  20.3995052  82.7253358
 119.7454916  20.6625661  91.7724950 118.9550460  20.6449800  91.2329450
 119.5088271  21.2013955  92.5273987 119.8652791  17.5118128  89.0857679
 119.9150796  17.3468135  90.0273202 119.7566715  16.6445387  88.6955560
 108.7489050  20.1906673  76.3749768 108.8977170  20.8742138  75.7216440
 109.5555494  20.1711763  76.8899223 121.3670988  19.9315069  89.3299700
 121.0755797  20.2945050  90.1663161 120.7543120  19.2182077  89.1513032
 122.5666671  17.4967949  81.8502270 123.4013562  17.9357753  82.0139831
 122.7025799  17.0206602  81.0310516 119.6158177  15.0547684  87.7979758
 120.0912298  15.2475330  86.9898610 118.6923742  15.1106870  87.5523142
 106.5041683  16.2171851  77.3810837 106.2587725  15.3134181  77.5791047
 106.6737598  16.2189001  76.4390315 105.7737331  11.9500208  74.8796998
 105.0806576  12.0244563  74.2237034 105.5289083  11.1860552  75.4018515
 112.2484456  22.6854804  73.8461515 111.6758423  23.3044991  73.3931987
 112.8217249  23.2354165  74.3801437 115.4681715  22.9691954  74.9770097
 116.4012389  22.9037516  75.1802973 115.3804928  23.8048221  74.5184630
 118.0969732  22.2857824  71.9374045 118.0183364  21.9517688  72.8309803
 118.9179399  22.7779592  71.9365517 112.6331254  14.0215616  71.1877568
 113.5790359  13.8921825  71.2565986 112.2545499  13.2830278  71.6646996
 112.5169947  18.0733363  92.6478225 113.4372956  18.2511962  92.8418271
 112.4819530  17.1289408  92.4957924 110.8174171  11.9465593  71.1232453
 109.9105627  11.6498706  71.1995166 111.0950152  11.6495411  70.2566739
 101.7352112  13.2671956  81.5731499 101.4154896  12.4137264  81.2805873
 101.1885540  13.4820534  82.3289467 105.5132019  15.9834397  85.2901006
 105.7318029  16.9151505  85.3089039 105.9257793  15.6242372  86.0755810
 110.3859885  11.5567603  94.6803755 110.2856611  12.5061960  94.6115846
 110.1681427  11.2285842  93.8079825 101.6040372  16.8874868  83.5424621
 100.9103843  16.4728821  83.0294575 102.3513363  16.9295404  82.9458040
 110.2491155  14.9864742  93.4968816 109.7658236  15.7865102  93.7032705
 110.3352094  14.9972687  92.5436260 103.5177114  16.8193122  81.4190636
 103.4947802  16.9180809  80.4672519 103.8277751  17.6658272  81.7407802
 106.1764492  18.8769277  85.5337250 107.1307746  18.8453219  85.4667182
 105.9777016  18.4159900  86.3487476 106.7663874  17.4470393  88.1008048
 107.5856763  17.9414471  88.1242885 107.0400682  16.5302361  88.0725615
 104.5314721  24.4188896  82.5507448 104.3969189  23.6589297  81.9845446
 104.1146783  25.1429796  82.0836237 115.6673684  19.6025820  71.5584023
 116.3709534  19.8075822  72.1741679 114.9436333  20.1702581  71.8233107
 116.4971494  15.3535681  77.6786293 116.4406696  15.8104232  76.8393926
 117.0499837  14.5926365  77.5009136 107.6883847  25.3158213  82.7625891
 107.5716231  26.2603646  82.6604581 106.8676293  25.0131775  83.1511690
 117.5760381  20.0408349  73.6082483 118.4105985  19.6089547  73.4259958
 117.4144724  19.8690362  74.5359378 117.2306273  16.5440462  74.9738823
 117.1755077  16.3784734  74.0327267 116.6052329  17.2516495  75.1301012
 102.0198788  11.7808526  88.8000245 102.6657652  11.2707480  89.2887470
 101.8115940  12.5177208  89.3743670 114.5452181  18.8489374  94.2992385
 115.4143340  19.0230026  93.9379020 114.0658932  19.6683791  94.1768115
 108.7138361  25.9686475  85.9781819 109.6165608  26.0010085  86.2948314
 108.4875731  25.0386926  85.9928155 110.4691963  24.7217462  82.6391898
 109.5187594  24.7219323  82.5256270 110.7724449  23.9750196  82.1227932
 126.2044656  30.5578000  83.7037660 126.8423066  30.4384747  83.0001000
 126.0865499  31.5058844  83.7625612 123.0134363  30.5105428  83.6399185
 122.6752874  30.3946493  82.7519720 123.8824131  30.1096593  83.6200191
 118.8721178  32.3640904  79.6296076 118.3086043  32.2730841  78.8612363
 118.7573573  31.5440809  80.1098568 123.4954146  31.6640280  89.5985390
 123.4842786  31.2693078  88.7265894 123.6574785  30.9306352  90.1919162
 116.4185610  33.8592096  82.4680296 117.2106902  33.5182921  82.0526595
 116.6582260  33.9687071  83.3882449 124.4520737  36.0311872  74.9410541
 123.8008717  36.6165953  74.5544554 125.2465100  36.5618067  75.0005578
 118.3776364  33.1201009  75.3397675 119.1507240  32.5729996  75.2010551
 118.7301763  33.9845259  75.5512136 120.2161407  34.4477392  88.5464574
 119.9251273  35.3523022  88.4311241 120.8518391  34.4893919  89.2608644
 121.1417614  31.8254240  85.1365934 121.7381186  31.6010262  84.4222897
 121.1992585  31.0838986  85.7391382 120.7142642  29.2793675  72.9716125
 120.9668163  28.7575197  72.2099588 119.7767201  29.1159821  73.0742808
 125.7585925  28.2829454  80.7790868 126.5449014  27.8648877  80.4281285
 126.0224629  29.1875546  80.9472516 125.9296002  33.7202304  75.4779525
 125.2941835  33.7936931  76.1900430 125.5993409  34.3095903  74.7998604
 131.1594352  28.2204687  81.6823847 131.8919524  27.6503904  81.9161676
 130.4033708  27.8326287  82.1230352 120.4338931  31.1821781  75.1740500
 120.3175189  30.5066685  75.8421584 120.5441191  30.6954155  74.3572653
 122.7770472  30.6431928  78.8787189 122.4128679  30.1162549  79.5900110
 123.6337588  30.2530398  78.7053674 128.6819772  21.9326261  86.1418455
 128.3503097  22.8021672  85.9179670 128.0865386  21.6162545  86.8212486
 122.4175959  25.6721828  73.8748538 122.5850361  26.5402065  74.2419009
 122.2273128  25.8349110  72.9509827 125.1751292  34.1338807  85.5414368
 124.8752015  35.0363846  85.4330175 124.8302351  33.8670990  86.3935521
 118.6263773  30.5852604  81.5751072 117.7014270  30.4528818  81.7828764
 118.8748187  31.3646823  82.0721015 128.5748436  26.6521347  83.2211805
 127.6665313  26.5836756  82.9270566 128.5236031  27.1293292  84.0493631
 122.3965180  28.1279486  74.8595204 122.2764805  28.5736536  75.6980685
 121.7017768  28.4764803  74.3008743 115.9872584  30.2285877  82.4094861
 116.1164966  30.4820356  83.3234273 115.3070036  30.8213585  82.0899516
 120.1572072  40.8983127  78.5085336 120.0796101  41.8490952  78.5873816
 119.5533715  40.5529000  79.1660262 122.6489301  28.0710993  91.1646703
 121.8722636  28.6304913  91.1549567 123.2879865  28.5567776  91.6861573
 130.4410082  24.8537786  84.9989679 129.7984462  25.1470319  84.3529474
 129.9365011  24.7390706  85.8042876 128.0950246  28.6000959  75.6875538
 129.0068102  28.8328346  75.5123236 127.5859893  29.1838003  75.1250617
 120.9035674  30.8796446  90.7264670 121.6450358  31.4181490  90.4499493
 120.1972659  31.5062735  90.8836221 126.3791013  33.0225587  89.3236831
 126.7874369  32.5807997  88.5791463 125.6568275  32.4478214  89.5771024
 122.7322083  27.9598193  86.6970388 123.5783279  28.3837607  86.8405037
 122.6720721  27.3031818  87.3908951 126.7019828  33.5826777  83.0789120
 126.0728690  33.7472491  82.3765188 126.3145490  33.9968387  83.8500084
 130.5809060  34.5181215  80.4333484 129.8960098  34.8980116  79.8830517
 130.6652909  35.1276542  81.1665431 125.8821529  25.6202562  88.3551562
 125.6382461  26.3744622  87.8185837 126.1581459  25.9987909  89.1898809
 127.8359992  32.1641174  87.0328827 128.0476887  32.8072934  86.3563208
 127.7889740  31.3303491  86.5650757 125.4386221  24.7758995  83.9365399
 124.5770700  25.0740248  84.2282137 125.4648655  24.9929394  83.0046432
 122.2547790  33.3201185  80.3439205 122.7186135  33.5988888  79.5543827
 121.9904588  32.4184630  80.1612296 119.1471871  32.8672667  83.2818968
 119.7173228  33.2959935  82.6436453 119.7379983  32.5855252  83.9803154
 121.1916676  29.4424338  77.1528770 121.8940719  29.8945381  77.6202696
 120.8597304  28.8008157  77.7808663 119.6397038  28.0336094  91.5279980
 119.0095698  28.7152375  91.7615376 119.5333125  27.9219176  90.5833118
 114.9342010  27.7007890  82.4545904 114.1441064  27.9565419  81.9786014
 115.4253257  28.5156228  82.5597944 128.9505819  35.0413130  85.2051185
 129.7723263  34.6393317  84.9233866 128.9468222  34.9381364  86.1567300
 116.8856755  28.0652470  79.4129380 116.0887919  28.1771164  79.9312876
 116.6582348  28.4039122  78.5470271 122.7162423  34.5897173  87.3611895
 122.7806855  35.0517580  88.1970067 122.0073347  33.9594538  87.4894205
 113.2179713  27.9538381  84.8860894 113.4687751  28.8385391  85.1518470
 113.7539261  27.7742982  84.1135986 137.0411813  31.3851878  81.5536156
 136.2875521  30.8159276  81.3980160 137.1759354  31.3514543  82.5006791
 122.4310441  36.2565280  77.2290875 122.2956115  37.1016816  77.6575723
 122.9720253  36.4584558  76.4656809 118.9177780  22.3356860  93.8905231
 118.5244726  21.7823059  94.5652875 119.7343921  22.6467439  94.2811748
 115.8839838  33.7740718  77.8018800 116.3964359  34.5683969  77.9524365
 116.5362551  33.0767009  77.7352402 117.6934723  36.8906475  79.8841554
 117.8701351  37.8124439  79.6962537 118.4891556  36.5764894  80.3135933
 121.8345741  23.7514739  91.4825487 122.5755455  24.3521892  91.4029950
 122.0663664  23.0092377  90.9243530 116.9787079  28.9371107  89.7603717
 116.8640594  28.0356364  90.0610816 116.1231597  29.1834803  89.4088533
 124.0578917  36.8788847  91.3591217 123.6142771  36.0925225  91.0412122
 124.7196131  37.0667997  90.6935108 118.8166038  38.4084648  85.8851896
 119.3673463  38.2801712  85.1128890 117.9777514  38.7079537  85.5346789
 126.1560155  37.1591647  89.3872619 126.1378630  37.9800528  88.8952888
 127.0780075  37.0345722  89.6122760 122.6133209  34.6735776  90.2296127
 123.1461546  33.9124064  89.9995435 122.0847290  34.3809428  90.9720282
 125.7802904  19.7795842  85.7589769 125.4367174  20.6697484  85.6828879
 126.1481867  19.5897500  84.8959354 113.8488755  32.1029373  78.5778371
 114.6863977  32.5126381  78.3612079 114.0267022  31.1628815  78.5478565
 125.7453187  29.7704453  74.2662204 125.2299810  30.5409058  74.5050591
 125.4730495  29.0969590  74.8895265 123.3300298  24.6154154  79.3247442
 122.4741894  24.2261005  79.1453081 123.7427250  24.6946115  78.4647228
 124.8599445  22.1500497  83.7239002 124.3564240  22.1130633  82.9106807
 125.1530051  23.0593240  83.7835659 121.1042330  22.2339227  82.7305184
 121.9695327  22.0382036  82.3711073 121.1719839  22.0049579  83.6574541
 130.7187461  32.5236808  76.2015377 129.9416904  32.1847967  75.7570539
 131.3978942  32.5289431  75.5270342 125.5339490  27.6431545  76.0921985
 125.2289626  27.9577695  76.9432128 126.4869932  27.7212965  76.1349318
 123.9785922  33.8021769  77.7414939 123.4507283  33.0674528  77.4288177
 123.4773425  34.5796445  77.4954907 128.9578768  31.9970789  82.8581985
 128.3002442  32.6870051  82.9462114 129.7619167  32.3867221  83.2015972
 118.7104650  24.4641435  80.1021551 119.2848401  24.2416617  79.3694744
 119.2975632  24.5330130  80.8550152 127.7684227  30.3515162  80.9085927
 128.2816108  30.9845154  81.4107637 128.4185451  29.7516357  80.5429287
 119.0374237  26.4945896  74.1217436 118.2011549  26.8320583  74.4426711
 118.8979006  26.3594876  73.1844573 121.0127317  21.3382684  78.8296620
 120.3591730  21.0231701  78.2053235 120.9707791  20.7158424  79.5556443
 122.1238522  31.6201979  70.7449912 121.2165584  31.3891232  70.9441061
 122.6209554  30.8239598  70.9323894 125.0306601  40.3299486  73.6646598
 124.3568300  40.6331183  74.2731556 125.4172423  41.1328567  73.3152055
 124.2465058  27.8264617  83.1544268 123.3287619  28.0479564  82.9965956
 124.6625201  27.9010928  82.2955975 125.0300105  29.2256033  78.2846948
 125.7771924  29.7377430  77.9754070 125.2991695  28.9040086  79.1451341
 123.3026756  31.7214574  75.2673902 122.3937975  31.4373607  75.3646372
 123.3321839  32.1413652  74.4077209 128.5346023  35.3321163  79.0365070
 128.0808350  34.4912073  79.0930260 127.9039990  35.9682562  79.3739850
 127.4778943  26.2613149  80.2665737 126.7401699  25.7490536  80.5975980
 127.7305716  25.8213531  79.4549014 126.9778962  37.1697660  79.9714888
 127.2701937  37.7302717  79.2527254 127.4877583  37.4626221  80.7268047
 127.5790570  19.0389401  80.8607506 127.8849447  18.1786765  80.5733422
 128.3043175  19.6307022  80.6606500 113.8714926  29.4420088  79.2489104
 113.6739326  28.8489449  78.5240171 113.3161590  29.1372298  79.9665043
 121.8511650  29.3343194  81.3683698 121.9060259  28.3817031  81.2926174
 121.0402852  29.4902634  81.8524996 123.0002843  33.2623318  72.6061981
 122.5622273  32.5459176  72.1467618 123.7413284  33.4899432  72.0447072
 119.7904009  27.9520254  79.1274076 118.9771875  28.2514425  79.5339269
 120.2863004  27.5575943  79.8448559 121.9412587  37.9478011  81.0608341
 121.8988766  38.1738857  80.1316873 122.8575286  37.7141386  81.2094142
 125.3878221  28.4162079  87.9588970 125.7427609  28.6433552  88.8183436
 126.0350352  28.7480455  87.3366226 131.1175958  31.5380515  78.6638299
 130.9793857  31.7282111  77.7359489 130.7612177  32.2999897  79.1206350
 119.2818084  25.5238610  84.7435311 119.9217464  25.3827369  84.0458275
 118.4495615  25.2373123  84.3673913 131.1445338  33.6057042  83.6749571
 131.5781844  33.5132331  84.5232625 131.8576918  33.5814542  83.0369587
 120.0578388  34.8241040  80.8570304 120.8518987  34.3291360  80.6552879
 119.3470081  34.2958903  80.4938009 124.8773233  37.2059136  85.2082671
 124.9310255  37.7750072  85.9760387 124.0088014  37.3761021  84.8436709
 116.3661152  28.9684122  76.9330057 115.4358740  28.9068577  77.1500019
 116.4618624  28.4460075  76.1366698 116.2846701  25.4938935  79.5208298
 116.5453518  26.4084268  79.4117459 117.1063873  25.0263377  79.6704911
 117.7571626  26.9076692  86.6907123 118.4294679  26.6994054  86.0419772
 116.9301413  26.7098778  86.2512355 132.0060887  33.6480742  86.2082456
 132.1996777  34.5526553  86.4541731 131.9061505  33.1888161  87.0421041
 123.6597198  23.5338633  88.7072784 123.0125113  24.2328582  88.6137260
 124.4298213  23.9674777  89.0749032 127.0675996  33.7987485  91.7823337
 126.9161502  33.5698037  90.8653421 127.0580675  34.7558086  91.7954682
 123.8361332  31.3719398  86.7669603 124.7653392  31.5230557  86.5938571
 123.4152362  31.4603419  85.9118250 122.6349664  35.3970062  84.5368141
 122.4960750  35.0288847  85.4094079 121.8464260  35.9117702  84.3652099
 123.2297816  40.4979159  75.8793677 123.4049572  40.0267202  76.6939300
 122.5430604  41.1244925  76.1074938 124.1854879  34.7751665  81.9256979
 123.8504712  34.7352435  82.8214629 123.6858825  34.1096381  81.4527389
 118.1599123  30.1819295  87.4509560 118.0218921  29.4499534  88.0521099
 119.0704047  30.0928195  87.1693748 127.1214071  32.1207699  72.1994038
 126.5043242  31.3954527  72.1027091 126.6530559  32.8817059  71.8561113
 120.7881424  29.8939254  86.9393240 121.4981042  29.2532446  86.8979858
 120.7450732  30.1452149  87.8619420 128.7768203  36.8306608  89.8599819
 128.7180749  36.1465828  89.1930402 129.1787721  37.5725598  89.4080445
 119.5010358  26.8804472  88.7588879 118.9647715  26.4295211  89.4110475
 118.9127066  27.0150381  88.0159343 117.7958901  43.6468521  82.6533538
 118.0355500  44.2787046  83.3312556 116.9528098  43.2956561  82.9398897
 118.9112617  26.3393124  71.3215343 118.0342083  26.2181924  70.9577589
 119.3870370  25.5479202  71.0694231 128.7785610  34.7946192  88.0913798
 127.8912389  34.4572113  88.2140197 129.3484161  34.0629223  88.3282564
 110.4314757  31.1270283  81.4156850 111.1185797  30.8132013  80.8277865
 110.2762886  32.0311648  81.1424101 115.2349479  26.0160480  85.8441873
 115.1507668  25.4086149  85.1092283 114.4132186  26.5069498  85.8451370
 122.3086763  39.4547644  85.0575042 122.2356935  40.2602615  85.5694346
 121.8664156  39.6539610  84.2323063 122.0976543  38.6919414  78.5677863
 121.3144065  39.2341094  78.6616088 122.7969288  39.2093394  78.9672104
 125.4073193  24.5014043  81.2112069 125.9041893  23.7484006  80.8913139
 124.6360175  24.5378360  80.6455278 133.2602950  30.2054409  82.8530360
 133.2492827  31.0879124  82.4824293 132.3920330  29.8525960  82.6584897
 124.7685447  39.3534478  87.2133200 125.4813419  39.9881943  87.1409102
 124.2775475  39.4498344  86.3973202 126.4902974  33.2585731  78.7850492
 125.5559252  33.3787193  78.6155196 126.6679642  32.3558197  78.5210502
 121.9908162  26.6431426  80.9383753 121.6205949  26.0902467  81.6264659
 122.4867254  26.0389560  80.3858753 129.8775525  29.1003050  79.3200526
 130.3435977  29.9331041  79.2460829 130.3283026  28.6348031  80.0245785
 119.8197360  37.1028921  88.0338771 120.5206820  37.7365404  88.1868165
 119.3492475  37.4443653  87.2734410 127.9451756  35.4446871  76.3186678
 128.2211600  35.3303466  77.2280552 127.0756255  35.0464356  76.2798851
 127.8492188  21.4683637  83.3591427 126.9355268  21.6987864  83.5273634
 128.2785289  21.5522081  84.2105460 127.6198646  29.6573529  85.8591321
 126.9670097  29.9049436  85.2043774 127.9979026  28.8437667  85.5253799
 124.5805820  39.6933222  79.9619492 124.7628215  38.8754878  80.4247244
 125.4038806  39.9100914  79.5244382 124.9147986  38.6201407  77.2234540
 125.4435752  38.1093862  76.6104702 125.1776205  38.3043937  78.0880073
 123.6686219  30.3993340  92.3457359 122.9926856  30.2987469  93.0159734
 124.4913853  30.2432554  92.8093356 115.4165078  36.6365276  84.9669874
 116.0018515  35.8908964  85.0997778 115.2189917  36.9469233  85.8506538
 118.2703734  39.6716524  79.9832316 117.6014109  40.1562651  79.4996356
 118.1316603  39.9185744  80.8975695 110.0082733  29.2070877  83.6874317
 110.0466833  28.6734467  84.4811435 109.5023026  28.6806082  83.0685294
 122.4109002  41.7060267  86.5814975 122.9627310  41.8691889  87.3464060
 122.7515196  42.2964705  85.9094999 117.3873495  24.0535417  87.1836859
 117.4514822  24.9150248  86.7714257 117.3240616  23.4409419  86.4509218
 116.8625768  26.1258550  90.8309893 117.4897807  25.7435627  91.4447418
 116.0053687  25.9072752  91.1965586 127.2619877  36.5321525  92.4363629
 127.8059780  37.1451483  91.9418584 126.6806721  37.0901103  92.9530642
 113.6391311  27.9334979  76.7628248 113.9344752  27.0245657  76.7095302
 112.7379346  27.9122718  76.4409251 125.5477389  39.6542243  83.5678657
 125.4228529  38.8531983  83.0589602 126.2056481  40.1488436  83.0792627
 117.1685558  26.0090975  82.7455797 116.4472143  26.6226943  82.6063270
 117.9578813  26.5448740  82.6672443 127.6112298  37.4551263  85.1958207
 126.6642633  37.3356614  85.1236533 127.9595071  36.5673761  85.2784468
 119.9711871  23.3445402  89.0196449 120.4946273  23.5907698  89.7822758
 119.7524204  24.1765437  88.5999586 115.3679152  25.6149076  76.8867573
 115.0391858  24.7346455  76.7042679 115.7218523  25.5596745  77.7743963
 124.6158731  37.2503979  81.3962559 124.4683694  36.3220687  81.5770129
 125.4412225  37.2724070  80.9119634 118.4820975  25.9022046  77.2543051
 118.8217048  26.4307967  76.5321659 118.9293096  26.2402452  78.0301618
 128.2192853  38.0732538  82.4827432 129.1439400  37.8675399  82.3451883
 128.0508156  37.8248939  83.3916773 121.1764416  24.2859097  86.7046119
 120.8361237  23.4866910  87.1066799 120.4703423  24.5860808  86.1322952
 121.8280888  21.3708409  85.1573442 122.6506957  20.8968888  85.0352333
 122.0718952  22.1498893  85.6572128 120.4689123  24.3996668  75.4536344
 121.1897485  24.7777921  74.9500061 119.8454427  25.1185545  75.5571322
 124.6120245  25.1041817  76.3894676 124.8283860  25.9866455  76.0883504
 124.1314313  24.7128030  75.6600318 119.3519467  28.0627530  82.9665421
 119.2064048  28.3767833  83.8589702 118.8744670  28.6812430  82.4136319
 121.2115850  25.0530078  83.0146310 121.1977418  24.1571171  82.6778608
 121.9288278  25.0600742  83.6484596 123.0641980  25.4867418  85.0599438
 122.8059758  26.4084489  85.0583768 122.5327021  25.0897853  85.7499902
 128.0088169  38.5918205  77.8389523 128.1825047  38.0264628  77.0863376
 128.5017060  39.3919100  77.6569013 113.8265129  30.6032874  85.9053082
 113.2818597  31.3792682  86.0373356 114.7044479  30.9503679  85.7472203
 120.6152746  23.9344458  78.2833881 120.7368657  23.0061104  78.4824768
 120.3254788  23.9483144  77.3712196 123.4843936  21.6199369  81.4200600
 123.5065633  21.6838702  80.4652580 123.9011995  20.7803877  81.6141107
 133.8627560  31.3554628  79.4579823 134.3058706  30.6061953  79.0598946
 132.9854071  31.3464765  79.0753555 128.9963342  37.9084970  74.9386421
 129.6914246  38.5291662  75.1573736 129.3386492  37.0580321  75.2138799
 114.6131151  29.7302771  88.7983239 113.8712887  29.8785406  89.3847869
 114.2923895  29.9911036  87.9349988 130.8954765  35.3584675  76.4673752
 131.4206089  35.6971948  75.7423072 130.8077117  34.4231691  76.2836887
 122.5574814  39.2718749  88.5963629 122.8661940  39.0267896  89.4686328
 123.3550296  39.4765387  88.1082499 122.5795426  41.4256659  80.8269005
 122.1400416  40.9333037  81.5201862 123.3303543  40.8829626  80.5861081
 115.0587765  37.6168199  80.8293633 115.8845784  37.3171971  80.4492277
 114.7081817  36.8475822  81.2783422 120.0269298  36.9694668  82.8991307
 119.4049307  36.3065373  82.5993535 120.6974165  36.9955799  82.2164955
 113.2596370  35.5354526  81.7882567 112.4228278  35.1076700  81.6066568
 113.2320015  35.7286969  82.7253358 120.0993825  25.4476456  92.4923813
 120.1481981  26.3238578  92.1101583 120.6416339  24.9053849  91.9195456
 130.5848671  35.9917579  91.7724950 129.7944215  35.9741718  91.2329450
 130.3482025  36.5305873  92.5273987 130.7046546  32.8410045  89.0857679
 130.7544551  32.6760053  90.0273202 130.5960469  31.9737304  88.6955560
 119.5882805  35.5198591  76.3749768 119.7370925  36.2034055  75.7216440
 120.3949248  35.5003681  76.8899223 127.9950308  28.8240973  90.4016985
 128.8960171  28.6847438  90.1100983 128.0698283  28.9895428  91.3415163
 122.3293114  26.2007828  89.2470172 121.4596423  26.4941394  88.9752760
 122.5652594  26.7848273  89.9677435 132.2064743  35.2606987  89.3299700
 131.9149551  35.6236967  90.1663161 131.5936874  34.5473995  89.1513032
 133.4060425  32.8259867  81.8502270 134.2407316  33.2649671  82.0139831
 133.5419554  32.3498520  81.0310516 130.4551931  30.3839601  87.7979758
 130.9306053  30.5767248  86.9898610 129.5317496  30.4398787  87.5523142
 117.3435438  31.5463769  77.3810837 117.0981480  30.6426099  77.5791047
 117.5131352  31.5480919  76.4390315 125.0332147  22.4187445  86.7635592
 125.5514091  23.1548472  86.4382081 124.6787280  22.7251438  87.5982351
 116.6131085  27.2792126  74.8796998 115.9200330  27.3536481  74.2237034
 116.3682837  26.5152470  75.4018515 125.2844742  18.8387727  82.2836489
 125.5646495  18.1710917  82.9096915 126.0695349  19.0316823  81.7711153
 123.0878210  38.0146721  73.8461515 122.5152177  38.6336909  73.3931987
 123.6611004  38.5646083  74.3801437 129.1553600  27.2605361  86.0308064
 130.1071023  27.3603459  86.0520288 128.9857050  26.4683630  86.5406148
 127.1767979  24.3460945  86.2167465 126.5817912  24.6265957  85.5213953
 126.8917676  24.8354846  86.9884206 126.3075470  38.2983872  74.9770097
 127.2406143  38.2329433  75.1802973 126.2198683  39.1340138  74.5184630
 128.9363487  37.6149742  71.9374045 128.8577118  37.2809605  72.8309803
 129.7573153  38.1071510  71.9365517 131.6341678  30.4811481  85.1450364
 131.6017998  29.5427482  85.3310047 132.2442301  30.5595518  84.4116188
 123.4725009  29.3507534  71.1877568 124.4184113  29.2213742  71.2565986
 123.0939254  28.6122196  71.6646996 131.7836166  27.2722525  85.1908647
 131.2675215  26.4880981  85.0038576 132.6676115  26.9441241  85.3555166
 129.4446893  21.0163540  81.1504459 129.2471714  20.7078628  82.0347791
 130.0546599  21.7425179  81.2802389 135.5333525  29.6835351  84.8830852
 134.8066688  29.5491316  84.2747343 135.1180812  29.9912179  85.6887570
 123.3563701  33.4025280  92.6478225 124.2766711  33.5803879  92.8418271
 123.3213284  32.4581326  92.4957924 121.6567926  27.2757511  71.1232453
 120.7499381  26.9790623  71.1995166 121.9343907  26.9787329  70.2566739
 112.5745866  28.5963874  81.5731499 112.2548651  27.7429182  81.2805873
 112.0279294  28.8112452  82.3289467 116.3525774  31.3126315  85.2901006
 116.5711784  32.2443423  85.3089039 116.7651548  30.9534289  86.0755810
 123.2729992  21.8194400  77.2776694 122.4630720  21.4741485  77.6531940
 123.9614408  21.5101944  77.8664306 125.2020540  20.8972447  78.9000991
 125.7551578  21.3167900  79.5591014 125.4390626  19.9708195  78.9423947
 121.2253639  26.8859521  94.6803755 121.1250366  27.8353878  94.6115846
 121.0075181  26.5577760  93.8079825 120.4266710  24.1344446  71.2644432
 121.2885874  24.4599344  71.5240249 120.6117055  23.3475942  70.7517498
 112.4434126  32.2166785  83.5424621 111.7497598  31.8020738  83.0294575
 113.1907117  32.2587322  82.9458040 128.5799347  23.0072972  78.4079655
 127.9998016  23.6657776  78.0257707 128.3135280  22.1850317  77.9967072
 127.0302913  22.4078030  80.6100975 127.5302692  22.5194564  79.8015294
 127.6738521  22.1039083  81.2501784 121.0884909  30.3156660  93.4968816
 120.6051991  31.1157020  93.7032705 121.1745848  30.3264604  92.5436260
 114.3570869  32.1485039  81.4190636 114.3341557  32.2472726  80.4672519
 114.6671505  32.9950190  81.7407802 117.0158247  34.2061194  85.5337250
 117.9701500  34.1745137  85.4667182 116.8170770  33.7451818  86.3487476
 117.6057629  32.7762310  88.1008048 118.4250518  33.2706389  88.1242885
 117.8794436  31.8594278  88.0725615 127.3624225  25.1673063  77.4636003
 126.4750080  25.4522713  77.2456198 127.7778214  25.0066826  76.6163280
 130.7138761  25.1919584  81.1790342 131.4899151  25.6816036  81.4514959
 129.9886895  25.6177638  81.6362212 133.1511320  25.9047203  82.2364283
 133.7455810  25.6642939  81.5257591 133.2237903  25.1854333  82.8637819
 115.3708475  39.7480814  82.5507448 115.2362943  38.9881215  81.9845446
 114.9540538  40.4721714  82.0836237 126.5067438  34.9317737  71.5584023
 127.2103289  35.1367740  72.1741679 125.7830087  35.4994499  71.8233107
 127.3365249  30.6827599  77.6786293 127.2800450  31.1396150  76.8393926
 127.8893591  29.9218283  77.5009136 131.1470055  26.4717330  78.5036413
 130.8906989  26.0713966  79.3344621 130.5222923  27.1861124  78.3786552
 135.4582392  29.2113404  81.0107704 134.8981950  29.2806593  81.7839266
 134.8525896  29.0354388  80.2907201 118.5277601  40.6450131  82.7625891
 118.4109985  41.5895563  82.6604581 117.7070048  40.3423692  83.1511690
 128.4154136  35.3700266  73.6082483 129.2499740  34.9381465  73.4259958
 128.2538479  35.1982280  74.5359378 128.0700028  31.8732380  74.9738823
 128.0148832  31.7076651  74.0327267 127.4446083  32.5808413  75.1301012
 112.8592543  27.1100444  88.8000245 113.5051407  26.5999398  89.2887470
 112.6509694  27.8469126  89.3743670 125.3845935  34.1781292  94.2992385
 126.2537095  34.3521944  93.9379020 124.9052687  34.9975708  94.1768115
 121.3796153  21.3740489  74.5524141 121.3674823  22.3182329  74.7092412
 122.2719575  21.1910634  74.2583602 119.5532115  41.2978393  85.9781819
 120.4559362  41.3302003  86.2948314 119.3269485  40.3678844  85.9928155
 121.3085717  40.0509379  82.6391898 120.3581348  40.0511241  82.5256270
 121.6118204  39.3042114  82.1227932 125.1948273  17.9683265  78.8070078
 124.4280669  17.4141752  78.9526760 125.6058978  18.0405134  79.6684229
 117.1990034  24.2568061  92.8975259 118.0621496  23.9004866  93.1078584
 116.6255445  23.9181956  93.5850663 133.8528117  45.8397346  83.6399185
 133.5146629  45.7238410  82.7519720 134.7217885  45.4388511  83.6200191
 129.7114933  47.6932822  79.6296076 129.1479798  47.6022759  78.8612363
 129.5967328  46.8732727  80.1098568 134.3347900  46.9932197  89.5985390
 134.3236541  46.5984996  88.7265894 134.4968540  46.2598270  90.1919162
 127.2579365  49.1884014  82.4680296 128.0500657  48.8474838  82.0526595
 127.4976015  49.2978989  83.3882449 135.2914492  51.3603790  74.9410541
 134.6402471  51.9457870  74.5544554 136.0858854  51.8909985  75.0005578
 129.2170119  48.4492927  75.3397675 129.9900995  47.9021914  75.2010551
 129.5695518  49.3137176  75.5512136 131.0555161  49.7769309  88.5464574
 130.7645027  50.6814940  88.4311241 131.6912146  49.8185837  89.2608644
 131.9811368  47.1546158  85.1365934 132.5774940  46.9302180  84.4222897
 132.0386340  46.4130903  85.7391382 131.5536397  44.6085593  72.9716125
 131.8061917  44.0867114  72.2099588 130.6160956  44.4451739  73.0742808
 136.5979679  43.6121371  80.7790868 137.3842769  43.1940795  80.4281285
 136.8618384  44.5167464  80.9472516 136.7689757  49.0494222  75.4779525
 136.1335590  49.1228848  76.1900430 136.4387163  49.6387821  74.7998604
 131.2732685  46.5113699  75.1740500 131.1568943  45.8358602  75.8421584
 131.3834945  46.0246073  74.3572653 133.6164226  45.9723846  78.8787189
 133.2522433  45.4454467  79.5900110 134.4731342  45.5822315  78.7053674
 133.2569713  41.0013746  73.8748538 133.4244116  41.8693982  74.2419009
 133.0666882  41.1641028  72.9509827 136.0145046  49.4630725  85.5414368
 135.7145769  50.3655764  85.4330175 135.6696106  49.1962908  86.3935521
 129.4657528  45.9144522  81.5751072 128.5408024  45.7820736  81.7828764
 129.7141941  46.6938741  82.0721015 133.2358934  43.4571403  74.8595204
 133.1158559  43.9028454  75.6980685 132.5411522  43.8056721  74.3008743
 126.8266339  45.5577795  82.4094861 126.9558720  45.8112274  83.3234273
 126.1463790  46.1505503  82.0899516 130.9965826  56.2275045  78.5085336
 130.9189856  57.1782870  78.5873816 130.3927470  55.8820918  79.1660262
 133.4883056  43.4002911  91.1646703 132.7116390  43.9596831  91.1549567
 134.1273619  43.8859693  91.6861573 131.7429428  46.2088364  90.7264670
 132.4844113  46.7473408  90.4499493 131.0366414  46.8354653  90.8836221
 137.2184768  48.3517504  89.3236831 137.6268124  47.9099915  88.5791463
 136.4962029  47.7770132  89.5771024 133.5715838  43.2890111  86.6970388
 134.4177033  43.7129525  86.8405037 133.5114476  42.6323735  87.3908951
 137.5413583  48.9118695  83.0789120 136.9122445  49.0764409  82.3765188
 137.1539245  49.3260305  83.8500084 136.7215283  40.9494479  88.3551562
 136.4776215  41.7036540  87.8185837 136.9975214  41.3279827  89.1898809
 136.2779975  40.1050912  83.9365399 135.4164454  40.4032166  84.2282137
 136.3042410  40.3221311  83.0046432 133.0941544  48.6493103  80.3439205
 133.5579890  48.9280806  79.5543827 132.8298343  47.7476548  80.1612296
 129.9865625  48.1964585  83.2818968 130.5566983  48.6251853  82.6436453
 130.5773737  47.9147169  83.9803154 132.0310430  44.7716255  77.1528770
 132.7334474  45.2237299  77.6202696 131.6991059  44.1300074  77.7808663
 130.4790792  43.3628012  91.5279980 129.8489453  44.0444293  91.7615376
 130.3726880  43.2511094  90.5833118 125.7735764  43.0299808  82.4545904
 124.9834818  43.2857337  81.9786014 126.2647012  43.8448146  82.5597944
 127.7250510  43.3944387  79.4129380 126.9281673  43.5063082  79.9312876
 127.4976102  43.7331040  78.5470271 133.5556177  49.9189091  87.3611895
 133.6200610  50.3809498  88.1970067 132.8467101  49.2886455  87.4894205
 124.0573467  43.2830299  84.8860894 124.3081506  44.1677308  85.1518470
 124.5933016  43.1034900  84.1135986 133.2704195  51.5857198  77.2290875
 133.1349870  52.4308734  77.6575723 133.8114008  51.7876476  76.4656809
 129.7571535  37.6648778  93.8905231 129.3638480  37.1114976  94.5652875
 130.5737675  37.9759356  94.2811748 126.7233592  49.1032636  77.8018800
 127.2358113  49.8975886  77.9524365 127.3756305  48.4058927  77.7352402
 128.5328477  52.2198392  79.8841554 128.7095106  53.1416357  79.6962537
 129.3285311  51.9056812  80.3135933 132.6739496  39.0806657  91.4825487
 133.4149209  39.6813810  91.4029950 132.9057419  38.3384295  90.9243530
 127.8180834  44.2663024  89.7603717 127.7034349  43.3648281  90.0610816
 126.9625351  44.5126721  89.4088533 134.8972671  52.2080765  91.3591217
 134.4536526  51.4217143  91.0412122 135.5589885  52.3959915  90.6935108
 129.6559793  53.7376566  85.8851896 130.2067218  53.6093630  85.1128890
 128.8171269  54.0371455  85.5346789 133.4526964  50.0027694  90.2296127
 133.9855300  49.2415982  89.9995435 132.9241045  49.7101346  90.9720282
 136.6196659  35.1087760  85.7589769 136.2760928  35.9989402  85.6828879
 136.9875621  34.9189418  84.8959354 124.6882509  47.4321290  78.5778371
 125.5257731  47.8418299  78.3612079 124.8660777  46.4920733  78.5478565
 136.5846941  45.0996371  74.2662204 136.0693565  45.8700976  74.5050591
 136.3124250  44.4261507  74.8895265 134.1694052  39.9446072  79.3247442
 133.3135649  39.5552922  79.1453081 134.5821004  40.0238033  78.4647228
 135.6993199  37.4792415  83.7239002 135.1957995  37.4422550  82.9106807
 135.9923806  38.3885158  83.7835659 131.9436085  37.5631145  82.7305184
 132.8089082  37.3673953  82.3711073 132.0113594  37.3341497  83.6574541
 136.3733245  42.9723463  76.0921985 136.0683380  43.2869612  76.9432128
 137.3263687  43.0504883  76.1349318 134.8179676  49.1313686  77.7414939
 134.2901038  48.3966446  77.4288177 134.3167179  49.9088363  77.4954907
 129.5498404  39.7933353  80.1021551 130.1242156  39.5708534  79.3694744
 130.1369386  39.8622047  80.8550152 129.8767991  41.8237814  74.1217436
 129.0405303  42.1612500  74.4426711 129.7372761  41.6886794  73.1844573
 131.8521072  36.6674602  78.8296620 131.1985484  36.3523619  78.2053235
 131.8101546  36.0450342  79.5556443 132.9632277  46.9493897  70.7449912
 132.0559338  46.7183150  70.9441061 133.4603309  46.1531516  70.9323894
 135.8700355  55.6591404  73.6646598 135.1962054  55.9623101  74.2731556
 136.2566177  56.4620484  73.3152055 135.0858812  43.1556535  83.1544268
 134.1681373  43.3771482  82.9965956 135.5018956  43.2302846  82.2955975
 135.8693860  44.5547951  78.2846948 136.6165679  45.0669348  77.9754070
 136.1385449  44.2332004  79.1451341 134.1420510  47.0506492  75.2673902
 133.2331729  46.7665524  75.3646372 134.1715594  47.4705570  74.4077209
 124.7108680  44.7712006  79.2489104 124.5133080  44.1781366  78.5240171
 124.1555344  44.4664216  79.9665043 132.6905404  44.6635112  81.3683698
 132.7454014  43.7108949  81.2926174 131.8796606  44.8194551  81.8524996
 133.8396598  48.5915235  72.6061981 133.4016028  47.8751094  72.1467618
 134.5807039  48.8191350  72.0447072 130.6297764  43.2812172  79.1274076
 129.8165630  43.5806342  79.5339269 131.1256758  42.8867861  79.8448559
 132.7806342  53.2769929  81.0608341 132.7382521  53.5030775  80.1316873
 133.6969041  53.0433303  81.2094142 136.2271976  43.7453996  87.9588970
 136.5821363  43.9725470  88.8183436 136.8744107  44.0772373  87.3366226
 130.1211839  40.8530527  84.7435311 130.7611218  40.7119287  84.0458275
 129.2889369  40.5665041  84.3673913 130.8972143  50.1532958  80.8570304
 131.6912741  49.6583278  80.6552879 130.1863835  49.6250821  80.4938009
 135.7166987  52.5351053  85.2082671 135.7704009  53.1041990  85.9760387
 134.8481768  52.7052938  84.8436709 127.2054906  44.2976040  76.9330057
 126.2752494  44.2360495  77.1500019 127.3012378  43.7751992  76.1366698
 127.1240455  40.8230852  79.5208298 127.3847272  41.7376186  79.4117459
 127.9457627  40.3555295  79.6704911 128.5965380  42.2368610  86.6907123
 129.2688434  42.0285972  86.0419772 127.7695167  42.0390696  86.2512355
 134.4990952  38.8630551  88.7072784 133.8518868  39.5620500  88.6137260
 135.2691968  39.2966694  89.0749032 134.6755087  46.7011315  86.7669603
 135.6047147  46.8522475  86.5938571 134.2546117  46.7895336  85.9118250
 133.4743419  50.7261980  84.5368141 133.3354504  50.3580764  85.4094079
 132.6858015  51.2409619  84.3652099 134.0691571  55.8271076  75.8793677
 134.2443326  55.3559120  76.6939300 133.3824359  56.4536843  76.1074938
 135.0248634  50.1043583  81.9256979 134.6898466  50.0644353  82.8214629
 134.5252579  49.4388298  81.4527389 128.9992878  45.5111213  87.4509560
 128.8612676  44.7791451  88.0521099 129.9097801  45.4220113  87.1693748
 131.6275178  45.2231172  86.9393240 132.3374797  44.5824364  86.8979858
 131.5844487  45.4744067  87.8619420 130.3404112  42.2096390  88.7588879
 129.8041469  41.7587128  89.4110475 129.7520821  42.3442299  88.0159343
 128.6352656  58.9760439  82.6533538 128.8749254  59.6078963  83.3312556
 127.7921852  58.6248479  82.9398897 129.7506371  41.6685041  71.3215343
 128.8735838  41.5473842  70.9577589 130.2264124  40.8771119  71.0694231
 121.2708511  46.4562201  81.4156850 121.9579551  46.1423931  80.8277865
 121.1156640  47.3603566  81.1424101 126.0743234  41.3452397  85.8441873
 125.9901422  40.7378067  85.1092283 125.2525940  41.8361416  85.8451370
 133.1480518  54.7839562  85.0575042 133.0750689  55.5894533  85.5694346
 132.7057911  54.9831527  84.2323063 132.9370297  54.0211332  78.5677863
 132.1537819  54.5633012  78.6616088 133.6363043  54.5385311  78.9672104
 136.2466947  39.8305961  81.2112069 136.7435647  39.0775923  80.8913139
 135.4753929  39.8670278  80.6455278 135.6079201  54.6826396  87.2133200
 136.3207173  55.3173860  87.1409102 135.1169230  54.7790262  86.3973202
 137.3296728  48.5877648  78.7850492 136.3953007  48.7079111  78.6155196
 137.5073397  47.6850115  78.5210502 132.8301916  41.9723344  80.9383753
 132.4599704  41.4194384  81.6264659 133.3261009  41.3681477  80.3858753
 130.6591115  52.4320839  88.0338771 131.3600574  53.0657322  88.1868165
 130.1886230  52.7735571  87.2734410 135.4199575  55.0225140  79.9619492
 135.6021969  54.2046796  80.4247244 136.2432561  55.2392832  79.5244382
 135.7541740  53.9493325  77.2234540 136.2829507  53.4385779  76.6104702
 136.0169960  53.6335855  78.0880073 134.5079974  45.7285258  92.3457359
 133.8320611  45.6279387  93.0159734 135.3307608  45.5724471  92.8093356
 126.2558833  51.9657194  84.9669874 126.8412270  51.2200882  85.0997778
 126.0583671  52.2761151  85.8506538 129.1097488  55.0008441  79.9832316
 128.4407863  55.4854569  79.4996356 128.9710358  55.2477662  80.8975695
 120.8476488  44.5362794  83.6874317 120.8860587  44.0026385  84.4811435
 120.3416780  44.0098000  83.0685294 133.2502757  57.0352185  86.5814975
 133.8021065  57.1983806  87.3464060 133.5908950  57.6256623  85.9094999
 128.2267250  39.3827335  87.1836859 128.2908576  40.2442166  86.7714257
 128.1634370  38.7701336  86.4509218 127.7019522  41.4550467  90.8309893
 128.3291561  41.0727545  91.4447418 126.8447441  41.2364669  91.1965586
 124.4785065  43.2626896  76.7628248 124.7738506  42.3537575  76.7095302
 123.5773101  43.2414636  76.4409251 136.3871144  54.9834161  83.5678657
 136.2622283  54.1823900  83.0589602 137.0450235  55.4780354  83.0792627
 128.0079312  41.3382893  82.7455797 127.2865898  41.9518861  82.6063270
 128.7972568  41.8740658  82.6672443 130.8105626  38.6737320  89.0196449
 131.3340028  38.9199616  89.7822758 130.5917959  39.5057354  88.5999586
 126.2072907  40.9440994  76.8867573 125.8785613  40.0638373  76.7042679
 126.5612277  40.8888663  77.7743963 135.4552486  52.5795897  81.3962559
 135.3077448  51.6512604  81.5770129 136.2805979  52.6015988  80.9119634
 129.3214730  41.2313964  77.2543051 129.6610802  41.7599885  76.5321659
 129.7686850  41.5694370  78.0301618 132.0158171  39.6151015  86.7046119
 131.6754991  38.8158828  87.1066799 131.3097177  39.9152725  86.1322952
 132.6674643  36.7000327  85.1573442 133.4900712  36.2260805  85.0352333
 132.9112706  37.4790811  85.6572128 131.3082877  39.7288585  75.4536344
 132.0291240  40.1069838  74.9500061 130.6848181  40.4477462  75.5571322
 135.4514000  40.4333734  76.3894676 135.6677614  41.3158372  76.0883504
 134.9708067  40.0419948  75.6600318 130.1913221  43.3919448  82.9665421
 130.0457802  43.7059751  83.8589702 129.7138425  44.0104348  82.4136319
 132.0509604  40.3821996  83.0146310 132.0371173  39.4863089  82.6778608
 132.7682032  40.3892659  83.6484596 133.9035735  40.8159336  85.0599438
 133.6453513  41.7376407  85.0583768 133.3720775  40.4189770  85.7499902
 124.6658883  45.9324792  85.9053082 124.1212352  46.7084600  86.0373356
 125.5438233  46.2795597  85.7472203 131.4546500  39.2636376  78.2833881
 131.5762411  38.3353022  78.4824768 131.1648543  39.2775062  77.3712196
 134.3237691  36.9491286  81.4200600 134.3459387  37.0130619  80.4652580
 134.7405750  36.1095795  81.6141107 125.4524905  45.0594688  88.7983239
 124.7106641  45.2077324  89.3847869 125.1317650  45.3202954  87.9349988
 133.3968568  54.6010667  88.5963629 133.7055694  54.3559813  89.4686328
 134.1944050  54.8057305  88.1082499 133.4189180  56.7548576  80.8269005
 132.9794170  56.2624955  81.5201862 134.1697297  56.2121544  80.5861081
 125.8981519  52.9460117  80.8293633 126.7239539  52.6463889  80.4492277
 125.5475571  52.1767739  81.2783422 130.8663052  52.2986585  82.8991307
 130.2443061  51.6357290  82.5993535 131.5367919  52.3247717  82.2164955
 124.0990124  50.8646444  81.7882567 123.2622032  50.4368618  81.6066568
 124.0713770  51.0578887  82.7253358 130.9387580  40.7768373  92.4923813
 130.9875735  41.6530496  92.1101583 131.4810094  40.2345766  91.9195456
 130.4276559  50.8490509  76.3749768 130.5764679  51.5325973  75.7216440
 131.2343003  50.8295599  76.8899223 133.1686868  41.5299746  89.2470172
 132.2990178  41.8233312  88.9752760 133.4046348  42.1140191  89.9677435
 128.1829192  46.8755686  77.3810837 127.9375234  45.9718016  77.5791047
 128.3525107  46.8772837  76.4390315 135.8725902  37.7479363  86.7635592
 136.3907846  38.4840390  86.4382081 135.5181035  38.0543356  87.5982351
 127.4524840  42.6084044  74.8796998 126.7594085  42.6828399  74.2237034
 127.2076592  41.8444387  75.4018515 136.1238496  34.1679645  82.2836489
 136.4040250  33.5002834  82.9096915 136.9089103  34.3608741  81.7711153
 133.9271965  53.3438639  73.8461515 133.3545932  53.9628826  73.3931987
 134.5004758  53.8938001  74.3801437 134.3118763  44.6799452  71.1877568
 135.2577868  44.5505660  71.2565986 133.9333008  43.9414114  71.6646996
 134.1957456  48.7317198  92.6478225 135.1160465  48.9095797  92.8418271
 134.1607039  47.7873243  92.4957924 132.4961680  42.6049428  71.1232453
 131.5893136  42.3082541  71.1995166 132.7737661  42.3079246  70.2566739
 123.4139621  43.9255792  81.5731499 123.0942405  43.0721100  81.2805873
 122.8673049  44.1404370  82.3289467 127.1919528  46.6418233  85.2901006
 127.4105538  47.5735340  85.3089039 127.6045302  46.2826207  86.0755810
 134.1123746  37.1486318  77.2776694 133.3024474  36.8033403  77.6531940
 134.8008163  36.8393862  77.8664306 136.0414294  36.2264365  78.9000991
 136.5945333  36.6459818  79.5591014 136.2784381  35.3000113  78.9423947
 132.0647394  42.2151438  94.6803755 131.9644120  43.1645795  94.6115846
 131.8468936  41.8869677  93.8079825 131.2660465  39.4636363  71.2644432
 132.1279629  39.7891262  71.5240249 131.4510809  38.6767859  70.7517498
 123.2827881  47.5458703  83.5424621 122.5891352  47.1312656  83.0294575
 124.0300872  47.5879240  82.9458040 131.9278664  45.6448577  93.4968816
 131.4445745  46.4448937  93.7032705 132.0139603  45.6556522  92.5436260
 125.1964623  47.4776957  81.4190636 125.1735311  47.5764644  80.4672519
 125.5065260  48.3242108  81.7407802 127.8552001  49.5353112  85.5337250
 128.8095255  49.5037054  85.4667182 127.6564525  49.0743736  86.3487476
 128.4451383  48.1054228  88.1008048 129.2644272  48.5998307  88.1242885
 128.7188191  47.1886196  88.0725615 126.2102230  55.0772731  82.5507448
 126.0756698  54.3173132  81.9845446 125.7934292  55.8013631  82.0836237
 129.3671356  55.9742048  82.7625891 129.2503740  56.9187481  82.6604581
 128.5463802  55.6715610  83.1511690 123.6986297  42.4392362  88.8000245
 124.3445161  41.9291316  89.2887470 123.4903449  43.1761043  89.3743670
 136.2239690  49.5073209  94.2992385 137.0930849  49.6813862  93.9379020
 135.7446441  50.3267626  94.1768115 132.2189908  36.7032406  74.5524141
 132.2068578  37.6474246  74.7092412 133.1113330  36.5202552  74.2583602
 130.3925870  56.6270310  85.9781819 131.2953117  56.6593921  86.2948314
 130.1663240  55.6970761  85.9928155 132.1479472  55.3801297  82.6391898
 131.1975103  55.3803158  82.5256270 132.4511958  54.6334031  82.1227932
 136.0342027  33.2975183  78.8070078 135.2674423  32.7433670  78.9526760
 136.4452732  33.3697052  79.6684229 128.0383788  39.5859979  92.8975259
 128.9015250  39.2296784  93.1078584 127.4649199  39.2473874  93.5850663
 136.6129519  58.3591726  82.4545904 135.8228573  58.6149254  81.9786014
 137.1040766  59.1740064  82.5597944 134.8967222  58.6122216  84.8860894
 135.1475260  59.4969226  85.1518470 135.4326770  58.4326818  84.1135986
 135.5276264  62.7613208  78.5778371 136.3651486  63.1710216  78.3612079
 135.7054531  61.8212650  78.5478565 135.5502435  60.1003923  79.2489104
 135.3526835  59.5073284  78.5240171 134.9949099  59.7956134  79.9665043
 132.1102266  61.7854119  81.4156850 132.7973306  61.4715849  80.8277865
 131.9550395  62.6895483  81.1424101 136.9136988  56.6744315  85.8441873
 136.8295177  56.0669985  85.1092283 136.0919695  57.1653333  85.8451370
 131.6870242  59.8654712  83.6874317 131.7254342  59.3318303  84.4811435
 131.1810535  59.3389917  83.0685294 135.3178820  58.5918814  76.7628248
 135.6132261  57.6829493  76.7095302 134.4166855  58.5706554  76.4409251
 137.0466661  56.2732912  76.8867573 136.7179367  55.3930291  76.7042679
 137.4006032  56.2180580  77.7743963 135.5052638  61.2616710  85.9053082
 134.9606106  62.0376518  86.0373356 136.3831988  61.6087514  85.7472203
 136.2918660  60.3886606  88.7983239 135.5500396  60.5369241  89.3847869
 135.9711404  60.6494872  87.9349988 136.7375274  68.2752035  80.8293633
 137.5633293  67.9755807  80.4492277 136.3869326  67.5059657  81.2783422
 134.9383879  66.1938361  81.7882567 134.1015787  65.7660536  81.6066568
 134.9107524  66.3870805  82.7253358 134.2533375  59.2547709  81.5731499
 133.9336159  58.4013017  81.2805873 133.7066803  59.4696287  82.3289467
 134.1221635  62.8750621  83.5424621 133.4285107  62.4604574  83.0294575
 134.8694626  62.9171157  82.9458040 136.0358378  62.8068875  81.4190636
 136.0129066  62.9056562  80.4672519 136.3459014  63.6534025  81.7407802
 137.0495984  70.4064649  82.5507448 136.9150452  69.6465050  81.9845446
 136.6328047  71.1305549  82.0836237 134.5380052  57.7684280  88.8000245
 135.1838916  57.2583233  89.2887470 134.3297203  58.5052961  89.3743670
 120.1572073  17.9045250  65.2330642 120.0796103  18.8553075  65.3119123
 119.5533717  17.5591122  65.8905569 118.8166039  15.4146771  72.6097203
 119.3673465  15.2863834  71.8374197 117.9777515  15.7141660  72.2592095
 125.0306602  17.3361609  60.3891905 124.3568301  17.6393306  60.9976863
 125.4172424  18.1390689  60.0397362 123.2297817  17.5041281  62.6038984
 123.4049573  17.0329324  63.4184607 122.5430605  18.1307047  62.8320245
 117.7958903  20.6530644  69.3778844 118.0355501  21.2849168  70.0557863
 116.9528099  20.3018684  69.6644204 122.3086765  16.4609766  71.7820348
 122.2356936  17.2664738  72.2939653 121.8664158  16.6601732  70.9568370
 122.0976544  15.6981536  65.2923170 121.3144066  16.2403217  65.3861394
 122.7969289  16.2155516  65.6917411 124.7685448  16.3596600  73.9378507
 125.4813420  16.9944065  73.8654408 124.2775477  16.4560466  73.1218509
 115.4165080  13.6427399  71.6915180 116.0018516  12.8971087  71.8243085
 115.2189918  13.9531356  72.5751844 118.2703735  16.6778646  66.7077623
 117.6014110  17.1624774  66.2241663 118.1316605  16.9247867  67.6221001
 122.4109003  18.7122390  73.3060281 122.9627311  18.8754011  74.0709366
 122.7515197  19.3026828  72.6340306 122.5574815  16.2780871  75.3208936
 122.8661941  16.0330018  76.1931635 123.3550297  16.4827510  74.8327806
 122.5795427  18.4318781  67.5514312 122.1400417  17.9395160  68.2447169
 123.3303544  17.8891749  67.3106387 115.0587766  14.6230322  67.5538940
 115.8845786  14.3234094  67.1737584 114.7081818  13.8537944  68.0028729
 113.2596371  12.5416648  68.5127874 112.4228279  12.1138823  68.3311875
 113.2320016  12.7349092  69.4498665 115.3708477  16.7542936  69.2752755
 115.2362945  15.9943337  68.7090753 114.9540539  17.4783836  68.8081543
 118.5277602  17.6512253  69.4871197 118.4109987  18.5957686  69.3849887
 117.7070049  17.3485815  69.8756996 119.5532117  18.3040515  72.7027126
 120.4559363  18.3364126  73.0193621 119.3269487  17.3740966  72.7173461
 121.3085719  17.0571502  69.3637204 120.3581350  17.0573363  69.2501577
 121.6118205  16.3104236  68.8473239 133.8528118  22.8459468  70.3644491
 133.5146630  22.7300533  69.4765026 134.7217887  22.4450633  70.3445497
 129.7114934  24.6994945  66.3541382 129.1479799  24.6084882  65.5857670
 129.5967329  23.8794849  66.8343875 134.3347901  23.9994320  76.3230697
 134.3236542  23.6047118  75.4511201 134.4968541  23.2660393  76.9164468
 127.2579366  26.1946136  69.1925603 128.0500658  25.8536961  68.7771902
 127.4976016  26.3041111  70.1127756 135.2914493  28.3665912  61.6655847
 134.6402473  28.9519993  61.2789861 136.0858856  28.8972107  61.7250885
 129.2170120  25.4555050  62.0642982 129.9900996  24.9084037  61.9255857
 129.5695519  26.3199299  62.2757443 131.0555163  26.7831432  75.2709881
 130.7645029  27.6877063  75.1556547 131.6912147  26.8247959  75.9853950
 131.9811369  24.1608280  71.8611241 132.5774942  23.9364303  71.1468203
 132.0386341  23.4193026  72.4636688 131.5536398  21.6147716  59.6961431
 131.8061918  21.0929237  58.9344894 130.6160957  21.4513861  59.7988115
 136.7689758  26.0556344  62.2024832 136.1335591  26.1290971  62.9145736
 136.4387164  26.6449943  61.5243911 131.2732687  23.5175822  61.8985806
 131.1568945  22.8420725  62.5666891 131.3834946  23.0308196  61.0817959
 133.6164227  22.9785969  65.6032496 133.2522435  22.4516590  66.3145417
 134.4731343  22.5884438  65.4298981 136.0145048  26.4692847  72.2659675
 135.7145771  27.3717886  72.1575482 135.6696107  26.2025031  73.1180827
 129.4657529  22.9206644  68.2996379 128.5408026  22.7882858  68.5074071
 129.7141942  23.7000863  68.7966321 133.2358935  20.4633526  61.5840511
 133.1158561  20.9090577  62.4225991 132.5411524  20.8118844  61.0254049
 126.8266340  22.5639918  69.1340168 126.9558721  22.8174397  70.0479580
 126.1463791  23.1567626  68.8144823 130.9965827  33.2337168  65.2330642
 130.9189857  34.1844993  65.3119123 130.3927471  32.8883040  65.8905569
 133.4883057  20.4065033  77.8892009 132.7116391  20.9658953  77.8794874
 134.1273620  20.8921816  78.4106879 131.7429430  23.2150486  77.4509976
 132.4844114  23.7535530  77.1744800 131.0366415  23.8416775  77.6081528
 137.2184769  25.3579627  76.0482138 137.6268125  24.9162037  75.3036770
 136.4962031  24.7832254  76.3016331 133.5715839  20.2952234  73.4215695
 134.4177034  20.7191647  73.5650344 133.5114477  19.6385858  74.1154258
 137.5413584  25.9180818  69.8034427 136.9122446  26.0826532  69.1010494
 137.1539246  26.3322427  70.5745391 133.0941546  25.6555226  67.0684512
 133.5579891  25.9342929  66.2789134 132.8298344  24.7538670  66.8857602
 129.9865627  25.2026707  70.0064275 130.5566984  25.6313976  69.3681759
 130.5773739  24.9209292  70.7048461 132.0310432  21.7778378  63.8774077
 132.7334475  22.2299422  64.3448003 131.6991060  21.1362197  64.5053970
 130.4790793  20.3690135  78.2525286 129.8489454  21.0506415  78.4860683
 130.3726881  20.2573216  77.3078424 125.7735766  20.0361931  69.1791210
 124.9834820  20.2919459  68.7031321 126.2647013  20.8510269  69.2843251
 127.7250511  20.4006510  66.1374687 126.9281674  20.5125204  66.6558183
 127.4976103  20.7393162  65.2715578 133.5556179  26.9251213  74.0857202
 133.6200611  27.3871620  74.9215373 132.8467103  26.2948578  74.2139511
 124.0573469  20.2892421  71.6106201 124.3081507  21.1739431  71.8763777
 124.5933017  20.1097023  70.8381293 133.2704196  28.5919321  63.9536182
 133.1349871  29.4370856  64.3821030 133.8114009  28.7938598  63.1902116
 126.7233594  26.1094759  64.5264107 127.2358114  26.9038009  64.6769672
 127.3756307  25.4121049  64.4597709 128.5328478  29.2260515  66.6086860
 128.7095107  30.1478480  66.4207844 129.3285312  28.9118934  67.0381240
 127.8180835  21.2725147  76.4849023 127.7034350  20.3710404  76.7856122
 126.9625353  21.5188844  76.1333840 134.8972673  29.2142887  78.0836524
 134.4536527  28.4279266  77.7657429 135.5589886  29.4022038  77.4180415
 129.6559794  30.7438689  72.6097203 130.2067219  30.6155752  71.8374197
 128.8171270  31.0433578  72.2592095 133.4526965  27.0089817  76.9541434
 133.9855302  26.2478105  76.7240742 132.9241046  26.7163468  77.6965588
 124.6882511  24.4383413  65.3023678 125.5257733  24.8480421  65.0857385
 124.8660778  23.4982855  65.2723871 136.5846943  22.1058494  60.9907511
 136.0693566  22.8763098  61.2295898 136.3124251  21.4323630  61.6140572
 134.8179678  26.1375809  64.4660246 134.2901039  25.4028569  64.1533483
 134.3167180  26.9150485  64.2200214 129.8767992  18.8299936  60.8462742
 129.0405305  19.1674623  61.1672017 129.7372762  18.6948916  59.9089879
 132.9632278  23.9556019  57.4695219 132.0559340  23.7245273  57.6686368
 133.4603310  23.1593639  57.6569200 135.8700357  32.6653526  60.3891905
 135.1962055  32.9685223  60.9976863 136.2566179  33.4682607  60.0397362
 135.0858813  20.1618658  69.8789574 134.1681375  20.3833605  69.7211262
 135.5018957  20.2364968  69.0201282 135.8693861  21.5610073  65.0092255
 136.6165680  22.0731471  64.6999377 136.1385451  21.2394126  65.8696648
 134.1420511  24.0568614  61.9919209 133.2331731  23.7727647  62.0891679
 134.1715595  24.4767693  61.1322516 124.7108682  21.7774128  65.9734411
 124.5133081  21.1843489  65.2485478 124.1555346  21.4726338  66.6910350
 132.6905405  21.6697235  68.0929004 132.7454015  20.7171071  68.0171481
 131.8796607  21.8256674  68.5770303 133.8396599  25.5977358  59.3307287
 133.4016029  24.8813217  58.8712925 134.5807040  25.8253473  58.7692379
 130.6297765  20.2874295  65.8519383 129.8165631  20.5868465  66.2584575
 131.1256759  19.8929983  66.5693865 132.7806343  30.2832051  67.7853648
 132.7382522  30.5092898  66.8562180 133.6969042  30.0495426  67.9339449
 136.2271977  20.7516119  74.6834277 136.5821365  20.9787592  75.5428743
 136.8744108  21.0834496  74.0611532 130.8972144  27.1595080  67.5815610
 131.6912742  26.6645401  67.3798185 130.1863836  26.6312944  67.2183316
 135.7166988  29.5413176  71.9327978 135.7704011  30.1104112  72.7005694
 134.8481770  29.7115061  71.5682015 127.2054907  21.3038162  63.6575363
 126.2752495  21.2422618  63.8745325 127.3012379  20.7814115  62.8612004
 127.1240456  17.8292975  66.2453605 127.3847274  18.7438308  66.1362765
 127.9457629  17.3617418  66.3950218 128.5965382  19.2430732  73.4152429
 129.2688435  19.0348094  72.7665078 127.7695168  19.0452818  72.9757662
 134.6755088  23.7073438  73.4914910 135.6047148  23.8584598  73.3183877
 134.2546118  23.7957459  72.6363556 133.4743420  27.7324102  71.2613448
 133.3354506  27.3642887  72.1339386 132.6858016  28.2471742  71.0897405
 134.0691572  32.8333199  62.6038984 134.2443328  32.3621242  63.4184607
 133.3824360  33.4598965  62.8320245 135.0248635  27.1105705  68.6502285
 134.6898468  27.0706475  69.5459935 134.5252581  26.4450421  68.1772696
 128.9992879  22.5173335  74.1754866 128.8612677  21.7853574  74.7766406
 129.9097802  22.4282235  73.8939054 131.6275180  22.2293294  73.6638546
 132.3374798  21.5886487  73.6225165 131.5844488  22.4806189  74.5864727
 130.3404114  19.2158512  75.4834186 129.8041471  18.7649251  76.1355782
 129.7520822  19.3504421  74.7404650 128.6352657  35.9822562  69.3778844
 128.8749255  36.6141086  70.0557863 127.7921854  35.6310602  69.6644204
 129.7506373  18.6747164  58.0460649 128.8735839  18.5535965  57.6822896
 130.2264126  17.8833242  57.7939538 121.2708513  23.4624324  68.1402156
 121.9579553  23.1486054  67.5523172 121.1156641  24.3665688  67.8669408
 126.0743235  18.3514520  72.5687180 125.9901424  17.7440190  71.8337590
 125.2525941  18.8423538  72.5696676 133.1480519  31.7901684  71.7820348
 133.0750690  32.5956656  72.2939653 132.7057912  31.9893650  70.9568370
 132.9370299  31.0273454  65.2923170 132.1537821  31.5695134  65.3861394
 133.6363044  31.5447434  65.6917411 135.6079203  31.6888518  73.9378507
 136.3207175  32.3235983  73.8654408 135.1169231  31.7852384  73.1218509
 137.3296729  25.5939771  65.5095799 136.3953008  25.7141233  65.3400503
 137.5073398  24.6912238  65.2455808 130.6591116  29.4382962  74.7584078
 131.3600576  30.0719445  74.9113472 130.1886231  29.7797693  73.9979717
 135.4199576  32.0287262  66.6864798 135.6021970  31.2108918  67.1492551
 136.2432562  32.2454954  66.2489688 135.7541741  30.9555447  63.9479847
 136.2829508  30.4447902  63.3350009 136.0169961  30.6397978  64.8125380
 134.5079975  22.7347380  79.0702665 133.8320612  22.6341509  79.7405040
 135.3307609  22.5786594  79.5338662 126.2558834  28.9719317  71.6915180
 126.8412271  28.2263005  71.8243085 126.0583673  29.2823273  72.5751844
 129.1097489  32.0070564  66.7077623 128.4407865  32.4916692  66.2241663
 128.9710359  32.2539784  67.6221001 120.8476489  21.5424917  70.4119624
 120.8860588  21.0088508  71.2056742 120.3416782  21.0160122  69.7930601
 133.2502758  34.0414308  73.3060281 133.8021066  34.2045929  74.0709366
 133.5908951  34.6318745  72.6340306 127.7019524  18.4612590  77.5555200
 128.3291563  18.0789667  78.1692724 126.8447443  18.2426792  77.9210893
 124.4785066  20.2689019  63.4873555 124.7738508  19.3599697  63.4340609
 123.5773102  20.2476758  63.1654557 136.3871145  31.9896283  70.2923963
 136.2622285  31.1886023  69.7834909 137.0450236  32.4842476  69.8037933
 128.0079313  18.3445016  69.4701104 127.2865899  18.9580983  69.3308577
 128.7972569  18.8802780  69.3917749 126.2072908  17.9503117  63.6112880
 125.8785614  17.0700496  63.4287986 126.5612279  17.8950785  64.4989269
 135.4552487  29.5858019  68.1207866 135.3077449  28.6574727  68.3015436
 136.2805980  29.6078110  67.6364941 129.3214731  18.2376086  63.9788358
 129.6610804  18.7662008  63.2566966 129.7686852  18.5756493  64.7546924
 130.1913223  20.3981570  69.6910727 130.0457803  20.7121873  70.5835009
 129.7138426  21.0166471  69.1381626 124.6658885  22.9386915  72.6298389
 124.1212353  23.7146723  72.7618663 125.5438235  23.2857719  72.4717510
 125.4524907  22.0656811  75.5228545 124.7106643  22.2139446  76.1093176
 125.1317651  22.3265077  74.6595295 133.3968569  31.6072789  75.3208936
 133.7055696  31.3621936  76.1931635 134.1944051  31.8119428  74.8327806
 133.4189181  33.7610699  67.5514312 132.9794172  33.2687077  68.2447169
 134.1697298  33.2183666  67.3106387 125.8981520  29.9522240  67.5538940
 126.7239540  29.6526012  67.1737584 125.5475572  29.1829862  68.0028729
 130.8663053  29.3048708  69.6236614 130.2443063  28.6419413  69.3238842
 131.5367920  29.3309840  68.9410262 124.0990125  27.8708566  68.5127874
 123.2622034  27.4430740  68.3311875 124.0713771  28.0641009  69.4498665
 130.4276560  27.8552631  63.0995074 130.5764681  28.5388096  62.4461747
 131.2343004  27.8357721  63.6144530 128.1829193  23.8817809  64.1056143
 127.9375235  22.9780139  64.3036353 128.3525108  23.8834959  63.1635621
 127.4524841  19.6146166  61.6042305 126.7594086  19.6890521  60.9482341
 127.2076593  18.8506510  62.1263822 133.9271966  30.3500762  60.5706822
 133.3545933  30.9690949  60.1177294 134.5004760  30.9000123  61.1046744
 134.3118764  21.6861574  57.9122874 135.2577869  21.5567783  57.9811292
 133.9333009  20.9476236  58.3892302 134.1957457  25.7379321  79.3723531
 135.1160466  25.9157920  79.5663578 134.1607040  24.7935366  79.2203230
 132.4961682  19.6111551  57.8477759 131.5893137  19.3144664  57.9240473
 132.7737663  19.3141369  56.9812046 123.4139622  20.9317914  68.2976806
 123.0942406  20.0783222  68.0051180 122.8673050  21.1466492  69.0534773
 127.1919529  23.6480355  72.0146312 127.4105539  24.5797463  72.0334346
 127.6045303  23.2888330  72.8001116 132.0647395  19.2213561  81.4049061
 131.9644122  20.1707918  81.3361152 131.8468937  18.8931800  80.5325131
 123.2827882  24.5520826  70.2669927 122.5891353  24.1374779  69.7539882
 124.0300873  24.5941362  69.6703346 131.9278665  22.6510700  80.2214123
 131.4445747  23.4511060  80.4278012 132.0139604  22.6618645  79.2681567
 125.1964624  24.4839079  68.1435942 125.1735313  24.5826767  67.1917825
 125.5065261  25.3304230  68.4653108 127.8552002  26.5415235  72.2582557
 128.8095256  26.5099177  72.1912488 127.6564526  26.0805858  73.0732783
 128.4451384  25.1116351  74.8253354 129.2644273  25.6060429  74.8488192
 128.7188192  24.1948319  74.7970922 126.2102231  32.0834854  69.2752755
 126.0756699  31.3235255  68.7090753 125.7934293  32.8075754  68.8081543
 129.3671357  32.9804171  69.4871197 129.2503741  33.9249604  69.3849887
 128.5463803  32.6777733  69.8756996 123.6986299  19.4454484  75.5245551
 124.3445162  18.9353438  76.0132777 123.4903450  20.1823166  76.0988977
 136.2239691  26.5135332  81.0237692 137.0930851  26.6875984  80.6624327
 135.7446442  27.3329749  80.9013421 130.3925871  33.6332433  72.7027126
 131.2953118  33.6656043  73.0193621 130.1663241  32.7032884  72.7173461
 132.1479473  32.3863419  69.3637204 131.1975104  32.3865281  69.2501577
 132.4511959  31.6396154  68.8473239 136.6129520  35.3653848  69.1791210
 135.8228574  35.6211377  68.7031321 137.1040768  36.1802186  69.2843251
 134.8967223  35.6184339  71.6106201 135.1475262  36.5031349  71.8763777
 135.4326772  35.4388940  70.8381293 135.5276265  39.7675331  65.3023678
 136.3651487  40.1772339  65.0857385 135.7054533  38.8274773  65.2723871
 135.5502436  37.1066046  65.9734411 135.3526836  36.5135407  65.2485478
 134.9949100  36.8018256  66.6910350 132.1102267  38.7916241  68.1402156
 132.7973307  38.4777971  67.5523172 131.9550396  39.6957606  67.8669408
 136.9136989  33.6806438  72.5687180 136.8295178  33.0732107  71.8337590
 136.0919696  34.1715456  72.5696676 131.6870243  36.8716835  70.4119624
 131.7254343  36.3380425  71.2056742 131.1810536  36.3452040  69.7930601
 135.3178821  35.5980937  63.4873555 135.6132262  34.6891615  63.4340609
 134.4166857  35.5768676  63.1654557 137.0466663  33.2795034  63.6112880
 136.7179369  32.3992413  63.4287986 137.4006033  33.2242703  64.4989269
 135.5052639  38.2678832  72.6298389 134.9606107  39.0438640  72.7618663
 136.3831989  38.6149637  72.4717510 136.2918661  37.3948729  75.5228545
 135.5500397  37.5431364  76.1093176 135.9711405  37.6556994  74.6595295
 136.7375275  45.2814157  67.5538940 137.5633295  44.9817929  67.1737584
 136.3869327  44.5121780  68.0028729 134.9383880  43.2000484  68.5127874
 134.1015788  42.7722658  68.3311875 134.9107525  43.3932927  69.4498665
 134.2533376  36.2609832  68.2976806 133.9336161  35.4075140  68.0051180
 133.7066805  36.4758410  69.0534773 134.1221636  39.8812743  70.2669927
 133.4285108  39.4666696  69.7539882 134.8694627  39.9233280  69.6703346
 136.0358379  39.8130997  68.1435942 136.0129067  39.9118684  67.1917825
 136.3459015  40.6596148  68.4653108 137.0495986  47.4126772  69.2752755
 136.9150454  46.6527173  68.7090753 136.6328048  48.1367672  68.8081543
 134.5380053  34.7746402  75.5245551 135.1838917  34.2645356  76.0132777
 134.3297204  35.5115084  76.0988977 136.7375276  22.2876280  54.2784247
 137.5633296  21.9880052  53.8982890 136.3869328  21.5183902  54.7274035
 134.9383881  20.2062606  55.2373180 134.1015789  19.7784781  55.0557182
 134.9107527  20.3995050  56.1743972 137.0495987  24.4188894  55.9998061
 136.9150455  23.6589295  55.4336059 136.6328049  25.1429794  55.5326850
  37.7370695  74.3541671 141.3184004  37.0858675  74.9395751 140.9318018
  38.5315058  74.8847866 141.3779042  44.0037419  70.8466607 142.5788841
  43.2266862  70.5077766 142.1344003  44.6828900  70.8519230 141.9043806
  35.4088480  69.9431778 137.1223376  34.5015542  69.7121031 137.3214525
  35.9059512  69.1469397 137.3097357  38.3156559  78.6529285 140.0420062
  37.6418258  78.9560982 140.6505020  38.7022381  79.4558365 139.6925519
  36.2852801  71.5853116 138.9835445  35.8472231  70.8688975 138.5241082
  37.0263242  71.8129231 138.4220536  36.5147774  78.8208957 142.2567141
  36.6899530  78.3497000 143.0712764  35.8280562  79.4474723 142.4848402
  40.4064029  70.4437498 138.5767502  39.7893199  69.7184326 138.4800555
  39.9380517  71.2046858 138.2334576  41.2301714  73.7676670 142.6960142
  41.5061558  73.6533264 143.6054016  40.3606213  73.3694155 142.6572315
  38.1997943  76.9431206 143.6008004  38.7285710  76.4323660 142.9878166
  38.4626163  76.6273736 144.4653537  41.2938127  76.9148004 144.2162987
  41.4675005  76.3494426 143.4636839  41.7867018  77.7148899 144.0342477
  42.2813299  76.2314768 141.3159885  42.9764204  76.8521461 141.5347200
  42.6236450  75.3810120 141.5912263  44.1804723  73.6814474 142.8447216
  44.7056047  74.0201747 142.1196536  44.0927075  72.7461489 142.6610351
  36.3728168  76.3376520 140.2234979  35.8002135  76.9566707 139.7705451
  36.9460962  76.8875882 140.7574901  39.5925428  76.6213670 141.3543561
  40.5256101  76.5559232 141.5576437  39.5048641  77.4569937 140.8958094
  42.2213444  75.9379541 138.3147509  42.1427076  75.6039404 139.2083267
  43.0423111  76.4301308 138.3138981  36.7574966  67.6737333 137.5651031
  37.7034071  67.5443541 137.6339449  36.3789211  66.9351995 138.0420459
  39.7917396  73.2547536 137.9357487  40.4953246  73.4597538 138.5515143
  39.0680045  73.8224298 138.2006570  41.7004094  73.6930065 139.9855947
  42.5349698  73.2611264 139.8033422  41.5388436  73.5212079 140.9132841
  41.3549986  70.1962178 141.3512286  41.2998790  70.0306450 140.4100730
  40.7296041  70.9038211 141.5074476  50.3288369  84.2099716 150.0811124
  50.9666779  84.0906464 149.3774464  50.2109212  85.1580560 150.1399076
  47.1378075  84.1627144 150.0172648  46.7996586  84.0468209 149.1293183
  48.0067843  83.7618309 149.9973655  42.9964891  86.0162621 146.0069539
  42.4329756  85.9252558 145.2385827  42.8817286  85.1962525 146.4872032
  48.5764449  89.6833588 141.3184004  47.9252429  90.2687669 140.9318018
  49.3708812  90.2139783 141.3779042  42.5020077  86.7722726 141.7171139
  43.2750953  86.2251713 141.5784014  42.8545475  87.6366975 141.9285600
  45.2661326  85.4775956 151.5139398  45.8624898  85.2531979 150.7996361
  45.3236297  84.7360702 152.1164845  44.8386354  82.9315392 139.3489589
  45.0911875  82.4096913 138.5873052  43.9010913  82.7681537 139.4516272
  49.8829637  81.9351170 147.1564332  50.6692726  81.5170593 146.8054749
  50.1468341  82.8397262 147.3245980  50.0539715  87.3724020 141.8552989
  49.4185547  87.4458647 142.5673893  49.7237121  87.9617619 141.1772068
  55.2838064  81.8726403 148.0597310  56.0163236  81.3025620 148.2935140
  54.5277420  81.4848004 148.5003816  44.5582643  84.8343498 141.5513964
  44.4418901  84.1588401 142.2195048  44.6684903  84.3475872 140.7346117
  46.9014184  84.2953645 145.2560653  46.5372391  83.7684266 145.9673574
  47.7581300  83.9052114 145.0827138  46.5419671  79.3243544 140.2522001
  46.7094073  80.1923781 140.6192472  46.3516840  79.4870826 139.3283291
  42.7507486  84.2374320 147.9524536  41.8257982  84.1050534 148.1602228
  42.9991899  85.0168539 148.4494478  52.6992148  80.3043064 149.5985269
  51.7909025  80.2358472 149.3044030  52.6479744  80.7815008 150.4267094
  46.5208892  81.7801202 141.2368668  46.4008517  82.2258253 142.0754148
  45.8261480  82.1286520 140.6782206  44.2815784  94.5504844 144.8858799
  44.2039814  95.5012669 144.9647280  43.6777428  94.2050716 145.5433726
  54.5653794  78.5059502 151.3763143  53.9228175  78.7992035 150.7302937
  54.0608723  78.3912422 152.1816340  52.2193958  82.2522675 142.0649002
  53.1311814  82.4850062 141.8896700  51.7103605  82.8359719 141.5024081
  46.3791502  86.9722902 146.7212669  46.8429848  87.2510605 145.9317291
  46.1148300  86.0706346 146.5385759  43.2715583  86.5194383 149.6592432
  43.8416940  86.9481652 149.0209916  43.8623695  86.2376968 150.3576618
  45.3160388  83.0946054 143.5302234  46.0184432  83.5467098 143.9976160
  44.9841017  82.4529873 144.1582127  41.0100468  81.7174186 145.7902844
  40.2131631  81.8292880 146.3086340  40.7826060  82.0560838 144.9243735
  46.5554153  89.9086997 143.6064339  46.4199828  90.7538532 144.0349187
  47.0963965  90.1106274 142.8430273  40.0083550  87.4262435 144.1792264
  40.5208071  88.2205685 144.3297829  40.6606263  86.7288725 144.1125866
  37.9732467  85.7551089 144.9551835  38.8107689  86.1648097 144.7385542
  38.1510735  84.8150531 144.9252029  49.8696899  83.4226170 140.6435668
  49.3543523  84.1930774 140.8824055  49.5974208  82.7491306 141.2668729
  47.4544010  78.2675870 145.7020906  46.5985607  77.8782721 145.5226545
  47.8670962  78.3467831 144.8420692  54.8431173  86.1758524 142.5788841
  54.0660616  85.8369684 142.1344003  55.5222654  86.1811147 141.9043806
  49.6583202  81.2953262 142.4695449  49.3533338  81.6099411 143.3205592
  50.6113644  81.3734682 142.5122782  48.1029634  87.4543485 144.1188403
  47.5750996  86.7196245 143.8061640  47.6017137  88.2318161 143.8728371
  42.8348362  78.1163151 146.4795014  43.4092114  77.8938333 145.7468207
  43.4219344  78.1851846 147.2323616  51.8927939  84.0036878 147.2859391
  52.4059821  84.6366870 147.7881101  52.5429163  83.4038074 146.9202751
  43.1617949  80.1467612 140.4990900  42.3255261  80.4842299 140.8200174
  43.0222719  80.0116592 139.5618037  45.1371030  74.9904400 145.2070084
  44.4835442  74.6753417 144.5826699  45.0951504  74.3680141 145.9329907
  46.2482234  85.2723695 137.1223376  45.3409296  85.0412949 137.3214525
  46.7453266  84.4761315 137.3097357  49.1550313  93.9821203 140.0420062
  48.4812012  94.2852899 140.6505020  49.5416135  94.7850283 139.6925519
  48.3708770  81.4786334 149.5317731  47.4531331  81.7001281 149.3739419
  48.7868913  81.5532644 148.6729439  49.1543818  82.8777749 144.6620412
  49.9015637  83.3899147 144.3527534  49.4235407  82.5561802 145.5224805
  47.4270468  85.3736290 141.6447366  46.5181687  85.0895323 141.7419836
  47.4565552  85.7935369 140.7850673  52.6589735  88.9842880 145.4138533
  52.2052062  88.1433790 145.4703724  52.0283702  89.6204278 145.7513314
  51.6022655  79.9134866 146.6439201  50.8645412  79.4012252 146.9749444
  51.8549428  79.4735247 145.8322478  51.1022674  90.8219376 146.3488352
  51.3945649  91.3824433 145.6300717  51.6121295  91.1147937 147.1041511
  51.7034282  72.6911118 147.2380970  52.0093159  71.8308481 146.9506885
  52.4286887  73.2828738 147.0379964  37.9958638  83.0941804 145.6262568
  37.7983038  82.5011165 144.9013635  37.4405302  82.7894015 146.3438507
  45.9755362  82.9864911 147.7457161  46.0303972  82.0338747 147.6699638
  45.1646564  83.1424350 148.2298460  47.1246556  86.9145034 138.9835445
  46.6865986  86.1980893 138.5241082  47.8656996  87.1421149 138.4220536
  43.9147722  81.6041971 145.5047540  43.1015587  81.9036141 145.9112732
  44.4106716  81.2097659 146.2222022  46.0656300  91.5999727 147.4381805
  46.0232478  91.8260574 146.5090337  46.9818999  91.3663102 147.5867606
  55.2419670  85.1902231 145.0411763  55.1037569  85.3803827 144.1132952
  54.8855889  85.9521614 145.4979814  44.1822100  88.4762756 147.2343768
  44.9762699  87.9813077 147.0326343  43.4713793  87.9480620 146.8711473
  40.4904864  82.6205838 143.3103520  39.5602452  82.5590294 143.5273482
  40.5862336  82.0981791 142.5140161  40.4090413  79.1460651 145.8981762
  40.6697230  80.0605984 145.7890922  41.2307585  78.6785094 146.0478375
  47.3541528  94.1500875 142.2567141  47.5293284  93.6788918 143.0712764
  46.6674316  94.7766641 142.4848402  48.3098592  88.4273381 148.3030442
  47.9748424  88.3874151 149.1988092  47.8102537  87.7618097 147.8300853
  51.2457783  85.7729416 138.5767502  50.6286954  85.0476244 138.4800555
  50.7774272  86.5338776 138.2334576  43.0356329  79.9914840 137.6988806
  42.1585795  79.8703641 137.3351053  43.5114082  79.2000918 137.4467695
  46.2220255  92.3441130 144.9451327  45.4387777  92.8862810 145.0389551
  46.9213000  92.8615110 145.3445568  49.5316905  78.1535760 147.5885532
  50.0285605  77.4005722 147.2686602  48.7603887  78.1900076 147.0228742
  50.6146686  86.9107447 145.1623956  49.6802965  87.0308909 144.9928660
  50.7923354  86.0079914 144.8983965  46.1151874  80.2953143 147.3157217
  45.7449662  79.7424183 148.0038122  46.6110966  79.6911276 146.7632217
  54.0019237  82.7524766 145.6973990  54.4679690  83.5852758 145.6234292
  54.4526738  82.2869748 146.4019248  52.0695468  89.0968587 142.6960142
  52.3455312  88.9825182 143.6054016  51.1999967  88.6986072 142.6572315
  48.7049532  93.3454938 146.3392955  48.8871927  92.5276594 146.8020708
  49.5282518  93.5622631 145.9017845  49.0391698  92.2723123 143.6008004
  49.5679464  91.7615578 142.9878166  49.3019918  91.9565654 144.4653537
  37.7635023  81.5856695 143.1401712  38.0588464  80.6767373 143.0868766
  36.8623059  81.5644435 142.8182714  39.4922865  79.2670793 143.2641037
  39.1635571  78.3868172 143.0816143  39.8462235  79.2118461 144.1517426
  48.7402443  90.9025695 147.7736023  48.5927406  89.9742403 147.9543593
  49.5655937  90.9245786 147.2893098  42.6064688  79.5543763 143.6316515
  42.9460760  80.0829684 142.9095123  43.0536808  79.8924169 144.4075081
  44.5932835  78.0518384 141.8309808  45.3141197  78.4299637 141.3273524
  43.9698139  78.7707261 141.9344786  48.7363958  78.7563533 142.7668140
  48.9527572  79.6388171 142.4656968  48.2558025  78.3649746 142.0373782
  52.1331881  92.2439922 144.2162987  52.3068759  91.6786344 143.4636839
  52.6260773  93.0440817 144.0342477  44.7396458  77.5866175 144.6607344
  44.8612369  76.6582821 144.8598232  44.4498500  77.6004861 143.7485660
  57.9871273  85.0076345 145.8353287  58.4302419  84.2583670 145.4372410
  57.1097783  84.9986481 145.4527019  53.1207054  91.5606686 141.3159885
  53.8157959  92.1813379 141.5347200  53.4630204  90.7102037 141.5912263
  55.0198477  89.0106392 142.8447216  55.5449801  89.3493664 142.1196536
  54.9320830  88.0753407 142.6610351  43.7126517  89.1720307 142.7523231
  43.8614637  89.8555772 142.0989904  44.5192960  89.1525397 143.2672687
  41.4679150  85.1985485 143.7584300  41.2225192  84.2947815 143.9564510
  41.6375064  85.2002635 142.8163778  40.7374797  80.9313842 141.2570462
  40.0444042  81.0058197 140.6010498  40.4926549  80.1674186 141.7791979
  47.2121922  91.6668438 140.2234979  46.6395890  92.2858625 139.7705451
  47.7854716  92.2167799 140.7574901  50.4319182  91.9505588 141.3543561
  51.3649855  91.8851150 141.5576437  50.3442395  92.7861855 140.8958094
  53.0607199  91.2671458 138.3147509  52.9820830  90.9331322 139.2083267
  53.8816866  91.7593226 138.3138981  47.5968721  83.0029250 137.5651031
  48.5427826  82.8735459 137.6339449  47.2182966  82.2643912 138.0420459
  53.5690605  74.6685256 147.5277923  53.3715427  74.3600345 148.4121255
  54.1790311  75.3946895 147.6575853  45.7811638  80.9279227 137.5005917
  44.8743093  80.6312340 137.5768630  46.0587619  80.6309045 136.6340203
  47.3973704  75.4716117 143.6550158  46.5874432  75.1263202 144.0305404
  48.0858121  75.1623660 144.2437769  49.3264252  74.5494163 145.2774454
  49.8795291  74.9689617 145.9364478  49.5634338  73.6229911 145.3197410
  44.5510423  77.7866162 137.6417896  45.4129587  78.1121060 137.9013713
  44.7360767  76.9997658 137.1290961  52.7043059  76.6594689 144.7853119
  52.1241728  77.3179493 144.4031171  52.4378992  75.8372033 144.3740536
  51.1546626  76.0599746 146.9874439  51.6546404  76.1716281 146.1788758
  51.7982233  75.7560799 147.6275247  51.4867937  78.8194779 143.8409467
  50.5993792  79.1044430 143.6229662  51.9021926  78.6588542 142.9936744
  54.8382473  78.8441300 147.5563806  55.6142863  79.3337752 147.8288423
  54.1130607  79.2699354 148.0135676  57.2755032  79.5568919 148.6137747
  57.8699523  79.3164655 147.9031055  57.3481616  78.8376050 149.2411283
  50.6311151  88.5839454 137.9357487  51.3347001  88.7889456 138.5515143
  49.9073799  89.1516215 138.2006570  51.4608961  84.3349315 144.0559757
  51.4044162  84.7917866 143.2167390  52.0137303  83.5739999 143.8782600
  55.2713767  80.1239047 144.8809877  55.0150701  79.7235682 145.7118084
  54.6466635  80.8382841 144.7560016  59.5826105  82.8635120 147.3881168
  59.0225663  82.9328309 148.1612730  58.9769608  82.6876105 146.6680664
  52.5397848  89.0221983 139.9855947  53.3743452  88.5903181 139.8033422
  52.3782191  88.8503996 140.9132841  52.1943740  85.5254096 141.3512286
  52.1392544  85.3598368 140.4100730  51.5689796  86.2330129 141.5074476
  45.5039866  75.0262205 140.9297605  45.4918536  75.9704045 141.0865876
  46.3963288  74.8432351 140.6357066  49.3191985  71.6204982 145.1843541
  48.5524381  71.0663468 145.3300224  49.7302690  71.6926851 146.0457693
  55.6780109  98.2607309 139.3489589  55.9305630  97.7388831 138.5873052
  54.7404668  98.0973455 139.4516272  57.3813425  94.6535462 140.2522001
  57.5487828  95.5215699 140.6192472  57.1910595  94.8162744 139.3283291
  54.0011703  95.4759530 140.4990900  53.1649016  95.8134217 140.8200174
  53.8616473  95.3408510 139.5618037  55.9764784  90.3196318 145.2070084
  55.3229196  90.0045335 144.5826699  55.9345258  89.6972058 145.9329907
  57.0875989 100.6015613 137.1223376  56.1803051 100.3704866 137.3214525
  57.5847021  99.8053232 137.3097357  51.3298618  97.9497756 143.3103520
  50.3996206  97.8882211 143.5273482  51.4256090  97.4273709 142.5140161
  53.8750084  95.3206758 137.6988806  52.9979550  95.1995558 137.3351053
  54.3507837  94.5292836 137.4467695  48.6028777  96.9148613 143.1401712
  48.8982219  96.0059291 143.0868766  47.7016813  96.8936352 142.8182714
  50.3316619  94.5962710 143.2641037  50.0029325  93.7160089 143.0816143
  50.6855990  94.5410379 144.1517426  55.4326589  93.3810302 141.8309808
  56.1534952  93.7591555 141.3273524  54.8091893  94.0999179 141.9344786
  55.5790212  92.9158092 144.6607344  55.7006124  91.9874738 144.8598232
  55.2892255  92.9296778 143.7485660  51.5768552  96.2605760 141.2570462
  50.8837797  96.3350115 140.6010498  51.3320304  95.4966104 141.7791979
  58.4362475  98.3321168 137.5651031  59.3821580  98.2027376 137.6339449
  58.0576720  97.5935830 138.0420459  56.6205393  96.2571145 137.5005917
  55.7136848  95.9604257 137.5768630  56.8981374  95.9600963 136.6340203
  58.2367458  90.8008034 143.6550158  57.4268187  90.4555119 144.0305404
  58.9251875  90.4915578 144.2437769  55.3904177  93.1158080 137.6417896
  56.2523341  93.4412978 137.9013713  55.5754521  92.3289576 137.1290961
  56.3433620  90.3554123 140.9297605  56.3312290  91.2995963 141.0865876
  57.2357042  90.1724268 140.6357066  60.1585740  86.9496899 145.1843541
  59.3918135  86.3955386 145.3300224  60.5696445  87.0218768 146.0457693
  37.7370696  51.3603793 128.0429311  37.0858676  51.9457874 127.6563325
  38.5315059  51.8909988 128.1024348  44.0037420  47.8528729 129.3034148
  43.2266863  47.5139889 128.8589310  44.6828901  47.8581352 128.6289113
  35.4088481  46.9493900 123.8468682  34.5015543  46.7183154 124.0459831
  35.9059513  46.1531520 124.0342664  38.3156560  55.6591407 126.7665369
  37.6418259  55.9623104 127.3750326  38.7022382  56.4620488 126.4170826
  36.2852802  48.5915239 125.7080751  35.8472232  47.8751098 125.2486388
  37.0263243  48.8191354 125.1465843  36.5147775  55.8271080 128.9812448
  36.6899531  55.3559123 129.7958070  35.8280563  56.4536846 129.2093709
  40.4064030  47.4499620 125.3012809  39.7893201  46.7246449 125.2045861
  39.9380518  48.2108981 124.9579883  41.2301715  50.7738792 129.4205448
  41.5061559  50.6595387 130.3299323  40.3606214  50.3756277 129.3817622
  38.1997945  53.9493328 130.3253311  38.7285711  53.4385783 129.7123473
  38.4626164  53.6335859 131.1898844  41.2938128  53.9210127 130.9408294
  41.4675006  53.3556549 130.1882146  41.7867019  54.7211021 130.7587784
  42.2813301  53.2376891 128.0405192  42.9764205  53.8583584 128.2592506
  42.6236451  52.3872242 128.3157570  44.1804724  50.6876596 129.5692523
  44.7056048  51.0263869 128.8441843  44.0927076  49.7523612 129.3855657
  36.3728169  53.3438643 126.9480285  35.8002136  53.9628830 126.4950757
  36.9460963  53.8938004 127.4820207  39.5925429  53.6275793 128.0788868
  40.5256102  53.5621354 128.2821743  39.5048642  54.4632060 127.6203400
  42.2213446  52.9441663 125.0392815  42.1427077  52.6101527 125.9328573
  43.0423112  53.4363431 125.0384288  36.7574968  44.6799455 124.2896338
  37.7034072  44.5505663 124.3584756  36.3789213  43.9414117 124.7665766
  39.7917397  50.2609659 124.6602794  40.4953248  50.4659661 125.2760449
  39.0680046  50.8286420 124.9251877  41.7004095  50.6992188 126.7101254
  42.5349699  50.2673386 126.5278728  41.5388438  50.5274201 127.6378148
  41.3549987  47.2024301 128.0757593  41.2998791  47.0368572 127.1346037
  40.7296042  47.9100334 128.2319783  50.3288370  61.2161839 136.8056430
  50.9666780  61.0968586 136.1019770  50.2109213  62.1642683 136.8644383
  47.1378076  61.1689267 136.7417955  46.7996588  61.0530332 135.8538490
  48.0067844  60.7680432 136.7218961  42.9964892  63.0224743 132.7314846
  42.4329757  62.9314680 131.9631134  42.8817287  62.2024648 133.2117339
  40.5429324  64.5175935 135.5699066  41.3350616  64.1766760 135.1545366
  40.7825974  64.6270910 136.4901220  48.5764451  66.6895711 128.0429311
  47.9252430  67.2749791 127.6563325  49.3708813  67.2201906 128.1024348
  42.5020078  63.7784848 128.4416445  43.2750954  63.2313835 128.3029321
  42.8545477  64.6429098 128.6530907  45.2661327  62.4838079 138.2384704
  45.8624899  62.2594101 137.5241667  45.3236299  61.7422824 138.8410152
  44.8386356  59.9377514 126.0734895  45.0911876  59.4159036 125.3118358
  43.9010915  59.7743660 126.1761579  49.8829638  58.9413293 133.8809638
  50.6692728  58.5232716 133.5300055  50.1468343  59.8459385 134.0491287
  50.0539716  64.3786143 128.5798295  49.4185549  64.4520769 129.2919200
  49.7237122  64.9679742 127.9017374  55.2838066  58.8788526 134.7842617
  56.0163237  58.3087743 135.0180446  54.5277421  58.4910126 135.2249123
  44.5582644  61.8405620 128.2759270  44.4418902  61.1650524 128.9440354
  44.6684904  61.3537994 127.4591423  46.9014185  61.3015767 131.9805959
  46.5372392  60.7746388 132.6918881  47.7581301  60.9114236 131.8072445
  46.5419672  56.3305667 126.9767308  46.7094075  57.1985903 127.3437779
  46.3516841  56.4932949 126.0528597  49.2995005  64.7922646 138.6433138
  48.9995729  65.6947685 138.5348946  48.9546065  64.5254829 139.4954291
  42.7507487  61.2436443 134.6769843  41.8257983  61.1112657 134.8847534
  42.9991900  62.0230662 135.1739785  52.6992149  57.3105186 136.3230576
  51.7909027  57.2420595 136.0289337  52.6479745  57.7877131 137.1512401
  46.5208893  58.7863325 127.9613975  46.4008518  59.2320375 128.7999455
  45.8261481  59.1348642 127.4027513  40.1116298  60.8869716 135.5113632
  40.2408679  61.1404195 136.4253043  39.4313749  61.4797424 135.1918287
  44.2815785  71.5566966 131.6104106  44.2039815  72.5074791 131.6892587
  43.6777429  71.2112839 132.2679032  54.5653796  55.5121625 138.1008450
  53.9228176  55.8054158 137.4548244  54.0608724  55.3974545 138.9061646
  52.2193959  59.2584798 128.7894309  53.1311815  59.4912184 128.6142006
  51.7103606  59.8421842 128.2269387  50.8263542  64.2410616 136.1807890
  50.1972404  64.4056330 135.4783958  50.4389204  64.6552226 136.9518854
  54.7052773  65.1765054 133.5352254  54.0203812  65.5563955 132.9849287
  54.7896623  65.7860381 134.2684202  51.9603705  62.8225013 140.1347598
  52.1720600  63.4656773 139.4581979  51.9133453  61.9887330 139.6669528
  46.3791503  63.9785024 133.4457975  46.8429849  64.2572727 132.6562598
  46.1148302  63.0768469 133.2631066  43.2715585  63.5256506 136.3837739
  43.8416942  63.9543774 135.7455223  43.8623696  63.2439091 137.0821924
  45.3160390  60.1008177 130.2547540  46.0184433  60.5529220 130.7221467
  44.9841018  59.4591996 130.8827434  53.0749533  65.6996968 138.3069955
  53.8966977  65.2977156 138.0252637  53.0711936  65.5965203 139.2586071
  41.0100469  58.7236309 132.5148151  40.2131632  58.8355003 133.0331646
  40.7826061  59.0622961 131.6489041  46.8406136  65.2481012 140.4630665
  46.9050569  65.7101419 141.2988837  46.1317060  64.6178377 140.5912975
  61.1655526  62.0435717 134.6554926  60.4119234  61.4743115 134.4998931
  61.3003067  62.0098381 135.6025561  46.5554154  66.9149119 130.3309646
  46.4199829  67.7600655 130.7594494  47.0963967  67.1168397 129.5675579
  40.0083552  64.4324557 130.9037571  40.5208072  65.2267808 131.0543135
  40.6606264  63.7350848 130.8371172  41.8178436  67.5490314 132.9860324
  41.9945065  68.4708278 132.7981308  42.6135270  67.2348733 133.4154704
  42.9409752  69.0668487 138.9870666  43.4917177  68.9385551 138.2147660
  42.1021228  69.3663376 138.6365559  50.2803869  67.8175486 142.4891389
  50.2622344  68.6384367 141.9971658  51.2023789  67.6929561 142.7141530
  37.9732468  62.7613212 131.6797141  38.8107690  63.1710220 131.4630849
  38.1510736  61.8212654 131.6497335  49.8696900  60.4288292 127.3680974
  49.3543524  61.1992897 127.6069362  49.5974209  59.7553428 127.9914036
  47.4544011  55.2737993 132.4266213  46.5985608  54.8844843 132.2471851
  47.8670963  55.3529954 131.5665998  54.8431175  63.1820647 129.3034148
  54.0660617  62.8431806 128.8589310  55.5222656  63.1873270 128.6289113
  49.6583204  58.3015384 129.1940755  49.3533339  58.6161534 130.0450899
  50.6113646  58.3796804 129.2368088  48.1029635  64.4605608 130.8433709
  47.5750997  63.7258367 130.5306947  47.6017138  65.2380284 130.5973678
  53.0822481  62.6554628 135.9600756  52.4246156  63.3453890 136.0480884
  53.8862881  63.0451060 136.3034742  42.8348363  55.1225274 133.2040321
  43.4092115  54.9000455 132.4713514  43.4219345  55.1913968 133.9568922
  51.8927940  61.0099001 134.0104697  52.4059822  61.6428993 134.5126407
  52.5429164  60.4100196 133.6448058  43.1617950  57.1529735 127.2236206
  42.3255262  57.4904422 127.5445481  43.0222720  57.0178715 126.2863343
  45.1371031  51.9966523 131.9315390  44.4835443  51.6815540 131.3072005
  45.0951505  51.3742263 132.6575213  46.2482236  62.2785818 123.8468682
  45.3409297  62.0475071 124.0459831  46.7453268  61.4823437 124.0342664
  49.1550315  70.9883325 126.7665369  48.4812013  71.2915022 127.3750326
  49.5416136  71.7912405 126.4170826  48.3708771  58.4848456 136.2563038
  47.4531332  58.7063403 136.0984726  48.7868915  58.5594767 135.3974745
  49.1543819  59.8839872 131.3865718  49.9015638  60.3961269 131.0772840
  49.4235408  59.5623925 132.2470112  47.4270469  62.3798413 128.3692673
  46.5181688  62.0957446 128.4665142  47.4565553  62.7997491 127.5095979
  52.6589736  65.9905002 132.1383840  52.2052064  65.1495912 132.1949031
  52.0283703  66.6266401 132.4758620  51.6022656  56.9196988 133.3684508
  50.8645413  56.4074375 133.6994750  51.8549430  56.4797370 132.5567784
  51.1022676  67.8281499 133.0733658  51.3945650  68.3886556 132.3546024
  51.6121296  68.1210060 133.8286817  51.7034283  49.6973240 133.9626277
  52.0093160  48.8370604 133.6752192  52.4286888  50.2890861 133.7625271
  37.9958639  60.1003927 132.3507875  37.7983039  59.5073288 131.6258941
  37.4405303  59.7956137 133.0683814  45.9755363  59.9927033 134.4702468
  46.0303973  59.0400870 134.3944944  45.1646565  60.1486472 134.9543766
  47.1246557  63.9207156 125.7080751  46.6865987  63.2043015 125.2486388
  47.8656998  64.1483271 125.1465843  43.9147723  58.6104093 132.2292847
  43.1015589  58.9098264 132.6358039  44.4106717  58.2159782 132.9467329
  46.0656301  68.6061850 134.1627111  46.0232480  68.8322696 133.2335643
  46.9819000  68.3725225 134.3112913  55.2419672  62.1964354 131.7657070
  55.1037570  62.3865949 130.8378259  54.8855890  62.9583736 132.2225121
  55.2689051  64.2640881 136.7768341  55.7025558  64.1716170 137.6251395
  55.9820632  64.2398381 136.1388357  44.1822102  65.4824879 133.9589074
  44.9762700  64.9875199 133.7571649  43.4713794  64.9542742 133.5956780
  49.0016946  67.8642975 138.3101442  49.0553968  68.4333911 139.0779158
  48.1331728  68.0344860 137.9455479  40.4904865  59.6267961 130.0348827
  39.5602453  59.5652416 130.2518789  40.5862337  59.1043914 129.2385468
  40.4090414  56.1522774 132.6227069  40.6697232  57.0668107 132.5136229
  41.2307587  55.6847216 132.7723681  56.1304601  64.3064581 139.3101227
  56.3240491  65.2110392 139.5560502  56.0305219  63.8472000 140.1439812
  47.9605046  62.0303237 139.8688374  48.8897106  62.1814396 139.6957341
  47.5396076  62.1187257 139.0137020  46.7593378  66.0553901 137.6386911
  46.6204463  65.6872685 138.5112849  45.9707974  66.5701541 137.4670869
  47.3541530  71.1562998 128.9812448  47.5293285  70.6851041 129.7958070
  46.6674318  71.7828764 129.2093709  48.3098593  65.4335504 135.0275749
  47.9748425  65.3936274 135.9233399  47.8102539  64.7680220 134.5546159
  51.2457784  62.7791538 125.3012809  50.6286955  62.0538366 125.2045861
  50.7774273  63.5400898 124.9579883  52.9011916  67.4890446 142.9618589
  52.8424462  66.8049667 142.2949172  53.3031435  68.2309436 142.5099215
  41.9202615  74.3052360 135.7552308  42.1599213  74.9370884 136.4331327
  41.0771811  73.9540400 136.0417667  43.0356330  56.9976962 124.4234113
  42.1585797  56.8765763 124.0596360  43.5114083  56.2063041 124.1713002
  52.9029323  65.4530030 141.1932569  52.0156102  65.1155952 141.3158968
  53.4727874  64.7213062 141.4301334  34.5558471  61.7854122 134.5175620
  35.2429510  61.4715852 133.9296635  34.4006599  62.6895487 134.2442872
  46.4330477  70.1131483 138.1593812  46.3600648  70.9186454 138.6713117
  45.9907870  70.3123449 137.3341833  46.2220256  69.3503253 131.6696634
  45.4387778  69.8924933 131.7634858  46.9213002  69.8677232 132.0690875
  49.5316907  55.1597882 134.3130839  50.0285606  54.4067845 133.9931909
  48.7603888  55.1962199 133.7474048  57.3846664  60.8638248 135.9549130
  57.3736540  61.7462963 135.5843063  56.5164043  60.5109799 135.7603667
  48.8929160  70.0118317 140.3151971  49.6057133  70.6465782 140.2427872
  48.4019189  70.1082183 139.4991972  50.6146687  63.9169569 131.8869262
  49.6802966  64.0371032 131.7173967  50.7923356  63.0142036 131.6229272
  46.1151875  57.3015265 134.0402523  45.7449663  56.7486306 134.7283429
  46.6110968  56.6973399 133.4877524  54.0019239  59.7586889 132.4219296
  54.4679691  60.5914880 132.3479599  54.4526739  59.2931870 133.1264555
  43.9441074  67.7612760 141.1357541  44.6450533  68.3949243 141.2886936
  43.4736189  68.1027492 140.3753181  52.0695470  66.1030710 129.4205448
  52.3455314  65.9887305 130.3299323  51.1999968  65.7048195 129.3817622
  51.7442360  60.3157368 138.9610092  51.0913810  60.5633275 138.3062545
  52.1222740  59.5021506 138.6272569  48.7049534  70.3517061 133.0638262
  48.8871928  69.5338717 133.5266014  49.5282520  70.5684753 132.6263152
  49.0391699  69.2785246 130.3253311  49.5679466  68.7677701 129.7123473
  49.3019919  68.9627776 131.1898844  39.5408792  67.2949115 138.0688644
  40.1262229  66.5492803 138.2016548  39.3433630  67.6053072 138.9525308
  42.3947447  70.3300363 133.0851086  41.7257822  70.8146490 132.6015127
  42.2560317  70.5769583 133.9994465  46.5352716  72.3644106 139.6833745
  47.0871024  72.5275728 140.4482830  46.8758909  72.9548544 139.0113770
  37.7635024  58.5918818 129.8647019  38.0588465  57.6829496 129.8114072
  36.8623060  58.5706557 129.5428021  49.6721103  70.3126082 136.6697427
  49.5472242  69.5115822 136.1608373  50.3300194  70.8072275 136.1811397
  51.7356011  68.1135102 138.2976977  50.7886347  67.9940453 138.2255304
  52.0838784  67.2257600 138.3803239  39.4922866  56.2732915 129.9886344
  39.1635572  55.3930294 129.8061450  39.8462237  56.2180584 130.8762733
  48.7402445  67.9087818 134.4981329  48.5927407  66.9804525 134.6788899
  49.5655938  67.9307909 134.0138405  42.6064689  56.5605885 130.3561822
  42.9460761  57.0891806 129.6340430  43.0536809  56.8986291 131.1320388
  52.3436567  68.7316377 135.5846202  53.2683114  68.5259238 135.4470653
  52.1751870  68.4832778 136.4935544  44.5932836  55.0580507 128.5555114
  45.3141199  55.4361759 128.0518831  43.9698140  55.7769384 128.6590092
  48.7363959  55.7625656 129.4913447  48.9527573  56.6450294 129.1902275
  48.2558026  55.3711869 128.7619089  52.1331883  69.2502044 130.9408294
  52.3068760  68.6848467 130.1882146  52.6260774  70.0502939 130.7587784
  44.7396459  54.5928297 131.3852651  44.8612370  53.6644943 131.5843538
  44.4498502  54.6066983 130.4730966  57.9871274  62.0138467 132.5598593
  58.4302420  61.2645792 132.1617717  57.1097784  62.0048604 132.1772325
  53.1207055  68.5668809 128.0405192  53.8157960  69.1875501 128.2592506
  53.4630205  67.7164160 128.3157570  55.0198478  66.0168514 129.5692523
  55.5449802  66.3555787 128.8441843  54.9320831  65.0815529 129.3855657
  46.6818527  69.9302588 141.6982399  46.9905653  69.6851735 142.5705099
  47.4794009  70.1349226 141.2101269  46.7039139  72.0840497 133.9287776
  46.2644129  71.5916876 134.6220632  47.4547256  71.5413465 133.6879851
  39.1831478  68.2752038 133.9312404  40.0089498  67.9755810 133.5511047
  38.8325530  67.5059661 134.3802193  44.1513011  67.6278507 136.0010077
  43.5293021  66.9649212 135.7012305  44.8217878  67.6539638 135.3183725
  37.3840083  66.1938365 134.8901337  36.5471991  65.7660539 134.7085339
  37.3563729  66.3870808 135.8272129  54.7092384  66.6501418 144.8743721
  53.9187928  66.6325557 144.3348220  54.4725739  67.1889711 145.6292757
  54.8290259  63.4993884 142.1876449  54.8788264  63.3343892 143.1291972
  54.7204183  62.6321143 141.7974330  43.7126518  66.1782430 129.4768538
  43.8614639  66.8617894 128.8235211  44.5192962  66.1587520 129.9917994
  56.3308456  65.9190826 142.4318471  56.0393265  66.2820806 143.2681932
  55.7180588  65.2057834 142.2531803  57.5304139  63.4843705 134.9521041
  58.3651030  63.9233510 135.1158601  57.6663267  63.0082359 134.1329287
  54.5795645  61.0423440 140.8998529  55.0549766  61.2351087 140.0917380
  53.6561210  61.0982626 140.6541912  41.4679151  62.2047607 130.4829607
  41.2225193  61.3009937 130.6809817  41.6375066  62.2064758 129.5409085
  40.7374799  57.9375965 127.9815768  40.0444044  58.0120320 127.3255804
  40.4926551  57.1736309 128.5037285  47.2121924  68.6730560 126.9480285
  46.6395891  69.2920747 126.4950757  47.7854717  69.2229922 127.4820207
  53.2797314  57.9189200 139.1326834  54.2314736  58.0187298 139.1539058
  53.1100764  57.1267469 139.6424919  50.4319183  68.9567710 128.0788868
  51.3649857  68.8913272 128.2821743  50.3442396  69.7923977 127.6203400
  53.0607200  68.2733581 125.0392815  52.9820832  67.9393444 125.9328573
  53.8816867  68.7655349 125.0384288  55.7585391  61.1395320 138.2469134
  55.7261711  60.2011321 138.4328818  56.3686015  61.2179357 137.5134959
  47.5968722  60.0091373 124.2896338  48.5427827  59.8797581 124.3584756
  47.2182967  59.2706035 124.7665766  55.9079880  57.9306364 138.2927417
  55.3918928  57.1464820 138.1057346  56.7919828  57.6025080 138.4573937
  53.5690607  51.6747379 134.2523230  53.3715428  51.3662467 135.1366562
  54.1790312  52.4009018 134.3821160  61.5761941  62.2011327 137.3875171
  62.3065330  61.9396615 137.9482874  60.9668887  61.4640049 137.4277239
  59.6577238  60.3419190 137.9849622  58.9310402  60.2075154 137.3766113
  59.2424525  60.6496018 138.7906340  45.7811639  57.9341349 124.2251223
  44.8743095  57.6374462 124.3013937  46.0587620  57.6371168 123.3585509
  47.3973705  52.4778239 130.3795464  46.5874433  52.1325324 130.7550711
  48.0858122  52.1685783 130.9683076  49.3264253  51.5556286 132.0019761
  49.8795292  51.9751739 132.6609784  49.5634340  50.6292034 132.0442717
  44.5510424  54.7928285 124.3663202  45.4129588  55.1183183 124.6259020
  44.7360768  54.0059781 123.8536268  52.7043060  53.6656811 131.5098425
  52.1241729  54.3241615 131.1276478  52.4378993  52.8434156 131.0985843
  51.1546627  53.0661869 133.7119746  51.6546405  53.1778403 132.9034065
  51.7982235  52.7622922 134.3520554  38.4814582  62.8068878 134.5209406
  38.4585270  62.9056565 133.5691289  38.7915219  63.6534029 134.8426572
  51.4867938  55.8256902 130.5654774  50.5993793  56.1106552 130.3474968
  51.9021928  55.6650665 129.7182051  54.8382475  55.8503422 134.2809113
  55.6142865  56.3399875 134.5533730  54.1130609  56.2761477 134.7380982
  57.2755033  56.5631042 135.3383053  57.8699524  56.3226778 134.6276362
  57.3481617  55.8438172 135.9656590  39.4952189  70.4064653 135.6526218
  39.3606657  69.6465054 135.0864216  39.0784251  71.1305553 135.1855007
  50.6311152  65.5901576 124.6602794  51.3347002  65.7951579 125.2760449
  49.9073801  66.1578338 124.9251877  51.4608962  61.3411437 130.7805064
  51.4044164  61.7979989 129.9412696  52.0137305  60.5802122 130.6027907
  55.2713768  57.1301169 131.6055183  55.0150702  56.7297805 132.4363391
  54.6466636  57.8444963 131.4805322  59.5826106  59.8697243 134.1126475
  59.0225664  59.9390432 134.8858037  58.9769609  59.6938227 133.3925971
  42.6521315  71.3033970 135.8644661  42.5353699  72.2479402 135.7623351
  41.8313761  71.0007531 136.2530460  52.5397849  66.0284105 126.7101254
  53.3743453  65.5965304 126.5278728  52.3782192  65.8566119 127.6378148
  52.1943742  62.5316219 128.0757593  52.1392545  62.3660490 127.1346037
  51.5689797  63.2392252 128.2319783  45.5039867  52.0324328 127.6542911
  45.4918537  52.9766168 127.8111182  46.3963289  51.8494473 127.3602373
  43.6775829  71.9562232 139.0800589  44.5803076  71.9885842 139.3967084
  43.4513199  71.0262683 139.0946925  45.4329431  70.7093218 135.7410668
  44.4825062  70.7095080 135.6275040  45.7361917  69.9625953 135.2246703
  49.3191986  48.6267104 131.9088848  48.5524382  48.0725591 132.0545530
  49.7302691  48.6988973 132.7703000  61.1682124  76.5453756 136.8056430
  61.8060534  76.4260504 136.1019770  61.0502967  77.4934600 136.8644383
  57.9771831  76.4981185 136.7417955  57.6390342  76.3822249 135.8538490
  58.8461599  76.0972350 136.7218961  53.8358646  78.3516661 132.7314846
  53.2723512  78.2606598 131.9631134  53.7211041  77.5316565 133.2117339
  58.4591614  77.6516036 142.7004161  58.4480254  77.2568835 141.8284664
  58.6212253  76.9182109 143.2937932  51.3823078  79.8467853 135.5699066
  52.1744370  79.5058677 135.1545366  51.6219728  79.9562828 136.4901220
  59.4158205  82.0187629 128.0429311  58.7646185  82.6041709 127.6563325
  60.2102568  82.5493824 128.1024348  53.3413832  79.1076766 128.4416445
  54.1144708  78.5605753 128.3029321  53.6939231  79.9721015 128.6530907
  55.1798875  80.4353148 141.6483345  54.8888741  81.3398779 141.5330011
  55.8155859  80.4769676 142.3627414  56.1055082  77.8129997 138.2384704
  56.7018654  77.5886019 137.5241667  56.1630053  77.0714742 138.8410152
  55.6780110  75.2669432 126.0734895  55.9305631  74.7450953 125.3118358
  54.7404669  75.1035577 126.1761579  60.7223393  74.2705210 133.8809638
  61.5086482  73.8524634 133.5300055  60.9862097  75.1751303 134.0491287
  60.8933470  79.7078061 128.5798295  60.2579303  79.7812687 129.2919200
  60.5630877  80.2971659 127.9017374  66.1231820  74.2080444 134.7842617
  66.8556992  73.6379660 135.0180446  65.3671176  73.8202044 135.2249123
  55.3976399  77.1697538 128.2759270  55.2812657  76.4942441 128.9440354
  55.5078659  76.6829912 127.4591423  57.7407940  76.6307685 131.9805959
  57.3766147  76.1038306 132.6918881  58.5975056  76.2406154 131.8072445
  63.6457240  67.9202018 139.2437226  63.3140565  68.7897429 139.0198441
  63.0502854  67.6038302 139.9231256  57.3813427  71.6597585 126.9767308
  57.5487829  72.5277821 127.3437779  57.1910596  71.8224866 126.0528597
  60.1388760  80.1214564 138.6433138  59.8389483  81.0239602 138.5348946
  59.7939819  79.8546747 139.4954291  53.5901241  76.5728360 134.6769843
  52.6651738  76.4404575 134.8847534  53.8385655  77.3522580 135.1739785
  63.5385904  72.6397104 136.3230576  62.6302781  72.5712512 136.0289337
  63.4873499  73.1169049 137.1512401  57.3602648  74.1155242 127.9613975
  57.2402273  74.5612293 128.7999455  56.6655236  74.4640560 127.4027513
  50.9510052  76.2161634 135.5113632  51.0802434  76.4696113 136.4253043
  50.2707504  76.8089342 135.1918287  55.1209540  86.8858884 131.6104106
  55.0433569  87.8366709 131.6892587  54.5171183  86.5404756 132.2679032
  57.6126769  74.0586749 144.2665473  56.8360104  74.6180670 144.2568338
  58.2517333  74.5443532 144.7880343  65.4047550  70.8413542 138.1008450
  64.7621930  71.1346075 137.4548244  64.9002479  70.7266463 138.9061646
  63.0587714  74.5876715 128.7894309  63.9705570  74.8204102 128.6142006
  62.5497361  75.1713760 128.2269387  55.8673142  76.8672203 143.8283440
  56.6087826  77.4057247 143.5518263  55.1610127  77.4938492 143.9854992
  61.3428481  79.0101343 142.4255601  61.7511837  78.5683754 141.6810234
  60.6205743  78.4353971 142.6789794  57.6959551  73.9473950 139.7989158
  58.5420747  74.3713364 139.9423807  57.6358189  73.2907574 140.4927721
  61.6657296  79.5702534 136.1807890  61.0366159  79.7348248 135.4783958
  61.2782958  79.9844143 136.9518854  65.5446528  80.5056972 133.5352254
  64.8597566  80.8855873 132.9849287  65.6290377  81.1152298 134.2684202
  60.8458997  71.6078318 141.4570332  60.6019929  72.3620379 140.9204608
  61.1218927  71.9863666 142.2917579  62.7997460  78.1516931 140.1347598
  63.0114355  78.7948691 139.4581979  62.7527208  77.3179247 139.6669528
  60.4023689  70.7634751 137.0384170  59.5408168  71.0616005 137.3300907
  60.4286123  70.9805150 136.1065202  57.2185258  79.3076942 133.4457975
  57.6823603  79.5864645 132.6562598  56.9542056  78.4060387 133.2631066
  54.1109339  78.8548423 136.3837739  54.6810696  79.2835692 135.7455223
  54.7017451  78.5731008 137.0821924  56.1554144  75.4300094 130.2547540
  56.8578187  75.8821138 130.7221467  55.8234773  74.7883913 130.8827434
  54.6034506  74.0211851 144.6298750  53.9733166  74.7028132 144.8634147
  54.4970593  73.9094933 143.6851888  49.8979478  73.6883647 135.5564674
  49.1078532  73.9441176 135.0804785  50.3890725  74.5031985 135.6616715
  63.9143288  81.0288886 138.3069955  64.7360731  80.6269073 138.0252637
  63.9105690  80.9257120 139.2586071  51.8494223  74.0528226 132.5148151
  51.0525387  74.1646920 133.0331646  51.6219816  74.3914878 131.6489041
  57.6799891  80.5772929 140.4630665  57.7444323  81.0393337 141.2988837
  56.9710815  79.9470294 140.5912975  48.1817181  73.9414137 137.9879665
  48.4325219  74.8261147 138.2537241  48.7176729  73.7618739 137.2154757
  72.0049281  77.3727635 134.6554926  71.2512989  76.8035033 134.4998931
  72.1396822  77.3390299 135.6025561  57.3947909  82.2441037 130.3309646
  57.2593583  83.0892573 130.7594494  57.9357721  82.4460315 129.5675579
  50.8477306  79.7616475 130.9037571  51.3601827  80.5559725 131.0543135
  51.5000019  79.0642765 130.8371172  52.6572191  82.8782231 132.9860324
  52.8338819  83.8000196 132.7981308  53.4529024  82.5640650 133.4154704
  56.7983209  69.7390496 144.5844257  57.5392923  70.3397649 144.5048720
  57.0301132  68.9968134 144.0262300  51.9424547  74.9246863 142.8622487
  51.8278062  74.0232120 143.1629586  51.0869065  75.1710560 142.5107304
  59.0216385  82.8664603 144.4609988  58.5780239  82.0800982 144.1430892
  59.6833599  83.0543754 143.7953879  53.7803506  84.3960405 138.9870666
  54.3310931  84.2677468 138.2147660  52.9414982  84.6955294 138.6365559
  61.1197623  83.1467403 142.4891389  61.1016098  83.9676284 141.9971658
  62.0417543  83.0221479 142.7141530  57.5770677  80.6611533 143.3314897
  58.1099014  79.8999821 143.1014205  57.0484758  80.3685185 144.0739052
  60.7440372  65.7671599 138.8608539  60.4004642  66.6573241 138.7847650
  61.1119335  65.5773256 137.9978124  48.8126223  78.0905129 131.6797141
  49.6501445  78.5002138 131.4630849  48.9904490  77.1504571 131.6497335
  60.7090655  75.7580210 127.3680974  60.1937278  76.5284815 127.6069362
  60.4367963  75.0845346 127.9914036  58.2937766  70.6029911 132.4266213
  57.4379362  70.2136761 132.2471851  58.7064718  70.6821872 131.5665998
  59.8236913  68.1376254 136.8257772  59.3201708  68.1006389 136.0125578
  60.1167519  69.0468997 136.8854429  56.0679798  68.2214984 135.8323954
  56.9332795  68.0257792 135.4729844  56.1357307  67.9925335 136.7593311
  65.6824929  78.5112565 129.3034148  64.9054372  78.1723724 128.8589310
  66.3616410  78.5165188 128.6289113  60.4976958  73.6307302 129.1940755
  60.1927094  73.9453451 130.0450899  61.4507400  73.7088722 129.2368088
  58.9423390  79.7897525 130.8433709  58.4144752  79.0550285 130.5306947
  58.4410893  80.5672202 130.5973678  63.9216236  77.9846546 135.9600756
  63.2639910  78.6745807 136.0480884  64.7256635  78.3742978 136.3034742
  53.6742118  70.4517192 133.2040321  54.2485869  70.2292373 132.4713514
  54.2613100  70.5205886 133.9568922  62.7321695  76.3390919 134.0104697
  63.2453577  76.9720910 134.5126407  63.3822919  75.7392114 133.6448058
  54.0011705  72.4821653 127.2236206  53.1649017  72.8196339 127.5445481
  53.8616474  72.3470632 126.2863343  55.9764785  67.3258441 131.9315390
  55.3229198  67.0107458 131.3072005  55.9345259  66.7034181 132.6575213
  57.0875990  77.6077736 123.8468682  56.1803052  77.3766989 124.0459831
  57.5847022  76.8115355 124.0342664  59.9944069  86.3175243 126.7665369
  59.3205768  86.6206940 127.3750326  60.3809891  87.1204323 126.4170826
  59.2102526  73.8140374 136.2563038  58.2925087  74.0355321 136.0984726
  59.6262669  73.8886685 135.3974745  59.9937573  75.2131790 131.3865718
  60.7409392  75.7253187 131.0772840  60.2629163  74.8915842 132.2470112
  58.2664224  77.7090330 128.3692673  57.3575443  77.4249363 128.4665142
  58.2959307  78.1289409 127.5095979  63.4983491  81.3196920 132.1383840
  63.0445818  80.4787830 132.1949031  62.8677458  81.9558318 132.4758620
  62.4416411  72.2488906 133.3684508  61.7039167  71.7366292 133.6994750
  62.6943184  71.8089288 132.5567784  61.9416430  83.1573417 133.0733658
  62.2339405  83.7178474 132.3546024  62.4515051  83.4501978 133.8286817
  62.5428038  65.0265158 133.9626277  62.8486915  64.1662521 133.6752192
  63.2680643  65.6182778 133.7625271  48.8352394  75.4295845 132.3507875
  48.6376794  74.8365205 131.6258941  48.2799058  75.1248055 133.0683814
  56.8149118  75.3218951 134.4702468  56.8697727  74.3692787 134.3944944
  56.0040320  75.4778390 134.9543766  57.9640311  79.2499074 125.7080751
  57.5259741  78.5334933 125.2486388  58.7050752  79.4775189 125.1465843
  54.7541478  73.9396011 132.2292847  53.9409343  74.2390181 132.6358039
  55.2500472  73.5451700 132.9467329  56.9050055  83.9353768 134.1627111
  56.8626234  84.1614614 133.2335643  57.8212754  83.7017142 134.3112913
  60.3515689  74.4037835 141.0607741  60.7065077  74.6309308 141.9202206
  60.9987820  74.7356212 140.4384996  66.0813426  77.5256271 131.7657070
  65.9431325  77.7157867 130.8378259  65.7249645  78.2875654 132.2225121
  54.2455552  71.5114366 137.8454082  54.8854932  71.3703125 137.1477045
  53.4133083  71.2248880 137.4692684  66.1082806  79.5932798 136.7768341
  66.5419312  79.5008087 137.6251395  66.8214386  79.5690299 136.1388357
  55.0215856  80.8116797 133.9589074  55.8156455  80.3167117 133.7571649
  54.3107549  80.2834660 133.5956780  59.8410701  83.1934892 138.3101442
  59.8947723  83.7625829 139.0779158  58.9725482  83.3636777 137.9455479
  51.3298620  74.9559879 130.0348827  50.3996208  74.8944334 130.2518789
  51.4256092  74.4335831 129.2385468  51.2484169  71.4814691 132.6227069
  51.5090986  72.3960025 132.5136229  52.0701341  71.0139134 132.7723681
  52.7209094  72.8952449 139.7925893  53.3932147  72.6869811 139.1438542
  51.8938881  72.6974535 139.3531125  66.9698355  79.6356499 139.3101227
  67.1634245  80.5402309 139.5560502  66.8698973  79.1763918 140.1439812
  58.6234666  69.5214389 141.8091554  57.9762581  70.2204339 141.7156030
  59.3935681  69.9550533 142.1767802  62.0313464  79.7863242 144.8842107
  61.8798970  79.5573793 143.9672191  62.0218143  80.7433843 144.8973452
  58.7998800  77.3595154 139.8688374  59.7290860  77.5106314 139.6957341
  58.3789830  77.4479175 139.0137020  57.5987132  81.3845819 137.6386911
  57.4598218  81.0164603 138.5112849  56.8101728  81.8993458 137.4670869
  58.1935284  86.4854915 128.9812448  58.3687040  86.0142958 129.7958070
  57.5068072  87.1120681 129.2093709  59.1492347  80.7627421 135.0275749
  58.8142180  80.7228191 135.9233399  58.6496293  80.0972137 134.5546159
  53.1236591  76.1695051 140.5528330  52.9856389  75.4375290 141.1539869
  54.0341515  76.0803952 140.2712518  62.0851539  78.1083456 125.3012809
  61.4680710  77.3830284 125.2045861  61.6168027  78.8692816 124.9579883
  55.7518892  75.8815011 140.0412010  56.4618510  75.2408203 139.9998628
  55.7088200  76.1327906 140.9638191  63.7405671  82.8182364 142.9618589
  63.6818217  82.1341584 142.2949172  64.1425189  83.5601354 142.5099215
  54.4647826  72.8680229 141.8607649  53.9285183  72.4170967 142.5129246
  53.8764534  73.0026138 141.1178114  52.7596369  89.6344278 135.7552308
  52.9992968  90.2662802 136.4331327  51.9165566  89.2832318 136.0417667
  53.8750085  72.3268880 124.4234113  52.9979551  72.2057681 124.0596360
  54.3507838  71.5354958 124.1713002  63.7423078  80.7821948 141.1932569
  62.8549857  80.4447870 141.3158968  64.3121629  80.0504979 141.4301334
  45.3952225  77.1146040 134.5175620  46.0823265  76.8007770 133.9296635
  45.2400354  78.0187404 134.2442872  50.1986947  72.0036236 138.9460644
  50.1145136  71.3961906 138.2111054  49.3769654  72.4945255 138.9470140
  57.2724231  85.4423400 138.1593812  57.1994403  86.2478372 138.6713117
  56.8301624  85.6415366 137.3341833  57.0614011  84.6795170 131.6696634
  56.2781533  85.2216851 131.7634858  57.7606756  85.1969150 132.0690875
  60.3710661  70.4889800 134.3130839  60.8679361  69.7359762 133.9931909
  59.5997643  70.5254117 133.7474048  68.2240418  76.1930165 135.9549130
  68.2130295  77.0754881 135.5843063  67.3557798  75.8401716 135.7603667
  59.7322915  85.3410234 140.3151971  60.4450887  85.9757699 140.2427872
  59.2412943  85.4374100 139.4991972  61.4540442  79.2461487 131.8869262
  60.5196720  79.3662950 131.7173967  61.6317110  78.3433954 131.6229272
  56.9545630  72.6307183 134.0402523  56.5843417  72.0778223 134.7283429
  57.4504722  72.0265316 133.4877524  64.8412993  75.0878806 132.4219296
  65.3073445  75.9206798 132.3479599  65.2920494  74.6223788 133.1264555
  54.7834828  83.0904678 141.1357541  55.4844288  83.7241161 141.2886936
  54.3129943  83.4319409 140.3753181  62.9089224  81.4322628 129.4205448
  63.1849068  81.3179222 130.3299323  62.0393723  81.0340113 129.3817622
  62.8129656  67.4559393 136.4610198  61.8992736  67.6863620 136.6292405
  63.2422757  67.5397837 137.3124230  62.5836114  75.6449285 138.9610092
  61.9307565  75.8925193 138.3062545  62.9616494  74.8313424 138.6272569
  59.5443288  85.6808979 133.0638262  59.7265683  84.8630634 133.5266014
  60.3676274  85.8976671 132.6263152  59.8785454  84.6077164 130.3253311
  60.4073220  84.0969618 129.7123473  60.1413673  84.2919694 131.1898844
  58.6323687  76.3869096 145.4476129  57.9564324  76.2863226 146.1178504
  59.4551321  76.2308310 145.9112126  50.3802546  82.6241033 138.0688644
  50.9655983  81.8784721 138.2016548  50.1827385  82.9344990 138.9525308
  53.2341202  85.6592280 133.0851086  52.5651577  86.1438408 132.6015127
  53.0954071  85.9061501 133.9994465  44.9720201  75.1946633 136.7893087
  45.0104301  74.6610224 137.5830205  44.4660494  74.6681839 136.1704064
  57.3746470  87.6936024 139.6833745  57.9264778  87.8567645 140.4482830
  57.7152664  88.2840462 139.0113770  52.3510963  70.0411174 140.2855630
  52.4152290  70.9026005 139.8733027  52.2878084  69.4285175 139.5527988
  51.8263236  72.1134306 143.9328664  52.4535275  71.7311384 144.5466188
  50.9691155  71.8948508 144.2984356  62.2257345  82.5197281 145.5382399
  62.7697249  83.1327240 145.0437354  61.6444189  83.0776860 146.0549412
  48.6028779  73.9210735 129.8647019  48.8982220  73.0121414 129.8114072
  47.7016814  73.8998475 129.5428021  60.5114857  85.6417999 136.6697427
  60.3865997  84.8407739 136.1608373  61.1693949  86.1364193 136.1811397
  52.1323026  71.9966732 135.8474567  51.4109611  72.6102700 135.7082041
  52.9216281  72.5324497 135.7691213  62.5749766  83.4427019 138.2976977
  61.6280101  83.3232371 138.2255304  62.9232539  82.5549518 138.3803239
  54.9349339  69.3321158 142.1215219  55.4583741  69.5783455 142.8841528
  54.7161673  70.1641193 141.7018356  50.3316620  71.6024833 129.9886344
  50.0029326  70.7222212 129.8061450  50.6855991  71.5472502 130.8762733
  59.5796199  83.2379736 134.4981329  59.4321162  82.3096443 134.6788899
  60.4049693  83.2599826 134.0138405  53.4458443  71.8897803 130.3561822
  53.7854516  72.4183724 129.6340430  53.8930564  72.2278209 131.1320388
  63.1830321  84.0608294 135.5846202  64.1076868  83.8551156 135.4470653
  63.0145624  83.8124696 136.4935544  56.1401884  70.2734854 139.8064890
  55.7998705  69.4742667 140.2085569  55.4340891  70.5736564 139.2341723
  56.7918356  67.3584166 138.2592213  57.6144425  66.8844644 138.1371103
  57.0356420  68.1374650 138.7590899  55.4326591  70.3872424 128.5555114
  56.1534953  70.7653677 128.0518831  54.8091895  71.1061301 128.6590092
  59.5757713  71.0917573 129.4913447  59.7921328  71.9742211 129.1902275
  59.0951781  70.7003787 128.7619089  54.3156935  74.0503287 136.0684191
  54.1701516  74.3643590 136.9608473  53.8382138  74.6688187 135.5155090
  56.1753318  71.0405835 136.1165081  56.1614887  70.1446928 135.7797379
  56.8925746  71.0476498 136.7503367  58.0279448  71.4743175 138.1618208
  57.7697226  72.3960245 138.1602539  57.4964489  71.0773609 138.8518672
  62.9725637  84.5793962 130.9408294  63.1462515  84.0140384 130.1882146
  63.4654528  85.3794857 130.7587784  48.7902597  76.5908631 139.0071852
  48.2456065  77.3668439 139.1392127  49.6681947  76.9379435 138.8490974
  55.5790214  69.9220215 131.3852651  55.7006125  68.9936861 131.5843538
  55.2892256  69.9358901 130.4730966  58.4481404  67.6075125 134.5219371
  58.4703101  67.6714458 133.5671350  58.8649463  66.7679634 134.7159877
  68.8265028  77.3430385 132.5598593  69.2696174  76.5937710 132.1617717
  67.9491539  77.3340521 132.1772325  63.9600810  83.8960726 128.0405192
  64.6551714  84.5167419 128.2592506  64.3023960  83.0456078 128.3157570
  49.5768619  75.7178527 141.9002009  48.8350355  75.8661163 142.4866640
  49.2561363  75.9786793 141.0368759  65.8592233  81.3460432 129.5692523
  66.3843557  81.6847705 128.8441843  65.7714585  80.4107447 129.3855657
  57.5212282  85.2594505 141.6982399  57.8299408  85.0143652 142.5705099
  58.3187764  85.4641144 141.2101269  57.5432894  87.4132415 133.9287776
  57.1037884  86.9208794 134.6220632  58.2941011  86.8705383 133.6879851
  50.0225233  83.6043956 133.9312404  50.8483252  83.3047728 133.5511047
  49.6719285  82.8351578 134.3802193  54.9906766  82.9570424 136.0010077
  54.3686775  82.2941129 135.7012305  55.6611633  82.9831556 135.3183725
  48.2233838  81.5230282 134.8901337  47.3865746  81.0952457 134.7085339
  48.1957483  81.7162726 135.8272129  55.0631293  71.4352212 145.5942583
  55.1119449  72.3114335 145.2120353  55.6053807  70.8929605 145.0214227
  65.5486139  81.9793335 144.8743721  64.7581683  81.9617474 144.3348220
  65.3119493  82.5181629 145.6292757  65.6684014  78.8285802 142.1876449
  65.7182019  78.6635809 143.1291972  65.5597937  77.9613061 141.7974330
  54.5520273  81.5074348 129.4768538  54.7008393  82.1909812 128.8235211
  55.3586716  81.4879438 129.9917994  62.9587776  74.8116730 143.5035756
  63.8597639  74.6723195 143.2119754  63.0335751  74.9771185 144.4433933
  57.2930582  72.1883585 142.3488942  56.4233891  72.4817151 142.0771531
  57.5290062  72.7724030 143.0696206  67.1702211  81.2482743 142.4318471
  66.8787019  81.6112724 143.2681932  66.5574342  80.5349752 142.2531803
  68.3697893  78.8135623 134.9521041  69.2044784  79.2525427 135.1158601
  68.5057022  78.3374276 134.1329287  65.4189399  76.3715358 140.8998529
  65.8943521  76.5643004 140.0917380  64.4954964  76.4274544 140.6541912
  52.3072906  77.5339525 130.4829607  52.0618948  76.6301855 130.6809817
  52.4768820  77.5356676 129.5409085  59.9969616  68.4063202 139.8654363
  60.5151559  69.1424228 139.5400851  59.6424748  68.7127195 140.7001122
  51.5768553  73.2667883 127.9815768  50.8837798  73.3412238 127.3255804
  51.3320305  72.5028226 128.5037285  60.2482210  64.8263484 135.3855259
  60.5283963  64.1586673 136.0115686  61.0332817  65.0192580 134.8729923
  58.0515678  84.0022478 126.9480285  57.4789645  84.6212665 126.4950757
  58.6248472  84.5521840 127.4820207  64.1191068  73.2481118 139.1326834
  65.0708491  73.3479216 139.1539058  63.9494518  72.4559387 139.6424919
  62.1405447  70.3336701 139.3186235  61.5455380  70.6141714 138.6232724
  61.8555144  70.8230602 140.0902976  61.2712938  84.2859628 128.0788868
  62.2043611  84.2205190 128.2821743  61.1836151  85.1215895 127.6203400
  63.9000955  83.6025498 125.0392815  63.8214586  83.2685362 125.9328573
  64.7210621  84.0947266 125.0384288  66.5979146  76.4687238 138.2469134
  66.5655466  75.5303238 138.4328818  67.2079769  76.5471274 137.5134959
  58.4362477  75.3383291 124.2896338  59.3821581  75.2089499 124.3584756
  58.0576722  74.5997953 124.7665766  66.7473634  73.2598281 138.2927417
  66.2312683  72.4756738 138.1057346  67.6313583  72.9316998 138.4573937
  64.4084361  67.0039297 134.2523230  64.2109182  66.6954385 135.1366562
  65.0184067  67.7300936 134.3821160  72.4155696  77.5303245 137.3875171
  73.1459084  77.2688533 137.9482874  71.8062641  76.7931967 137.4277239
  70.4970993  75.6711107 137.9849622  69.7704156  75.5367072 137.3766113
  70.0818280  75.9787936 138.7906340  58.3201169  79.3901037 145.7496995
  59.2404179  79.5679636 145.9437041  58.2850752  78.4457082 145.5976694
  56.6205394  73.2633267 124.2251223  55.7136849  72.9666380 124.3013937
  56.8981375  72.9663085 123.3585509  47.5383334  74.5839631 134.6750270
  47.2186119  73.7304939 134.3824644  46.9916762  74.7988209 135.4308237
  51.3163242  77.3002072 138.3919776  51.5349252  78.2319179 138.4107810
  51.7289016  76.9410046 139.1774580  58.2367460  67.8070157 130.3795464
  57.4268188  67.4617242 130.7550711  58.9251876  67.4977701 130.9683076
  60.1658008  66.8848204 132.0019761  60.7189046  67.3043657 132.6609784
  60.4028094  65.9583952 132.0442717  56.1891107  72.8735277 147.7822525
  56.0887834  73.8229634 147.7134616  55.9712649  72.5453516 146.9098595
  55.3904178  70.1220202 124.3663202  56.2523342  70.4475101 124.6259020
  55.5754523  69.3351698 123.8536268  47.4071594  78.2042542 136.6443391
  46.7135066  77.7896495 136.1313346  48.1544585  78.2463079 136.0476810
  63.5436815  68.9948729 131.5098425  62.9635484  69.6533533 131.1276478
  63.2772748  68.1726073 131.0985843  61.9940381  68.3953787 133.7119746
  62.4940160  68.5070321 132.9034065  62.6375989  68.0914839 134.3520554
  56.0522377  76.3032416 146.5987587  55.5689459  77.1032776 146.8051476
  56.1383316  76.3140361 145.6455031  49.3208337  78.1360796 134.5209406
  49.2979025  78.2348483 133.5691289  49.6308973  78.9825947 134.8426572
  51.9795715  80.1936951 138.6356020  52.9338968  80.1620893 138.5685952
  51.7808238  79.7327575 139.4506246  52.5695097  78.7638067 141.2026818
  53.3887986  79.2582146 141.2261655  52.8431904  77.8470035 141.1744386
  62.3261693  71.1548819 130.5654774  61.4387548  71.4398470 130.3474968
  62.7415682  70.9942583 129.7182051  65.6776229  71.1795340 134.2809113
  66.4536619  71.6691793 134.5533730  64.9524363  71.6053394 134.7380982
  68.1148788  71.8922959 135.3383053  68.7093279  71.6518695 134.6276362
  68.1875371  71.1730090 135.9656590  50.3345943  85.7356570 135.6526218
  50.2000411  84.9756971 135.0864216  49.9178006  86.4597470 135.1855007
  61.4704906  80.9193494 124.6602794  62.1740757  81.1243496 125.2760449
  60.7467555  81.4870256 124.9251877  62.3002717  76.6703355 130.7805064
  62.2437918  77.1271907 129.9412696  62.8531059  75.9094040 130.6027907
  66.1107523  72.4593087 131.6055183  65.8544457  72.0589723 132.4363391
  65.4860391  73.1736881 131.4805322  70.4219860  75.1989160 134.1126475
  69.8619418  75.2682350 134.8858037  69.8163364  75.0230145 133.3925971
  53.4915069  86.6325887 135.8644661  53.3747453  87.5771320 135.7623351
  52.6707516  86.3299449 136.2530460  63.3791604  81.3576023 126.7101254
  64.2137208  80.9257222 126.5278728  63.2175947  81.1858037 127.6378148
  63.0337496  77.8608136 128.0757593  62.9786300  77.6952408 127.1346037
  62.4083551  78.5684169 128.2319783  47.8230011  73.0976201 141.9019015
  48.4688875  72.5875155 142.3906240  47.6147162  73.8344882 142.4762440
  60.3483403  80.1657048 147.4011156  61.2174563  80.3397701 147.0397791
  59.8690155  80.9851465 147.2786885  56.3433621  67.3616245 127.6542911
  56.3312291  68.3058085 127.8111182  57.2357043  67.1786391 127.3602373
  54.5169583  87.2854149 139.0800589  55.4196830  87.3177760 139.3967084
  54.2906953  86.3554600 139.0946925  56.2723185  86.0385136 135.7410668
  55.3218816  86.0386997 135.6275040  56.5755672  85.2917870 135.2246703
  60.1585741  63.9559022 131.9088848  59.3918137  63.4017509 132.0545530
  60.5696446  64.0280891 132.7703000  72.0075879  91.8745674 136.8056430
  72.6454289  91.7552422 136.1019770  71.8896722  92.8226518 136.8644383
  68.8165585  91.8273102 136.7417955  68.4784097  91.7114167 135.8538490
  69.6855353  91.4264267 136.7218961  64.6752401  93.6808579 132.7314846
  64.1117266  93.5898516 131.9631134  64.5604796  92.8608483 133.2117339
  62.2216833  95.1759770 135.5699066  63.0138125  94.8350595 135.1545366
  62.4613483  95.2854745 136.4901220  70.2551960  97.3479546 128.0429311
  69.6039939  97.9333627 127.6563325  71.0496322  97.8785741 128.1024348
  64.1807587  94.4368684 128.4416445  64.9538463  93.8897671 128.3029321
  64.5332986  95.3012933 128.6530907  66.9448836  93.1421914 138.2384704
  67.5412408  92.9177937 137.5241667  67.0023808  92.4006660 138.8410152
  66.5173865  90.5961350 126.0734895  66.7699385  90.0742871 125.3118358
  65.5798424  90.4327495 126.1761579  71.5617147  89.5997128 133.8809638
  72.3480237  89.1816551 133.5300055  71.8255852  90.5043220 134.0491287
  71.7327225  95.0369978 128.5798295  71.0973058  95.1104605 129.2919200
  71.4024631  95.6263577 127.9017374  76.9625575  89.5372361 134.7842617
  77.6950746  88.9671578 135.0180446  76.2064930  89.1493962 135.2249123
  66.2370153  92.4989456 128.2759270  66.1206411  91.8234359 128.9440354
  66.3472413  92.0121830 127.4591423  68.5801694  91.9599603 131.9805959
  68.2159901  91.4330224 132.6918881  69.4368810  91.5698072 131.8072445
  74.4850995  83.2493935 139.2437226  74.1534320  84.1189346 139.0198441
  73.8896608  82.9330219 139.9231256  68.2207181  86.9889502 126.9767308
  68.3881584  87.8569739 127.3437779  68.0304350  87.1516784 126.0528597
  64.4294996  91.9020278 134.6769843  63.5045492  91.7696492 134.8847534
  64.6779409  92.6814497 135.1739785  74.3779658  87.9689022 136.3230576
  73.4696536  87.9004430 136.0289337  74.3267254  88.4460966 137.1512401
  68.1996402  89.4447160 127.9613975  68.0796027  89.8904211 128.7999455
  67.5048990  89.7932478 127.4027513  61.7903807  91.5453552 135.5113632
  61.9196188  91.7988031 136.4253043  61.1101258  92.1381260 135.1918287
  65.9603294 102.2150802 131.6104106  65.8827324 103.1658627 131.6892587
  65.3564938 101.8696674 132.2679032  76.2441305  86.1705460 138.1008450
  75.6015685  86.4637993 137.4548244  75.7396233  86.0558380 138.9061646
  73.8981468  89.9168633 128.7894309  74.8099324  90.1496020 128.6142006
  73.3891115  90.5005677 128.2269387  68.5353306  89.2765868 139.7989158
  69.3814501  89.7005281 139.9423807  68.4751944  88.6199492 140.4927721
  71.2417443  86.0926669 137.0384170  70.3801922  86.3907923 137.3300907
  71.2679878  86.3097068 136.1065202  68.0579012  94.6368860 133.4457975
  68.5217358  94.9156563 132.6562598  67.7935811  93.7352304 133.2631066
  64.9503094  94.1840341 136.3837739  65.5204451  94.6127610 135.7455223
  65.5411205  93.9022926 137.0821924  66.9947899  90.7592012 130.2547540
  67.6971942  91.2113056 130.7221467  66.6628527  90.1175831 130.8827434
  60.7373232  89.0175565 135.5564674  59.9472286  89.2733093 135.0804785
  61.2284480  89.8323903 135.6616715  62.6887978  89.3820144 132.5148151
  61.8919141  89.4938838 133.0331646  62.4613570  89.7206796 131.6489041
  59.0210935  89.2706055 137.9879665  59.2718974  90.1553065 138.2537241
  59.5570484  89.0910657 137.2154757  68.2341663  97.5732955 130.3309646
  68.0987338  98.4184490 130.7594494  68.7751476  97.7752232 129.5675579
  61.6871061  95.0908393 130.9037571  62.1995581  95.8851643 131.0543135
  62.3393773  94.3934683 130.8371172  63.4965945  98.2074149 132.9860324
  63.6732574  99.1292114 132.7981308  64.2922779  97.8932568 133.4154704
  62.7818302  90.2538781 142.8622487  62.6671817  89.3524038 143.1629586
  61.9262820  90.5002478 142.5107304  71.5834127  81.0963517 138.8608539
  71.2398396  81.9865158 138.7847650  71.9513089  80.9065174 137.9978124
  59.6519977  93.4197047 131.6797141  60.4895199  93.8294055 131.4630849
  59.8298245  92.4796489 131.6497335  71.5484409  91.0872128 127.3680974
  71.0331033  91.8576732 127.6069362  71.2761718  90.4137264 127.9914036
  69.1331520  85.9321828 132.4266213  68.2773117  85.5428679 132.2471851
  69.5458472  86.0113789 131.5665998  70.6630667  83.4668172 136.8257772
  70.1595463  83.4298307 136.0125578  70.9561274  84.3760914 136.8854429
  66.9073553  83.5506901 135.8323954  67.7726550  83.3549710 135.4729844
  66.9751062  83.3217253 136.7593311  76.5218684  93.8404482 129.3034148
  75.7448126  93.5015642 128.8589310  77.2010165  93.8457105 128.6289113
  71.3370713  88.9599220 129.1940755  71.0320848  89.2745369 130.0450899
  72.2901155  89.0380640 129.2368088  69.7817144  95.1189443 130.8433709
  69.2538506  94.3842203 130.5306947  69.2804647  95.8964119 130.5973678
  64.5135872  85.7809109 133.2040321  65.0879624  85.5584291 132.4713514
  65.1006854  85.8497804 133.9568922  73.5715449  91.6682836 134.0104697
  74.0847331  92.3012828 134.5126407  74.2216673  91.0684032 133.6448058
  64.8405459  87.8113570 127.2236206  64.0042771  88.1488257 127.5445481
  64.7010229  87.6762550 126.2863343  66.8158540  82.6550358 131.9315390
  66.1622952  82.3399375 131.3072005  66.7739014  82.0326099 132.6575213
  67.9269745  92.9369653 123.8468682  67.0196806  92.7058907 124.0459831
  68.4240777  92.1407273 124.0342664  70.8337823 101.6467160 126.7665369
  70.1599522 101.9498857 127.3750326  71.2203645 102.4496241 126.4170826
  70.0496280  89.1432292 136.2563038  69.1318841  89.3647239 136.0984726
  70.4656424  89.2178602 135.3974745  70.8331328  90.5423707 131.3865718
  71.5803147  91.0545105 131.0772840  71.1022917  90.2207760 132.2470112
  69.1057978  93.0382248 128.3692673  68.1969197  92.7541281 128.4665142
  69.1353062  93.4581327 127.5095979  74.3377245  96.6488838 132.1383840
  73.8839573  95.8079748 132.1949031  73.7071212  97.2850236 132.4758620
  73.2810165  87.5780824 133.3684508  72.5432922  87.0658210 133.6994750
  73.5336939  87.1381205 132.5567784  72.7810185  98.4865334 133.0733658
  73.0733159  99.0470391 132.3546024  73.2908805  98.7793895 133.8286817
  73.3821792  80.3557076 133.9626277  73.6880669  79.4954439 133.6752192
  74.1074397  80.9474696 133.7625271  59.6746148  90.7587762 132.3507875
  59.4770548  90.1657123 131.6258941  59.1192812  90.4539972 133.0683814
  67.6542872  90.6510869 134.4702468  67.7091482  89.6984705 134.3944944
  66.8434074  90.8070308 134.9543766  68.8034066  94.5790992 125.7080751
  68.3653496  93.8626851 125.2486388  69.5444507  94.8067107 125.1465843
  65.5935232  89.2687928 132.2292847  64.7803098  89.5682099 132.6358039
  66.0894226  88.8743617 132.9467329  67.7443810  99.2645685 134.1627111
  67.7019989  99.4906532 133.2335643  68.6606509  99.0309060 134.3112913
  76.9207181  92.8548189 131.7657070  76.7825079  93.0449785 130.8378259
  76.5643399  93.6167572 132.2225121  65.0849307  86.8406284 137.8454082
  65.7248686  86.6995043 137.1477045  64.2526837  86.5540797 137.4692684
  65.8609611  96.1408714 133.9589074  66.6550209  95.6459035 133.7571649
  65.1501303  95.6126578 133.5956780  62.1692374  90.2851796 130.0348827
  61.2389962  90.2236252 130.2518789  62.2649846  89.7627749 129.2385468
  62.0877923  86.8106609 132.6227069  62.3484740  87.7251942 132.5136229
  62.9095096  86.3431052 132.7723681  63.5602849  88.2244366 139.7925893
  64.2325902  88.0161728 139.1438542  62.7332635  88.0266452 139.3531125
  69.4628421  84.8506307 141.8091554  68.8156336  85.5496257 141.7156030
  70.2329436  85.2842451 142.1767802  69.0329039 101.8146833 128.9812448
  69.2080794 101.3434876 129.7958070  68.3461827 102.4412599 129.2093709
  69.9886102  96.0919339 135.0275749  69.6535934  96.0520109 135.9233399
  69.4890047  95.4264055 134.5546159  63.9630346  91.4986969 140.5528330
  63.8250144  90.7667208 141.1539869  64.8735269  91.4095869 140.2712518
  72.9245293  93.4375373 125.3012809  72.3074464  92.7122202 125.2045861
  72.4561782  94.1984734 124.9579883  66.5912646  91.2106928 140.0412010
  67.3012265  90.5700121 139.9998628  66.5481955  91.4619823 140.9638191
  65.3041580  88.1972146 141.8607649  64.7678937  87.7462885 142.5129246
  64.7158289  88.3318055 141.1178114  64.7143839  87.6560798 124.4234113
  63.8373306  87.5349599 124.0596360  65.1901592  86.8646876 124.1713002
  56.2345980  92.4437958 134.5175620  56.9217019  92.1299688 133.9296635
  56.0794108  93.3479322 134.2442872  61.0380702  87.3328154 138.9460644
  60.9538890  86.7253824 138.2111054  60.2163408  87.8237172 138.9470140
  67.9007765 100.0087088 131.6696634  67.1175287 100.5508768 131.7634858
  68.6000511 100.5261068 132.0690875  71.2104416  85.8181718 134.3130839
  71.7073115  85.0651680 133.9931909  70.4391397  85.8546034 133.7474048
  72.2934196  94.5753405 131.8869262  71.3590475  94.6954867 131.7173967
  72.4710865  93.6725872 131.6229272  67.7939384  87.9599101 134.0402523
  67.4237172  87.4070141 134.7283429  68.2898477  87.3557234 133.4877524
  75.6806748  90.4170724 132.4219296  76.1467200  91.2498716 132.3479599
  76.1314248  89.9515706 133.1264555  73.7482979  96.7614545 129.4205448
  74.0242823  96.6471140 130.3299323  72.8787477  96.3632030 129.3817622
  73.6523410  82.7851311 136.4610198  72.7386490  83.0155538 136.6292405
  74.0816512  82.8689755 137.3124230  70.3837043 101.0100896 133.0638262
  70.5659437 100.1922552 133.5266014  71.2070029 101.2268588 132.6263152
  70.7179208  99.9369081 130.3253311  71.2466975  99.4261536 129.7123473
  70.9807428  99.6211612 131.1898844  61.2196301  97.9532951 138.0688644
  61.8049738  97.2076639 138.2016548  61.0221139  98.2636907 138.9525308
  64.0734956 100.9884198 133.0851086  63.4045331 101.4730326 132.6015127
  63.9347826 101.2353418 133.9994465  55.8113956  90.5238551 136.7893087
  55.8498055  89.9902142 137.5830205  55.3054248  89.9973756 136.1704064
  63.1904718  85.3703091 140.2855630  63.2546044  86.2317922 139.8733027
  63.1271838  84.7577093 139.5527988  62.6656990  87.4426224 143.9328664
  63.2929029  87.0603301 144.5466188  61.8084909  87.2240426 144.2984356
  59.4422533  89.2502653 129.8647019  59.7375974  88.3413331 129.8114072
  58.5410569  89.2290392 129.5428021  62.9716780  87.3258650 135.8474567
  62.2503366  87.9394617 135.7082041  63.7610036  87.8616414 135.7691213
  65.7743094  84.6613076 142.1215219  66.2977496  84.9075373 142.8841528
  65.5555427  85.4933111 141.7018356  61.1710375  86.9316751 129.9886344
  60.8423081  86.0514130 129.8061450  61.5249745  86.8764419 130.8762733
  70.4189954  98.5671653 134.4981329  70.2714916  97.6388361 134.6788899
  71.2443447  98.5891744 134.0138405  64.2852198  87.2189720 130.3561822
  64.6248270  87.7475642 129.6340430  64.7324318  87.5570127 131.1320388
  66.9795639  85.6026771 139.8064890  66.6392459  84.8034584 140.2085569
  66.2734645  85.9028482 139.2341723  67.6312111  82.6876084 138.2592213
  68.4538180  82.2136562 138.1371103  67.8750174  83.4666567 138.7590899
  66.2720345  85.7164342 128.5555114  66.9928708  86.0945595 128.0518831
  65.6485649  86.4353219 128.6590092  70.4151468  86.4209491 129.4913447
  70.6315082  87.3034129 129.1902275  69.9345535  86.0295704 128.7619089
  65.1550689  89.3795204 136.0684191  65.0095270  89.6935507 136.9608473
  64.6775893  89.9980105 135.5155090  67.0147072  86.3697752 136.1165081
  67.0008641  85.4738846 135.7797379  67.7319500  86.3768416 136.7503367
  68.8673203  86.8035092 138.1618208  68.6090981  87.7252163 138.1602539
  68.3358243  86.4065527 138.8518672  73.8119392  99.9085880 130.9408294
  73.9856269  99.3432302 130.1882146  74.3048283 100.7086774 130.7587784
  59.6296352  91.9200549 139.0071852  59.0849820  92.6960357 139.1392127
  60.5075701  92.2671353 138.8490974  66.4183968  85.2512133 131.3852651
  66.5399879  84.3228779 131.5843538  66.1286011  85.2650818 130.4730966
  69.2875159  82.9367043 134.5219371  69.3096855  83.0006376 133.5671350
  69.7043218  82.0971552 134.7159877  79.6658783  92.6722303 132.5598593
  80.1089929  91.9229628 132.1617717  78.7885293  92.6632439 132.1772325
  74.7994564  99.2252644 128.0405192  75.4945469  99.8459337 128.2592506
  75.1417714  98.3747995 128.3157570  60.4162373  91.0470445 141.9002009
  59.6744109  91.1953080 142.4866640  60.0955118  91.3078711 141.0368759
  76.6985987  96.6752350 129.5692523  77.2237311  97.0139622 128.8441843
  76.6108340  95.7399365 129.3855657  60.8618987  98.9335874 133.9312404
  61.6877007  98.6339646 133.5511047  60.5113039  98.1643496 134.3802193
  65.8300520  98.2862342 136.0010077  65.2080530  97.6233047 135.7012305
  66.5005387  98.3123474 135.3183725  59.0627592  96.8522200 134.8901337
  58.2259500  96.4244374 134.7085339  59.0351238  97.0454643 135.8272129
  65.3914027  96.8366265 129.4768538  65.5402148  97.5201730 128.8235211
  66.1980471  96.8171355 129.9917994  63.1466660  92.8631443 130.4829607
  62.9012702  91.9593773 130.6809817  63.3162575  92.8648593 129.5409085
  70.8363370  83.7355119 139.8654363  71.3545314  84.4716146 139.5400851
  70.4818503  84.0419113 140.7001122  62.4162308  88.5959800 127.9815768
  61.7231553  88.6704155 127.3255804  62.1714060  87.8320144 128.5037285
  71.0875964  80.1555402 135.3855259  71.3677718  79.4878591 136.0115686
  71.8726571  80.3484497 134.8729923  68.8909433  99.3314396 126.9480285
  68.3183400  99.9504583 126.4950757  69.4642226  99.8813757 127.4820207
  72.9799202  85.6628619 139.3186235  72.3849134  85.9433632 138.6232724
  72.6948899  86.1522520 140.0902976  72.1106692  99.6151546 128.0788868
  73.0437366  99.5497107 128.2821743  72.0229905 100.4507813 127.6203400
  74.7394709  98.9317416 125.0392815  74.6608341  98.5977280 125.9328573
  75.5604376  99.4239184 125.0384288  69.2756231  90.6675208 124.2896338
  70.2215336  90.5381417 124.3584756  68.8970476  89.9289870 124.7665766
  75.2478116  82.3331214 134.2523230  75.0502937  82.0246303 135.1366562
  75.8577821  83.0592853 134.3821160  67.4599148  88.5925185 124.2251223
  66.5530604  88.2958298 124.3013937  67.7375129  88.2955003 123.3585509
  58.3777089  89.9131548 134.6750270  58.0579873  89.0596856 134.3824644
  57.8310517  90.1280126 135.4308237  62.1556996  92.6293989 138.3919776
  62.3743006  93.5611097 138.4107810  62.5682770  92.2701964 139.1774580
  69.0761214  83.1362075 130.3795464  68.2661942  82.7909159 130.7550711
  69.7645631  82.8269618 130.9683076  71.0051762  82.2140121 132.0019761
  71.5582801  82.6335575 132.6609784  71.2421849  81.2875869 132.0442717
  66.2297933  85.4512120 124.3663202  67.0917097  85.7767018 124.6259020
  66.4148277  84.6643616 123.8536268  58.2465349  93.5334460 136.6443391
  57.5528820  93.1188412 136.1313346  58.9938340  93.5754996 136.0476810
  74.3830569  84.3240646 131.5098425  73.8029238  84.9825451 131.1276478
  74.1166502  83.5017991 131.0985843  72.8334136  83.7245704 133.7119746
  73.3333914  83.8362239 132.9034065  73.4769744  83.4206757 134.3520554
  60.1602091  93.4652713 134.5209406  60.1372779  93.5640401 133.5691289
  60.4702728  94.3117864 134.8426572  62.8189469  95.5228869 138.6356020
  63.7732723  95.4912811 138.5685952  62.6201993  95.0619492 139.4506246
  73.1655447  86.4840737 130.5654774  72.2781302  86.7690387 130.3474968
  73.5809437  86.3234500 129.7182051  76.5169984  86.5087258 134.2809113
  77.2930374  86.9983710 134.5533730  75.7918118  86.9345312 134.7380982
  78.9542542  87.2214877 135.3383053  79.5487033  86.9810613 134.6276362
  79.0269126  86.5022008 135.9656590  61.1739698 101.0648488 135.6526218
  61.0394166 100.3048889 135.0864216  60.7571760 101.7889388 135.1855007
  72.3098661  96.2485412 124.6602794  73.0134511  96.4535414 125.2760449
  71.5861310  96.8162173 124.9251877  73.1396471  91.9995273 130.7805064
  73.0831673  92.4563824 129.9412696  73.6924814  91.2385957 130.6027907
  76.9501277  87.7885005 131.6055183  76.6938211  87.3881640 132.4363391
  76.3254145  88.5028799 131.4805322  81.2613615  90.5281078 134.1126475
  80.7013173  90.5974267 134.8858037  80.6557118  90.3522063 133.3925971
  74.2185358  96.6867941 126.7101254  75.0530962  96.2549139 126.5278728
  74.0569701  96.5149954 127.6378148  73.8731250  93.1900054 128.0757593
  73.8180054  93.0244325 127.1346037  73.2477306  93.8976087 128.2319783
  58.6623765  88.4268118 141.9019015  59.3082629  87.9167072 142.3906240
  58.4540917  89.1636800 142.4762440  67.1827376  82.6908163 127.6542911
  67.1706046  83.6350003 127.8111182  68.0750798  82.5078308 127.3602373
  70.9979495  79.2850940 131.9088848  70.2311891  78.7309426 132.0545530
  71.4090200  79.3572808 132.7703000  77.3567619 105.9253267 126.0734895
  77.6093140 105.4034789 125.3118358  76.4192178 105.7619413 126.1761579
  79.0600936 102.3181420 126.9767308  79.2275338 103.1861656 127.3437779
  78.8698105 102.4808702 126.0528597  75.6799214 103.1405488 127.2236206
  74.8436526 103.4780175 127.5445481  75.5403983 103.0054468 126.2863343
  77.6552294  97.9842276 131.9315390  77.0016707  97.6691293 131.3072005
  77.6132768  97.3618016 132.6575213  78.7663499 108.2661571 123.8468682
  77.8590561 108.0350824 124.0459831  79.2634531 107.4699190 124.0342664
  73.0086129 105.6143714 130.0348827  72.0783717 105.5528169 130.2518789
  73.1043601 105.0919667 129.2385468  75.5537594 102.9852715 124.4234113
  74.6767060 102.8641516 124.0596360  76.0295347 102.1938794 124.1713002
  70.2816288 104.5794571 129.8647019  70.5769729 103.6705249 129.8114072
  69.3804323 104.5582310 129.5428021  72.0104129 102.2608668 129.9886344
  71.6816835 101.3806047 129.8061450  72.3643500 102.2056337 130.8762733
  77.1114100 101.0456260 128.5555114  77.8322462 101.4237513 128.0518831
  76.4879404 101.7645137 128.6590092  77.2577723 100.5804050 131.3852651
  77.3793634  99.6520696 131.5843538  76.9679765 100.5942736 130.4730966
  73.2556062 103.9251718 127.9815768  72.5625307 103.9996073 127.3255804
  73.0107814 103.1612062 128.5037285  80.1149986 105.9967126 124.2896338
  81.0609090 105.8673334 124.3584756  79.7364231 105.2581788 124.7665766
  78.2992903 103.9217102 124.2251223  77.3924358 103.6250215 124.3013937
  78.5768884 103.6246921 123.3585509  79.9154969  98.4653992 130.3795464
  79.1055697  98.1201077 130.7550711  80.6039385  98.1561536 130.9683076
  77.0691687 100.7804038 124.3663202  77.9310851 101.1058936 124.6259020
  77.2542032  99.9935534 123.8536268  78.0221130  98.0200081 127.6542911
  78.0099800  98.9641921 127.8111182  78.9144552  97.8370226 127.3602373
  81.8373250  94.6142857 131.9088848  81.0705646  94.0601344 132.0545530
  82.2483955  94.6864726 132.7703000  37.7370697  28.3665916 114.7674618
  37.0858677  28.9519996 114.3808631  38.5315060  28.8972111 114.8269655
  44.0037421  24.8590852 116.0279454  43.2266864  24.5202011 115.5834616
  44.6828902  24.8643475 115.3534419  35.4088482  23.9556023 110.5713989
  34.5015544  23.7245276 110.7705138  35.9059514  23.1593642 110.7587971
  38.3156561  32.6653530 113.4910675  37.6418260  32.9685227 114.0995633
  38.7022383  33.4682610 113.1416132  36.2852804  25.5977361 112.4326058
  35.8472234  24.8813220 111.9731695  37.0263244  25.8253476 111.8711149
  36.5147776  32.8333202 115.7057754  36.6899532  32.3621246 116.5203377
  35.8280564  33.4598969 115.9339015  40.4064031  24.4561743 112.0258115
  39.7893202  23.7308571 111.9291168  39.9380520  25.2171103 111.6825190
  41.2301716  27.7800915 116.1450755  41.5061560  27.6657510 117.0544629
  40.3606215  27.3818400 116.1062928  38.1997946  30.9555451 117.0498617
  38.7285712  30.4447906 116.4368779  38.4626166  30.6397981 117.9144150
  41.2938130  30.9272249 117.6653600  41.4675007  30.3618672 116.9127453
  41.7867021  31.7273144 117.4833090  42.2813302  30.2439014 114.7650498
  42.9764207  30.8645706 114.9837813  42.6236452  29.3934365 115.0402876
  44.1804725  27.6938719 116.2937829  44.7056049  28.0325992 115.5687149
  44.0927078  26.7585734 116.1100964  36.3728170  30.3500765 113.6725592
  35.8002138  30.9690952 113.2196064  36.9460964  30.9000127 114.2065514
  39.5925430  30.6337915 114.8034174  40.5256103  30.5683477 115.0067050
  39.5048643  31.4694182 114.3448707  42.2213447  29.9503786 111.7638122
  42.1427078  29.6163649 112.6573880  43.0423114  30.4425554 111.7629594
  36.7574969  21.6861578 111.0141645  37.7034074  21.5567786 111.0830063
  36.3789214  20.9476240 111.4911073  39.7917399  27.2671781 111.3848100
  40.4953249  27.4721784 112.0005756  39.0680047  27.8348543 111.6497184
  41.7004096  27.7054310 113.4346560  42.5349700  27.2735509 113.2524035
  41.5388439  27.5336324 114.3623455  41.3549988  24.2086424 114.8002900
  41.2998792  24.0430695 113.8591344  40.7296044  24.9162457 114.9565089
  50.3288371  38.2223961 123.5301737  50.9666781  38.1030709 122.8265077
  50.2109214  39.1704805 123.5889689  47.1378077  38.1751390 123.4663262
  46.7996589  38.0592454 122.5783797  48.0067846  37.7742555 123.4464268
  42.9964893  40.0286866 119.4560153  42.4329758  39.9376803 118.6876440
  42.8817288  39.2086770 119.9362645  40.5429325  41.5238058 122.2944373
  41.3350617  41.1828882 121.8790672  40.7825975  41.6333033 123.2146526
  48.5764452  43.6957834 114.7674618  47.9252432  44.2811914 114.3808631
  49.3708815  44.2264029 114.8269655  42.5020079  40.7846971 115.1661752
  43.2750955  40.2375958 115.0274628  42.8545478  41.6491220 115.3776213
  45.2661328  39.4900202 124.9630011  45.8624901  39.2656224 124.2486974
  45.3236300  38.7484947 125.5655459  44.8386357  36.9439637 112.7980202
  45.0911878  36.4221158 112.0363665  43.9010916  36.7805782 112.9006885
  49.8829640  35.9475415 120.6054945  50.6692729  35.5294838 120.2545362
  50.1468344  36.8521507 120.7736593  50.0539717  41.3848266 115.3043602
  49.4185550  41.4582892 116.0164507  49.7237123  41.9741864 114.6262681
  55.2838067  35.8850648 121.5087924  56.0163239  35.3149865 121.7425753
  54.5277423  35.4972249 121.9494429  44.5582646  38.8467743 115.0004577
  44.4418904  38.1712646 115.6685661  44.6684905  38.3600117 114.1836730
  46.9014187  38.3077890 118.7051266  46.5372394  37.7808511 119.4164188
  47.7581302  37.9176359 118.5317751  46.5419674  33.3367790 113.7012615
  46.7094076  34.2048026 114.0683086  46.3516843  33.4995071 112.7773904
  49.2995007  41.7984769 125.3678445  48.9995730  42.7009807 125.2594252
  48.9546066  41.5316952 126.2199598  42.7507488  38.2498565 121.4015149
  41.8257985  38.1174780 121.6092841  42.9991901  39.0292785 121.8985092
  52.6992150  34.3167309 123.0475882  51.7909028  34.2482717 122.7534643
  52.6479746  34.7939254 123.8757708  46.5208894  35.7925447 114.6859281
  46.4008520  36.2382498 115.5244762  45.8261483  36.1410765 114.1272820
  40.1116299  37.8931839 122.2358938  40.2408680  38.1466318 123.1498350
  39.4313751  38.4859547 121.9163593  44.2815786  48.5629089 118.3349413
  44.2039816  49.5136914 118.4137893  43.6777430  48.2174961 118.9924339
  54.5653797  32.5183747 124.8253756  53.9228177  32.8116280 124.1793551
  54.0608725  32.4036667 125.6306953  52.2193961  36.2646920 115.5139615
  53.1311817  36.4974307 115.3387313  51.7103608  36.8483965 114.9514694
  50.8263543  41.2472739 122.9053197  50.1972405  41.4118453 122.2029265
  50.4389205  41.6614348 123.6764161  54.7052775  42.1827177 120.2597561
  54.0203813  42.5626078 119.7094594  54.7896624  42.7922503 120.9929508
  51.9603706  39.8287136 126.8592904  52.1720602  40.4718896 126.1827285
  51.9133455  38.9949452 126.3914834  46.3791505  40.9847147 120.1703282
  46.8429850  41.2634850 119.3807904  46.1148303  40.0830591 119.9876373
  43.2715586  40.5318628 123.1083045  43.8416943  40.9605897 122.4700530
  43.8623698  40.2501213 123.8067231  45.3160391  37.1070299 116.9792847
  46.0184434  37.5591343 117.4466773  44.9841019  36.4654118 117.6072740
  53.0749534  42.7059091 125.0315262  53.8966978  42.3039278 124.7497943
  53.0711937  42.6027325 125.9831377  41.0100470  35.7298431 119.2393457
  40.2131633  35.8417125 119.7576953  40.7826062  36.0685083 118.3734348
  46.8406138  42.2543134 127.1875972  46.9050570  42.7163542 128.0234144
  46.1317062  41.6240499 127.3158282  61.1655527  39.0497840 121.3800233
  60.4119236  38.4805238 121.2244237  61.3003069  39.0160504 122.3270868
  46.5554155  43.9211242 117.0554952  46.4199830  44.7662778 117.4839800
  47.0963968  44.1230520 116.2920886  40.0083553  41.4386680 117.6282877
  40.5208073  42.2329930 117.7788442  40.6606266  40.7412970 117.5616479
  41.8178437  44.5552436 119.7105631  41.9945066  45.4770401 119.5226614
  42.6135271  44.2410855 120.1400010  42.9409753  46.0730610 125.7115973
  43.4917178  45.9447673 124.9392967  42.1021229  46.3725499 125.3610866
  50.2803870  44.8237608 129.2136696  50.2622345  45.6446489 128.7216965
  51.2023790  44.6991684 129.4386837  37.9732470  39.7675334 118.4042448
  38.8107692  40.1772343 118.1876156  38.1510737  38.8274776 118.3742642
  49.8696902  37.4350415 114.0926281  49.3543525  38.2055019 114.3314668
  49.5974210  36.7615551 114.7159342  47.4544013  32.2800116 119.1511519
  46.5985609  31.8906966 118.9717158  47.8670964  32.3592076 118.2911305
  54.8431176  40.1882770 116.0279454  54.0660619  39.8493929 115.5834616
  55.5222657  40.1935393 115.3534419  49.6583205  35.3077507 115.9186062
  49.3533340  35.6223656 116.7696205  50.6113647  35.3858927 115.9613395
  48.1029637  41.4667730 117.5679016  47.5750998  40.7320490 117.2552254
  47.6017139  42.2442407 117.3218984  53.0822483  39.6616751 122.6846062
  52.4246157  40.3516012 122.7726191  53.8862882  40.0513183 123.0280049
  42.8348364  32.1287397 119.9285628  43.4092116  31.9062578 119.1958821
  43.4219347  32.1976091 120.6814229  51.8927942  38.0161123 120.7350004
  52.4059823  38.6491115 121.2371714  52.5429165  37.4162319 120.3693364
  43.1617951  34.1591858 113.9481513  42.3255264  34.4966544 114.2690788
  43.0222721  34.0240837 113.0108650  45.1371032  29.0028645 118.6560697
  44.4835444  28.6877663 118.0317312  45.0951506  28.3804386 119.3820520
  46.2482237  39.2847941 110.5713989  45.3409299  39.0537194 110.7705138
  46.7453269  38.4885560 110.7587971  49.1550316  47.9945448 113.4910675
  48.4812015  48.2977144 114.0995633  49.5416138  48.7974528 113.1416132
  48.3708772  35.4910579 122.9808345  47.4531334  35.7125526 122.8230033
  48.7868916  35.5656889 122.1220052  49.1543820  36.8901995 118.1111025
  49.9015639  37.4023392 117.8018147  49.4235410  36.5686047 118.9715418
  47.4270470  39.3860535 115.0937979  46.5181690  39.1019568 115.1910449
  47.4565554  39.8059614 114.2341286  52.6589738  42.9967125 118.8629147
  52.2052065  42.1558035 118.9194337  52.0283704  43.6328523 119.2003927
  51.6022657  33.9259111 120.0929814  50.8645414  33.4136497 120.4240057
  51.8549431  33.4859493 119.2813091  51.1022677  44.8343622 119.7978965
  51.3945651  45.3948679 119.0791331  51.6121298  45.1272183 120.5532124
  51.7034285  26.7035363 120.6871583  52.0093161  25.8432726 120.3997499
  52.4286889  27.2952983 120.4870577  37.9958641  37.1066050 119.0753181
  37.7983041  36.5135410 118.3504248  37.4405305  36.8018260 119.7929120
  45.9755364  36.9989156 121.1947775  46.0303974  36.0462992 121.1190251
  45.1646566  37.1548595 121.6789073  47.1246558  40.9269279 112.4326058
  46.6865988  40.2105138 111.9731695  47.8656999  41.1545394 111.8711149
  43.9147724  35.6166216 118.9538153  43.1015590  35.9160386 119.3603346
  44.4106718  35.2221905 119.6712636  46.0656302  45.6123973 120.8872418
  46.0232481  45.8384819 119.9580950  46.9819001  45.3787347 121.0358219
  55.2419673  39.2026476 118.4902376  55.1037571  39.3928072 117.5623566
  54.8855892  39.9645859 118.9470427  55.2689053  41.2703003 123.5013648
  55.7025559  41.1778292 124.3496702  55.9820633  41.2460504 122.8633664
  44.1822103  42.4887002 120.6834381  44.9762701  41.9937322 120.4816956
  43.4713795  41.9604865 120.3202086  49.0016947  44.8705097 125.0346748
  49.0553970  45.4396034 125.8024464  48.1331729  45.0406982 124.6700786
  40.4904866  36.6330083 116.7594134  39.5602455  36.5714539 116.9764096
  40.5862338  36.1106036 115.9630775  40.4090415  33.1584896 119.3472375
  40.6697233  34.0730230 119.2381536  41.2307588  32.6909339 119.4968988
  56.1304602  41.3126704 126.0346533  56.3240492  42.2172514 126.2805808
  56.0305220  40.8534123 126.8685118  47.9605047  39.0365359 126.5933680
  48.8897107  39.1876519 126.4202648  47.5396077  39.1249380 125.7382327
  46.7593379  43.0616024 124.3632218  46.6204465  42.6934808 125.2358156
  45.9707975  43.5763663 124.1916176  47.3541531  48.1625120 115.7057754
  47.5293287  47.6913163 116.5203377  46.6674319  48.7890886 115.9339015
  48.3098594  42.4397626 121.7521056  47.9748427  42.3998396 122.6478706
  47.8102540  41.7742342 121.2791466  51.2457786  39.7853661 112.0258115
  50.6286956  39.0600489 111.9291168  50.7774274  40.5463021 111.6825190
  52.9011917  44.4952569 129.6863896  52.8424464  43.8111789 129.0194479
  53.3031436  45.2371559 129.2344522  41.9202616  51.3114483 122.4797615
  42.1599214  51.9433007 123.1576633  41.0771813  50.9602523 122.7662974
  43.0356332  34.0039085 111.1479420  42.1585798  33.8827886 110.7841666
  43.5114085  33.2125163 110.8958308  52.9029325  42.4592153 127.9177875
  52.0156103  42.1218075 128.0404274  53.4727876  41.7275184 128.1546641
  34.5558472  38.7916245 121.2420927  35.2429512  38.4777975 120.6541942
  34.4006600  39.6957609 120.9688178  46.4330478  47.1193605 124.8839119
  46.3600650  47.9248577 125.3958423  45.9907871  47.3185571 124.0587140
  46.2220258  46.3565375 118.3941940  45.4387780  46.8987056 118.4880165
  46.9213003  46.8739355 118.7936181  49.5316908  32.1660005 121.0376146
  50.0285607  31.4129967 120.7177216  48.7603889  32.2024321 120.4719355
  57.3846665  37.8700370 122.6794437  57.3736541  38.7525086 122.3088370
  56.5164045  37.5171921 122.4848974  48.8929162  47.0180439 127.0397277
  49.6057134  47.6527904 126.9673179  48.4019190  47.1144305 126.2237279
  50.6146688  40.9231692 118.6114569  49.6802967  41.0433155 118.4419273
  50.7923357  40.0204159 118.3474579  46.1151877  34.3077388 120.7647830
  45.7449664  33.7548428 121.4528736  46.6110969  33.7035521 120.2122830
  54.0019240  36.7649011 119.1464603  54.4679692  37.5977003 119.0724906
  54.4526740  36.2993993 119.8509862  43.9441075  44.7674883 127.8602848
  44.6450535  45.4011366 128.0132242  43.4736190  45.1089614 127.0998487
  52.0695471  43.1092833 116.1450755  52.3455315  42.9949427 117.0544629
  51.1999970  42.7110317 116.1062928  51.7442361  37.3219490 125.6855398
  51.0913811  37.5695398 125.0307851  52.1222741  36.5083628 125.3517876
  48.7049535  47.3579183 119.7883569  48.8871929  46.5400839 120.2511321
  49.5282521  47.5746876 119.3508459  49.0391700  46.2847369 117.0498617
  49.5679467  45.7739823 116.4368779  49.3019920  45.9689899 117.9144150
  39.5408793  44.3011238 124.7933951  40.1262230  43.5554926 124.9261855
  39.3433632  44.6115195 125.6770615  42.3947448  47.3362485 119.8096393
  41.7257824  47.8208613 119.3260433  42.2560318  47.5831706 120.7239772
  46.5352717  49.3706229 126.4079052  47.0871025  49.5337850 127.1728137
  46.8758910  49.9610667 125.7359076  37.7635025  35.5980940 116.5892325
  38.0588467  34.6891619 116.5359379  36.8623061  35.5768680 116.2673328
  49.6721104  47.3188204 123.3942734  49.5472244  46.5177944 122.8853679
  50.3300195  47.8134398 122.9056704  51.7356013  45.1197224 125.0222284
  50.7886348  45.0002576 124.9500610  52.0838786  44.2319722 125.1048545
  39.4922867  33.2795038 116.7131650  39.1635573  32.3992417 116.5306756
  39.8462238  33.2242707 117.6008040  48.7402446  44.9149941 121.2226636
  48.5927408  43.9866648 121.4034206  49.5655939  44.9370031 120.7383711
  42.6064690  33.5668008 117.0807128  42.9460763  34.0953929 116.3585736
  43.0536811  33.9048414 117.8565695  52.3436568  45.7378499 122.3091509
  53.2683115  45.5321361 122.1715960  52.1751871  45.4894901 123.2180850
  44.5932837  32.0642629 115.2800421  45.3141200  32.4423882 114.7764138
  43.9698141  32.7831506 115.3835399  48.7363960  32.7687778 116.2158753
  48.9527575  33.6512416 115.9147581  48.2558027  32.3773992 115.4864395
  52.1331884  46.2564167 117.6653600  52.3068762  45.6910589 116.9127453
  52.6260775  47.0565062 117.4833090  44.7396460  31.5990420 118.1097958
  44.8612372  30.6707066 118.3088845  44.4498503  31.6129106 117.1976273
  57.9871275  39.0200590 119.2843900  58.4302421  38.2707915 118.8863023
  57.1097785  39.0110726 118.9017632  53.1207056  45.5730931 114.7650498
  53.8157961  46.1937624 114.9837813  53.4630207  44.7226282 115.0402876
  55.0198480  43.0230637 116.2937829  55.5449804  43.3617910 115.5687149
  54.9320832  42.0877652 116.1100964  46.6818528  46.9364710 128.4227706
  46.9905655  46.6913857 129.2950405  47.4794010  47.1411349 127.9346576
  46.7039140  49.0902620 120.6533082  46.2644131  48.5978999 121.3465939
  47.4547257  48.5475588 120.4125158  39.1831479  45.2814161 120.6557710
  40.0089499  44.9817933 120.2756354  38.8325531  44.5121783 121.1047499
  44.1513013  44.6340629 122.7255384  43.5293022  43.9711334 122.4257612
  44.8217879  44.6601761 122.0429032  37.3840084  43.2000487 121.6146644
  36.5471993  42.7722662 121.4330645  37.3563730  43.3932931 122.5517435
  54.7092386  43.6563540 131.5989027  53.9187929  43.6387679 131.0593527
  54.4725740  44.1951834 132.3538064  54.8290261  40.5056007 128.9121756
  54.8788266  40.3406014 129.8537279  54.7204184  39.6383266 128.5219637
  43.7126519  43.1844552 116.2013845  43.8614640  43.8680017 115.5480517
  44.5192963  43.1649643 116.7163300  56.3308458  42.9252948 129.1563777
  56.0393266  43.2882929 129.9927238  55.7180589  42.2119957 128.9777109
  57.5304140  40.4905828 121.6766348  58.3651031  40.9295632 121.8403908
  57.6663269  40.0144481 120.8574593  54.5795646  38.0485563 127.6243835
  55.0549767  38.2413209 126.8162687  53.6561211  38.1044749 127.3787219
  41.4679152  39.2109730 117.2074914  41.2225194  38.3072060 117.4055124
  41.6375067  39.2126881 116.2654392  40.7374800  34.9438088 114.7061075
  40.0444045  35.0182443 114.0501111  40.4926552  34.1798431 115.2282592
  47.2121925  45.6792683 113.6725592  46.6395892  46.2982870 113.2196064
  47.7854719  46.2292045 114.2065514  53.2797315  34.9251323 125.8572141
  54.2314738  35.0249421 125.8784365  53.1100765  34.1329592 126.3670225
  50.4319185  45.9629833 114.8034174  51.3649858  45.8975395 115.0067050
  50.3442398  46.7986100 114.3448707  53.0607201  45.2795703 111.7638122
  52.9820833  44.9455567 112.6573880  53.8816868  45.7717471 111.7629594
  55.7585393  38.1457443 124.9714441  55.7261713  37.2073443 125.1574124
  56.3686016  38.2241479 124.2380265  47.5968723  37.0153496 111.0141645
  48.5427828  36.8859704 111.0830063  47.2182968  36.2768158 111.4911073
  55.9079881  34.9368486 125.0172724  55.3918930  34.1526943 124.8302653
  56.7919830  34.6087203 125.1819243  53.5690608  28.6809502 120.9768536
  53.3715429  28.3724590 121.8611868  54.1790314  29.4071141 121.1066466
  61.5761942  39.2073450 124.1120477  62.3065331  38.9458738 124.6728181
  60.9668888  38.4702171 124.1522545  59.6577240  37.3481312 124.7094929
  58.9310403  37.2137277 124.1011420  59.2424526  37.6558141 125.5151647
  45.7811641  34.9403472 110.9496530  44.8743096  34.6436585 111.0259243
  46.0587622  34.6433290 110.0830816  47.3973706  29.4840362 117.1040771
  46.5874435  29.1387447 117.4796017  48.0858123  29.1747905 117.6928383
  49.3264255  28.5618409 118.7265068  49.8795293  28.9813862 119.3855091
  49.5634341  27.6354157 118.7688024  44.5510425  31.7990407 111.0908509
  45.4129589  32.1245306 111.3504326  44.7360769  31.0121903 110.5781575
  52.7043062  30.6718934 118.2343732  52.1241731  31.3303738 117.8521784
  52.4378994  29.8496278 117.8231149  51.1546628  30.0723991 120.4365052
  51.6546406  30.1840526 119.6279371  51.7982236  29.7685044 121.0765861
  38.4814583  39.8131001 121.2454713  38.4585272  39.9118688 120.2936596
  38.7915220  40.6596152 121.5671879  51.4867940  32.8319024 117.2900080
  50.5993795  33.1168675 117.0720275  51.9021929  32.6712787 116.4427357
  54.8382476  32.8565545 121.0054419  55.6142866  33.3461998 121.2779036
  54.1130610  33.2823599 121.4626289  57.2755034  33.5693164 122.0628360
  57.8699525  33.3288900 121.3521668  57.3481618  32.8500295 122.6901896
  39.4952190  47.4126775 122.3771525  39.3606658  46.6527176 121.8109523
  39.0784252  48.1367675 121.9100314  50.6311153  42.5963699 111.3848100
  51.3347003  42.8013701 112.0005756  49.9073802  43.1640461 111.6497184
  51.4608963  38.3473560 117.5050370  51.4044165  38.8042111 116.6658003
  52.0137306  37.5864245 117.3273213  55.2713769  34.1363292 118.3300490
  55.0150704  33.7359928 119.1608698  54.6466637  34.8507086 118.2050629
  59.5826107  36.8759365 120.8371781  59.0225665  36.9452554 121.6103343
  58.9769611  36.7000350 120.1171278  42.6521316  48.3096092 122.5889968
  42.5353700  49.2541525 122.4868658  41.8313762  48.0069654 122.9775767
  52.5397851  43.0346228 113.4346560  53.3743455  42.6027426 113.2524035
  52.3782193  42.8628242 114.3623455  52.1943743  39.5378341 114.8002900
  52.1392547  39.3722613 113.8591344  51.5689798  40.2454374 114.9565089
  45.5039868  29.0386450 114.3788218  45.4918538  29.9828290 114.5356489
  46.3963290  28.8556596 114.0847679  43.6775830  48.9624354 125.8045896
  44.5803077  48.9947964 126.1212391  43.4513200  48.0324805 125.8192232
  45.4329432  47.7155341 122.4655975  44.4825063  47.7157202 122.3520347
  45.7361918  46.9688075 121.9492009  49.3191988  25.6329227 118.6334155
  48.5524383  25.0787714 118.7790837  49.7302693  25.7051096 119.4948306
  61.1682126  53.5515879 123.5301737  61.8060536  53.4322626 122.8265077
  61.0502969  54.4996723 123.5889689  57.9771832  53.5043307 123.4663262
  57.6390343  53.3884372 122.5783797  58.8461600  53.1034472 123.4464268
  53.8358648  55.3578784 119.4560153  53.2723513  55.2668721 118.6876440
  53.7211043  54.5378688 119.9362645  58.4591615  54.6578159 129.4249467
  58.4480256  54.2630957 128.5529971  58.6212254  53.9244232 130.0183239
  51.3823080  56.8529975 122.2944373  52.1744372  56.5120800 121.8790672
  51.6219730  56.9624950 123.2146526  59.4158206  59.0249751 114.7674618
  58.7646186  59.6103832 114.3808631  60.2102569  59.5555946 114.8269655
  53.3413834  56.1138888 115.1661752  54.1144710  55.5667876 115.0274628
  53.6939232  56.9783138 115.3776213  55.1798876  57.4415271 128.3728651
  54.8888742  58.3460902 128.2575318  55.8155860  57.4831798 129.0872721
  56.1055083  54.8192119 124.9630011  56.7018655  54.5948142 124.2486974
  56.1630054  54.0776865 125.5655459  55.6780111  52.2731555 112.7980202
  55.9305632  51.7513076 112.0363665  54.7404670  52.1097700 112.9006885
  60.7223394  51.2767333 120.6054945  61.5086483  50.8586756 120.2545362
  60.9862098  52.1813425 120.7736593  60.8933472  56.7140183 115.3043602
  60.2579304  56.7874810 116.0164507  60.5630878  57.3033782 114.6262681
  66.1231821  51.2142566 121.5087924  66.8556993  50.6441783 121.7425753
  65.3671177  50.8264167 121.9494429  55.3976400  54.1759661 115.0004577
  55.2812658  53.5004564 115.6685661  55.5078660  53.6892034 114.1836730
  57.7407941  53.6369808 118.7051266  57.3766148  53.1100429 119.4164188
  58.5975057  53.2468277 118.5317751  63.6457242  44.9264140 125.9682532
  63.3140566  45.7959551 125.7443747  63.0502855  44.6100424 126.6476563
  57.3813428  48.6659707 113.7012615  57.5487830  49.5339944 114.0683086
  57.1910597  48.8286989 112.7773904  60.1388761  57.1276686 125.3678445
  59.8389484  58.0301725 125.2594252  59.7939821  56.8608869 126.2199598
  53.5901243  53.5790483 121.4015149  52.6651739  53.4466697 121.6092841
  53.8385656  54.3584702 121.8985092  63.5385905  49.6459226 123.0475882
  62.6302782  49.5774635 122.7534643  63.4873501  50.1231171 123.8757708
  57.3602649  51.1217365 114.6859281  57.2402274  51.5674416 115.5244762
  56.6655237  51.4702683 114.1272820  50.9510054  53.2223757 122.2358938
  51.0802435  53.4758236 123.1498350  50.2707505  53.8151465 121.9163593
  55.1209541  63.8921007 118.3349413  55.0433571  64.8428832 118.4137893
  54.5171185  63.5466879 118.9924339  57.6126771  51.0648872 130.9910780
  56.8360105  51.6242792 130.9813644  58.2517334  51.5505655 131.5125650
  65.4047551  47.8475665 124.8253756  64.7621932  48.1408198 124.1793551
  64.9002480  47.7328585 125.6306953  63.0587715  51.5938838 115.5139615
  63.9705571  51.8266225 115.3387313  62.5497362  52.1775882 114.9514694
  55.8673143  53.8734325 130.5528747  56.6087827  54.4119369 130.2763570
  55.1610129  54.5000614 130.7100298  61.3428483  56.0163466 129.1500908
  61.7511839  55.5745876 128.4055540  60.6205744  55.4416093 129.4035101
  57.6959553  50.9536073 126.5234465  58.5420748  51.3775486 126.6669114
  57.6358190  50.2969697 127.2173028  61.6657297  56.5764656 122.9053197
  61.0366160  56.7410371 122.2029265  61.2782959  56.9906266 123.6764161
  65.5446529  57.5119094 120.2597561  64.8597567  57.8917996 119.7094594
  65.6290379  58.1214421 120.9929508  60.8458998  48.6140441 128.1815639
  60.6019930  49.3682501 127.6449914  61.1218929  48.9925789 129.0162886
  62.7997461  55.1579053 126.8592904  63.0114356  55.8010813 126.1827285
  62.7527209  54.3241370 126.3914834  60.4023690  47.7696874 123.7629476
  59.5408169  48.0678128 124.0546214  60.4286124  47.9867273 122.8310509
  57.2185259  56.3139065 120.1703282  57.6823605  56.5926768 119.3807904
  56.9542057  55.4122509 119.9876373  54.1109340  55.8610546 123.1083045
  54.6810697  56.2897814 122.4700530  54.7017452  55.5793131 123.8067231
  56.1554145  52.4362217 116.9792847  56.8578189  52.8883261 117.4466773
  55.8234774  51.7946036 117.6072740  54.6034507  51.0273974 131.3544057
  53.9733167  51.7090254 131.5879453  54.4970595  50.9157055 130.4097195
  49.8979479  50.6945770 122.2809981  49.1078533  50.9503298 121.8050091
  50.3890727  51.5094107 122.3862021  63.9143289  58.0351009 125.0315262
  64.7360733  57.6331196 124.7497943  63.9105692  57.9319243 125.9831377
  51.8494225  51.0590349 119.2393457  51.0525388  51.1709043 119.7576953
  51.6219817  51.3977001 118.3734348  57.6799892  57.5835052 127.1875972
  57.7444325  58.0455459 128.0234144  56.9710816  56.9532417 127.3158282
  48.1817182  50.9476260 124.7124971  48.4325221  51.8323270 124.9782547
  48.7176731  50.7680862 123.9400063  72.0049282  54.3789757 121.3800233
  71.2512990  53.8097155 121.2244237  72.1396823  54.3452422 122.3270868
  57.3947910  59.2503160 117.0554952  57.2593585  60.0954695 117.4839800
  57.9357722  59.4522437 116.2920886  50.8477307  56.7678598 117.6282877
  51.3601828  57.5621848 117.7788442  51.5000020  56.0704888 117.5616479
  52.6572192  59.8844354 119.7105631  52.8338820  60.8062319 119.5226614
  53.4529026  59.5702773 120.1400010  56.7983211  46.7452618 131.3089564
  57.5392924  47.3459772 131.2294027  57.0301133  46.0030256 130.7507607
  51.9424549  51.9308986 129.5867794  51.8278064  51.0294243 129.8874893
  51.0869066  52.1772683 129.2352610  59.0216386  59.8726726 131.1855294
  58.5780240  59.0863105 130.8676199  59.6833600  60.0605877 130.5199185
  53.7803507  61.4022528 125.7115973  54.3310933  61.2739591 124.9392967
  52.9414983  61.7017417 125.3610866  61.1197624  60.1529526 129.2136696
  61.1016100  60.9738407 128.7216965  62.0417544  60.0283601 129.4386837
  57.5770678  57.6673655 130.0560204  58.1099015  56.9061944 129.8259512
  57.0484760  57.3747307 130.7984359  60.7440373  42.7733721 125.5853846
  60.4004643  43.6635363 125.5092956  61.1119336  42.5835379 124.7223431
  48.8126224  55.0967252 118.4042448  49.6501446  55.5064260 118.1876156
  48.9904492  54.1566694 118.3742642  60.7090656  52.7642333 114.0926281
  60.1937280  53.5346937 114.3314668  60.4367965  52.0907469 114.7159342
  58.2937767  47.6092033 119.1511519  57.4379364  47.2198884 118.9717158
  58.7064719  47.6883994 118.2911305  59.8236914  45.1438377 123.5503079
  59.3201709  45.1068512 122.7370884  60.1167521  46.0531119 123.6099736
  56.0679800  45.2277106 122.5569261  56.9332796  45.0319915 122.1975150
  56.1357309  44.9987458 123.4838618  65.6824930  55.5174687 116.0279454
  64.9054373  55.1785847 115.5834616  66.3616411  55.5227310 115.3534419
  60.4976959  50.6369425 115.9186062  60.1927095  50.9515574 116.7696205
  61.4507401  50.7150845 115.9613395  58.9423391  56.7959648 117.5679016
  58.4144753  56.0612408 117.2552254  58.4410894  57.5734324 117.3218984
  63.9216237  54.9908668 122.6846062  63.2639912  55.6807930 122.7726191
  64.7256636  55.3805100 123.0280049  53.6742119  47.4579314 119.9285628
  54.2485871  47.2354496 119.1958821  54.2613101  47.5268009 120.6814229
  62.7321696  53.3453041 120.7350004  63.2453578  53.9783033 121.2371714
  63.3822920  52.7454237 120.3693364  54.0011706  49.4883775 113.9481513
  53.1649018  49.8258462 114.2690788  53.8616476  49.3532755 113.0108650
  55.9764787  44.3320563 118.6560697  55.3229199  44.0169580 118.0317312
  55.9345261  43.7096304 119.3820520  57.0875991  54.6139858 110.5713989
  56.1803053  54.3829112 110.7705138  57.5847023  53.8177477 110.7587971
  59.9944070  63.3237365 113.4910675  59.3205769  63.6269062 114.0995633
  60.3809892  64.1266446 113.1416132  59.2102527  50.8202497 122.9808345
  58.2925088  51.0417444 122.8230033  59.6262671  50.8948807 122.1220052
  59.9937575  52.2193912 118.1111025  60.7409394  52.7315310 117.8018147
  60.2629164  51.8977965 118.9715418  58.2664225  54.7152453 115.0937979
  57.3575444  54.4311486 115.1910449  58.2959309  55.1351532 114.2341286
  63.4983492  58.3259043 118.8629147  63.0445819  57.4849952 118.9194337
  62.8677459  58.9620441 119.2003927  62.4416412  49.2551029 120.0929814
  61.7039169  48.7428415 120.4240057  62.6943185  48.8151410 119.2813091
  61.9416431  60.1635539 119.7978965  62.2339406  60.7240596 119.0791331
  62.4515052  60.4564100 120.5532124  62.5428039  42.0327281 120.6871583
  62.8486916  41.1724644 120.3997499  63.2680644  42.6244901 120.4870577
  48.8352395  52.4357967 119.0753181  48.6376795  51.8427328 118.3504248
  48.2799059  52.1310177 119.7929120  56.8149119  52.3281074 121.1947775
  56.8697729  51.3754910 121.1190251  56.0040321  52.4840513 121.6789073
  57.9640313  56.2561197 112.4326058  57.5259743  55.5397056 111.9731695
  58.7050753  56.4837312 111.8711149  54.7541479  50.9458133 118.9538153
  53.9409344  51.2452304 119.3603346  55.2500473  50.5513822 119.6712636
  56.9050057  60.9415890 120.8872418  56.8626235  61.1676737 119.9580950
  57.8212756  60.7079265 121.0358219  60.3515690  51.4099958 127.7853047
  60.7065078  51.6371431 128.6447513  60.9987822  51.7418335 127.1630303
  66.0813427  54.5318394 118.4902376  65.9431326  54.7219990 117.5623566
  65.7249646  55.2937777 118.9470427  54.2455554  48.5176489 124.5699388
  54.8854933  48.3765248 123.8722352  53.4133084  48.2311002 124.1937990
  66.1082807  56.5994921 123.5013648  66.5419314  56.5070210 124.3496702
  66.8214388  56.5752421 122.8633664  55.0215857  57.8178919 120.6834381
  55.8156456  57.3229240 120.4816956  54.3107550  57.2896783 120.3202086
  59.8410702  60.1997015 125.0346748  59.8947724  60.7687951 125.8024464
  58.9725483  60.3698900 124.6700786  51.3298621  51.9622001 116.7594134
  50.3996209  51.9006457 116.9764096  51.4256093  51.4397954 115.9630775
  51.2484170  48.4876814 119.3472375  51.5090987  49.4022147 119.2381536
  52.0701342  48.0201257 119.4968988  52.7209095  49.9014571 126.5171200
  53.3932149  49.6931933 125.8683849  51.8938882  49.7036657 126.0776432
  66.9698357  56.6418621 126.0346533  67.1634247  57.5464432 126.2805808
  66.8698975  56.1826041 126.8685118  58.6234667  46.5276512 128.5336861
  57.9762582  47.2266462 128.4401337  59.3935683  46.9612656 128.9013109
  62.0313465  56.7925364 131.6087414  61.8798972  56.5635916 130.6917498
  62.0218145  57.7495966 131.6218759  58.7998802  54.3657277 126.5933680
  59.7290862  54.5168437 126.4202648  58.3789832  54.4541298 125.7382327
  57.5987133  58.3907941 124.3632218  57.4598219  58.0226726 125.2358156
  56.8101730  58.9055581 124.1916176  58.1935285  63.4917038 115.7057754
  58.3687041  63.0205081 116.5203377  57.5068073  64.1182804 115.9339015
  59.1492349  57.7689544 121.7521056  58.8142181  57.7290314 122.6478706
  58.6496294  57.1034260 121.2791466  53.1236593  53.1757174 127.2773637
  52.9856390  52.4437413 127.8785176  54.0341516  53.0866074 126.9957825
  62.0851540  55.1145578 112.0258115  61.4680711  54.3892407 111.9291168
  61.6168029  55.8754939 111.6825190  55.7518893  52.8877133 126.7657317
  56.4618512  52.2470326 126.7243935  55.7088201  53.1390028 127.6883497
  63.7405672  59.8244487 129.6863896  63.6818218  59.1403707 129.0194479
  64.1425190  60.5663477 129.2344522  54.4647827  49.8742351 128.5852956
  53.9285184  49.4233090 129.2374552  53.8764536  50.0088260 127.8423420
  52.7596371  66.6406401 122.4797615  52.9992969  67.2724925 123.1576633
  51.9165567  66.2894441 122.7662974  53.8750086  49.3331003 111.1479420
  52.9979552  49.2119803 110.7841666  54.3507839  48.5417081 110.8958308
  63.7423079  57.7884071 127.9177875  62.8549858  57.4509992 128.0404274
  64.3121630  57.0567102 128.1546641  45.3952226  54.1208162 121.2420927
  46.0823266  53.8069892 120.6541942  45.2400355  55.0249527 120.9688178
  50.1986948  49.0098359 125.6705950  50.1145137  48.4024029 124.9356360
  49.3769655  49.5007377 125.6715447  57.2724233  62.4485523 124.8839119
  57.1994404  63.2540495 125.3958423  56.8301626  62.6477489 124.0587140
  57.0614012  61.6857293 118.3941940  56.2781534  62.2278973 118.4880165
  57.7606757  62.2031273 118.7936181  60.3710662  47.4951923 121.0376146
  60.8679362  46.7421885 120.7177216  59.5997644  47.5316239 120.4719355
  68.2240420  53.1992288 122.6794437  68.2130296  54.0817003 122.3088370
  67.3557799  52.8463839 122.4848974  59.7322916  62.3472357 127.0397277
  60.4450888  62.9819822 126.9673179  59.2412945  62.4436223 126.2237279
  61.4540443  56.2523610 118.6114569  60.5196722  56.3725072 118.4419273
  61.6317111  55.3496077 118.3474579  56.9545631  49.6369306 120.7647830
  56.5843419  49.0840346 121.4528736  57.4504723  49.0327439 120.2122830
  64.8412994  52.0940929 119.1464603  65.3073447  52.9268921 119.0724906
  65.2920495  51.6285911 119.8509862  54.7834830  60.0966801 127.8602848
  55.4844289  60.7303283 128.0132242  54.3129945  60.4381532 127.0998487
  62.9089225  58.4384750 116.1450755  63.1849069  58.3241345 117.0544629
  62.0393724  58.0402235 116.1062928  62.8129657  44.4621516 123.1855504
  61.8992737  44.6925743 123.3537711  63.2422759  44.5459960 124.0369537
  62.5836116  52.6511408 125.6855398  61.9307566  52.8987315 125.0307851
  62.9616495  51.8375546 125.3517876  59.5443289  62.6871101 119.7883569
  59.7265684  61.8692757 120.2511321  60.3676275  62.9038793 119.3508459
  59.8785455  61.6139286 117.0498617  60.4073221  61.1031741 116.4368779
  60.1413675  61.2981816 117.9144150  58.6323689  53.3931219 132.1721436
  57.9564326  53.2925348 132.8423811  59.4551322  53.2370433 132.6357433
  50.3802548  59.6303156 124.7933951  50.9655984  58.8846843 124.9261855
  50.1827386  59.9407112 125.6770615  53.2341203  62.6654403 119.8096393
  52.5651578  63.1500531 119.3260433  53.0954073  62.9123623 120.7239772
  44.9720202  52.2008756 123.5138394  45.0104302  51.6672346 124.3075512
  44.4660495  51.6743961 122.8949371  57.3746471  64.6998146 126.4079052
  57.9264780  64.8629768 127.1728137  57.7152665  65.2902584 125.7359076
  52.3510965  47.0473296 127.0100936  52.4152291  47.9088127 126.5978334
  52.2878085  46.4347298 126.2773295  51.8263237  49.1196429 130.6573970
  52.4535276  48.7373506 131.2711495  50.9691156  48.9010631 131.0229663
  62.2257346  59.5259404 132.2627706  62.7697250  60.1389362 131.7682661
  61.6444191  60.0838982 132.7794719  48.6028780  50.9272858 116.5892325
  48.8982221  50.0183536 116.5359379  47.7016816  50.9060597 116.2673328
  60.5114859  62.6480122 123.3942734  60.3865998  61.8469862 122.8853679
  61.1693950  63.1426315 122.9056704  52.1323027  49.0028855 122.5719874
  51.4109613  49.6164822 122.4327347  52.9216283  49.5386619 122.4936520
  62.5749767  60.4489142 125.0222284  61.6280103  60.3294493 124.9500610
  62.9232540  59.5611640 125.1048545  54.9349341  46.3383281 128.8460526
  55.4583742  46.5845578 129.6086835  54.7161674  47.1703316 128.4263663
  50.3316622  48.6086956 116.7131650  50.0029328  47.7284335 116.5306756
  50.6855992  48.5534624 117.6008040  59.5796200  60.2441858 121.2226636
  59.4321163  59.3158566 121.4034206  60.4049694  60.2661949 120.7383711
  53.4458445  48.8959925 117.0807128  53.7854517  49.4245847 116.3585736
  53.8930565  49.2340332 117.8565695  63.1830322  61.0670417 122.3091509
  64.1076870  60.8613278 122.1715960  63.0145626  60.8186818 123.2180850
  56.1401886  47.2796976 126.5310196  55.7998706  46.4804789 126.9330876
  55.4340892  47.5798687 125.9587029  56.7918357  44.3646289 124.9837519
  57.6144427  43.8906767 124.8616410  57.0356421  45.1436772 125.4836205
  55.4326592  47.3934547 115.2800421  56.1534954  47.7715800 114.7764138
  54.8091896  48.1123424 115.3835399  59.5757715  48.0979696 116.2158753
  59.7921329  48.9804334 115.9147581  59.0951782  47.7065909 115.4864395
  54.3156936  51.0565409 122.7929498  54.1701517  51.3705712 123.6853779
  53.8382140  51.6750310 122.2400396  56.1753319  48.0467957 122.8410387
  56.1614888  47.1509050 122.5042685  56.8925747  48.0538621 123.4748673
  58.0279450  48.4805297 124.8863515  57.7697228  49.4022368 124.8847845
  57.4964490  48.0835732 125.5763979  62.9725638  61.5856084 117.6653600
  63.1462516  61.0202507 116.9127453  63.4654530  62.3856979 117.4833090
  48.7902598  53.5970754 125.7317159  48.2456066  54.3730562 125.8637433
  49.6681948  53.9441558 125.5736280  55.5790215  46.9282337 118.1097958
  55.7006126  45.9998984 118.3088845  55.2892257  46.9421023 117.1976273
  58.4481405  44.6137248 121.2464677  58.4703102  44.6776581 120.2916657
  58.8649464  43.7741757 121.4405184  68.8265030  54.3492507 119.2843900
  69.2696176  53.5999833 118.8863023  67.9491540  54.3402644 118.9017632
  63.9600811  60.9022849 114.7650498  64.6551716  61.5229542 114.9837813
  64.3023961  60.0518200 115.0402876  49.5768620  52.7240650 128.6247316
  48.8350356  52.8723285 129.2111946  49.2561364  52.9848915 127.7614065
  65.8592234  58.3522554 116.2937829  66.3843558  58.6909827 115.5687149
  65.7714587  57.4169570 116.1100964  57.5212283  62.2656628 128.4227706
  57.8299409  62.0205775 129.2950405  58.3187765  62.4703267 127.9346576
  57.5432895  64.4194538 120.6533082  57.1037885  63.9270916 121.3465939
  58.2941012  63.8767505 120.4125158  50.0225234  60.6106079 120.6557710
  50.8483254  60.3109850 120.2756354  49.6719286  59.8413701 121.1047499
  54.9906767  59.9632547 122.7255384  54.3686776  59.3003252 122.4257612
  55.6611634  59.9893679 122.0429032  48.2233839  58.5292405 121.6146644
  47.3865747  58.1014579 121.4330645  48.1957484  58.7224848 122.5517435
  55.0631294  48.4414335 132.3187890  55.1119450  49.3176458 131.9365660
  55.6053809  47.8991728 131.7459533  65.5486140  58.9855458 131.5989027
  64.7581684  58.9679597 131.0593527  65.3119495  59.5243752 132.3538064
  65.6684015  55.8347924 128.9121756  65.7182020  55.6697932 129.8537279
  65.5597939  54.9675183 128.5219637  54.5520274  58.5136470 116.2013845
  54.7008394  59.1971935 115.5480517  55.3586717  58.4941560 116.7163300
  62.9587778  51.8178852 130.2281062  63.8597640  51.6785317 129.9365060
  63.0335752  51.9833307 131.1679240  57.2930583  49.1945707 129.0734249
  56.4233892  49.4879273 128.8016837  57.5290063  49.7786152 129.7941512
  67.1702212  58.2544866 129.1563777  66.8787020  58.6174847 129.9927238
  66.5574343  57.5411874 128.9777109  68.3697894  55.8197746 121.6766348
  69.2044786  56.2587550 121.8403908  68.5057023  55.3436399 120.8574593
  65.4189400  53.3777481 127.6243835  65.8943522  53.5705127 126.8162687
  64.4954966  53.4336666 127.3787219  52.3072907  54.5401648 117.2074914
  52.0618949  53.6363978 117.4055124  52.4768821  54.5418798 116.2654392
  59.9969617  45.4125324 126.5899669  60.5151561  46.1486351 126.2646158
  59.6424750  45.7189317 127.4246428  51.5768554  50.2730005 114.7061075
  50.8837799  50.3474360 114.0501111  51.3320306  49.5090349 115.2282592
  60.2482211  41.8325607 122.1100566  60.5283965  41.1648796 122.7360992
  61.0332818  42.0254702 121.5975230  58.0515679  61.0084601 113.6725592
  57.4789647  61.6274788 113.2196064  58.6248473  61.5583962 114.2065514
  64.1191069  50.2543241 125.8572141  65.0708492  50.3541338 125.8784365
  63.9494520  49.4621509 126.3670225  62.1405449  47.3398824 126.0431542
  61.5455381  47.6203837 125.3478030  61.8555145  47.8292725 126.8148283
  61.2712939  61.2921751 114.8034174  62.2043612  61.2267312 115.0067050
  61.1836152  62.1278018 114.3448707  63.9000956  60.6087621 111.7638122
  63.8214587  60.2747485 112.6573880  64.7210623  61.1009389 111.7629594
  66.5979147  53.4749360 124.9714441  66.5655467  52.5365361 125.1574124
  67.2079771  53.5533397 124.2380265  58.4362478  52.3445413 111.0141645
  59.3821583  52.2151621 111.0830063  58.0576723  51.6060075 111.4911073
  66.7473636  50.2660404 125.0172724  66.2312684  49.4818860 124.8302653
  67.6313584  49.9379120 125.1819243  64.4084362  44.0101419 120.9768536
  64.2109184  43.7016508 121.8611868  65.0184068  44.7363058 121.1066466
  72.4155697  54.5365367 124.1120477  73.1459085  54.2750655 124.6728181
  71.8062642  53.7994089 124.1522545  70.4970994  52.6773230 124.7094929
  69.7704158  52.5429195 124.1011420  70.0818281  52.9850058 125.5151647
  58.3201170  56.3963159 132.4742302  59.2404180  56.5741758 132.6682348
  58.2850753  55.4519205 132.3222001  56.6205395  50.2695390 110.9496530
  55.7136850  49.9728502 111.0259243  56.8981376  49.9725208 110.0830816
  47.5383335  51.5901753 121.3995576  47.2186120  50.7367061 121.1069950
  46.9916764  51.8050331 122.1553544  51.3163243  54.3064194 125.1165083
  51.5349253  55.2381302 125.1353117  51.7289017  53.9472169 125.9019887
  58.2367461  44.8132279 117.1040771  57.4268189  44.4679364 117.4796017
  58.9251878  44.5039823 117.6928383  60.1658009  43.8910326 118.7265068
  60.7189048  44.3105780 119.3855091  60.4028095  42.9646074 118.7688024
  56.1891108  49.8797400 134.5067832  56.0887835  50.8291757 134.4379923
  55.9712650  49.5515639 133.6343902  55.3904180  47.1282325 111.0908509
  56.2523344  47.4537223 111.3504326  55.5754524  46.3413821 110.5781575
  47.4071595  55.2104665 123.3688698  46.7135067  54.7958617 122.8558652
  48.1544586  55.2525201 122.7722117  63.5436816  46.0010851 118.2343732
  62.9635485  46.6595655 117.8521784  63.2772749  45.1788196 117.8231149
  61.9940383  45.4015909 120.4365052  62.4940161  45.5132444 119.6279371
  62.6375990  45.0976962 121.0765861  56.0522378  53.3094539 133.3232893
  55.5689460  54.1094899 133.5296782  56.1383317  53.3202484 132.3700337
  49.3208338  55.1422918 121.2454713  49.2979026  55.2410606 120.2936596
  49.6308974  55.9888069 121.5671879  51.9795716  57.1999073 125.3601327
  52.9338969  57.1683016 125.2931259  51.7808239  56.7389697 126.1751553
  52.5695098  55.7700189 127.9272125  53.3887987  56.2644268 127.9506962
  52.8431906  54.8532158 127.8989692  62.3261694  48.1610942 117.2900080
  61.4387549  48.4460592 117.0720275  62.7415683  48.0004705 116.4427357
  65.6776230  48.1857463 121.0054419  66.4536620  48.6753915 121.2779036
  64.9524365  48.6115517 121.4626289  68.1148789  48.8985082 122.0628360
  68.7093280  48.6580818 121.3521668  68.1875373  48.1792213 122.6901896
  50.3345945  62.7418693 122.3771525  50.2000413  61.9819094 121.8109523
  49.9178007  63.4659593 121.9100314  61.4704908  57.9255616 111.3848100
  62.1740758  58.1305619 112.0005756  60.7467556  58.4932378 111.6497184
  62.3002718  53.6765478 117.5050370  62.2437919  54.1334029 116.6658003
  62.8531060  52.9156162 117.3273213  66.1107524  49.4655210 118.3300490
  65.8544458  49.0651845 119.1608698  65.4860392  50.1799004 118.2050629
  70.4219862  52.2051283 120.8371781  69.8619420  52.2744472 121.6103343
  69.8163365  52.0292267 120.1171278  53.4915071  63.6388010 122.5889968
  53.3747455  64.5833442 122.4868658  52.6707517  63.3361571 122.9775767
  63.3791605  58.3638146 113.4346560  64.2137209  57.9319344 113.2524035
  63.2175948  58.1920159 114.3623455  63.0337497  54.8670259 114.8002900
  62.9786301  54.7014530 113.8591344  62.4083553  55.5746292 114.9565089
  47.8230012  50.1038323 128.6264322  48.4688876  49.5937277 129.1151547
  47.6147163  50.8407005 129.2007747  60.3483404  57.1719171 134.1256462
  61.2174564  57.3459823 133.7643097  59.8690156  57.9913588 134.0032192
  56.3433623  44.3678368 114.3788218  56.3312293  45.3120208 114.5356489
  57.2357045  44.1848513 114.0847679  54.5169585  64.2916272 125.8045896
  55.4196831  64.3239882 126.1212391  54.2906955  63.3616723 125.8192232
  56.2723187  63.0447258 122.4655975  55.3218818  63.0449120 122.3520347
  56.5755673  62.2979993 121.9492009  60.1585742  40.9621145 118.6334155
  59.3918138  40.4079631 118.7790837  60.5696447  41.0343013 119.4948306
  72.0075880  68.8807797 123.5301737  72.6454290  68.7614544 122.8265077
  71.8896723  69.8288641 123.5889689  68.8165586  68.8335225 123.4663262
  68.4784098  68.7176290 122.5783797  69.6855355  68.4326390 123.4464268
  64.6752402  70.6870701 119.4560153  64.1117267  70.5960638 118.6876440
  64.5604797  69.8670606 119.9362645  69.2985369  69.9870077 129.4249467
  69.2874010  69.5922875 128.5529971  69.4606009  69.2536149 130.0183239
  62.2216834  72.1821893 122.2944373  63.0138126  71.8412718 121.8790672
  62.4613484  72.2916868 123.2146526  70.2551961  74.3541669 114.7674618
  69.6039941  74.9395749 114.3808631  71.0496324  74.8847864 114.8269655
  64.1807588  71.4430806 115.1661752  64.9538464  70.8959793 115.0274628
  64.5332987  72.3075055 115.3776213  66.0192631  72.7707188 128.3728651
  65.7282497  73.6752819 128.2575318  66.6549615  72.8123716 129.0872721
  66.9448837  70.1484037 124.9630011  67.5412410  69.9240059 124.2486974
  67.0023809  69.4068782 125.5655459  66.5173866  67.6023472 112.7980202
  66.7699387  67.0804994 112.0363665  65.5798425  67.4389618 112.9006885
  71.5617149  66.6059251 120.6054945  72.3480238  66.1878674 120.2545362
  71.8255853  67.5105343 120.7736593  71.7327226  72.0432101 115.3043602
  71.0973059  72.1166727 116.0164507  71.4024632  72.6325700 114.6262681
  76.9625576  66.5434484 121.5087924  77.6950748  65.9733701 121.7425753
  76.2064931  66.1556084 121.9494429  66.2370155  69.5051578 115.0004577
  66.1206413  68.8296482 115.6685661  66.3472414  69.0183952 114.1836730
  68.5801696  68.9661725 118.7051266  68.2159903  68.4392346 119.4164188
  69.4368811  68.5760194 118.5317751  74.4850996  60.2556058 125.9682532
  74.1534321  61.1251469 125.7443747  73.8896610  59.9392342 126.6476563
  68.2207182  63.9951625 113.7012615  68.3881585  64.8631861 114.0683086
  68.0304352  64.1578907 112.7773904  70.9782516  72.4568604 125.3678445
  70.6783239  73.3593643 125.2594252  70.6333575  72.1900787 126.2199598
  64.4294997  68.9082401 121.4015149  63.5045494  68.7758615 121.6092841
  64.6779410  69.6876620 121.8985092  74.3779659  64.9751144 123.0475882
  73.4696537  64.9066553 122.7534643  74.3267255  65.4523089 123.8757708
  68.1996403  66.4509283 114.6859281  68.0796029  66.8966333 115.5244762
  67.5048992  66.7994600 114.1272820  61.7903808  68.5515674 122.2358938
  61.9196189  68.8050153 123.1498350  61.1101259  69.1443382 121.9163593
  65.9603295  79.2212924 118.3349413  65.8827325  80.1720749 118.4137893
  65.3564939  78.8758797 118.9924339  68.4520525  66.3940790 130.9910780
  67.6753859  66.9534710 130.9813644  69.0911088  66.8797573 131.5125650
  76.2441306  63.1767582 124.8253756  75.6015686  63.4700116 124.1793551
  75.7396234  63.0620503 125.6306953  73.8981470  66.9230756 115.5139615
  74.8099326  67.1558142 115.3387313  73.3891117  67.5067800 114.9514694
  66.7066898  69.2026243 130.5528747  67.4481582  69.7411287 130.2763570
  66.0003883  69.8292532 130.7100298  72.1822237  71.3455384 129.1500908
  72.5905593  70.9037794 128.4055540  71.4599499  70.7708011 129.4035101
  68.5353307  66.2827990 126.5234465  69.3814502  66.7067404 126.6669114
  68.4751945  65.6261615 127.2173028  72.5051052  71.9056574 122.9053197
  71.8759914  72.0702288 122.2029265  72.1176714  72.3198184 123.6764161
  76.3840284  72.8411012 120.2597561  75.6991322  73.2209913 119.7094594
  76.4684133  73.4506339 120.9929508  71.6852753  63.9432359 128.1815639
  71.4413684  64.6974419 127.6449914  71.9612683  64.3217706 129.0162886
  73.6391215  70.4870971 126.8592904  73.8508111  71.1302731 126.1827285
  73.5920964  69.6533288 126.3914834  71.2417444  63.0988792 123.7629476
  70.3801923  63.3970045 124.0546214  71.2679879  63.3159191 122.8310509
  68.0579014  71.6430982 120.1703282  68.5217359  71.9218685 119.3807904
  67.7935812  70.7414427 119.9876373  64.9503095  71.1902464 123.1083045
  65.5204452  71.6189732 122.4700530  65.5411207  70.9085048 123.8067231
  66.9947900  67.7654135 116.9792847  67.6971943  68.2175178 117.4466773
  66.6628528  67.1237953 117.6072740  65.4428261  66.3565891 131.3544057
  64.8126922  67.0382172 131.5879453  65.3364349  66.2448973 130.4097195
  60.7373234  66.0237687 122.2809981  59.9472288  66.2795216 121.8050091
  61.2284481  66.8386025 122.3862021  74.7537043  73.3642926 125.0315262
  75.5754487  72.9623114 124.7497943  74.7499446  73.2611161 125.9831377
  62.6887979  66.3882267 119.2393457  61.8919142  66.5000961 119.7576953
  62.4613571  66.7268919 118.3734348  68.5193647  72.9126970 127.1875972
  68.5838079  73.3747377 128.0234144  67.8104571  72.2824335 127.3158282
  59.0210937  66.2768178 124.7124971  59.2718975  67.1615188 124.9782547
  59.5570485  66.0972779 123.9400063  82.8443036  69.7081675 121.3800233
  82.0906745  69.1389073 121.2244237  82.9790578  69.6744339 122.3270868
  68.2341664  74.5795077 117.0554952  68.0987339  75.4246613 117.4839800
  68.7751477  74.7814355 116.2920886  64.7209004  60.6586657 133.7169308
  64.3275950  60.1052856 134.3916952  65.5375144  60.9697236 134.1075825
  61.6871062  72.0970515 117.6282877  62.1995582  72.8913766 117.7788442
  62.3393775  71.3996806 117.5616479  63.4965946  75.2136272 119.7105631
  63.6732575  76.1354236 119.5226614  64.2922780  74.8994691 120.1400010
  67.6376965  62.0744536 131.3089564  68.3786678  62.6751689 131.2294027
  67.8694888  61.3322174 130.7507607  62.7818303  67.2600903 129.5867794
  62.6671818  66.3586161 129.8874893  61.9262821  67.5064600 129.2352610
  69.8610141  75.2018644 131.1855294  69.4173995  74.4155022 130.8676199
  70.5227354  75.3897794 130.5199185  64.6197262  76.7314445 125.7115973
  65.1704687  76.6031509 124.9392967  63.7808738  77.0309334 125.3610866
  71.9591379  75.4821444 129.2136696  71.9409854  76.3030325 128.7216965
  72.8811299  75.3575519 129.4386837  68.4164433  72.9965573 130.0560204
  68.9492770  72.2353861 129.8259512  67.8878514  72.7039225 130.7984359
  71.5834128  58.1025639 125.5853846  71.2398397  58.9927281 125.5092956
  71.9513091  57.9127297 124.7223431  59.6519979  70.4259170 118.4042448
  60.4895201  70.8356178 118.1876156  59.8298246  69.4858612 118.3742642
  71.5484411  68.0934250 114.0926281  71.0331034  68.8638855 114.3314668
  71.2761719  67.4199386 114.7159342  69.1331522  62.9383951 119.1511519
  68.2773118  62.5490801 118.9717158  69.5458473  63.0175912 118.2911305
  70.6630668  60.4730294 123.5503079  70.1595464  60.4360429 122.7370884
  70.9561275  61.3823037 123.6099736  66.9073554  60.5569024 122.5569261
  67.7726551  60.3611833 122.1975150  66.9751063  60.3279376 123.4838618
  76.5218685  70.8466605 116.0279454  75.7448128  70.5077764 115.5834616
  77.2010166  70.8519228 115.3534419  71.3370714  65.9661342 115.9186062
  71.0320849  66.2807491 116.7696205  72.2901156  66.0442762 115.9613395
  69.7817146  72.1251566 117.5679016  69.2538507  71.3904325 117.2552254
  69.2804648  72.9026242 117.3218984  74.7609992  70.3200586 122.6846062
  74.1033666  71.0099848 122.7726191  75.5650391  70.7097018 123.0280049
  64.5135873  62.7871232 119.9285628  65.0879625  62.5646413 119.1958821
  65.1006856  62.8559926 120.6814229  73.5715451  68.6744959 120.7350004
  74.0847332  69.3074951 121.2371714  74.2216674  68.0746154 120.3693364
  64.8405460  64.8175693 113.9481513  64.0042773  65.1550379 114.2690788
  64.7010230  64.6824673 113.0108650  66.8158541  59.6612481 118.6560697
  66.1622953  59.3461498 118.0317312  66.7739015  59.0388221 119.3820520
  67.9269746  69.9431776 110.5713989  67.0196808  69.7121029 110.7705138
  68.4240778  69.1469395 110.7587971  70.8337825  78.6529283 113.4910675
  70.1599524  78.9560980 114.0995633  71.2203647  79.4558363 113.1416132
  70.0496281  66.1494414 122.9808345  69.1318843  66.3709361 122.8230033
  70.4656425  66.2240725 122.1220052  70.8331329  67.5485830 118.1111025
  71.5803148  68.0607227 117.8018147  71.1022919  67.2269883 118.9715418
  69.1057979  70.0444371 115.0937979  68.1969199  69.7603404 115.1910449
  69.1353063  70.4643449 114.2341286  74.3377247  73.6550960 118.8629147
  73.8839574  72.8141870 118.9194337  73.7071213  74.2912359 119.2003927
  73.2810166  64.5842946 120.0929814  72.5432923  64.0720332 120.4240057
  73.5336940  64.1443328 119.2813091  72.7810186  75.4927457 119.7978965
  73.0733160  76.0532514 119.0791331  73.2908807  75.7856018 120.5532124
  73.3821794  57.3619198 120.6871583  73.6880670  56.5016562 120.3997499
  74.1074398  57.9536818 120.4870577  59.6746150  67.7649885 119.0753181
  59.4770550  67.1719246 118.3504248  59.1192814  67.4602095 119.7929120
  67.6542873  67.6572991 121.1947775  67.7091483  66.7046828 121.1190251
  66.8434075  67.8132430 121.6789073  68.8034067  71.5853114 112.4326058
  68.3653497  70.8688973 111.9731695  69.5444508  71.8129229 111.8711149
  65.5935233  66.2750051 118.9538153  64.7803099  66.5744222 119.3603346
  66.0894227  65.8805740 119.6712636  67.7443811  76.2707808 120.8872418
  67.7019990  76.4968654 119.9580950  68.6606510  76.0371183 121.0358219
  71.1909445  66.7391876 127.7853047  71.5458833  66.9663349 128.6447513
  71.8381576  67.0710252 127.1630303  76.9207182  69.8610311 118.4902376
  76.7825080  70.0511907 117.5623566  76.5643401  70.6229694 118.9470427
  65.0849308  63.8468407 124.5699388  65.7248687  63.7057166 123.8722352
  64.2526839  63.5602920 124.1937990  76.9476561  71.9286838 123.5013648
  77.3813068  71.8362128 124.3496702  77.6608142  71.9044339 122.8633664
  65.8609612  73.1470837 120.6834381  66.6550210  72.6521157 120.4816956
  65.1501304  72.6188700 120.3202086  70.6804456  75.5288933 125.0346748
  70.7341479  76.0979869 125.8024464  69.8119238  75.6990818 124.6700786
  62.1692375  67.2913919 116.7594134  61.2389963  67.2298374 116.9764096
  62.2649847  66.7689872 115.9630775  62.0877924  63.8168732 119.3472375
  62.3484742  64.7314065 119.2381536  62.9095097  63.3493174 119.4968988
  63.5602850  65.2306489 126.5171200  64.2325903  65.0223851 125.8683849
  62.7332636  65.0328575 126.0776432  77.8092111  71.9710539 126.0346533
  78.0028001  72.8756350 126.2805808  77.7092729  71.5117958 126.8685118
  69.4628422  61.8568430 128.5336861  68.8156337  62.5558379 128.4401337
  70.2329437  62.2904574 128.9013109  72.8707220  72.1217282 131.6087414
  72.7192726  71.8927834 130.6917498  72.8611899  73.0787883 131.6218759
  69.6392556  69.6949195 126.5933680  70.5684616  69.8460354 126.4202648
  69.2183586  69.7833215 125.7382327  68.4380888  73.7199859 124.3632218
  68.2991974  73.3518643 125.2358156  67.6495484  74.2347498 124.1916176
  69.0329040  78.8208955 115.7057754  69.2080796  78.3496999 116.5203377
  68.3461828  79.4474722 115.9339015  69.9886103  73.0981462 121.7521056
  69.6535936  73.0582232 122.6478706  69.4890049  72.4326178 121.2791466
  63.9630347  68.5049092 127.2773637  63.8250145  67.7729331 127.8785176
  64.8735270  68.4157992 126.9957825  72.9245295  70.4437496 112.0258115
  72.3074465  69.7184324 111.9291168  72.4561783  71.2046856 111.6825190
  66.5912648  68.2169051 126.7657317  67.3012266  67.5762243 126.7243935
  66.5481956  68.4681946 127.6883497  74.5799426  75.1536404 129.6863896
  74.5211973  74.4695625 129.0194479  74.9818945  75.8955394 129.2344522
  65.3041582  65.2034269 128.5852956  64.7678939  64.7525007 129.2374552
  64.7158290  65.3380178 127.8423420  63.5990125  81.9698318 122.4797615
  63.8386723  82.6016842 123.1576633  62.7559322  81.6186358 122.7662974
  64.7143841  64.6622920 111.1479420  63.8373307  64.5411721 110.7841666
  65.1901594  63.8708999 110.8958308  74.5816834  73.1175988 127.9177875
  73.6943612  72.7801910 128.0404274  75.1515385  72.3859020 128.1546641
  56.2345981  69.4500080 121.2420927  56.9217021  69.1361810 120.6541942
  56.0794109  70.3541445 120.9688178  61.0380703  64.3390277 125.6705950
  60.9538892  63.7315946 124.9356360  60.2163409  64.8299295 125.6715447
  68.1117987  77.7777441 124.8839119  68.0388159  78.5832412 125.3958423
  67.6695380  77.9769407 124.0587140  67.9007767  77.0149211 118.3941940
  67.1175289  77.5570891 118.4880165  68.6000512  77.5323190 118.7936181
  71.2104417  62.8243840 121.0376146  71.7073116  62.0713803 120.7177216
  70.4391398  62.8608157 120.4719355  79.0634174  68.5284206 122.6794437
  79.0524050  69.4108921 122.3088370  78.1951554  68.1755757 122.4848974
  70.5716671  77.6764275 127.0397277  71.2844643  78.3111740 126.9673179
  70.0806699  77.7728141 126.2237279  72.2934197  71.5815527 118.6114569
  71.3590476  71.7016990 118.4419273  72.4710866  70.6787994 118.3474579
  67.7939386  64.9661223 120.7647830  67.4237173  64.4132264 121.4528736
  68.2898478  64.3619357 120.2122830  75.6806749  67.4232847 119.1464603
  76.1467201  68.2560838 119.0724906  76.1314249  66.9577828 119.8509862
  65.6228584  75.4258718 127.8602848  66.3238044  76.0595201 128.0132242
  65.1523699  75.7673450 127.0998487  73.7482980  73.7676668 116.1450755
  74.0242824  73.6533263 117.0544629  72.8787479  73.3694153 116.1062928
  73.6523412  59.7913434 123.1855504  72.7386491  60.0217661 123.3537711
  74.0816513  59.8751878 124.0369537  73.4229870  67.9803326 125.6855398
  72.7701320  68.2279233 125.0307851  73.8010250  67.1667464 125.3517876
  70.3837044  78.0163019 119.7883569  70.5659438  77.1984675 120.2511321
  71.2070030  78.2330711 119.3508459  70.7179209  76.9431204 117.0498617
  71.2466976  76.4323659 116.4368779  70.9807429  76.6273734 117.9144150
  69.4717443  68.7223137 132.1721436  68.7958080  68.6217266 132.8423811
  70.2945077  68.5662350 132.6357433  61.2196302  74.9595073 124.7933951
  61.8049739  74.2138761 124.9261855  61.0221141  75.2699030 125.6770615
  64.0734957  77.9946321 119.8096393  63.4045333  78.4792448 119.3260433
  63.9347827  78.2415541 120.7239772  55.8113957  67.5300673 123.5138394
  55.8498056  66.9964264 124.3075512  55.3054250  67.0035879 122.8949371
  68.2140226  80.0290064 126.4079052  68.7658534  80.1921686 127.1728137
  68.5546419  80.6194502 125.7359076  63.1904719  62.3765214 127.0100936
  63.2546046  63.2380045 126.5978334  63.1271839  61.7639216 126.2773295
  62.6656992  64.4488347 130.6573970  63.2929031  64.0665424 131.2711495
  61.8084911  64.2302548 131.0229663  73.0651100  74.8551322 132.2627706
  73.6091004  75.4681280 131.7682661  72.4837945  75.4130900 132.7794719
  59.4422534  66.2564776 116.5892325  59.7375976  65.3475454 116.5359379
  58.5410570  66.2352515 116.2673328  71.3508613  77.9772040 123.3942734
  71.2259753  77.1761780 122.8853679  72.0087704  78.4718233 122.9056704
  62.9716781  64.3320772 122.5719874  62.2503367  64.9456740 122.4327347
  63.7610037  64.8678537 122.4936520  73.4143522  75.7781060 125.0222284
  72.4673857  75.6586411 124.9500610  73.7626295  74.8903558 125.1048545
  65.7743095  61.6675199 128.8460526  66.2977497  61.9137495 129.6086835
  65.5555428  62.4995233 128.4263663  61.1710376  63.9378873 116.7131650
  60.8423082  63.0576252 116.5306756  61.5249747  63.8826542 117.6008040
  70.4189955  75.5733776 121.2226636  70.2714917  74.6450483 121.4034206
  71.2443448  75.5953867 120.7383711  64.2852199  64.2251843 117.0807128
  64.6248272  64.7537764 116.3585736  64.7324320  64.5632249 117.8565695
  74.0224077  76.3962335 122.3091509  74.9470624  76.1905196 122.1715960
  73.8539380  76.1478736 123.2180850  66.9795640  62.6088894 126.5310196
  66.6392460  61.8096707 126.9330876  66.2734646  62.9090605 125.9587029
  67.6312112  59.6938206 124.9837519  68.4538181  59.2198684 124.8616410
  67.8750175  60.4728690 125.4836205  66.2720346  62.7226465 115.2800421
  66.9928709  63.1007717 114.7764138  65.6485650  63.4415341 115.3835399
  70.4151469  63.4271614 116.2158753  70.6315084  64.3096252 115.9147581
  69.9345536  63.0357827 115.4864395  65.1550691  66.3857327 122.7929498
  65.0095271  66.6997630 123.6853779  64.6775894  67.0042227 122.2400396
  67.0147074  63.3759875 122.8410387  67.0008642  62.4800968 122.5042685
  67.7319502  63.3830539 123.4748673  68.8673204  63.8097215 124.8863515
  68.6090982  64.7314286 124.8847845  68.3358245  63.4127650 125.5763979
  73.8119393  76.9148002 117.6653600  73.9856271  76.3494425 116.9127453
  74.3048284  77.7148897 117.4833090  59.6296353  68.9262671 125.7317159
  59.0849821  69.7022479 125.8637433  60.5075703  69.2733476 125.5736280
  66.4183969  62.2574255 118.1097958  66.5399881  61.3290901 118.3088845
  66.1286012  62.2712941 117.1976273  69.2875160  59.9429166 121.2464677
  69.3096857  60.0068499 120.2916657  69.7043219  59.1033674 121.4405184
  79.6658784  69.6784425 119.2843900  80.1089930  68.9291750 118.8863023
  78.7885294  69.6694561 118.9017632  74.7994565  76.2314767 114.7650498
  75.4945470  76.8521459 114.9837813  75.1417716  75.3810118 115.0402876
  60.4162375  68.0532568 128.6247316  59.6744111  68.2015203 129.2111946
  60.0955119  68.3140833 127.7614065  76.6985989  73.6814472 116.2937829
  77.2237313  74.0201745 115.5687149  76.6108341  72.7461487 116.1100964
  68.3606037  77.5948546 128.4227706  68.6693164  77.3497693 129.2950405
  69.1581519  77.7995184 127.9346576  68.3826649  79.7486455 120.6533082
  67.9431640  79.2562834 121.3465939  69.1334766  79.2059423 120.4125158
  60.8618988  75.9397996 120.6557710  61.6877008  75.6401768 120.2756354
  60.5113040  75.1705619 121.1047499  65.8300521  75.2924464 122.7255384
  65.2080531  74.6295169 122.4257612  66.5005388  75.3185596 122.0429032
  59.0627593  73.8584323 121.6146644  58.2259502  73.4306497 121.4330645
  59.0351239  74.0516766 122.5517435  65.9025049  63.7706252 132.3187890
  65.9513204  64.6468375 131.9365660  66.4447563  63.2283646 131.7459533
  76.3879895  74.3147376 131.5989027  75.5975438  74.2971515 131.0593527
  76.1513249  74.8535669 132.3538064  76.5077770  71.1639842 128.9121756
  76.5575775  70.9989850 129.8537279  76.3991693  70.2967101 128.5219637
  65.3914028  73.8428388 116.2013845  65.5402149  74.5263852 115.5480517
  66.1980472  73.8233478 116.7163300  73.7981532  67.1470770 130.2281062
  74.6991395  67.0077235 129.9365060  73.8729507  67.3125225 131.1679240
  68.1324337  64.5237625 129.0734249  67.2627647  64.8171191 128.8016837
  68.3683818  65.1078070 129.7941512  78.0095967  73.5836784 129.1563777
  77.7180775  73.9466764 129.9927238  77.3968098  72.8703792 128.9777109
  79.2091649  71.1489663 121.6766348  80.0438540  71.5879467 121.8403908
  79.3450778  70.6728317 120.8574593  76.2583155  68.7069398 127.6243835
  76.7337276  68.8997045 126.8162687  75.3348720  68.7628584 127.3787219
  63.1466661  69.8693565 117.2074914  62.9012703  68.9655895 117.4055124
  63.3162576  69.8710716 116.2654392  70.8363371  60.7417242 126.5899669
  71.3545315  61.4778269 126.2646158  70.4818504  61.0481235 127.4246428
  62.4162309  65.6021923 114.7061075  61.7231554  65.6766278 114.0501111
  62.1714061  64.8382267 115.2282592  71.0875965  57.1617524 122.1100566
  71.3677719  56.4940713 122.7360992  71.8726572  57.3546620 121.5975230
  68.8909434  76.3376518 113.6725592  68.3183401  76.9566705 113.2196064
  69.4642228  76.8875880 114.2065514  74.9584824  65.5835158 125.8572141
  75.9102247  65.6833256 125.8784365  74.7888274  64.7913427 126.3670225
  72.9799203  62.6690742 126.0431542  72.3849135  62.9495754 125.3478030
  72.6948900  63.1584642 126.8148283  72.1106694  76.6213668 114.8034174
  73.0437367  76.5559230 115.0067050  72.0229907  77.4569935 114.3448707
  74.7394710  75.9379539 111.7638122  74.6608342  75.6039402 112.6573880
  75.5604377  76.4301307 111.7629594  77.4372902  68.8041278 124.9714441
  77.4049222  67.8657279 125.1574124  78.0473525  68.8825315 124.2380265
  69.2756232  67.6737331 111.0141645  70.2215337  67.5443539 111.0830063
  68.8970477  66.9351993 111.4911073  77.5867390  65.5952321 125.0172724
  77.0706439  64.8110778 124.8302653  78.4707339  65.2671038 125.1819243
  75.2478117  59.3393337 120.9768536  75.0502938  59.0308425 121.8611868
  75.8577823  60.0654976 121.1066466  83.2549451  69.8657285 124.1120477
  83.9852840  69.6042573 124.6728181  82.6456397  69.1286007 124.1522545
  81.3364749  68.0065147 124.7094929  80.6097912  67.8721112 124.1011420
  80.9212035  68.3141976 125.5151647  69.1594925  71.7255077 132.4742302
  70.0797934  71.9033676 132.6682348  69.1244508  70.7811122 132.3222001
  67.4599150  65.5987307 110.9496530  66.5530605  65.3020420 111.0259243
  67.7375131  65.3017125 110.0830816  58.3777090  66.9193671 121.3995576
  58.0579874  66.0658979 121.1069950  57.8310518  67.1342249 122.1553544
  62.1556998  69.6356112 125.1165083  62.3743007  70.5673220 125.1353117
  62.5682771  69.2764086 125.9019887  69.0761215  60.1424197 117.1040771
  68.2661944  59.7971282 117.4796017  69.7645632  59.8331741 117.6928383
  71.0051764  59.2202244 118.7265068  71.5582802  59.6397697 119.3855091
  71.2421850  58.2937992 118.7688024  67.0284863  65.2089318 134.5067832
  66.9281590  66.1583675 134.4379923  66.8106405  64.8807556 133.6343902
  66.2297934  62.4574243 111.0908509  67.0917098  62.7829141 111.3504326
  66.4148278  61.6705739 110.5781575  58.2465350  70.5396582 123.3688698
  57.5528821  70.1250535 122.8558652  58.9938341  70.5817119 122.7722117
  74.3830571  61.3302769 118.2343732  73.8029240  61.9887573 117.8521784
  74.1166503  60.5080114 117.8231149  72.8334137  60.7307827 120.4365052
  73.3333915  60.8424361 119.6279371  73.4769745  60.4268880 121.0765861
  66.8916133  68.6386456 133.3232893  66.4083215  69.4386817 133.5296782
  66.9777072  68.6494401 132.3700337  60.1602092  70.4714836 121.2454713
  60.1372781  70.5702523 120.2936596  60.4702729  71.3179987 121.5671879
  62.8189470  72.5290991 125.3601327  63.7732724  72.4974933 125.2931259
  62.6201994  72.0681615 126.1751553  63.4088852  71.0992107 127.9272125
  64.2281741  71.5936186 127.9506962  63.6825660  70.1824075 127.8989692
  73.1655449  63.4902859 117.2900080  72.2781304  63.7752510 117.0720275
  73.5809438  63.3296623 116.4427357  76.5169985  63.5149380 121.0054419
  77.2930375  64.0045833 121.2779036  75.7918119  63.9407435 121.4626289
  78.9542543  64.2277000 122.0628360  79.5487034  63.9872736 121.3521668
  79.0269127  63.5084130 122.6901896  61.1739699  78.0710611 122.3771525
  61.0394167  77.3111011 121.8109523  60.7571761  78.7951510 121.9100314
  72.3098662  73.2547534 111.3848100  73.0134512  73.4597537 112.0005756
  71.5861311  73.8224296 111.6497184  73.1396472  69.0057395 117.5050370
  73.0831674  69.4625947 116.6658003  73.6924815  68.2448080 117.3273213
  76.9501278  64.7947127 118.3300490  76.6938213  64.3943763 119.1608698
  76.3254146  65.5090921 118.2050629  81.2613616  67.5343201 120.8371781
  80.7013174  67.6036390 121.6103343  80.6557120  67.3584185 120.1171278
  64.3308825  78.9679928 122.5889968  64.2141209  79.9125360 122.4868658
  63.5101271  78.6653489 122.9775767  74.2185360  73.6930063 113.4346560
  75.0530963  73.2611262 113.2524035  74.0569702  73.5212077 114.3623455
  73.8731252  70.1962177 114.8002900  73.8180056  70.0306448 113.8591344
  73.2477307  70.9038210 114.9565089  58.6623767  65.4330241 128.6264322
  59.3082630  64.9229195 129.1151547  58.4540918  66.1698923 129.2007747
  71.1877159  72.5011088 134.1256462  72.0568319  72.6751741 133.7643097
  70.7083910  73.3205505 134.0032192  67.1827377  59.6970286 114.3788218
  67.1706047  60.6412126 114.5356489  68.0750799  59.5140431 114.0847679
  65.3563339  79.6208190 125.8045896  66.2590586  79.6531800 126.1212391
  65.1300709  78.6908640 125.8192232  67.1116941  78.3739176 122.4655975
  66.1612572  78.3741038 122.3520347  67.4149427  77.6271911 121.9492009
  70.9979497  56.2913062 118.6334155  70.2311892  55.7371549 118.7790837
  71.4090202  56.3634931 119.4948306  63.0021258  62.5797858 132.7239336
  63.8652719  62.2234663 132.9342661  62.4286668  62.2411753 133.4114740
  82.8469635  84.2099714 123.5301737  83.4848045  84.0906462 122.8265077
  82.7290478  85.1580558 123.5889689  79.6559341  84.1627143 123.4663262
  79.3177852  84.0468207 122.5783797  80.5249109  83.7618308 123.4464268
  75.5146157  86.0162619 119.4560153  74.9511022  85.9252556 118.6876440
  75.3998552  85.1962523 119.9362645  80.1379124  85.3161994 129.4249467
  80.1267765  84.9214793 128.5529971  80.2999763  84.5828067 130.0183239
  73.0610589  87.5113811 122.2944373  73.8531880  87.1704635 121.8790672
  73.3007239  87.6208786 123.2146526  81.0945715  89.6833587 114.7674618
  80.4433695  90.2687667 114.3808631  81.8890078  90.2139782 114.8269655
  75.0201342  86.7722724 115.1661752  75.7932218  86.2251711 115.0274628
  75.3726741  87.6366973 115.3776213  76.8586385  88.0999106 128.3728651
  76.5676251  89.0044737 128.2575318  77.4943369  88.1415634 129.0872721
  77.7842592  85.4775955 124.9630011  78.3806164  85.2531977 124.2486974
  77.8417563  84.7360700 125.5655459  77.3567620  82.9315390 112.7980202
  77.6093141  82.4096911 112.0363665  76.4192179  82.7681535 112.9006885
  82.4010903  81.9351168 120.6054945  83.1873992  81.5170591 120.2545362
  82.6649607  82.8397260 120.7736593  82.5720980  87.3724019 115.3043602
  81.9366813  87.4458645 116.0164507  82.2418387  87.9617617 114.6262681
  87.8019330  81.8726401 121.5087924  88.5344502  81.3025618 121.7425753
  87.0458686  81.4848002 121.9494429  77.0763909  84.8343496 115.0004577
  76.9600167  84.1588399 115.6685661  77.1866169  84.3475870 114.1836730
  79.4195450  84.2953643 118.7051266  79.0553657  83.7684264 119.4164188
  80.2762566  83.9052112 118.5317751  85.3244751  75.5847976 125.9682532
  84.9928075  76.4543387 125.7443747  84.7290364  75.2684260 126.6476563
  79.0600937  79.3243543 113.7012615  79.2275339  80.1923779 114.0683086
  78.8698106  79.4870824 112.7773904  81.8176270  87.7860522 125.3678445
  81.5176993  88.6885560 125.2594252  81.4727330  87.5192705 126.2199598
  75.2688752  84.2374318 121.4015149  74.3439248  84.1050533 121.6092841
  75.5173165  85.0168538 121.8985092  85.2173414  80.3043062 123.0475882
  84.3090291  80.2358470 122.7534643  85.1661010  80.7815007 123.8757708
  79.0390158  81.7801200 114.6859281  78.9189783  82.2258251 115.5244762
  78.3442746  82.1286518 114.1272820  72.6297563  83.8807592 122.2358938
  72.7589944  84.1342071 123.1498350  71.9495014  84.4735300 121.9163593
  76.7997050  94.5504842 118.3349413  76.7221080  95.5012667 118.4137893
  76.1958694  94.2050714 118.9924339  79.2914280  81.7232707 130.9910780
  78.5147614  82.2826628 130.9813644  79.9304843  82.2089490 131.5125650
  87.0835060  78.5059500 124.8253756  86.4409441  78.7992033 124.1793551
  86.5789989  78.3912421 125.6306953  84.7375224  82.2522673 115.5139615
  85.6493080  82.4850060 115.3387313  84.2284871  82.8359718 114.9514694
  77.5460652  84.5318161 130.5528747  78.2875336  85.0703205 130.2763570
  76.8397637  85.1584449 130.7100298  83.0215992  86.6747301 129.1500908
  83.4299348  86.2329712 128.4055540  82.2993253  86.0999929 129.4035101
  79.3747062  81.6119908 126.5234465  80.2208257  82.0359322 126.6669114
  79.3145699  80.9553532 127.2173028  83.3444806  87.2348492 122.9053197
  82.7153669  87.3994206 122.2029265  82.9570468  87.6490101 123.6764161
  87.2234038  88.1702930 120.2597561  86.5385076  88.5501831 119.7094594
  87.3077888  88.7798256 120.9929508  82.5246507  79.2724276 128.1815639
  82.2807439  80.0266337 127.6449914  82.8006438  79.6509624 129.0162886
  84.4784970  85.8162889 126.8592904  84.6901865  86.4594649 126.1827285
  84.4314718  84.9825205 126.3914834  82.0811199  78.4280709 123.7629476
  81.2195678  78.7261963 124.0546214  82.1073633  78.6451108 122.8310509
  78.8972768  86.9722900 120.1703282  79.3611114  87.2510603 119.3807904
  78.6329566  86.0706344 119.9876373  75.7896849  86.5194381 123.1083045
  76.3598206  86.9481650 122.4700530  76.3804961  86.2376966 123.8067231
  77.8341654  83.0946052 116.9792847  78.5365698  83.5467096 117.4466773
  77.5022283  82.4529871 117.6072740  76.2822016  81.6857809 131.3544057
  75.6520676  82.3674090 131.5879453  76.1758104  81.5740891 130.4097195
  71.5766988  81.3529605 122.2809981  70.7866042  81.6087133 121.8050091
  72.0678236  82.1677943 122.3862021  85.5930798  88.6934844 125.0315262
  86.4148241  88.2915031 124.7497943  85.5893201  88.5903078 125.9831377
  73.5281734  81.7174184 119.2393457  72.7312897  81.8292878 119.7576953
  73.3007326  82.0560836 118.3734348  79.3587401  88.2418887 127.1875972
  79.4231834  88.7039295 128.0234144  78.6498325  87.6116252 127.3158282
  69.8604691  81.6060095 124.7124971  70.1112730  82.4907105 124.9782547
  70.3964240  81.4264697 123.9400063  93.6836791  85.0373593 121.3800233
  92.9300499  84.4680991 121.2244237  93.8184332  85.0036257 122.3270868
  79.0735419  89.9086995 117.0554952  78.9381094  90.7538531 117.4839800
  79.6145231  90.1106273 116.2920886  75.5602759  75.9878575 133.7169308
  75.1669704  75.4344773 134.3916952  76.3768899  76.2989153 134.1075825
  72.5264816  87.4262433 117.6282877  73.0389337  88.2205683 117.7788442
  73.1787529  86.7288723 117.5616479  74.3359701  90.5428189 119.7105631
  74.5126329  91.4646154 119.5226614  75.1316534  90.2286608 120.1400010
  78.4770719  77.4036454 131.3089564  79.2180433  78.0043607 131.2294027
  78.7088642  76.6614092 130.7507607  73.6212058  82.5892821 129.5867794
  73.5065573  81.6878078 129.8874893  72.7656575  82.8356518 129.2352610
  80.7003895  90.5310561 131.1855294  80.2567749  89.7446940 130.8676199
  81.3621109  90.7189712 130.5199185  75.4591016  92.0606363 125.7115973
  76.0098442  91.9323426 124.9392967  74.6202492  92.3601252 125.3610866
  82.7985133  90.8113361 129.2136696  82.7803609  91.6322242 128.7216965
  83.7205053  90.6867437 129.4386837  79.2558187  88.3257491 130.0560204
  79.7886524  87.5645779 129.8259512  78.7272269  88.0331143 130.7984359
  82.4227882  73.4317557 125.5853846  82.0792152  74.3219198 125.5092956
  82.7906845  73.2419214 124.7223431  70.4913733  85.7551087 118.4042448
  71.3288955  86.1648096 118.1876156  70.6692001  84.8150529 118.3742642
  82.3878165  83.4226168 114.0926281  81.8724789  84.1930773 114.3314668
  82.1155474  82.7491304 114.7159342  79.9725276  78.2675869 119.1511519
  79.1166873  77.8782719 118.9717158  80.3852228  78.3467829 118.2911305
  81.5024423  75.8022212 123.5503079  80.9989218  75.7652347 122.7370884
  81.7955030  76.7114955 123.6099736  77.7467309  75.8860942 122.5569261
  78.6120305  75.6903750 122.1975150  77.8144818  75.6571293 123.4838618
  87.3612439  86.1758523 116.0279454  86.5841882  85.8369682 115.5834616
  88.0403920  86.1811146 115.3534419  82.1764468  81.2953260 115.9186062
  81.8714604  81.6099409 116.7696205  83.1294910  81.3734680 115.9613395
  80.6210900  87.4543483 117.5679016  80.0932262  86.7196243 117.2552254
  80.1198403  88.2318160 117.3218984  85.6003746  85.6492504 122.6846062
  84.9427421  86.3391765 122.7726191  86.4044145  86.0388936 123.0280049
  75.3529628  78.1163150 119.9285628  75.9273380  77.8938331 119.1958821
  75.9400610  78.1851844 120.6814229  84.4109205  84.0036876 120.7350004
  84.9241087  84.6366868 121.2371714  85.0610429  83.4038072 120.3693364
  75.6799215  80.1467611 113.9481513  74.8436527  80.4842297 114.2690788
  75.5403985  80.0116590 113.0108650  77.6552295  74.9904398 118.6560697
  77.0016708  74.6753416 118.0317312  77.6132770  74.3680139 119.3820520
  78.7663500  85.2723694 110.5713989  77.8590562  85.0412947 110.7705138
  79.2634532  84.4761313 110.7587971  81.6731579  93.9821201 113.4910675
  80.9993278  94.2852898 114.0995633  82.0597401  94.7850281 113.1416132
  80.8890036  81.4786332 122.9808345  79.9712597  81.7001279 122.8230033
  81.3050179  81.5532642 122.1220052  81.6725084  82.8777748 118.1111025
  82.4196903  83.3899145 117.8018147  81.9416673  82.5561800 118.9715418
  79.9451734  85.3736288 115.0937979  79.0362953  85.0895321 115.1910449
  79.9746818  85.7935367 114.2341286  85.1771001  88.9842878 118.8629147
  84.7233328  88.1433788 118.9194337  84.5464968  89.6204276 119.2003927
  84.1203921  79.9134864 120.0929814  83.3826678  79.4012250 120.4240057
  84.3730694  79.4735246 119.2813091  83.6203940  90.8219375 119.7978965
  83.9126915  91.3824432 119.0791331  84.1302561  91.1147936 120.5532124
  84.2215548  72.6911116 120.6871583  84.5274425  71.8308479 120.3997499
  84.9468153  73.2828736 120.4870577  70.5139904  83.0941803 119.0753181
  70.3164304  82.5011163 118.3504248  69.9586568  82.7894013 119.7929120
  78.4936628  82.9864909 121.1947775  78.5485238  82.0338745 121.1190251
  77.6827830  83.1424348 121.6789073  79.6427822  86.9145032 112.4326058
  79.2047252  86.1980891 111.9731695  80.3838262  87.1421147 111.8711149
  76.4328988  81.6041969 118.9538153  75.6196853  81.9036139 119.3603346
  76.9287982  81.2097658 119.6712636  78.5837566  91.5999726 120.8872418
  78.5413744  91.8260572 119.9580950  79.5000264  91.3663100 121.0358219
  82.0303199  82.0683793 127.7853047  82.3852587  82.2955266 128.6447513
  82.6775331  82.4002170 127.1630303  87.7600936  85.1902229 118.4902376
  87.6218835  85.3803825 117.5623566  87.4037155  85.9521612 118.9470427
  75.9243063  79.1760324 124.5699388  76.5642442  79.0349083 123.8722352
  75.0920593  78.8894838 124.1937990  87.7870316  87.2578756 123.5013648
  88.2206823  87.1654045 124.3496702  88.5001897  87.2336257 122.8633664
  76.7003366  88.4762755 120.6834381  77.4943965  87.9813075 120.4816956
  75.9895059  87.9480618 120.3202086  81.5198211  90.8580850 125.0346748
  81.5735233  91.4271787 125.8024464  80.6512992  91.0282735 124.6700786
  73.0086130  82.6205836 116.7594134  72.0783718  82.5590292 116.9764096
  73.1043602  82.0981789 115.9630775  72.9271679  79.1460649 119.3472375
  73.1878496  80.0605983 119.2381536  73.7488851  78.6785092 119.4968988
  74.3996604  80.5598406 126.5171200  75.0719658  80.3515769 125.8683849
  73.5726391  80.3620492 126.0776432  88.6485866  87.3002457 126.0346533
  88.8421756  88.2048267 126.2805808  88.5486484  86.8409876 126.8685118
  80.3022176  77.1860347 128.5336861  79.6550091  77.8850297 128.4401337
  81.0723192  77.6196491 128.9013109  83.7100974  87.4509200 131.6087414
  83.5586481  87.2219751 130.6917498  83.7005654  88.4079801 131.6218759
  80.4786311  85.0241112 126.5933680  81.4078371  85.1752272 126.4202648
  80.0577341  85.1125133 125.7382327  79.2774642  89.0491777 124.3632218
  79.1385728  88.6810561 125.2358156  78.4889239  89.5639416 124.1916176
  79.8722794  94.1500873 115.7057754  80.0474550  93.6788916 116.5203377
  79.1855582  94.7766639 115.9339015  80.8279858  88.4273379 121.7521056
  80.4929690  88.3874149 122.6478706  80.3283803  87.7618095 121.2791466
  74.8024102  83.8341009 127.2773637  74.6643899  83.1021248 127.8785176
  75.7129025  83.7449910 126.9957825  83.7639049  85.7729414 112.0258115
  83.1468220  85.0476242 111.9291168  83.2955538  86.5338774 111.6825190
  77.4306402  83.5460969 126.7657317  78.1406021  82.9054161 126.7243935
  77.3875710  83.7973864 127.6883497  85.4193181  90.4828322 129.6863896
  85.3605727  89.7987542 129.0194479  85.8212699  91.2247312 129.2344522
  76.1435336  80.5326187 128.5852956  75.6072693  80.0816925 129.2374552
  75.5552045  80.6672095 127.8423420  74.4383880  97.2990236 122.4797615
  74.6780478  97.9308760 123.1576633  73.5953076  96.9478276 122.7662974
  75.5537595  79.9914838 111.1479420  74.6767061  79.8703639 110.7841666
  76.0295348  79.2000916 110.8958308  85.4210588  88.4467906 127.9177875
  84.5337367  88.1093828 128.0404274  85.9909139  87.7150937 128.1546641
  67.0739735  84.7791998 121.2420927  67.7610775  84.4653728 120.6541942
  66.9187864  85.6833362 120.9688178  71.8774457  79.6682194 125.6705950
  71.7932646  79.0607864 124.9356360  71.0557164  80.1591213 125.6715447
  78.9511742  93.1069358 124.8839119  78.8781913  93.9124330 125.3958423
  78.5089135  93.3061324 124.0587140  78.7401521  92.3441128 118.3941940
  77.9569043  92.8862809 118.4880165  79.4394266  92.8615108 118.7936181
  82.0498171  78.1535758 121.0376146  82.5466871  77.4005720 120.7177216
  81.2785153  78.1900075 120.4719355  89.9027929  83.8576123 122.6794437
  89.8917805  84.7400839 122.3088370  89.0345308  83.5047674 122.4848974
  81.4110425  93.0056192 127.0397277  82.1238397  93.6403657 126.9673179
  80.9200454  93.1020058 126.2237279  83.1327952  86.9107445 118.6114569
  82.1984231  87.0308908 118.4419273  83.3104620  86.0079912 118.3474579
  78.6333140  80.2953141 120.7647830  78.2630928  79.7424181 121.4528736
  79.1292232  79.6911274 120.2122830  86.5200503  82.7524764 119.1464603
  86.9860956  83.5852756 119.0724906  86.9708004  82.2869746 119.8509862
  76.4622339  90.7550636 127.8602848  77.1631798  91.3887119 128.0132242
  75.9917454  91.0965367 127.0998487  84.5876734  89.0968586 116.1450755
  84.8636578  88.9825180 117.0544629  83.7181233  88.6986071 116.1062928
  84.4917166  75.1205351 123.1855504  83.5780246  75.3509578 123.3537711
  84.9210268  75.2043795 124.0369537  84.2623625  83.3095243 125.6855398
  83.6095075  83.5571151 125.0307851  84.6404004  82.4959382 125.3517876
  81.2230798  93.3454937 119.7883569  81.4053193  92.5276592 120.2511321
  82.0463784  93.5622629 119.3508459  81.5572964  92.2723122 117.0498617
  82.0860730  91.7615576 116.4368779  81.8201184  91.9565652 117.9144150
  80.3111198  84.0515054 132.1721436  79.6351835  83.9509184 132.8423811
  81.1338831  83.8954268 132.6357433  72.0590057  90.2886991 124.7933951
  72.6443493  89.5430679 124.9261855  71.8614895  90.5990948 125.6770615
  74.9128712  93.3238238 119.8096393  74.2439087  93.8084366 119.3260433
  74.7741582  93.5707459 120.7239772  66.6507711  82.8592591 123.5138394
  66.6891811  82.3256182 124.3075512  66.1448004  82.3327797 122.8949371
  79.0533980  95.3581982 126.4079052  79.6052288  95.5213603 127.1728137
  79.3940174  95.9486420 125.7359076  74.0298474  77.7057132 127.0100936
  74.0939800  78.5671963 126.5978334  73.9665594  77.0931133 126.2773295
  73.5050746  79.7780264 130.6573970  74.1322785  79.3957341 131.2711495
  72.6478665  79.5594466 131.0229663  83.9044855  90.1843239 132.2627706
  84.4484759  90.7973198 131.7682661  83.3231700  90.7422818 132.7794719
  70.2816289  81.5856693 116.5892325  70.5769730  80.6767372 116.5359379
  69.3804325  81.5644433 116.2673328  82.1902368  93.3063957 123.3942734
  82.0653507  92.5053697 122.8853679  82.8481459  93.8010151 122.9056704
  73.8110536  79.6612690 122.5719874  73.0897122  80.2748658 122.4327347
  74.6003792  80.1970455 122.4936520  84.2537276  91.1072977 125.0222284
  83.3067612  90.9878329 124.9500610  84.6020049  90.2195475 125.1048545
  76.6136849  76.9967116 128.8460526  77.1371251  77.2429413 129.6086835
  76.3949183  77.8287151 128.4263663  72.0104131  79.2670791 116.7131650
  71.6816837  78.3868170 116.5306756  72.3643501  79.2118460 117.6008040
  81.2583709  90.9025694 121.2226636  81.1108672  89.9742401 121.4034206
  82.0837203  90.9245784 120.7383711  75.1245954  79.5543761 117.0807128
  75.4642026  80.0829682 116.3585736  75.5718074  79.8924167 117.8565695
  84.8617831  91.7254252 122.3091509  85.7864379  91.5197114 122.1715960
  84.6933135  91.4770654 123.2180850  77.8189395  77.9380811 126.5310196
  77.4786215  77.1388625 126.9330876  77.1128401  78.2382522 125.9587029
  78.4705866  75.0230124 124.9837519  79.2931936  74.5490602 124.8616410
  78.7143930  75.8020608 125.4836205  77.1114101  78.0518382 115.2800421
  77.8322463  78.4299635 114.7764138  76.4879405  78.7707259 115.3835399
  81.2545224  78.7563531 116.2158753  81.4708838  79.6388169 115.9147581
  80.7739291  78.3649745 115.4864395  75.9944445  81.7149245 122.7929498
  75.8489026  82.0289548 123.6853779  75.5169649  82.3334145 122.2400396
  77.8540828  78.7051793 122.8410387  77.8402397  77.8092886 122.5042685
  78.5713256  78.7122456 123.4748673  79.7066959  79.1389133 124.8863515
  79.4484737  80.0606203 124.8847845  79.1751999  78.7419567 125.5763979
  84.6513147  92.2439920 117.6653600  84.8250025  91.6786342 116.9127453
  85.1442039  93.0440815 117.4833090  70.4690107  84.2554589 125.7317159
  69.9243575  85.0314397 125.8637433  71.3469457  84.6025393 125.5736280
  77.2577724  77.5866173 118.1097958  77.3793635  76.6582819 118.3088845
  76.9679766  77.6004859 117.1976273  80.1268914  75.2721083 121.2464677
  80.1490611  75.3360416 120.2916657  80.5436973  74.4325592 121.4405184
  90.5052539  85.0076343 119.2843900  90.9483685  84.2583668 118.8863023
  89.6279049  84.9986479 118.9017632  85.6388320  91.5606684 114.7650498
  86.3339225  92.1813377 114.9837813  85.9811470  90.7102035 115.0402876
  71.2556129  83.3824485 128.6247316  70.5137865  83.5307121 129.2111946
  70.9348873  83.6432751 127.7614065  87.5379743  89.0106390 116.2937829
  88.0631067  89.3493663 115.5687149  87.4502096  88.0753405 116.1100964
  79.1999792  92.9240463 128.4227706  79.5086918  92.6789610 129.2950405
  79.9975274  93.1287102 127.9346576  79.2220404  95.0778373 120.6533082
  78.7825394  94.5854752 121.3465939  79.9728521  94.5351341 120.4125158
  71.7012743  91.2689914 120.6557710  72.5270763  90.9693686 120.2756354
  71.3506795  90.4997536 121.1047499  76.6694276  90.6216382 122.7255384
  76.0474285  89.9587087 122.4257612  77.3399143  90.6477514 122.0429032
  69.9021348  89.1876240 121.6146644  69.0653256  88.7598415 121.4330645
  69.8744993  89.3808684 122.5517435  76.7418803  79.0998170 132.3187890
  76.7906959  79.9760293 131.9365660  77.2841318  78.5575563 131.7459533
  87.2273649  89.6439293 131.5989027  86.4369193  89.6263432 131.0593527
  86.9907004  90.1827587 132.3538064  87.3471524  86.4931760 128.9121756
  87.3969529  86.3281767 129.8537279  87.2385448  85.6259019 128.5219637
  76.2307783  89.1720305 116.2013845  76.3795903  89.8555770 115.5480517
  77.0374226  89.1525396 116.7163300  84.6375287  82.4762688 130.2281062
  85.5385149  82.3369153 129.9365060  84.7123261  82.6417143 131.1679240
  78.9718092  79.8529543 129.0734249  78.1021401  80.1463109 128.8016837
  79.2077572  80.4369988 129.7941512  88.8489721  88.9128701 129.1563777
  88.5574529  89.2758682 129.9927238  88.2361852  88.1995710 128.9777109
  90.0485403  86.4781581 121.6766348  90.8832295  86.9171385 121.8403908
  90.1844532  86.0020234 120.8574593  87.0976909  84.0361316 127.6243835
  87.5731031  84.2288962 126.8162687  86.1742475  84.0920502 127.3787219
  73.9860416  85.1985483 117.2074914  73.7406458  84.2947813 117.4055124
  74.1556330  85.2002634 116.2654392  81.6757126  76.0709160 126.5899669
  82.1939070  76.8070186 126.2646158  81.3212259  76.3773153 127.4246428
  73.2556063  80.9313841 114.7061075  72.5625308  81.0058196 114.0501111
  73.0107815  80.1674184 115.2282592  81.9269720  72.4909442 122.1100566
  82.2071474  71.8232631 122.7360992  82.7120327  72.6838538 121.5975230
  79.7303188  91.6668436 113.6725592  79.1577155  92.2858623 113.2196064
  80.3035982  92.2167798 114.2065514  85.7978578  80.9127076 125.8572141
  86.7496001  81.0125174 125.8784365  85.6282029  80.1205345 126.3670225
  83.8192958  77.9982659 126.0431542  83.2242890  78.2787672 125.3478030
  83.5342654  78.4876560 126.8148283  82.9500448  91.9505586 114.8034174
  83.8831121  91.8851148 115.0067050  82.8623661  92.7861853 114.3448707
  88.2766656  84.1333196 124.9714441  88.2442976  83.1949196 125.1574124
  88.8867280  84.2117232 124.2380265  88.4261145  80.9244239 125.0172724
  87.9100193  80.1402696 124.8302653  89.3101093  80.5962956 125.1819243
  86.0871871  74.6685255 120.9768536  85.8896693  74.3600343 121.8611868
  86.6971577  75.3946894 121.1066466  94.0943206  85.1949203 124.1120477
  94.8246594  84.9334491 124.6728181  93.4850151  84.4577924 124.1522545
  92.1758503  83.3357065 124.7094929  91.4491667  83.2013030 124.1011420
  91.7605790  83.6433894 125.5151647  79.9988679  87.0546995 132.4742302
  80.9191689  87.2325594 132.6682348  79.9638262  86.1103040 132.3222001
  78.2992904  80.9279225 110.9496530  77.3924359  80.6312338 111.0259243
  78.5768885  80.6309043 110.0830816  69.2170844  82.2485588 121.3995576
  68.8973629  81.3950897 121.1069950  68.6704273  82.4634167 122.1553544
  72.9950752  84.9648029 125.1165083  73.2136762  85.8965137 125.1353117
  73.4076526  84.6056004 125.9019887  79.9154970  75.4716115 117.1040771
  79.1055698  75.1263200 117.4796017  80.6039387  75.1623659 117.6928383
  81.8445518  74.5494162 118.7265068  82.3976557  74.9689615 119.3855091
  82.0815604  73.6229910 118.7688024  77.8678617  80.5381235 134.5067832
  77.7675344  81.4875592 134.4379923  77.6500159  80.2099474 133.6343902
  77.0691689  77.7866160 111.0908509  77.9310853  78.1121059 111.3504326
  77.2542033  76.9997656 110.5781575  69.0859104  85.8688500 123.3688698
  68.3922576  85.4542453 122.8558652  69.8332095  85.9109036 122.7722117
  85.2224325  76.6594687 118.2343732  84.6422994  77.3179491 117.8521784
  84.9560258  75.8372031 117.8231149  83.6727892  76.0599744 120.4365052
  84.1727670  76.1716279 119.6279371  84.3163499  75.7560797 121.0765861
  77.7309887  83.9678374 133.3232893  77.2476969  84.7678734 133.5296782
  77.8170826  83.9786319 132.3700337  70.9995847  85.8006754 121.2454713
  70.9766535  85.8994441 120.2936596  71.3096483  86.6471905 121.5671879
  73.6583225  87.8582909 125.3601327  74.6126478  87.8266851 125.2931259
  73.4595748  87.3973533 126.1751553  74.2482607  86.4284025 127.9272125
  75.0675496  86.9228103 127.9506962  74.5219415  85.5115993 127.8989692
  84.0049203  78.8194777 117.2900080  83.1175058  79.1044428 117.0720275
  84.4203192  78.6588541 116.4427357  87.3563739  78.8441298 121.0054419
  88.1324129  79.3337751 121.2779036  86.6311873  79.2699352 121.4626289
  89.7936298  79.5568917 122.0628360  90.3880789  79.3164653 121.3521668
  89.8662882  78.8376048 122.6901896  72.0133454  93.4002528 122.3771525
  71.8787922  92.6402929 121.8109523  71.5965516  94.1243428 121.9100314
  83.1492417  88.5839452 111.3848100  83.8528267  88.7889454 112.0005756
  82.4255065  89.1516214 111.6497184  83.9790227  84.3349313 117.5050370
  83.9225428  84.7917864 116.6658003  84.5318569  83.5739998 117.3273213
  87.7895033  80.1239045 118.3300490  87.5331967  79.7235681 119.1608698
  87.1647901  80.8382839 118.2050629  92.1007371  82.8635118 120.8371781
  91.5406929  82.9328307 121.6103343  91.4950874  82.6876103 120.1171278
  75.1702580  94.2971845 122.5889968  75.0534964  95.2417278 122.4868658
  74.3495026  93.9945407 122.9775767  85.0579114  89.0221981 113.4346560
  85.8924718  88.5903179 113.2524035  84.8963457  88.8503995 114.3623455
  84.7125006  85.5254094 114.8002900  84.6573810  85.3598366 113.8591344
  84.0871062  86.2330127 114.9565089  69.5017521  80.7622159 128.6264322
  70.1476385  80.2521113 129.1151547  69.2934672  81.4990840 129.2007747
  82.0270913  87.8303006 134.1256462  82.8962073  88.0043658 133.7643097
  81.5477665  88.6497423 134.0032192  78.0221132  75.0262203 114.3788218
  78.0099802  75.9704043 114.5356489  78.9144554  74.8432349 114.0847679
  76.1957094  94.9500107 125.8045896  77.0984340  94.9823717 126.1212391
  75.9694464  94.0200558 125.8192232  77.9510696  93.7031094 122.4655975
  77.0006327  93.7032955 122.3520347  78.2543182  92.9563828 121.9492009
  81.8373251  71.6204980 118.6334155  81.0705647  71.0663467 118.7790837
  82.2483956  71.6926849 119.4948306  73.8415012  77.9089776 132.7239336
  74.7046474  77.5526581 132.9342661  73.2680423  77.5703671 133.4114740
  93.6863389  99.5391632 123.5301737  94.3241799  99.4198379 122.8265077
  93.5684232 100.4872476 123.5889689  90.4953095  99.4919060 123.4663262
  90.1571607  99.3760125 122.5783797  91.3642864  99.0910225 123.4464268
  86.3539911 101.3454537 119.4560153  85.7904776 101.2544474 118.6876440
  86.2392306 100.5254441 119.9362645  83.9004343 102.8405728 122.2944373
  84.6925635 102.4996553 121.8790672  84.1400993 102.9500703 123.2146526
  91.9339470 105.0125504 114.7674618  91.2827450 105.5979585 114.3808631
  92.7283833 105.5431699 114.8269655  85.8595097 102.1014641 115.1661752
  86.6325973 101.5543629 115.0274628  86.2120496 102.9658891 115.3776213
  88.6236346 100.8067872 124.9630011  89.2199919 100.5823895 124.2486974
  88.6811318 100.0652618 125.5655459  88.1961375  98.2607308 112.7980202
  88.4486895  97.7388829 112.0363665  87.2585934  98.0973453 112.9006885
  93.2404658  97.2643086 120.6054945  94.0267747  96.8462509 120.2545362
  93.5043362  98.1689178 120.7736593  93.4114735 102.7015936 115.3043602
  92.7760568 102.7750563 116.0164507  93.0812141 103.2909535 114.6262681
  98.6413085  97.2018319 121.5087924  99.3738257  96.6317536 121.7425753
  97.8852440  96.8139920 121.9494429  87.9157664 100.1635414 115.0004577
  87.7993922  99.4880317 115.6685661  88.0259923  99.6767787 114.1836730
  90.2589204  99.6245561 118.7051266  89.8947412  99.0976182 119.4164188
  91.1156320  99.2344030 118.5317751  96.1638505  90.9139893 125.9682532
  95.8321830  91.7835304 125.7443747  95.5684118  90.5976177 126.6476563
  89.8994691  94.6535460 113.7012615  90.0669094  95.5215697 114.0683086
  89.7091861  94.8162742 112.7773904  86.1082506  99.5666236 121.4015149
  85.1833003  99.4342450 121.6092841  86.3566919 100.3460455 121.8985092
  96.0567168  95.6334979 123.0475882  95.1484046  95.5650388 122.7534643
  96.0054764  96.1106924 123.8757708  89.8783912  97.1093118 114.6859281
  89.7583538  97.5550169 115.5244762  89.1836501  97.4578436 114.1272820
  83.4691317  99.2099510 122.2358938  83.5983698  99.4633989 123.1498350
  82.7888768  99.8027218 121.9163593  87.6390804 109.8796760 118.3349413
  87.5614834 110.8304585 118.4137893  87.0352448 109.5342632 118.9924339
  97.9228815  93.8351418 124.8253756  97.2803195  94.1283951 124.1793551
  97.4183743  93.7204338 125.6306953  95.5768978  97.5814591 115.5139615
  96.4886835  97.8141978 115.3387313  95.0678626  98.1651635 114.9514694
  90.2140816  96.9411826 126.5234465  91.0602011  97.3651239 126.6669114
  90.1539454  96.2845450 127.2173028  92.9204953  93.7572627 123.7629476
  92.0589432  94.0553881 124.0546214  92.9467388  93.9743026 122.8310509
  89.7366523 102.3014818 120.1703282  90.2004868 102.5802521 119.3807904
  89.4723321 101.3998262 119.9876373  86.6290604 101.8486299 123.1083045
  87.1991961 102.2773567 122.4700530  87.2198716 101.5668884 123.8067231
  88.6735409  98.4237970 116.9792847  89.3759452  98.8759014 117.4466773
  88.3416037  97.7821789 117.6072740  82.4160743  96.6821523 122.2809981
  81.6259797  96.9379051 121.8050091  82.9071990  97.4969860 122.3862021
  84.3675488  97.0466102 119.2393457  83.5706651  97.1584796 119.7576953
  84.1401080  97.3852754 118.3734348  80.6998446  96.9352013 124.7124971
  80.9506484  97.8199023 124.9782547  81.2357994  96.7556615 123.9400063
  89.9129173 105.2378913 117.0554952  89.7774848 106.0830448 117.4839800
  90.4538986 105.4398190 116.2920886  83.3658571 102.7554351 117.6282877
  83.8783091 103.5497601 117.7788442  84.0181284 102.0580641 117.5616479
  85.1753455 105.8720107 119.7105631  85.3520084 106.7938072 119.5226614
  85.9710289 105.5578526 120.1400010  84.4605812  97.9184739 129.5867794
  84.3459327  97.0169996 129.8874893  83.6050330  98.1648436 129.2352610
  93.2621637  88.7609474 125.5853846  92.9185906  89.6511116 125.5092956
  93.6300600  88.5711132 124.7223431  81.3307488 101.0843005 118.4042448
  82.1682710 101.4940013 118.1876156  81.5085755 100.1442447 118.3742642
  93.2271920  98.7518086 114.0926281  92.7118543  99.5222690 114.3314668
  92.9549228  98.0783222 114.7159342  90.8119031  93.5967786 119.1511519
  89.9560627  93.2074637 118.9717158  91.2245982  93.6759747 118.2911305
  92.3418177  91.1314130 123.5503079  91.8382973  91.0944265 122.7370884
  92.6348784  92.0406872 123.6099736  88.5861063  91.2152859 122.5569261
  89.4514060  91.0195668 122.1975150  88.6538572  90.9863211 123.4838618
  98.2006194 101.5050440 116.0279454  97.4235637 101.1661600 115.5834616
  98.8797675 101.5103063 115.3534419  93.0158223  96.6245178 115.9186062
  92.7108358  96.9391327 116.7696205  93.9688665  96.7026598 115.9613395
  91.4604655 102.7835401 117.5679016  90.9326016 102.0488161 117.2552254
  90.9592157 103.5610077 117.3218984  86.1923382  93.4455067 119.9285628
  86.7667134  93.2230249 119.1958821  86.7794365  93.5143762 120.6814229
  95.2502959  99.3328794 120.7350004  95.7634841  99.9658786 121.2371714
  95.9004183  98.7329990 120.3693364  86.5192969  95.4759528 113.9481513
  85.6830282  95.8134215 114.2690788  86.3797739  95.3408508 113.0108650
  88.4946050  90.3196316 118.6560697  87.8410462  90.0045333 118.0317312
  88.4526524  89.6972057 119.3820520  89.6057255 100.6015611 110.5713989
  88.6984317 100.3704865 110.7705138  90.1028287  99.8053230 110.7587971
  92.5125334 109.3113118 113.4910675  91.8387032 109.6144815 114.0995633
  92.8991156 110.1142199 113.1416132  91.7283790  96.8078250 122.9808345
  90.8106352  97.0293197 122.8230033  92.1443934  96.8824560 122.1220052
  92.5118838  98.2069665 118.1111025  93.2590657  98.7191063 117.8018147
  92.7810428  97.8853718 118.9715418  90.7845488 100.7028206 115.0937979
  89.8756708 100.4187239 115.1910449  90.8140572 101.1227285 114.2341286
  96.0164756 104.3134796 118.8629147  95.5627083 103.4725705 118.9194337
  95.3858722 104.9496194 119.2003927  94.9597675  95.2426782 120.0929814
  94.2220432  94.7304168 120.4240057  95.2124449  94.8027163 119.2813091
  94.4597695 106.1511292 119.7978965  94.7520669 106.7116349 119.0791331
  94.9696316 106.4439853 120.5532124  95.0609303  88.0203034 120.6871583
  95.3668179  87.1600397 120.3997499  95.7861907  88.6120654 120.4870577
  81.3533659  98.4233720 119.0753181  81.1558058  97.8303081 118.3504248
  80.7980323  98.1185930 119.7929120  89.3330382  98.3156827 121.1947775
  89.3878992  97.3630663 121.1190251  88.5221584  98.4716266 121.6789073
  90.4821576 102.2436950 112.4326058  90.0441006 101.5272809 111.9731695
  91.2232017 102.4713065 111.8711149  87.2722742  96.9333886 118.9538153
  86.4590608  97.2328057 119.3603346  87.7681736  96.5389575 119.6712636
  89.4231320 106.9291643 120.8872418  89.3807499 107.1552490 119.9580950
  90.3394019 106.6955018 121.0358219  98.5994691 100.5194147 118.4902376
  98.4612589 100.7095743 117.5623566  98.2430910 101.2813530 118.9470427
  86.7636817  94.5052242 124.5699388  87.4036196  94.3641001 123.8722352
  85.9314348  94.2186755 124.1937990  87.5397121 103.8054672 120.6834381
  88.3337719 103.3104993 120.4816956  86.8288813 103.2772536 120.3202086
  83.8479884  97.9497754 116.7594134  82.9177472  97.8882210 116.9764096
  83.9437356  97.4273707 115.9630775  83.7665433  94.4752567 119.3472375
  84.0272251  95.3897900 119.2381536  84.5882606  94.0077010 119.4968988
  85.2390359  95.8890324 126.5171200  85.9113412  95.6807686 125.8683849
  84.4120145  95.6912410 126.0776432  91.1415931  92.5152265 128.5336861
  90.4943846  93.2142215 128.4401337  91.9116946  92.9488409 128.9013109
  90.7116549 109.4792791 115.7057754  90.8868305 109.0080834 116.5203377
  90.0249337 110.1058557 115.9339015  91.6673612 103.7565297 121.7521056
  91.3323445 103.7166067 122.6478706  91.1677558 103.0910013 121.2791466
  85.6417856  99.1632927 127.2773637  85.5037654  98.4313166 127.8785176
  86.5522779  99.0741827 126.9957825  88.2700157  98.8752886 126.7657317
  88.9799775  98.2346079 126.7243935  88.2269465  99.1265781 127.6883497
  86.9829091  95.8618104 128.5852956  86.4466448  95.4108843 129.2374552
  86.3945799  95.9964013 127.8423420  86.3931350  95.3206756 111.1479420
  85.5160816  95.1995557 110.7841666  86.8689103  94.5292834 110.8958308
  77.9133490 100.1083915 121.2420927  78.6004530  99.7945645 120.6541942
  77.7581618 101.0125280 120.9688178  82.7168212  94.9974112 125.6705950
  82.6326401  94.3899782 124.9356360  81.8950918  95.4883130 125.6715447
  89.5795276 107.6733046 118.3941940  88.7962798 108.2154726 118.4880165
  90.2788021 108.1907026 118.7936181  92.8891926  93.4827676 121.0376146
  93.3860625  92.7297638 120.7177216  92.1178907  93.5191992 120.4719355
  93.9721706 102.2399363 118.6114569  93.0377985 102.3600825 118.4419273
  94.1498375 101.3371830 118.3474579  89.4726895  95.6245059 120.7647830
  89.1024682  95.0716099 121.4528736  89.9685987  95.0203192 120.2122830
  97.3594258  98.0816682 119.1464603  97.8254710  98.9144674 119.0724906
  97.8101758  97.6161664 119.8509862  95.4270489 104.4260503 116.1450755
  95.7030333 104.3117098 117.0544629  94.5574988 104.0277988 116.1062928
  95.3310921  90.4497269 123.1855504  94.4174000  90.6801496 123.3537711
  95.7604022  90.5335713 124.0369537  92.0624553 108.6746854 119.7883569
  92.2446947 107.8568510 120.2511321  92.8857539 108.8914546 119.3508459
  92.3966718 107.6015039 117.0498617  92.9254485 107.0907494 116.4368779
  92.6594938 107.2857570 117.9144150  82.8983811 105.6178909 124.7933951
  83.4837248 104.8722597 124.9261855  82.7008650 105.9282865 125.6770615
  85.7522466 108.6530156 119.8096393  85.0832842 109.1376284 119.3260433
  85.6135336 108.8999376 120.7239772  77.4901466  98.1884509 123.5138394
  77.5285565  97.6548100 124.3075512  76.9841759  97.6619714 122.8949371
  84.8692228  93.0349049 127.0100936  84.9333555  93.8963880 126.5978334
  84.8059348  92.4223051 126.2773295  84.3444501  95.1072182 130.6573970
  84.9716540  94.7249259 131.2711495  83.4872420  94.8886384 131.0229663
  81.1210043  96.9148611 116.5892325  81.4163485  96.0059289 116.5359379
  80.2198079  96.8936350 116.2673328  84.6504290  94.9904608 122.5719874
  83.9290876  95.6040575 122.4327347  85.4397546  95.5262372 122.4936520
  87.4530604  92.3259034 128.8460526  87.9765006  92.5721331 129.6086835
  87.2342937  93.1579069 128.4263663  82.8497885  94.5962709 116.7131650
  82.5210591  93.7160088 116.5306756  83.2037256  94.5410377 117.6008040
  92.0977464 106.2317611 121.2226636  91.9502426 105.3034319 121.4034206
  92.9230957 106.2537702 120.7383711  85.9639708  94.8835678 117.0807128
  86.3035781  95.4121600 116.3585736  86.4111829  95.2216085 117.8565695
  88.6583149  93.2672729 126.5310196  88.3179969  92.4680542 126.9330876
  87.9522155  93.5674440 125.9587029  89.3099621  90.3522042 124.9837519
  90.1325690  89.8782520 124.8616410  89.5537684  91.1312525 125.4836205
  87.9507855  93.3810300 115.2800421  88.6716218  93.7591553 114.7764138
  87.3273159  94.0999177 115.3835399  92.0938978  94.0855449 116.2158753
  92.3102593  94.9680087 115.9147581  91.6133045  93.6941662 115.4864395
  86.8338200  97.0441162 122.7929498  86.6882780  97.3581465 123.6853779
  86.3563403  97.6626063 122.2400396  88.6934582  94.0343710 122.8410387
  88.6796151  93.1384804 122.5042685  89.4107011  94.0414374 123.4748673
  90.5460713  94.4681050 124.8863515  90.2878491  95.3898121 124.8847845
  90.0145754  94.0711485 125.5763979  95.4906902 107.5731838 117.6653600
  95.6643779 107.0078260 116.9127453  95.9835793 108.3732732 117.4833090
  81.3083862  99.5846507 125.7317159  80.7637330 100.3606315 125.8637433
  82.1863212  99.9317311 125.5736280  88.0971478  92.9158090 118.1097958
  88.2187390  91.9874737 118.3088845  87.8073521  92.9296776 117.1976273
  90.9662669  90.6013001 121.2464677  90.9884366  90.6652334 120.2916657
  91.3830728  89.7617510 121.4405184 101.3446293 100.3368260 119.2843900
 101.7877439  99.5875586 118.8863023 100.4672803 100.3278397 118.9017632
  96.4782074 106.8898602 114.7650498  97.1732979 107.5105295 114.9837813
  96.8205225 106.0393953 115.0402876  82.0949884  98.7116403 128.6247316
  81.3531620  98.8599038 129.2111946  81.7742628  98.9724668 127.7614065
  98.3773498 104.3398307 116.2937829  98.9024822 104.6785580 115.5687149
  98.2895850 103.4045323 116.1100964  82.5406497 106.5981832 120.6557710
  83.3664517 106.2985603 120.2756354  82.1900549 105.8289454 121.1047499
  87.5088030 105.9508300 122.7255384  86.8868040 105.2879005 122.4257612
  88.1792897 105.9769432 122.0429032  80.7415102 104.5168158 121.6146644
  79.9047011 104.0890332 121.4330645  80.7138748 104.7100601 122.5517435
  87.0701537 104.5012223 116.2013845  87.2189658 105.1847688 115.5480517
  87.8767981 104.4817313 116.7163300  84.8254170 100.5277401 117.2074914
  84.5800212  99.6239731 117.4055124  84.9950085 100.5294551 116.2654392
  92.5150880  91.4001077 126.5899669  93.0332824  92.1362104 126.2646158
  92.1606013  91.7065070 127.4246428  84.0949818  96.2605758 114.7061075
  83.4019063  96.3350113 114.0501111  83.8501570  95.4966102 115.2282592
  92.7663474  87.8201360 122.1100566  93.0465228  87.1524549 122.7360992
  93.5514081  88.0130455 121.5975230  90.5696943 106.9960354 113.6725592
  89.9970910 107.6150541 113.2196064  91.1429737 107.5459715 114.2065514
  94.6586712  93.3274577 126.0431542  94.0636644  93.6079590 125.3478030
  94.3736409  93.8168478 126.8148283  93.7894203 107.2797504 114.8034174
  94.7224876 107.2143065 115.0067050  93.7017416 108.1153771 114.3448707
  96.4182219 106.5963374 111.7638122  96.3395851 106.2623238 112.6573880
  97.2391886 107.0885142 111.7629594  90.9543741  98.3321166 111.0141645
  91.9002846  98.2027374 111.0830063  90.5757986  97.5935828 111.4911073
  96.9265626  89.9977172 120.9768536  96.7290447  89.6892261 121.8611868
  97.5365332  90.7238811 121.1066466  89.1386659  96.2571143 110.9496530
  88.2318114  95.9604255 111.0259243  89.4162640  95.9600961 110.0830816
  80.0564599  97.5777506 121.3995576  79.7367383  96.7242814 121.1069950
  79.5098027  97.7926084 122.1553544  83.8344506 100.2939947 125.1165083
  84.0530516 101.2257055 125.1353117  84.2470280  99.9347922 125.9019887
  90.7548724  90.8008032 117.1040771  89.9449453  90.4555117 117.4796017
  91.4433141  90.4915576 117.6928383  92.6839273  89.8786079 118.7265068
  93.2370311  90.2981533 119.3855091  92.9209359  88.9521827 118.7688024
  79.9252859 101.1980418 123.3688698  79.2316330 100.7834370 122.8558652
  80.6725850 101.2400954 122.7722117  96.0618080  91.9886604 118.2343732
  95.4816749  92.6471408 117.8521784  95.7954012  91.1663949 117.8231149
  94.5121646  91.3891662 120.4365052  95.0121424  91.5008197 119.6279371
  95.1557254  91.0852715 121.0765861  81.8389601 101.1298671 121.2454713
  81.8160290 101.2286359 120.2936596  82.1490238 101.9763822 121.5671879
  84.4976979 103.1874826 125.3601327  85.4520233 103.1558769 125.2931259
  84.2989503 102.7265450 126.1751553  94.8442958  94.1486695 117.2900080
  93.9568813  94.4336345 117.0720275  95.2596947  93.9880458 116.4427357
  98.1957494  94.1733216 121.0054419  98.9717884  94.6629668 121.2779036
  97.4705628  94.5991270 121.4626289 100.6330052  94.8860835 122.0628360
 101.2274543  94.6456571 121.3521668 100.7056636  94.1667966 122.6901896
  82.8527208 108.7294446 122.3771525  82.7181676 107.9694847 121.8109523
  82.4359270 109.4535346 121.9100314  94.8183981  99.6641231 117.5050370
  94.7619183 100.1209782 116.6658003  95.3712324  98.9031915 117.3273213
  98.6288787  95.4530963 118.3300490  98.3725722  95.0527598 119.1608698
  98.0041655  96.1674757 118.2050629 102.9401125  98.1927036 120.8371781
 102.3800683  98.2620225 121.6103343 102.3344629  98.0168020 120.1171278
  95.8972869 104.3513899 113.4346560  96.7318472 103.9195097 113.2524035
  95.7357211 104.1795912 114.3623455  95.5518761 100.8546012 114.8002900
  95.4967565 100.6890283 113.8591344  94.9264816 101.5622045 114.9565089
  80.3411276  96.0914076 128.6264322  80.9870139  95.5813030 129.1151547
  80.1328427  96.8282758 129.2007747  88.8614886  90.3554121 114.3788218
  88.8493556  91.2995961 114.5356489  89.7538308  90.1724266 114.0847679
  92.6767006  86.9496898 118.6334155  91.9099401  86.3955384 118.7790837
  93.0877711  87.0218766 119.4948306  99.0355129 113.5899225 112.7980202
  99.2880650 113.0680747 112.0363665  98.0979688 113.4265371 112.9006885
 100.7388446 109.9827378 113.7012615 100.9062848 110.8507614 114.0683086
 100.5485615 110.1454660 112.7773904  97.3586724 110.8051446 113.9481513
  96.5224036 111.1426132 114.2690788  97.2191494 110.6700426 113.0108650
  99.3339804 105.6488234 118.6560697  98.6804217 105.3337251 118.0317312
  99.2920279 105.0263974 119.3820520 100.4451009 115.9307529 110.5713989
  99.5378071 115.6996782 110.7705138 100.9422041 115.1345148 110.7587971
  94.6873639 113.2789672 116.7594134  93.7571227 113.2174127 116.9764096
  94.7831111 112.7565625 115.9630775  97.2325104 110.6498673 111.1479420
  96.3554570 110.5287474 110.7841666  97.7082857 109.8584752 110.8958308
  91.9603798 112.2440529 116.5892325  92.2557239 111.3351207 116.5359379
  91.0591834 112.2228268 116.2673328  93.6891640 109.9254626 116.7131650
  93.3604346 109.0452005 116.5306756  94.0431010 109.8702295 117.6008040
  98.7901610 108.7102218 115.2800421  99.5109972 109.0883470 114.7764138
  98.1666914 109.4291095 115.3835399  98.9365233 108.2450008 118.1097958
  99.0581144 107.3166654 118.3088845  98.6467275 108.2588694 117.1976273
  94.9343572 111.5897676 114.7061075  94.2412817 111.6642031 114.0501111
  94.6895324 110.8258020 115.2282592 101.7937496 113.6613084 111.0141645
 102.7396601 113.5319292 111.0830063 101.4151741 112.9227746 111.4911073
  99.9780413 111.5863060 110.9496530  99.0711868 111.2896173 111.0259243
 100.2556394 111.2892879 110.0830816 101.5942479 106.1299950 117.1040771
 100.7843207 105.7847035 117.4796017 102.2826896 105.8207494 117.6928383
  98.7479198 108.4449996 111.0908509  99.6098362 108.7704894 111.3504326
  98.9329542 107.6581492 110.5781575  99.7008641 105.6846039 114.3788218
  99.6887311 106.6287879 114.5356489 100.5932063 105.5016184 114.0847679
 103.5160760 102.2788815 118.6334155 102.7493156 101.7247302 118.7790837
 103.9271465 102.3510684 119.4948306  37.7370699   5.3728039 101.4919924
  37.0858678   5.9582119 101.1053938  38.5315061   5.9034233 101.5514962
  44.0037423   1.8652974 102.7524761  43.2266865   1.5264134 102.3079923
  44.6828904   1.8705598 102.0779726  35.4088484   0.9618145  97.2959296
  34.5015545   0.7307399  97.4950445  35.9059516   0.1655765  97.4833277
  38.3156563   9.6715653 100.2155982  37.6418261   9.9747349 100.8240940
  38.7022384  10.4744733  99.8661439  36.2852805   2.6039484  99.1571364
  35.8472235   1.8875343  98.6977002  37.0263246   2.8315599  98.5956456
  36.5147778   9.8395325 102.4303061  36.6899533   9.3683368 103.2448684
  35.8280566  10.4661091 102.6584322  40.4064032   1.4623866  98.7503422
  39.7893203   0.7370694  98.6536475  39.9380521   2.2233226  98.4070496
  41.2301718   4.7863038 102.8696062  41.5061562   4.6719632 103.7789936
  40.3606216   4.3880522 102.8308235  38.1997947   7.9617574 103.7743924
  38.7285714   7.4510028 103.1614086  38.4626167   7.6460104 104.6389457
  41.2938131   7.9334372 104.3898907  41.4675008   7.3680794 103.6372759
  41.7867022   8.7335267 104.2078397  42.2813303   7.2501136 101.4895805
  42.9764208   7.8707829 101.7083120  42.6236453   6.3996487 101.7648183
  44.1804726   4.7000842 103.0183136  44.7056050   5.0388114 102.2932456
  44.0927079   3.7647857 102.8346271  36.3728172   7.3562888 100.3970899
  35.8002139   7.9753075  99.9441371  36.9460965   7.9062250 100.9310821
  39.5925431   7.6400038 101.5279481  40.5256105   7.5745600 101.7312356
  39.5048644   8.4756305 101.0694014  42.2213448   6.9565908  98.4883429
  42.1427080   6.6225772  99.3819186  43.0423115   7.4487676  98.4874901
  36.7574970  -1.3076299  97.7386951  37.7034075  -1.4370091  97.8075369
  36.3789215  -2.0461638  98.2156379  39.7917400   4.2733904  98.1093407
  40.4953250   4.4783906  98.7251062  39.0680049   4.8410666  98.3742490
  41.7004097   4.7116433 100.1591867  42.5349701   4.2797631  99.9769342
  41.5388440   4.5398447 101.0868761  41.3549990   1.2148546 101.5248206
  41.2998793   1.0492818 100.5836650  40.7296045   1.9224579 101.6810396
  50.3288372  15.2286084 110.2547044  50.9666782  15.1092831 109.5510384
  50.2109215  16.1766928 110.3134996  47.1378079  15.1813512 110.1908568
  46.7996590  15.0654577 109.3029103  48.0067847  14.7804677 110.1709574
  42.9964894  17.0348989 106.1805459  42.4329760  16.9438925 105.4121747
  42.8817289  16.2148893 106.6607952  40.5429326  18.5300180 109.0189680
  41.3350618  18.1891005 108.6035979  40.7825977  18.6395155 109.9391833
  48.5764453  20.7019956 101.4919924  47.9252433  21.2874037 101.1053938
  49.3708816  21.2326151 101.5514962  42.5020080  17.7909093 101.8907059
  43.2750956  17.2438080 101.7519934  42.8545479  18.6553343 102.1021520
  45.2661330  16.4962324 111.6875318  45.8624902  16.2718347 110.9732280
  45.3236301  15.7547070 112.2900765  44.8386358  13.9501760  99.5225508
  45.0911879  13.4283281  98.7608971  43.9010917  13.7867905  99.6252192
  49.8829641  12.9537538 107.3300252  50.6692730  12.5356961 106.9790669
  50.1468345  13.8583630 107.4981900  50.0539718  18.3910388 102.0288909
  49.4185551  18.4645015 102.7409813  49.7237125  18.9803987 101.3507988
  55.2838068  12.8912771 108.2333230  56.0163240  12.3211988 108.4671060
  54.5277424  12.5034372 108.6739736  44.5582647  15.8529865 101.7249883
  44.4418905  15.1774769 102.3930968  44.6684907  15.3662239 100.9082036
  46.9014188  15.3140013 105.4296573  46.5372395  14.7870634 106.1409494
  47.7581304  14.9238482 105.2563058  46.5419675  10.3429912 100.4257921
  46.7094077  11.2110149 100.7928392  46.3516844  10.5057194  99.5019210
  49.2995008  18.8046891 112.0923752  48.9995731  19.7071930 111.9839559
  48.9546067  18.5379074 112.9444904  42.7507489  15.2560688 108.1260456
  41.8257986  15.1236902 108.3338148  42.9991903  16.0354907 108.6230398
  52.6992152  11.3229431 109.7721189  51.7909029  11.2544840 109.4779950
  52.6479748  11.8001376 110.6003014  46.5208896  12.7987570 101.4104588
  46.4008521  13.2444621 102.2490068  45.8261484  13.1472887 100.8518126
  40.1116300  14.8993962 108.9604245  40.2408682  15.1528440 109.8743657
  39.4313752  15.4921670 108.6408900  44.2815788  25.5691212 105.0594719
  44.2039817  26.5199037 105.1383200  43.6777431  25.2237084 105.7169646
  54.5653798   9.5245870 111.5499063  53.9228178   9.8178403 110.9038857
  54.0608727   9.4098790 112.3552259  52.2193962  13.2709043 102.2384922
  53.1311818  13.5036430 102.0632620  51.7103609  13.8546087 101.6760001
  50.8263544  18.2534861 109.6298504  50.1972407  18.4180576 108.9274571
  50.4389206  18.6676471 110.4009468  54.7052776  19.1889299 106.9842867
  54.0203814  19.5688201 106.4339901  54.7896625  19.7984626 107.7174815
  51.9603708  16.8349258 113.5838211  52.1720603  17.4781018 112.9072592
  51.9133456  16.0011575 113.1160141  46.3791506  17.9909269 106.8948589
  46.8429852  18.2696972 106.1053211  46.1148304  17.0892714 106.7121679
  43.2715587  17.5380751 109.8328352  43.8416944  17.9668019 109.1945836
  43.8623699  17.2563336 110.5312538  45.3160392  14.1132422 103.7038154
  46.0184435  14.5653466 104.1712080  44.9841021  13.4716241 104.3318047
  53.0749536  19.7121214 111.7560568  53.8966979  19.3101401 111.4743250
  53.0711938  19.6089448 112.7076684  41.0100471  12.7360554 105.9638764
  40.2131635  12.8479248 106.4822260  40.7826064  13.0747206 105.0979655
  46.8406139  19.2605257 113.9121279  46.9050572  19.7225664 114.7479450
  46.1317063  18.6302622 114.0403588  61.1655529  16.0559962 108.1045540
  60.4119237  15.4867360 107.9489544  61.3003070  16.0222627 109.0516174
  46.5554157  20.9273364 103.7800259  46.4199831  21.7724900 104.2085107
  47.0963969  21.1292642 103.0166193  40.0083554  18.4448802 104.3528184
  40.5208075  19.2392053 104.5033749  40.6606267  17.7475093 104.2861786
  41.8178439  21.5614559 106.4350937  41.9945067  22.4832523 106.2471921
  42.6135272  21.2472978 106.8645317  42.9409754  23.0792733 112.4361280
  43.4917179  22.9509796 111.6638274  42.1021230  23.3787622 112.0856172
  50.2803871  21.8299731 115.9382002  50.2622346  22.6508612 115.4462271
  51.2023791  21.7053806 116.1632143  37.9732471  16.7737457 105.1287755
  38.8107693  17.1834465 104.9121462  38.1510739  15.8336899 105.0987948
  49.8696903  14.4412537 100.8171588  49.3543526  15.2117142 101.0559975
  49.5974211  13.7677674 101.4404649  47.4544014   9.2862238 105.8756826
  46.5985610   8.8969089 105.6962465  47.8670966   9.3654199 105.0156611
  54.8431177  17.1944892 102.7524761  54.0660620  16.8556052 102.3079923
  55.5222658  17.1997515 102.0779726  49.6583206  12.3139630 102.6431369
  49.3533342  12.6285779 103.4941512  50.6113648  12.3921049 102.6858702
  48.1029638  18.4729853 104.2924323  47.5751000  17.7382612 103.9797560
  47.6017141  19.2504529 104.0464291  53.0822484  16.6678873 109.4091369
  52.4246158  17.3578135 109.4971498  53.8862883  17.0575305 109.7525355
  42.8348366   9.1349519 106.6530934  43.4092117   8.9124701 105.9204127
  43.4219348   9.2038214 107.4059536  51.8927943  15.0223246 107.4595311
  52.4059825  15.6553238 107.9617020  52.5429167  14.4224442 107.0938671
  43.1617953  11.1653980 100.6726819  42.3255265  11.5028667 100.9936094
  43.0222722  11.0302960  99.7353956  45.1371033   6.0090768 105.3806004
  44.4835446   5.6939785 104.7562618  45.0951507   5.3866509 106.1065827
  46.2482238  16.2910063  97.2959296  45.3409300  16.0599317  97.4950445
  46.7453270  15.4947682  97.4833277  49.1550317  25.0007570 100.2155982
  48.4812016  25.3039267 100.8240940  49.5416139  25.8036651  99.8661439
  48.3708774  12.4972702 109.7053651  47.4531335  12.7187649 109.5475339
  48.7868917  12.5719012 108.8465359  49.1543821  13.8964117 104.8356332
  49.9015640  14.4085514 104.5263454  49.4235411  13.5748170 105.6960725
  47.4270472  16.3922658 101.8183286  46.5181691  16.1081691 101.9155756
  47.4565555  16.8121737 100.9586593  52.6589739  20.0029247 105.5874453
  52.2052066  19.1620157 105.6439644  52.0283706  20.6390646 105.9249234
  51.6022659  10.9321234 106.8175121  50.8645415  10.4198620 107.1485363
  51.8549432  10.4921615 106.0058398  51.1022678  21.8405744 106.5224272
  51.3945653  22.4010801 105.8036637  51.6121299  22.1334305 107.2777431
  51.7034286   3.7097486 107.4116890  52.0093163   2.8494849 107.1242805
  52.4286891   4.3015106 107.2115884  37.9958642  14.1128172 105.7998488
  37.7983042  13.5197533 105.0749555  37.4405306  13.8080382 106.5174427
  45.9755366  14.0051279 107.9193081  46.0303975  13.0525115 107.8435558
  45.1646568  14.1610718 108.4034380  47.1246559  17.9331402  99.1571364
  46.6865989  17.2167261  98.6977002  47.8657000  18.1607516  98.5956456
  43.9147726  12.6228338 105.6783460  43.1015591  12.9222509 106.0848652
  44.4106720  12.2284027 106.3957942  46.0656303  22.6186095 107.6117725
  46.0232482  22.8446942 106.6826257  46.9819002  22.3849470 107.7603526
  55.2419674  16.2088599 105.2147683  55.1037573  16.3990195 104.2868872
  54.8855893  16.9707982 105.6715734  55.2689054  18.2765126 110.2258954
  55.7025560  18.1840415 111.0742009  55.9820634  18.2522626 109.5878970
  44.1822104  19.4949124 107.4079687  44.9762703  18.9999444 107.2062262
  43.4713797  18.9666987 107.0447393  49.0016949  21.8767220 111.7592055
  49.0553971  22.4458156 112.5269771  48.1331730  22.0469105 111.3946092
  40.4904868  13.6392206 103.4839440  39.5602456  13.5776662 103.7009402
  40.5862340  13.1168159 102.6876081  40.4090417  10.1647019 106.0717682
  40.6697234  11.0792352 105.9626842  41.2307589   9.6971461 106.2214295
  56.1304603  18.3188826 112.7591840  56.3240493  19.2234637 113.0051115
  56.0305221  17.8596245 113.5930425  47.9605048  16.0427482 113.3178987
  48.8897108  16.1938641 113.1447954  47.5396078  16.1311503 112.4627633
  46.7593380  20.0678146 111.0877525  46.6204466  19.6996931 111.9603463
  45.9707976  20.5825786 110.9161482  47.3541532  25.1687243 102.4303061
  47.5293288  24.6975286 103.2448684  46.6674320  25.7953009 102.6584322
  48.3098595  19.4459749 108.4766362  47.9748428  19.4060519 109.3724012
  47.8102541  18.7804465 108.0036773  51.2457787  16.7915783  98.7503422
  50.6286958  16.0662611  98.6536475  50.7774275  17.5525144  98.4070496
  52.9011919  21.5014692 116.4109202  52.8424465  20.8173912 115.7439785
  53.3031437  22.2433682 115.9589828  41.9202617  28.3176606 109.2042921
  42.1599216  28.9495130 109.8821940  41.0771814  27.9664646 109.4908281
  43.0356333  11.0101208  97.8724726  42.1585799  10.8890008  97.5086973
  43.5114086  10.2187286  97.6203615  52.9029326  19.4654276 114.6423182
  52.0156105  19.1280197 114.7649581  53.4727877  18.7337307 114.8791947
  34.5558473  15.7978367 107.9666233  35.2429513  15.4840097 107.3787249
  34.4006602  16.7019732 107.6933485  46.4330479  24.1255728 111.6084425
  46.3600651  24.9310699 112.1203730  45.9907872  24.3247694 110.7832447
  46.2220259  23.3627498 105.1187247  45.4387781  23.9049178 105.2125471
  46.9213004  23.8801478 105.5181488  49.5316909   9.1722127 107.7621452
  50.0285609   8.4192090 107.4422522  48.7603891   9.2086444 107.1964661
  57.3846666  14.8762493 109.4039744  57.3736543  15.7587208 109.0333677
  56.5164046  14.5234044 109.2094281  48.8929163  24.0242562 113.7642584
  49.6057135  24.6590027 113.6918485  48.4019191  24.1206428 112.9482586
  50.6146690  17.9293815 105.3359876  49.6802968  18.0495277 105.1664580
  50.7923358  17.0266281 105.0719885  46.1151878  11.3139510 107.4893137
  45.7449665  10.7610551 108.1774042  46.6110970  10.7097644 106.9368137
  54.0019241  13.7711134 105.8709910  54.4679693  14.6039126 105.7970212
  54.4526742  13.3056116 106.5755168  43.9441076  21.7737005 114.5848155
  44.6450536  22.4073488 114.7377549  43.4736191  22.1151737 113.8243794
  52.0695472  20.1154955 102.8696062  52.3455316  20.0011550 103.7789936
  51.1999971  19.7172440 102.8308235  51.7442362  14.3281613 112.4100705
  51.0913813  14.5757520 111.7553158  52.1222742  13.5145751 112.0763182
  48.7049536  24.3641306 106.5128875  48.8871931  23.5462962 106.9756628
  49.5282522  24.5808998 106.0753765  49.0391702  23.2909491 103.7743924
  49.5679468  22.7801946 103.1614086  49.3019921  22.9752021 104.6389457
  39.5408794  21.3073360 111.5179257  40.1262231  20.5617048 111.6507162
  39.3433633  21.6177317 112.4015921  42.3947450  24.3424608 106.5341700
  41.7257825  24.8270736 106.0505740  42.2560319  24.5893828 107.4485078
  46.5352718  26.3768351 113.1324358  47.0871026  26.5399973 113.8973443
  46.8758912  26.9672789 112.4604383  37.7635027  12.6043063 103.3137632
  38.0588468  11.6953741 103.2604686  36.8623063  12.5830802 102.9918634
  49.6721106  24.3250327 110.1188040  49.5472245  23.5240067 109.6098986
  50.3300197  24.8196520 109.6302010  51.7356014  22.1259347 111.7467590
  50.7886349  22.0064698 111.6745917  52.0838787  21.2381845 111.8293852
  39.4922868  10.2857161 103.4376957  39.1635574   9.4054539 103.2552063
  39.8462239  10.2304829 104.3253346  48.7402447  21.9212063 107.9471943
  48.5927410  20.9928771 108.1279513  49.5655941  21.9432154 107.4629018
  42.6064691  10.5730130 103.8052435  42.9460764  11.1016052 103.0831043
  43.0536812  10.9110536 104.5811001  52.3436569  22.7440622 109.0336815
  53.2683117  22.5383483 108.8961267  52.1751872  22.4957023 109.9426157
  44.5932839   9.0704752 102.0045728  45.3141201   9.4486005 101.5009444
  43.9698143   9.7893629 102.1080705  48.7363962   9.7749901 102.9404060
  48.9527576  10.6574539 102.6392888  48.2558029   9.3836114 102.2109702
  52.1331885  23.2626289 104.3898907  52.3068763  22.6972712 103.6372759
  52.6260776  24.0627184 104.2078397  44.7396462   8.6052542 104.8343264
  44.8612373   7.6769189 105.0334152  44.4498504   8.6191228 103.9221580
  57.9871276  16.0262712 106.0089207  58.4302422  15.2770038 105.6108330
  57.1097787  16.0172849 105.6262939  53.1207058  22.5793054 101.4895805
  53.8157962  23.1999746 101.7083120  53.4630208  21.7288405 101.7648183
  55.0198481  20.0292759 103.0183136  55.5449805  20.3680032 102.2932456
  54.9320833  19.0939775 102.8346271  46.6818530  23.9426833 115.1473013
  46.9905656  23.6975980 116.0195712  47.4794012  24.1473471 114.6591883
  46.7039142  26.0964743 107.3778389  46.2644132  25.6041121 108.0711246
  47.4547259  25.5537710 107.1370464  39.1831481  22.2876283 107.3803017
  40.0089501  21.9880055 107.0001661  38.8325533  21.5183906 107.8292806
  44.1513014  21.6402752 109.4500691  43.5293023  20.9773457 109.1502919
  44.8217881  21.6663884 108.7674339  37.3840086  20.2062610 108.3391951
  36.5471994  19.7784784 108.1575952  37.3563731  20.3995053 109.2762742
  54.7092387  20.6625663 118.3234334  53.9187931  20.6449802 117.7838833
  54.4725741  21.2013957 119.0783370  54.8290262  17.5118129 115.6367062
  54.8788267  17.3468137 116.5782585  54.7204185  16.6445388 115.2464943
  43.7126521  20.1906675 102.9259151  43.8614641  20.8742139 102.2725824
  44.5192964  20.1711765 103.4408607  56.3308459  19.9315071 115.8809084
  56.0393267  20.2945051 116.7172545  55.7180590  19.2182079 115.7022416
  57.5304141  17.4967951 108.4011654  58.3651033  17.9357755 108.5649215
  57.6663270  17.0206604 107.5819900  54.5795647  15.0547685 114.3489142
  55.0549769  15.2475332 113.5407993  53.6561212  15.1106871 114.1032526
  41.4679154  16.2171853 103.9320220  41.2225196  15.3134183 104.1300430
  41.6375068  16.2189003 102.9899698  40.7374801  11.9500210 101.4306382
  40.0444046  12.0244565 100.7746418  40.4926553  11.1860554 101.9527899
  47.2121926  22.6854805 100.3970899  46.6395893  23.3044993  99.9441371
  47.7854720  23.2354167 100.9310821  53.2797316  11.9313446 112.5817448
  54.2314739  12.0311543 112.6029672  53.1100766  11.1391714 113.0915532
  50.4319186  22.9691956 101.5279481  51.3649859  22.9037517 101.7312356
  50.3442399  23.8048222 101.0694014  53.0607203  22.2857826  98.4883429
  52.9820834  21.9517690  99.3819186  53.8816869  22.7779594  98.4874901
  55.7585394  15.1519565 111.6959747  55.7261714  14.2135566 111.8819431
  56.3686017  15.2303602 110.9625572  47.5968725  14.0215618  97.7386951
  48.5427829  13.8921826  97.8075369  47.2182970  13.2830280  98.2156379
  55.9079882  11.9430609 111.7418030  55.3918931  11.1589065 111.5547959
  56.7919831  11.6149325 111.9064550  53.5690609   5.6871624 107.7013843
  53.3715430   5.3786712 108.5857175  54.1790315   6.4133263 107.8311773
  61.5761944  16.2135572 110.8365784  62.3065332  15.9520860 111.3973487
  60.9668889  15.4764294 110.8767852  59.6577241  14.3543435 111.4340235
  58.9310404  14.2199400 110.8256727  59.2424528  14.6620263 112.2396953
  45.7811642  11.9465595  97.6741836  44.8743097  11.6498707  97.7504550
  46.0587623  11.6495413  96.8076123  47.3973708   6.4902484 103.8286078
  46.5874436   6.1449569 104.2041324  48.0858125   6.1810028 104.4173689
  49.3264256   5.5680531 105.4510374  49.8795294   5.9875985 106.1100397
  49.5634342   4.6416279 105.4933330  44.5510426   8.8052530  97.8153816
  45.4129590   9.1307428  98.0749633  44.7360771   8.0184026  97.3026881
  52.7043063   7.6781056 104.9589039  52.1241732   8.3365860 104.5767091
  52.4378996   6.8558401 104.5476456  51.1546629   7.0786114 107.1610359
  51.6546408   7.1902649 106.3524678  51.7982237   6.7747167 107.8011167
  38.4814585  16.8193123 107.9700019  38.4585273  16.9180811 107.0181902
  38.7915221  17.6658274 108.2917185  51.4867941   9.8381147 104.0145387
  50.5993796  10.1230797 103.7965582  51.9021930   9.6774910 103.1672664
  54.8382477   9.8627668 107.7299726  55.6142867  10.3524120 108.0024343
  54.1130611  10.2885722 108.1871596  57.2755036  10.5755287 108.7873667
  57.8699527  10.3351023 108.0766975  57.3481619   9.8562417 109.4147203
  39.4952191  24.4188898 109.1016832  39.3606659  23.6589299 108.5354830
  39.0784254  25.1429798 108.6345620  50.6311154  19.6025821  98.1093407
  51.3347005  19.8075824  98.7251062  49.9073803  20.1702583  98.3742490
  51.4608965  15.3535683 104.2295677  51.4044166  15.8104234 103.3903309
  52.0137307  14.5926367 104.0518520  55.2713771  11.1425415 105.0545797
  55.0150705  10.7422050 105.8854004  54.6466639  11.8569208 104.9295936
  59.5826108  13.8821488 107.5617088  59.0225666  13.9514677 108.3348650
  58.9769612  13.7062472 106.8416584  42.6521317  25.3158215 109.3135274
  42.5353701  26.2603647 109.2113964  41.8313764  25.0131776 109.7021073
  52.5397852  20.0408351 100.1591867  53.3743456  19.6089549  99.9769342
  52.3782195  19.8690364 101.0868761  52.1943744  16.5440464 101.5248206
  52.1392548  16.3784735 100.5836650  51.5689799  17.2516497 101.6810396
  45.5039869   6.0448573 101.1033525  45.4918539   6.9890413 101.2601795
  46.3963291   5.8618718 100.8092986  43.6775831  25.9686477 112.5291203
  44.5803078  26.0010087 112.8457698  43.4513201  25.0386928 112.5437538
  45.4329433  24.7217463 109.1901281  44.4825064  24.7219325 109.0765654
  45.7361920  23.9750198 108.6737316  49.3191989   2.6391350 105.3579461
  48.5524385   2.0849836 105.5036144  49.7302694   2.7113218 106.2193613
  61.1682127  30.5578002 110.2547044  61.8060537  30.4384749 109.5510384
  61.0502970  31.5058846 110.3134996  57.9771833  30.5105430 110.1908568
  57.6390345  30.3946494 109.3029103  58.8461601  30.1096595 110.1709574
  53.8358649  32.3640906 106.1805459  53.2723514  32.2730843 105.4121747
  53.7211044  31.5440811 106.6607952  58.4591616  31.6640282 116.1494774
  58.4480257  31.2693080 115.2775278  58.6212256  30.9306354 116.7428545
  51.3823081  33.8592098 109.0189680  52.1744373  33.5182922 108.6035979
  51.6219731  33.9687073 109.9391833  59.4158208  36.0311874 101.4919924
  58.7646187  36.6165954 101.1053938  60.2102570  36.5618069 101.5514962
  53.3413835  33.1201011 101.8907059  54.1144711  32.5729998 101.7519934
  53.6939234  33.9845260 102.1021520  55.1798877  34.4477393 115.0973958
  54.8888743  35.3523024 114.9820624  55.8155862  34.4893921 115.8118027
  56.1055084  31.8254242 111.6875318  56.7018656  31.6010264 110.9732280
  56.1630056  31.0838987 112.2900765  55.6780113  29.2793677  99.5225508
  55.9305633  28.7575198  98.7608971  54.7404672  29.1159823  99.6252192
  60.7223395  28.2829456 107.3300252  61.5086485  27.8648879 106.9790669
  60.9862100  29.1875548 107.4981900  60.8933473  33.7202306 102.0288909
  60.2579306  33.7936932 102.7409813  60.5630879  34.3095905 101.3507988
  66.1231823  28.2204689 108.2333230  66.8556994  27.6503906 108.4671060
  65.3671178  27.8326289 108.6739736  55.3976401  31.1821783 101.7249883
  55.2812659  30.5066687 102.3930968  55.5078661  30.6954157 100.9082036
  57.7407942  30.6431930 105.4296573  57.3766149  30.1162551 106.1409494
  58.5975058  30.2530399 105.2563058  63.6457243  21.9326263 112.6927839
  63.3140568  22.8021674 112.4689054  63.0502856  21.6162547 113.3721869
  57.3813429  25.6721830 100.4257921  57.5487832  26.5402066 100.7928392
  57.1910598  25.8349112  99.5019210  60.1388762  34.1338809 112.0923752
  59.8389486  35.0363848 111.9839559  59.7939822  33.8670992 112.9444904
  53.5901244  30.5852606 108.1260456  52.6651740  30.4528820 108.3338148
  53.8385657  31.3646825 108.6230398  63.5385906  26.6521349 109.7721189
  62.6302784  26.5836757 109.4779950  63.4873502  27.1293294 110.6003014
  57.3602650  28.1279487 101.4104588  57.2402275  28.5736538 102.2490068
  56.6655238  28.4764805 100.8518126  50.9510055  30.2285879 108.9604245
  51.0802436  30.4820358 109.8743657  50.2707506  30.8213587 108.6408900
  55.1209542  40.8983129 105.0594719  55.0433572  41.8490954 105.1383200
  54.5171186  40.5529002 105.7169646  57.6126772  28.0710995 117.7156086
  56.8360106  28.6304915 117.7058951  58.2517335  28.5567778 118.2370956
  65.4047553  24.8537787 111.5499063  64.7621933  25.1470321 110.9038857
  64.9002481  24.7390708 112.3552259  63.0587716  28.6000961 102.2384922
  63.9705572  28.8328347 102.0632620  62.5497363  29.1838005 101.6760001
  55.8673144  30.8796448 117.2774053  56.6087829  31.4181492 117.0008877
  55.1610130  31.5062737 117.4345605  61.3428484  33.0225588 115.8746215
  61.7511840  32.5807999 115.1300847  60.6205745  32.4478216 116.1280408
  57.6959554  27.9598195 113.2479772  58.5420749  28.3837609 113.3914421
  57.6358192  27.3031820 113.9418335  61.6657299  33.5826779 109.6298504
  61.0366161  33.7472493 108.9274571  61.2782961  33.9968389 110.4009468
  65.5446530  34.5181217 106.9842867  64.8597569  34.8980118 106.4339901
  65.6290380  35.1276544 107.7174815  60.8458999  25.6202564 114.9060945
  60.6019931  26.3744624 114.3695221  61.1218930  25.9987911 115.7408192
  62.7997462  32.1641176 113.5838211  63.0114357  32.8072936 112.9072592
  62.7527210  31.3303492 113.1160141  60.4023691  24.7758997 110.4874783
  59.5408170  25.0740250 110.7791521  60.4286126  24.9929395 109.5555816
  57.2185260  33.3201187 106.8948589  57.6823606  33.5988890 106.1053211
  56.9542059  32.4184632 106.7121679  54.1109342  32.8672669 109.8328352
  54.6810699  33.2959937 109.1945836  54.7017453  32.5855253 110.5312538
  56.1554147  29.4424340 103.7038154  56.8578190  29.8945383 104.1712080
  55.8234775  28.8008158 104.3318047  54.6034508  28.0336096 118.0789363
  53.9733169  28.7152377 118.3124760  54.4970596  27.9219178 117.1342501
  49.8979480  27.7007892 109.0055287  49.1078534  27.9565421 108.5295398
  50.3890728  28.5156230 109.1107328  63.9143290  35.0413131 111.7560568
  64.7360734  34.6393319 111.4743250  63.9105693  34.9381366 112.7076684
  51.8494226  28.0652471 105.9638764  51.0525389  28.1771166 106.4822260
  51.6219818  28.4039124 105.0979655  57.6799893  34.5897175 113.9121279
  57.7444326  35.0517582 114.7479450  56.9710817  33.9594540 114.0403588
  48.1817183  27.9538383 111.4370278  48.4325222  28.8385393 111.7027854
  48.7176732  27.7742984 110.6645370  72.0049283  31.3851880 108.1045540
  71.2512991  30.8159278 107.9489544  72.1396824  31.3514544 109.0516174
  57.3947911  36.2565282 103.7800259  57.2593586  37.1016818 104.2085107
  57.9357724  36.4584560 103.0166193  50.8477309  33.7740720 104.3528184
  51.3601829  34.5683970 104.5033749  51.5000021  33.0767011 104.2861786
  52.6572193  36.8906476 106.4350937  52.8338822  37.8124441 106.2471921
  53.4529027  36.5764896 106.8645317  56.7983212  23.7514741 118.0334871
  57.5392925  24.3521894 117.9539333  57.0301135  23.0092379 117.4752913
  51.9424550  28.9371108 116.3113100  51.8278065  28.0356366 116.6120199
  51.0869068  29.1834805 115.9597917  59.0216388  36.8788849 117.9100601
  58.5780242  36.0925227 117.5921506  59.6833601  37.0667999 117.2444492
  53.7803509  38.4084650 112.4361280  54.3310934  38.2801714 111.6638274
  52.9414985  38.7079539 112.0856172  61.1197626  37.1591649 115.9382002
  61.1016101  37.9800530 115.4462271  62.0417546  37.0345724 116.1632143
  57.5770680  34.6735778 116.7805511  58.1099017  33.9124066 116.5504819
  57.0484761  34.3809430 117.5229665  60.7440375  19.7795844 112.3099152
  60.4004644  20.6697486 112.2338263  61.1119337  19.5897502 111.4468737
  48.8126225  32.1029374 105.1287755  49.6501447  32.5126383 104.9121462
  48.9904493  31.1628817 105.0987948  60.7090657  29.7704455 100.8171588
  60.1937281  30.5409060 101.0559975  60.4367966  29.0969591 101.4404649
  58.2937768  24.6154156 105.8756826  57.4379365  24.2261006 105.6962465
  58.7064720  24.6946117 105.0156611  59.8236915  22.1500499 110.2748386
  59.3201711  22.1130634 109.4616191  60.1167522  23.0593242 110.3345042
  56.0679801  22.2339229 109.2814567  56.9332798  22.0382038 108.9220457
  56.1357310  22.0049581 110.2083924  65.6824932  32.5236810 102.7524761
  64.9054374  32.1847969 102.3079923  66.3616413  32.5289433 102.0779726
  60.4976961  27.6431547 102.6431369  60.1927096  27.9577696 103.4941512
  61.4507403  27.7212967 102.6858702  58.9423392  33.8021771 104.2924323
  58.4144754  33.0674530 103.9797560  58.4410895  34.5796447 104.0464291
  63.9216238  31.9970791 109.4091369  63.2639913  32.6870052 109.4971498
  64.7256638  32.3867223 109.7525355  53.6742120  24.4641437 106.6530934
  54.2485872  24.2416618 105.9204127  54.2613102  24.5330131 107.4059536
  62.7321697  30.3515164 107.4595311  63.2453579  30.9845156 107.9617020
  63.3822921  29.7516359 107.0938671  54.0011707  26.4945898 100.6726819
  53.1649019  26.8320584 100.9936094  53.8616477  26.3594878  99.7353956
  55.9764788  21.3382686 105.3806004  55.3229200  21.0231703 104.7562618
  55.9345262  20.7158426 106.1065827  57.0875993  31.6201981  97.2959296
  56.1803054  31.3891234  97.4950445  57.5847025  30.8239600  97.4833277
  59.9944072  40.3299488 100.2155982  59.3205770  40.6331185 100.8240940
  60.3809893  41.1328568  99.8661439  59.2102528  27.8264619 109.7053651
  58.2925090  28.0479566 109.5475339  59.6262672  27.9010930 108.8465359
  59.9937576  29.2256035 104.8356332  60.7409395  29.7377432 104.5263454
  60.2629165  28.9040088 105.6960725  58.2664226  31.7214576 101.8183286
  57.3575445  31.4373608 101.9155756  58.2959310  32.1413654 100.9586593
  63.4983493  35.3321165 105.5874453  63.0445821  34.4912075 105.6439644
  62.8677460  35.9682564 105.9249234  62.4416413  26.2613151 106.8175121
  61.7039170  25.7490537 107.1485363  62.6943187  25.8213533 106.0058398
  61.9416433  37.1697662 106.5224272  62.2339407  37.7302719 105.8036637
  62.4515053  37.4626223 107.2777431  62.5428040  19.0389403 107.4116890
  62.8486917  18.1786767 107.1242805  63.2680645  19.6307023 107.2115884
  48.8352396  29.4420090 105.7998488  48.6376796  28.8489451 105.0749555
  48.2799060  29.1372300 106.5174427  56.8149120  29.3343196 107.9193081
  56.8697730  28.3817033 107.8435558  56.0040322  29.4902635 108.4034380
  57.9640314  33.2623319  99.1571364  57.5259744  32.5459178  98.6977002
  58.7050755  33.4899434  98.5956456  54.7541480  27.9520256 105.6783460
  53.9409346  28.2514427 106.0848652  55.2500474  27.5575945 106.3957942
  56.9050058  37.9478013 107.6117725  56.8626237  38.1738859 106.6826257
  57.8212757  37.7141388 107.7603526  60.3515692  28.4162080 114.5098354
  60.7065079  28.6433554 115.3692820  60.9987823  28.7480457 113.8875609
  66.0813429  31.5380516 105.2147683  65.9431327  31.7282112 104.2868872
  65.7249647  32.2999899 105.6715734  54.2455555  25.5238612 111.2944695
  54.8854934  25.3827371 110.5967658  53.4133085  25.2373125 110.9183297
  66.1082808  33.6057043 110.2258954  66.5419315  33.5132332 111.0742009
  66.8214389  33.5814544 109.5878970  55.0215859  34.8241042 107.4079687
  55.8156457  34.3291362 107.2062262  54.3107551  34.2958905 107.0447393
  59.8410703  37.2059137 111.7592055  59.8947725  37.7750074 112.5269771
  58.9725485  37.3761023 111.3946092  51.3298622  28.9684124 103.4839440
  50.3996210  28.9068579 103.7009402  51.4256094  28.4460076 102.6876081
  51.2484171  25.4938937 106.0717682  51.5090989  26.4084270 105.9626842
  52.0701344  25.0263379 106.2214295  52.7209097  26.9076694 113.2416506
  53.3932150  26.6994056 112.5929155  51.8938883  26.7098780 112.8021739
  66.9698358  33.6480744 112.7591840  67.1634248  34.5526555 113.0051115
  66.8698976  33.1888163 113.5930425  58.6234669  23.5338635 115.2582167
  57.9762584  24.2328584 115.1646644  59.3935684  23.9674779 115.6258415
  62.0313466  33.7987487 118.3332720  61.8798973  33.5698038 117.4162804
  62.0218146  34.7558088 118.3464066  58.7998803  31.3719400 113.3178987
  59.7290863  31.5230559 113.1447954  58.3789833  31.4603420 112.4627633
  57.5987135  35.3970064 111.0877525  57.4598220  35.0288848 111.9603463
  56.8101731  35.9117703 110.9161482  58.1935287  40.4979160 102.4303061
  58.3687042  40.0267204 103.2448684  57.5068075  41.1244927 102.6584322
  59.1492350  34.7751667 108.4766362  58.8142182  34.7352437 109.3724012
  58.6496296  34.1096383 108.0036773  53.1236594  30.1819297 114.0018944
  52.9856392  29.4499536 114.6030483  54.0341517  30.0928197 113.7203131
  62.0851541  32.1207701  98.7503422  61.4680712  31.3954529  98.6536475
  61.6168030  32.8817061  98.4070496  55.7518894  29.8939256 113.4902623
  56.4618513  29.2532448 113.4489242  55.7088203  30.1452151 114.4128804
  63.7405673  36.8306609 116.4109202  63.6818219  36.1465829 115.7439785
  64.1425192  37.5725599 115.9589828  54.4647828  26.8804474 115.3098263
  53.9285185  26.4295212 115.9619859  53.8764537  27.0150383 114.5668727
  52.7596372  43.6468523 109.2042921  52.9992970  44.2787047 109.8821940
  51.9165568  43.2956563 109.4908281  53.8750087  26.3393125  97.8724726
  52.9979554  26.2181926  97.5086973  54.3507840  25.5479204  97.6203615
  63.7423080  34.7946193 114.6423182  62.8549859  34.4572115 114.7649581
  64.3121631  34.0629225 114.8791947  45.3952228  31.1270285 107.9666233
  46.0823267  30.8132015 107.3787249  45.2400356  32.0311650 107.6933485
  50.1986950  26.0160482 112.3951257  50.1145138  25.4086151 111.6601667
  49.3769656  26.5069500 112.3960753  57.2724234  39.4547646 111.6084425
  57.1994405  40.2602617 112.1203730  56.8301627  39.6539611 110.7832447
  57.0614013  38.6919416 105.1187247  56.2781535  39.2341096 105.2125471
  57.7606759  39.2093395 105.5181488  60.3710664  24.5014045 107.7621452
  60.8679363  23.7484007 107.4422522  59.5997645  24.5378362 107.1964661
  68.2240421  30.2054411 109.4039744  68.2130297  31.0879126 109.0333677
  67.3557800  29.8525961 109.2094281  59.7322917  39.3534480 113.7642584
  60.4450890  39.9881944 113.6918485  59.2412946  39.4498346 112.9482586
  61.4540444  33.2585732 105.3359876  60.5196723  33.3787195 105.1664580
  61.6317113  32.3558199 105.0719885  56.9545632  26.6431428 107.4893137
  56.5843420  26.0902468 108.1774042  57.4504725  26.0389562 106.9368137
  64.8412996  29.1003052 105.8709910  65.3073448  29.9331043 105.7970212
  65.2920496  28.6348033 106.5755168  54.7834831  37.1028923 114.5848155
  55.4844290  37.7365406 114.7377549  54.3129946  37.4443655 113.8243794
  62.9089227  35.4446873 102.8696062  63.1849071  35.3303467 103.7789936
  62.0393725  35.0464358 102.8308235  62.8129658  21.4683639 109.9100811
  61.8992738  21.6987865 110.0783018  63.2422760  21.5522083 110.7614843
  62.5836117  29.6573531 112.4100705  61.9307567  29.9049438 111.7553158
  62.9616497  28.8437669 112.0763182  59.5443291  39.6933224 106.5128875
  59.7265685  38.8754880 106.9756628  60.3676277  39.9100916 106.0753765
  59.8785456  38.6201409 103.7743924  60.4073223  38.1093863 103.1614086
  60.1413676  38.3043939 104.6389457  58.6323690  30.3993342 118.8966742
  57.9564327  30.2987471 119.5669117  59.4551324  30.2432555 119.3602739
  50.3802549  36.6365278 111.5179257  50.9655986  35.8908966 111.6507162
  50.1827387  36.9469235 112.4015921  53.2341204  39.6716526 106.5341700
  52.5651579  40.1562653 106.0505740  53.0954074  39.9185746 107.4485078
  44.9720204  29.2070878 110.2383701  45.0104303  28.6734469 111.0320819
  44.4660496  28.6806084 109.6194678  57.3746473  41.7060269 113.1324358
  57.9264781  41.8691891 113.8973443  57.7152666  42.2964707 112.4604383
  52.3510966  24.0535419 113.7346243  52.4152292  24.9150250 113.3223641
  52.2878086  23.4409421 113.0018601  51.8263238  26.1258551 117.3819277
  52.4535277  25.7435629 117.9956801  50.9691157  25.9072753 117.7474970
  62.2257347  36.5321527 118.9873013  62.7697251  37.1451485 118.4927967
  61.6444192  37.0901105 119.5040026  48.6028781  27.9334981 103.3137632
  48.8982222  27.0245659 103.2604686  47.7016817  27.9122720 102.9918634
  60.5114860  39.6542245 110.1188040  60.3865999  38.8531984 109.6098986
  61.1693951  40.1488438 109.6302010  52.1323028  26.0090977 109.2965181
  51.4109614  26.6226945 109.1572654  52.9216284  26.5448742 109.2181826
  62.5749768  37.4551265 111.7467590  61.6280104  37.3356616 111.6745917
  62.9232541  36.5673763 111.8293852  54.9349342  23.3445404 115.5705832
  55.4583744  23.5907700 116.3332142  54.7161675  24.1765438 115.1508970
  50.3316623  25.6149078 103.4376957  50.0029329  24.7346457 103.2552063
  50.6855994  25.5596747 104.3253346  59.5796202  37.2503981 107.9471943
  59.4321164  36.3220688 108.1279513  60.4049695  37.2724072 107.4629018
  53.4458446  25.9022048 103.8052435  53.7854518  26.4307969 103.0831043
  53.8930566  26.2402454 104.5811001  63.1830324  38.0732540 109.0336815
  64.1076871  37.8675401 108.8961267  63.0145627  37.8248941 109.9426157
  56.1401887  24.2859099 113.2555503  55.7998707  23.4866912 113.6576183
  55.4340893  24.5860810 112.6832336  56.7918359  21.3708411 111.7082826
  57.6144428  20.8968889 111.5861716  57.0356422  22.1498895 112.2081512
  55.4326593  24.3996670 102.0045728  56.1534956  24.7777922 101.5009444
  54.8091897  25.1185546 102.1080705  59.5757716  25.1041819 102.9404060
  59.7921330  25.9866456 102.6392888  59.0951783  24.7128032 102.2109702
  54.3156937  28.0627532 109.5174804  54.1701518  28.3767835 110.4099086
  53.8382141  28.6812432 108.9645703  56.1753320  25.0530080 109.5655694
  56.1614889  24.1571173 109.2287992  56.8925748  25.0600744 110.1993980
  58.0279451  25.4867420 111.6108821  57.7697229  26.4084491 111.6093152
  57.4964491  25.0897855 112.3009286  62.9725640  38.5918207 104.3898907
  63.1462517  38.0264630 103.6372759  63.4654531  39.3919102 104.2078397
  48.7902600  30.6032876 112.4562466  48.2456068  31.3792684 112.5882740
  49.6681949  30.9503681 112.2981587  55.5790216  23.9344460 104.8343264
  55.7006127  23.0061106 105.0334152  55.2892259  23.9483146 103.9221580
  58.4481407  21.6199370 107.9709984  58.4703103  21.6838704 107.0161964
  58.8649466  20.7803879 108.1650490  68.8265031  31.3554630 106.0089207
  69.2696177  30.6061955 105.6108330  67.9491541  31.3464766 105.6262939
  63.9600812  37.9084971 101.4895805  64.6551717  38.5291664 101.7083120
  64.3023962  37.0580323 101.7648183  49.5768621  29.7302772 115.3492622
  48.8350357  29.8785408 115.9357253  49.2561366  29.9911038 114.4859372
  65.8592235  35.3584677 103.0183136  66.3843559  35.6971950 102.2932456
  65.7714588  34.4231692 102.8346271  57.5212284  39.2718751 115.1473013
  57.8299410  39.0267897 116.0195712  58.3187766  39.4765389 114.6591883
  57.5432896  41.4256660 107.3778389  57.1037886  40.9333039 108.0711246
  58.2941013  40.8829628 107.1370464  50.0225235  37.6168201 107.3803017
  50.8483255  37.3171973 107.0001661  49.6719287  36.8475824 107.8292806
  54.9906768  36.9694669 109.4500691  54.3686778  36.3065374 109.1502919
  55.6611635  36.9955801 108.7674339  48.2233840  35.5354528 108.3391951
  47.3865748  35.1076702 108.1575952  48.1957486  35.7286971 109.2762742
  55.0631296  25.4476457 119.0433197  55.1119451  26.3238580 118.6610966
  55.6053810  24.9053850 118.4704840  65.5486141  35.9917581 118.3234334
  64.7581685  35.9741720 117.7838833  65.3119496  36.5305874 119.0783370
  65.6684016  32.8410047 115.6367062  65.7182021  32.6760054 116.5782585
  65.5597940  31.9737306 115.2464943  54.5520275  35.5198593 102.9259151
  54.7008396  36.2034057 102.2725824  55.3586719  35.5003683 103.4408607
  62.9587779  28.8240975 116.9526369  63.8597642  28.6847440 116.6610367
  63.0335753  28.9895430 117.8924547  57.2930584  26.2007830 115.7979555
  56.4233894  26.4941396 115.5262144  57.5290065  26.7848275 116.5186819
  67.1702213  35.2606989 115.8809084  66.8787022  35.6236969 116.7172545
  66.5574345  34.5473997 115.7022416  68.3697896  32.8259868 108.4011654
  69.2044787  33.2649672 108.5649215  68.5057024  32.3498522 107.5819900
  65.4189402  30.3839603 114.3489142  65.8943523  30.5767249 113.5407993
  64.4954967  30.4398789 114.1032526  52.3072908  31.5463770 103.9320220
  52.0618950  30.6426100 104.1300430  52.4768823  31.5480921 102.9899698
  59.9969618  22.4187447 113.3144976  60.5151562  23.1548474 112.9891464
  59.6424751  22.7251440 114.1491735  51.5768556  27.2792128 101.4306382
  50.8837801  27.3536483 100.7746418  51.3320308  26.5152472 101.9527899
  60.2482212  18.8387729 108.8345872  60.5283966  18.1710918 109.4606299
  61.0332819  19.0316825 108.3220536  58.0515681  38.0146723 100.3970899
  57.4789648  38.6336910  99.9441371  58.6248474  38.5646085 100.9310821
  64.1191071  27.2605363 112.5817448  65.0708493  27.3603461 112.6029672
  63.9494521  26.4683632 113.0915532  62.1405450  24.3460946 112.7676848
  61.5455382  24.6265959 112.0723337  61.8555147  24.8354847 113.5393590
  61.2712940  38.2983873 101.5279481  62.2043614  38.2329435 101.7312356
  61.1836153  39.1340140 101.0694014  63.9000957  37.6149744  98.4883429
  63.8214589  37.2809607  99.3819186  64.7210624  38.1071512  98.4874901
  66.5979148  30.4811483 111.6959747  66.5655468  29.5427484 111.8819431
  67.2079772  30.5595520 110.9625572  58.4362479  29.3507536  97.7386951
  59.3821584  29.2213744  97.8075369  58.0576724  28.6122198  98.2156379
  66.7473637  27.2722526 111.7418030  66.2312685  26.4880983 111.5547959
  67.6313585  26.9441243 111.9064550  64.4084364  21.0163542 107.7013843
  64.2109185  20.7078630 108.5857175  65.0184069  21.7425181 107.8311773
  72.4155698  31.5427490 110.8365784  73.1459087  31.2812778 111.3973487
  71.8062644  30.8056212 110.8767852  70.4970995  29.6835352 111.4340235
  69.7704159  29.5491317 110.8256727  70.0818282  29.9912181 112.2396953
  58.3201172  33.4025282 119.1987608  59.2404181  33.5803881 119.3927655
  58.2850755  32.4581327 119.0467307  56.6205396  27.2757512  97.6741836
  55.7136852  26.9790625  97.7504550  56.8981377  26.9787330  96.8076123
  47.5383337  28.5963876 108.1240883  47.2186121  27.7429184 107.8315257
  46.9916765  28.8112454 108.8798850  51.3163244  31.3126317 111.8410389
  51.5349254  32.2443425 111.8598423  51.7289018  30.9534291 112.6265193
  58.2367462  21.8194402 103.8286078  57.4268190  21.4741487 104.2041324
  58.9251879  21.5101946 104.4173689  60.1658010  20.8972449 105.4510374
  60.7189049  21.3167902 106.1100397  60.4028097  19.9708197 105.4933330
  56.1891110  26.8859522 121.2313138  56.0887836  27.8353879 121.1625229
  55.9712652  26.5577761 120.3589208  55.3904181  24.1344448  97.8153816
  56.2523345  24.4599346  98.0749633  55.5754525  23.3475943  97.3026881
  47.4071597  32.2166787 110.0934004  46.7135068  31.8020740 109.5803959
  48.1544588  32.2587324 109.4967423  63.5436817  23.0072974 104.9589039
  62.9635486  23.6657778 104.5767091  63.2772750  22.1850319 104.5476456
  61.9940384  22.4078032 107.1610359  62.4940162  22.5194566 106.3524678
  62.6375992  22.1039085 107.8011167  56.0522380  30.3156661 120.0478200
  55.5689461  31.1157021 120.2542089  56.1383319  30.3264606 119.0945644
  49.3208339  32.1485041 107.9700019  49.2979027  32.2472728 107.0181902
  49.6308976  32.9950192 108.2917185  51.9795717  34.2061196 112.0846634
  52.9338971  34.1745138 112.0176565  51.7808241  33.7451820 112.8996860
  52.5695099  32.7762312 114.6517431  53.3887988  33.2706391 114.6752269
  52.8431907  31.8594280 114.6234999  62.3261695  25.1673064 104.0145387
  61.4387550  25.4522715 103.7965582  62.7415685  25.0066828 103.1672664
  65.6776232  25.1919585 107.7299726  66.4536622  25.6816038 108.0024343
  64.9524366  25.6177640 108.1871596  68.1148790  25.9047205 108.7873667
  68.7093281  25.6642941 108.0766975  68.1875374  25.1854335 109.4147203
  50.3345946  39.7480816 109.1016832  50.2000414  38.9881216 108.5354830
  49.9178008  40.4721715 108.6345620  61.4704909  34.9317739  98.1093407
  62.1740759  35.1367742  98.7251062  60.7467558  35.4994501  98.3742490
  62.3002719  30.6827600 104.2295677  62.2437921  31.1396152 103.3903309
  62.8531062  29.9218285 104.0518520  66.1107525  26.4717332 105.0545797
  65.8544459  26.0713968 105.8854004  65.4860393  27.1861126 104.9295936
  70.4219863  29.2113405 107.5617088  69.8619421  29.2806595 108.3348650
  69.8163366  29.0354390 106.8416584  53.4915072  40.6450133 109.3135274
  53.3747456  41.5895565 109.2113964  52.6707518  40.3423694 109.7021073
  63.3791606  35.3700268 100.1591867  64.2137210  34.9381467  99.9769342
  63.2175949  35.1982282 101.0868761  63.0337499  31.8732382 101.5248206
  62.9786302  31.7076653 100.5836650  62.4083554  32.5808414 101.6810396
  47.8230013  27.1100446 115.3509628  48.4688877  26.5999400 115.8396854
  47.6147165  27.8469128 115.9253054  60.3483406  34.1781293 120.8501769
  61.2174565  34.3521946 120.4888404  59.8690157  34.9975710 120.7277498
  56.3433624  21.3740491 101.1033525  56.3312294  22.3182330 101.2601795
  57.2357046  21.1910636 100.8092986  54.5169586  41.2978394 112.5291203
  55.4196833  41.3302005 112.8457698  54.2906956  40.3678845 112.5437538
  56.2723188  40.0509381 109.1901281  55.3218819  40.0511243 109.0765654
  56.5755674  39.3042116 108.6737316  60.1585743  17.9683267 105.3579461
  59.3918139  17.4141754 105.5036144  60.5696448  18.0405136 106.2193613
  72.0075881  45.8869919 110.2547044  72.6454291  45.7676667 109.5510384
  71.8896724  46.8350763 110.3134996  68.8165588  45.8397347 110.1908568
  68.4784099  45.7238412 109.3029103  69.6855356  45.4388513 110.1709574
  64.6752403  47.6932824 106.1805459  64.1117269  47.6022761 105.4121747
  64.5604798  46.8732728 106.6607952  69.2985371  46.9932199 116.1494774
  69.2874011  46.5984997 115.2775278  69.4606010  46.2598272 116.7428545
  62.2216835  49.1884015 109.0189680  63.0138127  48.8474840 108.6035979
  62.4613485  49.2978991 109.9391833  70.2551962  51.3603792 101.4919924
  69.6039942  51.9457872 101.1053938  71.0496325  51.8909986 101.5514962
  64.1807589  48.4492929 101.8907059  64.9538465  47.9021916 101.7519934
  64.5332988  49.3137178 102.1021520  66.0192632  49.7769311 115.0973958
  65.7282498  50.6814942 114.9820624  66.6549616  49.8185839 115.8118027
  66.9448839  47.1546160 111.6875318  67.5412411  46.9302182 110.9732280
  67.0023810  46.4130905 112.2900765  66.5173867  44.6085595  99.5225508
  66.7699388  44.0867116  98.7608971  65.5798426  44.4451740  99.6252192
  71.5617150  43.6121373 107.3300252  72.3480239  43.1940796 106.9790669
  71.8255854  44.5167465 107.4981900  71.7327227  49.0494224 102.0288909
  71.0973060  49.1228850 102.7409813  71.4024634  49.6387822 101.3507988
  76.9625577  43.5496606 108.2333230  77.6950749  42.9795823 108.4671060
  76.2064933  43.1618207 108.6739736  66.2370156  46.5113701 101.7249883
  66.1206414  45.8358604 102.3930968  66.3472416  46.0246075 100.9082036
  68.5801697  45.9723848 105.4296573  68.2159904  45.4454469 106.1409494
  69.4368813  45.5822317 105.2563058  74.4850997  37.2618181 112.6927839
  74.1534322  38.1313591 112.4689054  73.8896611  36.9454465 113.3721869
  68.2207184  41.0013748 100.4257921  68.3881586  41.8693984 100.7928392
  68.0304353  41.1641029  99.5019210  70.9782517  49.4630727 112.0923752
  70.6783240  50.3655765 111.9839559  70.6333576  49.1962910 112.9444904
  64.4294998  45.9144523 108.1260456  63.5045495  45.7820737 108.3338148
  64.6779412  46.6938743 108.6230398  74.3779661  41.9813267 109.7721189
  73.4696538  41.9128675 109.4779950  74.3267256  42.4585212 110.6003014
  68.1996405  43.4571405 101.4104588  68.0796030  43.9028456 102.2490068
  67.5048993  43.8056723 100.8518126  61.7903809  45.5577797 108.9604245
  61.9196191  45.8112276 109.8743657  61.1101261  46.1505505 108.6408900
  65.9603297  56.2275047 105.0594719  65.8827326  57.1782872 105.1383200
  65.3564940  55.8820919 105.7169646  68.4520526  43.4002912 117.7156086
  67.6753861  43.9596832 117.7058951  69.0911090  43.8859695 118.2370956
  76.2441307  40.1829705 111.5499063  75.6015687  40.4762238 110.9038857
  75.7396236  40.0682625 112.3552259  73.8981471  43.9292878 102.2384922
  74.8099327  44.1620265 102.0632620  73.3891118  44.5129922 101.6760001
  66.7066899  46.2088366 117.2774053  67.4481583  46.7473410 117.0008877
  66.0003884  46.8354654 117.4345605  72.1822238  48.3517506 115.8746215
  72.5905594  47.9099917 115.1300847  71.4599500  47.7770134 116.1280408
  68.5353308  43.2890113 113.2479772  69.3814504  43.7129526 113.3914421
  68.4751946  42.6323737 113.9418335  72.5051053  48.9118697 109.6298504
  71.8759916  49.0764411 108.9274571  72.1176715  49.3260306 110.4009468
  76.3840285  49.8473135 106.9842867  75.6991323  50.2272036 106.4339901
  76.4684134  50.4568461 107.7174815  71.6852754  40.9494481 114.9060945
  71.4413686  41.7036542 114.3695221  71.9612684  41.3279829 115.7408192
  73.6391217  47.4933094 113.5838211  73.8508112  48.1364854 112.9072592
  73.5920965  46.6595410 113.1160141  71.2417446  40.1050914 110.4874783
  70.3801925  40.4032168 110.7791521  71.2679880  40.3221313 109.5555816
  68.0579015  48.6493105 106.8948589  68.5217360  48.9280808 106.1053211
  67.7935813  47.7476549 106.7121679  64.9503096  48.1964586 109.8328352
  65.5204453  48.6251855 109.1945836  65.5411208  47.9147171 110.5312538
  66.9947901  44.7716257 103.7038154  67.6971944  45.2237301 104.1712080
  66.6628530  44.1300076 104.3318047  65.4428263  43.3628014 118.0789363
  64.8126923  44.0444295 118.3124760  65.3364350  43.2511095 117.1342501
  60.7373235  43.0299810 109.0055287  59.9472289  43.2857338 108.5295398
  61.2284482  43.8448148 109.1107328  74.7537045  50.3705049 111.7560568
  75.5754488  49.9685236 111.4743250  74.7499447  50.2673283 112.7076684
  62.6887980  43.3944389 105.9638764  61.8919144  43.5063083 106.4822260
  62.4613573  43.7331041 105.0979655  68.5193648  49.9189092 113.9121279
  68.5838080  50.3809500 114.7479450  67.8104572  49.2886457 114.0403588
  59.0210938  43.2830300 111.4370278  59.2718976  44.1677310 111.7027854
  59.5570486  43.1034902 110.6645370  82.8443038  46.7143798 108.1045540
  82.0906746  46.1451196 107.9489544  82.9790579  46.6806462 109.0516174
  68.2341666  51.5857200 103.7800259  68.0987340  52.4308736 104.2085107
  68.7751478  51.7876477 103.0166193  64.7209005  37.6648780 120.4414614
  64.3275951  37.1114978 121.1162258  65.5375146  37.9759358 120.8321132
  61.6871063  49.1032638 104.3528184  62.1995584  49.8975888 104.5033749
  62.3393776  48.4058928 104.2861786  63.4965948  52.2198394 106.4350937
  63.6732576  53.1416359 106.2471921  64.2922781  51.9056813 106.8645317
  67.6376966  39.0806659 118.0334871  68.3786680  39.6813812 117.9539333
  67.8694889  38.3384297 117.4752913  62.7818304  44.2663026 116.3113100
  62.6671819  43.3648283 116.6120199  61.9262822  44.5126723 115.9597917
  69.8610142  52.2080766 117.9100601  69.4173996  51.4217145 117.5921506
  70.5227356  52.3959917 117.2444492  64.6197263  53.7376568 112.4361280
  65.1704688  53.6093631 111.6638274  63.7808739  54.0371457 112.0856172
  71.9591380  52.4883566 115.9382002  71.9409855  53.3092447 115.4462271
  72.8811300  52.3637641 116.1632143  68.4164434  50.0027696 116.7805511
  68.9492771  49.2415984 116.5504819  67.8878515  49.7101348 117.5229665
  71.5834129  35.1087762 112.3099152  71.2398399  35.9989403 112.2338263
  71.9513092  34.9189419 111.4468737  59.6519980  47.4321292 105.1287755
  60.4895202  47.8418301 104.9121462  59.8298248  46.4920734 105.0987948
  71.5484412  45.0996373 100.8171588  71.0331035  45.8700977 101.0559975
  71.2761720  44.4261509 101.4404649  69.1331523  39.9446074 105.8756826
  68.2773119  39.5552924 105.6962465  69.5458475  40.0238034 105.0156611
  70.6630670  37.4792417 110.2748386  70.1595465  37.4422552 109.4616191
  70.9561276  38.3885160 110.3345042  66.9073555  37.5631147 109.2814567
  67.7726552  37.3673955 108.9220457  66.9751064  37.3341498 110.2083924
  76.5218686  47.8528727 102.7524761  75.7448129  47.5139887 102.3079923
  77.2010167  47.8581351 102.0779726  71.3370715  42.9723465 102.6431369
  71.0320851  43.2869614 103.4941512  72.2901157  43.0504885 102.6858702
  69.7817147  49.1313688 104.2924323  69.2538509  48.3966448 103.9797560
  69.2804650  49.9088365 104.0464291  74.7609993  47.3262709 109.4091369
  74.1033667  48.0161970 109.4971498  75.5650392  47.7159141 109.7525355
  64.5135875  39.7933355 106.6530934  65.0879626  39.5708536 105.9204127
  65.1006857  39.8622049 107.4059536  73.5715452  45.6807081 107.4595311
  74.0847334  46.3137073 107.9617020  74.2216676  45.0808277 107.0938671
  64.8405462  41.8237816 100.6726819  64.0042774  42.1612502 100.9936094
  64.7010231  41.6886795  99.7353956  66.8158542  36.6674603 105.3806004
  66.1622955  36.3523621 104.7562618  66.7739016  36.0450344 106.1065827
  70.8337826  55.6591406 100.2155982  70.1599525  55.9623102 100.8240940
  71.2203648  56.4620486  99.8661439  70.0496283  43.1556537 109.7053651
  69.1318844  43.3771484 109.5475339  70.4656426  43.2302847 108.8465359
  70.8331330  44.5547953 104.8356332  71.5803149  45.0669350 104.5263454
  71.1022920  44.2332005 105.6960725  69.1057981  47.0506493 101.8183286
  68.1969200  46.7665526 101.9155756  69.1353064  47.4705572 100.9586593
  74.3377248  50.6613083 105.5874453  73.8839575  49.8203993 105.6439644
  73.7071215  51.2974481 105.9249234  73.2810168  41.5905069 106.8175121
  72.5432924  41.0782455 107.1485363  73.5336941  41.1505450 106.0058398
  72.7810187  52.4989580 106.5224272  73.0733162  53.0594637 105.8036637
  73.2908808  52.7918141 107.2777431  73.3821795  34.3681321 107.4116890
  73.6880672  33.5078684 107.1242805  74.1074400  34.9598941 107.2115884
  59.6746151  44.7712007 105.7998488  59.4770551  44.1781368 105.0749555
  59.1192815  44.4664218 106.5174427  67.6542875  44.6635114 107.9193081
  67.7091484  43.7108950 107.8435558  66.8434077  44.8194553 108.4034380
  68.8034068  48.5915237  99.1571364  68.3653498  47.8751096  98.6977002
  69.5444509  48.8191352  98.5956456  65.5935235  43.2812174 105.6783460
  64.7803100  43.5806344 106.0848652  66.0894229  42.8867862 106.3957942
  67.7443812  53.2769931 107.6117725  67.7019991  53.5030777 106.6826257
  68.6606511  53.0433305 107.7603526  71.1909446  43.7453998 114.5098354
  71.5458834  43.9725471 115.3692820  71.8381577  44.0772375 113.8875609
  76.9207183  46.8672434 105.2147683  76.7825082  47.0574030 104.2868872
  76.5643402  47.6291817 105.6715734  65.0849309  40.8530529 111.2944695
  65.7248689  40.7119288 110.5967658  64.2526840  40.5665043 110.9183297
  76.9476563  48.9348961 110.2258954  77.3813069  48.8424250 111.0742009
  77.6608143  48.9106462 109.5878970  65.8609613  50.1532960 107.4079687
  66.6550212  49.6583280 107.2062262  65.1501306  49.6250823 107.0447393
  70.6804458  52.5351055 111.7592055  70.7341480  53.1041991 112.5269771
  69.8119239  52.7052940 111.3946092  62.1692377  44.2976041 103.4839440
  61.2389965  44.2360497 103.7009402  62.2649849  43.7751994 102.6876081
  62.0877926  40.8230854 106.0717682  62.3484743  41.7376187 105.9626842
  62.9095098  40.3555297 106.2214295  63.5602851  42.2368611 113.2416506
  64.2325904  42.0285974 112.5929155  62.7332638  42.0390697 112.8021739
  77.8092112  48.9772662 112.7591840  78.0028002  49.8818472 113.0051115
  77.7092730  48.5180081 113.5930425  69.4628423  38.8630552 115.2582167
  68.8156338  39.5620502 115.1646644  70.2329438  39.2966696 115.6258415
  72.8707221  49.1279404 118.3332720  72.7192727  48.8989956 117.4162804
  72.8611900  50.0850006 118.3464066  69.6392557  46.7011317 113.3178987
  70.5684617  46.8522477 113.1447954  69.2183587  46.7895338 112.4627633
  68.4380889  50.7261982 111.0877525  68.2991975  50.3580766 111.9603463
  67.6495485  51.2409621 110.9161482  69.0329041  55.8271078 102.4303061
  69.2080797  55.3559121 103.2448684  68.3461829  56.4536844 102.6584322
  69.9886104  50.1043584 108.4766362  69.6535937  50.0644354 109.3724012
  69.4890050  49.4388300 108.0036773  63.9630348  45.5111214 114.0018944
  63.8250146  44.7791453 114.6030483  64.8735272  45.4220114 113.7203131
  66.5912649  45.2231174 113.4902623  67.3012267  44.5824366 113.4489242
  66.5481957  45.4744069 114.4128804  74.5799428  52.1598527 116.4109202
  74.5211974  51.4757747 115.7439785  74.9818946  52.9017517 115.9589828
  65.3041583  42.2096392 115.3098263  64.7678940  41.7587130 115.9619859
  64.7158291  42.3442300 114.5668727  63.5990126  58.9760441 109.2042921
  63.8386725  59.6078965 109.8821940  62.7559323  58.6248481 109.4908281
  64.7143842  41.6685043  97.8724726  63.8373308  41.5473844  97.5086973
  65.1901595  40.8771121  97.6203615  74.5816835  50.1238111 114.6423182
  73.6943614  49.7864033 114.7649581  75.1515386  49.3921142 114.8791947
  56.2345982  46.4562203 107.9666233  56.9217022  46.1423933 107.3787249
  56.0794111  47.3603567 107.6933485  61.0380704  41.3452399 112.3951257
  60.9538893  40.7378069 111.6601667  60.2163411  41.8361418 112.3960753
  68.1117988  54.7839563 111.6084425  68.0388160  55.5894535 112.1203730
  67.6695381  54.9831529 110.7832447  67.9007768  54.0211333 105.1187247
  67.1175290  54.5633014 105.2125471  68.6000513  54.5385313 105.5181488
  71.2104418  39.8305963 107.7621452  71.7073118  39.0775925 107.4422522
  70.4391400  39.8670279 107.1964661  79.0634175  45.5346328 109.4039744
  79.0524052  46.4171044 109.0333677  78.1951555  45.1817879 109.2094281
  70.5716672  54.6826397 113.7642584  71.2844644  55.3173862 113.6918485
  70.0806700  54.7790263 112.9482586  72.2934199  48.5877650 105.3359876
  71.3590477  48.7079112 105.1664580  72.4710867  47.6850117 105.0719885
  67.7939387  41.9723346 107.4893137  67.4237174  41.4194386 108.1774042
  68.2898479  41.3681479 106.9368137  75.6806750  44.4294969 105.8709910
  76.1467202  45.2622961 105.7970212  76.1314251  43.9639951 106.5755168
  65.6228585  52.4320841 114.5848155  66.3238045  53.0657324 114.7377549
  65.1523700  52.7735572 113.8243794  73.7482981  50.7738791 102.8696062
  74.0242825  50.6595385 103.7789936  72.8787480  50.3756275 102.8308235
  73.6523413  36.7975556 109.9100811  72.7386493  37.0279783 110.0783018
  74.0816514  36.8814000 110.7614843  73.4229871  44.9865448 112.4100705
  72.7701322  45.2341356 111.7553158  73.8010251  44.1729586 112.0763182
  70.3837045  55.0225141 106.5128875  70.5659440  54.2046797 106.9756628
  71.2070031  55.2392834 106.0753765  70.7179211  53.9493327 103.7743924
  71.2466977  53.4385781 103.1614086  70.9807430  53.6335857 104.6389457
  69.4717444  45.7285259 118.8966742  68.7958081  45.6279389 119.5669117
  70.2945078  45.5724473 119.3602739  61.2196303  51.9657196 111.5179257
  61.8049740  51.2200884 111.6507162  61.0221142  52.2761153 112.4015921
  64.0734959  55.0008443 106.5341700  63.4045334  55.4854571 106.0505740
  63.9347828  55.2477664 107.4485078  55.8113958  44.5362796 110.2383701
  55.8498058  44.0026387 111.0320819  55.3054251  44.0098002 109.6194678
  68.2140227  57.0352187 113.1324358  68.7658535  57.1983808 113.8973443
  68.5546421  57.6256625 112.4604383  63.1904720  39.3827337 113.7346243
  63.2546047  40.2442167 113.3223641  63.1271841  38.7701338 113.0018601
  62.6656993  41.4550469 117.3819277  63.2929032  41.0727546 117.9956801
  61.8084912  41.2364671 117.7474970  73.0651102  51.8613444 118.9873013
  73.6091006  52.4743403 118.4927967  72.4837946  52.4193023 119.5040026
  59.4422536  43.2626898 103.3137632  59.7375977  42.3537577 103.2604686
  58.5410571  43.2414638 102.9918634  71.3508614  54.9834162 110.1188040
  71.2259754  54.1823902 109.6098986  72.0087706  55.4780356 109.6302010
  62.9716783  41.3382895 109.2965181  62.2503368  41.9518862 109.1572654
  63.7610038  41.8740660 109.2181826  73.4143523  52.7843182 111.7467590
  72.4673858  52.6648534 111.6745917  73.7626296  51.8965680 111.8293852
  65.7743096  38.6737321 115.5705832  66.2977498  38.9199618 116.3332142
  65.5555430  39.5057356 115.1508970  61.1710377  40.9440996 103.4376957
  60.8423083  40.0638375 103.2552063  61.5249748  40.8888665 104.3253346
  70.4189956  52.5795899 107.9471943  70.2714919  51.6512606 108.1279513
  71.2443450  52.6015989 107.4629018  64.2852200  41.2313966 103.8052435
  64.6248273  41.7599887 103.0831043  64.7324321  41.5694372 104.5811001
  74.0224078  53.4024457 109.0336815  74.9470625  53.1967319 108.8961267
  73.8539381  53.1540858 109.9426157  66.9795641  39.6151016 113.2555503
  66.6392462  38.8158829 113.6576183  66.2734648  39.9152727 112.6832336
  67.6312113  36.7000329 111.7082826  68.4538182  36.2260807 111.5861716
  67.8750177  37.4790813 112.2081512  66.2720348  39.7288587 102.0045728
  66.9928710  40.1069840 101.5009444  65.6485652  40.4477464 102.1080705
  70.4151470  40.4333736 102.9404060  70.6315085  41.3158374 102.6392888
  69.9345538  40.0419950 102.2109702  65.1550692  43.3919449 109.5174804
  65.0095273  43.7059753 110.4099086  64.6775896  44.0104350 108.9645703
  67.0147075  40.3821997 109.5655694  67.0008644  39.4863091 109.2287992
  67.7319503  40.3892661 110.1993980  68.8673205  40.8159338 111.6108821
  68.6090983  41.7376408 111.6093152  68.3358246  40.4189772 112.3009286
  73.8119394  53.9210125 104.3898907  73.9856272  53.3556547 103.6372759
  74.3048285  54.7211020 104.2078397  59.6296354  45.9324794 112.4562466
  59.0849822  46.7084602 112.5882740  60.5075704  46.2795598 112.2981587
  66.4183971  39.2636378 104.8343264  66.5399882  38.3353024 105.0334152
  66.1286013  39.2775064 103.9221580  69.2875161  36.9491288 107.9709984
  69.3096858  37.0130621 107.0161964  69.7043220  36.1095797 108.1650490
  79.6658785  46.6846548 106.0089207  80.1089931  45.9353873 105.6108330
  78.7885296  46.6756684 105.6262939  74.7994567  53.2376889 101.4895805
  75.4945471  53.8583582 101.7083120  75.1417717  52.3872240 101.7648183
  60.4162376  45.0594690 115.3492622  59.6744112  45.2077325 115.9357253
  60.0955120  45.3202956 114.4859372  76.6985990  50.6876595 103.0183136
  77.2237314  51.0263867 102.2932456  76.6108342  49.7523610 102.8346271
  68.3606039  54.6010668 115.1473013  68.6693165  54.3559815 116.0195712
  69.1581521  54.8057307 114.6591883  68.3826651  56.7548578 107.3778389
  67.9431641  56.2624957 108.0711246  69.1334768  56.2121546 107.1370464
  60.8618990  52.9460119 107.3803017  61.6877009  52.6463891 107.0001661
  60.5113042  52.1767741 107.8292806  65.8300523  52.2986587 109.4500691
  65.2080532  51.6357292 109.1502919  66.5005390  52.3247719 108.7674339
  59.0627595  50.8646445 108.3391951  58.2259503  50.4368620 108.1575952
  59.0351240  51.0578889 109.2762742  65.9025050  40.7768375 119.0433197
  65.9513206  41.6530498 118.6610966  66.4447564  40.2345768 118.4704840
  76.3879896  51.3209498 118.3234334  75.5975440  51.3033637 117.7838833
  76.1513250  51.8597792 119.0783370  76.5077771  48.1701965 115.6367062
  76.5575776  48.0051972 116.5782585  76.3991694  47.3029224 115.2464943
  65.3914030  50.8490510 102.9259151  65.5402150  51.5325975 102.2725824
  66.1980473  50.8295600 103.4408607  73.7981533  44.1532893 116.9526369
  74.6991396  44.0139358 116.6610367  73.8729508  44.3187348 117.8924547
  68.1324339  41.5299747 115.7979555  67.2627648  41.8233314 115.5262144
  68.3683819  42.1140192 116.5186819  78.0095968  50.5898906 115.8809084
  77.7180776  50.9528887 116.7172545  77.3968099  49.8765915 115.7022416
  79.2091650  48.1551786 108.4011654  80.0438541  48.5941590 108.5649215
  79.3450779  47.6790439 107.5819900  76.2583156  45.7131521 114.3489142
  76.7337278  45.9059167 113.5407993  75.3348721  45.7690707 114.1032526
  63.1466663  46.8755688 103.9320220  62.9012705  45.9718018 104.1300430
  63.3162577  46.8772838 102.9899698  70.8363373  37.7479364 113.3144976
  71.3545316  38.4840391 112.9891464  70.4818505  38.0543358 114.1491735
  62.4162310  42.6084046 101.4306382  61.7231555  42.6828401 100.7746418
  62.1714062  41.8444389 101.9527899  71.0875967  34.1679647 108.8345872
  71.3677720  33.5002836 109.4606299  71.8726574  34.3608743 108.3220536
  68.8909435  53.3438641 100.3970899  68.3183402  53.9628828  99.9441371
  69.4642229  53.8938003 100.9310821  74.9584825  42.5897281 112.5817448
  75.9102248  42.6895379 112.6029672  74.7888275  41.7975549 113.0915532
  72.9799204  39.6752864 112.7676848  72.3849137  39.9557877 112.0723337
  72.6948901  40.1646765 113.5393590  72.1106695  53.6275791 101.5279481
  73.0437368  53.5621353 101.7312356  72.0229908  54.4632058 101.0694014
  74.7394712  52.9441661  98.4883429  74.6608343  52.6101525  99.3819186
  75.5604378  53.4363429  98.4874901  77.4372903  45.8103401 111.6959747
  77.4049223  44.8719401 111.8819431  78.0473526  45.8887437 110.9625572
  77.5867391  42.6014444 111.7418030  77.0706440  41.8172901 111.5547959
  78.4707340  42.2733161 111.9064550  75.2478118  36.3455460 107.7013843
  75.0502939  36.0370548 108.5857175  75.8577824  37.0717099 107.8311773
  83.2549453  46.8719407 110.8365784  83.9852841  46.6104696 111.3973487
  82.6456398  46.1348129 110.8767852  81.3364750  45.0127270 111.4340235
  80.6097913  44.8783235 110.8256727  80.9212037  45.3204099 112.2396953
  69.1594926  48.7317200 119.1987608  70.0797936  48.9095799 119.3927655
  69.1244509  47.7873245 119.0467307  67.4599151  42.6049430  97.6741836
  66.5530606  42.3082543  97.7504550  67.7375132  42.3079248  96.8076123
  58.3777091  43.9255793 108.1240883  58.0579876  43.0721102 107.8315257
  57.8310519  44.1404372 108.8798850  62.1556999  46.6418234 111.8410389
  62.3743009  47.5735342 111.8598423  62.5682773  46.2826209 112.6265193
  69.0761217  37.1486320 103.8286078  68.2661945  36.8033405 104.2041324
  69.7645633  36.8393863 104.4173689  71.0051765  36.2264367 105.4510374
  71.5582803  36.6459820 106.1100397  71.2421851  35.3000115 105.4933330
  67.0284864  42.2151440 121.2313138  66.9281591  43.1645797 121.1625229
  66.8106406  41.8869679 120.3589208  66.2297935  39.4636365  97.8153816
  67.0917099  39.7891264  98.0749633  66.4148280  38.6767861  97.3026881
  58.2465351  47.5458705 110.0934004  57.5528823  47.1312658 109.5803959
  58.9938342  47.5879241 109.4967423  74.3830572  38.3364892 104.9589039
  73.8029241  38.9949696 104.5767091  74.1166505  37.5142236 104.5476456
  72.8334138  37.7369949 107.1610359  73.3333917  37.8486484 106.3524678
  73.4769746  37.4331002 107.8011167  66.8916134  45.6448579 120.0478200
  66.4083216  46.4448939 120.2542089  66.9777073  45.6556524 119.0945644
  60.1602094  47.4776959 107.9700019  60.1372782  47.5764646 107.0181902
  60.4702730  48.3242109 108.2917185  62.8189472  49.5353114 112.0846634
  63.7732725  49.5037056 112.0176565  62.6201995  49.0743737 112.8996860
  63.4088854  48.1054230 114.6517431  64.2281743  48.5998308 114.6752269
  63.6825661  47.1886198 114.6234999  73.1655450  40.4964982 104.0145387
  72.2781305  40.7814633 103.7965582  73.5809439  40.3358745 103.1672664
  76.5169986  40.5211503 107.7299726  77.2930376  41.0107955 108.0024343
  75.7918120  40.9469557 108.1871596  78.9542545  41.2339122 108.7873667
  79.5487036  40.9934858 108.0766975  79.0269128  40.5146253 109.4147203
  61.1739700  55.0772733 109.1016832  61.0394168  54.3173134 108.5354830
  60.7571763  55.8013633 108.6345620  72.3098663  50.2609657  98.1093407
  73.0134514  50.4659659  98.7251062  71.5861312  50.8286419  98.3742490
  73.1396474  46.0119518 104.2295677  73.0831675  46.4688069 103.3903309
  73.6924816  45.2510203 104.0518520  76.9501280  41.8009250 105.0545797
  76.6938214  41.4005886 105.8854004  76.3254148  42.5153044 104.9295936
  81.2613617  44.5405323 107.5617088  80.7013175  44.6098512 108.3348650
  80.6557121  44.3646308 106.8416584  64.3308826  55.9742050 109.3135274
  64.2141210  56.9187483 109.2113964  63.5101273  55.6715612 109.7021073
  74.2185361  50.6992186 100.1591867  75.0530965  50.2673384  99.9769342
  74.0569704  50.5274200 101.0868761  73.8731253  47.2024299 101.5248206
  73.8180057  47.0368571 100.5836650  73.2477308  47.9100332 101.6810396
  58.6623768  42.4392364 115.3509628  59.3082632  41.9291318 115.8396854
  58.4540919  43.1761045 115.9253054  71.1877160  49.5073211 120.8501769
  72.0568320  49.6813863 120.4888404  70.7083912  50.3267628 120.7277498
  67.1827378  36.7032408 101.1033525  67.1706048  37.6474248 101.2601795
  68.0750800  36.5202554 100.8092986  65.3563340  56.6270312 112.5291203
  66.2590587  56.6593922 112.8457698  65.1300710  55.6970763 112.5437538
  67.1116942  55.3801299 109.1901281  66.1612573  55.3803160 109.0765654
  67.4149429  54.6334033 108.6737316  70.9979498  33.2975185 105.3579461
  70.2311894  32.7433672 105.5036144  71.4090203  33.3697054 106.2193613
  63.0021259  39.5859981 119.4484643  63.8652721  39.2296786 119.6587967
  62.4286670  39.2473876 120.1360047  82.8469636  61.2161837 110.2547044
  83.4848046  61.0968584 109.5510384  82.7290479  62.1642681 110.3134996
  79.6559342  61.1689265 110.1908568  79.3177854  61.0530330 109.3029103
  80.5249110  60.7680430 110.1709574  75.5146158  63.0224742 106.1805459
  74.9511023  62.9314678 105.4121747  75.3998553  62.2024646 106.6607952
  80.1379125  62.3224117 116.1494774  80.1267766  61.9276915 115.2775278
  80.2999765  61.5890189 116.7428545  73.0610590  64.5175933 109.0189680
  73.8531882  64.1766758 108.6035979  73.3007240  64.6270908 109.9391833
  81.0945717  66.6895709 101.4919924  80.4433696  67.2749790 101.1053938
  81.8890079  67.2201904 101.5514962  75.0201344  63.7784846 101.8907059
  75.7932220  63.2313833 101.7519934  75.3726743  64.6429096 102.1021520
  76.8586386  65.1061229 115.0973958  76.5676252  66.0106860 114.9820624
  77.4943371  65.1477756 115.8118027  77.7842593  62.4838077 111.6875318
  78.3806165  62.2594100 110.9732280  77.8417565  61.7422823 112.2900765
  77.3567622  59.9377513  99.5225508  77.6093142  59.4159034  98.7608971
  76.4192181  59.7743658  99.6252192  82.4010904  58.9413291 107.3300252
  83.1873994  58.5232714 106.9790669  82.6649609  59.8459383 107.4981900
  82.5720982  64.3786141 102.0288909  81.9366815  64.4520768 102.7409813
  82.2418388  64.9679740 101.3507988  87.8019332  58.8788524 108.2333230
  88.5344503  58.3087741 108.4671060  87.0458687  58.4910125 108.6739736
  77.0763910  61.8405618 101.7249883  76.9600168  61.1650522 102.3930968
  77.1866170  61.3537992 100.9082036  79.4195451  61.3015766 105.4296573
  79.0553658  60.7746387 106.1409494  80.2762567  60.9114235 105.2563058
  85.3244752  52.5910098 112.6927839  84.9928077  53.4605509 112.4689054
  84.7290365  52.2746382 113.3721869  79.0600938  56.3305665 100.4257921
  79.2275341  57.1985902 100.7928392  78.8698107  56.4932947  99.5019210
  81.8176271  64.7922644 112.0923752  81.5176994  65.6947683 111.9839559
  81.4727331  64.5254827 112.9444904  75.2688753  61.2436441 108.1260456
  74.3439249  61.1112655 108.3338148  75.5173166  62.0230660 108.6230398
  85.2173415  57.3105184 109.7721189  84.3090293  57.2420593 109.4779950
  85.1661011  57.7877129 110.6003014  79.0390159  58.7863323 101.4104588
  78.9189784  59.2320374 102.2490068  78.3442747  59.1348640 100.8518126
  72.6297564  60.8869715 108.9604245  72.7589945  61.1404194 109.8743657
  71.9495015  61.4797423 108.6408900  76.7997051  71.5566965 105.0594719
  76.7221081  72.5074790 105.1383200  76.1958695  71.2112837 105.7169646
  79.2914281  58.7294830 117.7156086  78.5147615  59.2888750 117.7058951
  79.9304844  59.2151613 118.2370956  87.0835062  55.5121623 111.5499063
  86.4409442  55.8054156 110.9038857  86.5789990  55.3974543 112.3552259
  84.7375225  59.2584796 102.2384922  85.6493081  59.4912183 102.0632620
  84.2284872  59.8421840 101.6760001  77.5460653  61.5380283 117.2774053
  78.2875338  62.0765327 117.0008877  76.8397639  62.1646572 117.4345605
  83.0215993  63.6809424 115.8746215  83.4299349  63.2391834 115.1300847
  82.2993254  63.1062051 116.1280408  79.3747063  58.6182031 113.2479772
  80.2208258  59.0421444 113.3914421  79.3145701  57.9615655 113.9418335
  83.3444808  64.2410614 109.6298504  82.7153670  64.4056329 108.9274571
  82.9570470  64.6552224 110.4009468  87.2234039  65.1765052 106.9842867
  86.5385078  65.5563954 106.4339901  87.3077889  65.7860379 107.7174815
  82.5246508  56.2786399 114.9060945  82.2807440  57.0328459 114.3695221
  82.8006439  56.6571747 115.7408192  84.4784971  62.8225011 113.5838211
  84.6901866  63.4656771 112.9072592  84.4314719  61.9887328 113.1160141
  82.0811200  55.4342832 110.4874783  81.2195679  55.7324086 110.7791521
  82.1073635  55.6513231 109.5555816  78.8972769  63.9785023 106.8948589
  79.3611115  64.2572725 106.1053211  78.6329568  63.0768467 106.7121679
  75.7896851  63.5256504 109.8328352  76.3598208  63.9543772 109.1945836
  76.3804962  63.2439089 110.5312538  77.8341656  60.1008175 103.7038154
  78.5365699  60.5529219 104.1712080  77.5022284  59.4591994 104.3318047
  76.2822017  58.6919931 118.0789363  75.6520678  59.3736212 118.3124760
  76.1758105  58.5803013 117.1342501  71.5766989  58.3591728 109.0055287
  70.7866043  58.6149256 108.5295398  72.0678237  59.1740065 109.1107328
  85.5930799  65.6996967 111.7560568  86.4148243  65.2977154 111.4743250
  85.5893202  65.5965201 112.7076684  73.5281735  58.7236307 105.9638764
  72.7312898  58.8355001 106.4822260  73.3007327  59.0622959 105.0979655
  79.3587402  65.2481010 113.9121279  79.4231835  65.7101417 114.7479450
  78.6498326  64.6178375 114.0403588  69.8604692  58.6122218 111.4370278
  70.1112731  59.4969228 111.7027854  70.3964241  58.4326820 110.6645370
  93.6836792  62.0435715 108.1045540  92.9300500  61.4743113 107.9489544
  93.8184333  62.0098380 109.0516174  79.0735420  66.9149117 103.7800259
  78.9381095  67.7600653 104.2085107  79.6145233  67.1168395 103.0166193
  75.5602760  52.9940697 120.4414614  75.1669705  52.4406896 121.1162258
  76.3768900  53.3051276 120.8321132  72.5264818  64.4324556 104.3528184
  73.0389338  65.2267806 104.5033749  73.1787530  63.7350846 104.2861786
  74.3359702  67.5490312 106.4350937  74.5126331  68.4708277 106.2471921
  75.1316536  67.2348731 106.8645317  78.4770721  54.4098576 118.0334871
  79.2180434  55.0105730 117.9539333  78.7088644  53.6676214 117.4752913
  73.6212059  59.5954944 116.3113100  73.5065574  58.6940201 116.6120199
  72.7656577  59.8418640 115.9597917  80.7003897  67.5372684 117.9100601
  80.2567751  66.7509063 117.5921506  81.3621110  67.7251835 117.2444492
  75.4591018  69.0668486 112.4361280  76.0098443  68.9385549 111.6638274
  74.6202494  69.3663375 112.0856172  82.7985135  67.8175484 115.9382002
  82.7803610  68.6384365 115.4462271  83.7205055  67.6929559 116.1632143
  79.2558189  65.3319613 116.7805511  79.7886526  64.5707902 116.5504819
  78.7272270  65.0393265 117.5229665  82.4227884  50.4379679 112.3099152
  82.0792153  51.3281321 112.2338263  82.7906846  50.2481337 111.4468737
  70.4913734  62.7613210 105.1287755  71.3288956  63.1710218 104.9121462
  70.6692002  61.8212652 105.0987948  82.3878166  60.4288290 100.8171588
  81.8724790  61.1992895 101.0559975  82.1155475  59.7553427 101.4404649
  79.9725277  55.2737991 105.8756826  79.1166874  54.8844842 105.6962465
  80.3852229  55.3529952 105.0156611  81.5024424  52.8084335 110.2748386
  80.9989220  52.7714470 109.4616191  81.7955031  53.7177077 110.3345042
  77.7467310  52.8923064 109.2814567  78.6120307  52.6965873 108.9220457
  77.8144819  52.6633416 110.2083924  87.3612441  63.1820645 102.7524761
  86.5841883  62.8431805 102.3079923  88.0403922  63.1873268 102.0779726
  82.1764470  58.3015383 102.6431369  81.8714605  58.6161532 103.4941512
  83.1294912  58.3796802 102.6858702  80.6210901  64.4605606 104.2924323
  80.0932263  63.7258365 103.9797560  80.1198404  65.2380282 104.0464291
  85.6003747  62.6554626 109.4091369  84.9427422  63.3453888 109.4971498
  86.4044147  63.0451058 109.7525355  75.3529629  55.1225272 106.6530934
  75.9273381  54.9000454 105.9204127  75.9400611  55.1913967 107.4059536
  84.4109206  61.0098999 107.4595311  84.9241088  61.6428991 107.9617020
  85.0610430  60.4100195 107.0938671  75.6799216  57.1529733 100.6726819
  74.8436528  57.4904420 100.9936094  75.5403986  57.0178713  99.7353956
  77.6552297  51.9966521 105.3806004  77.0016709  51.6815538 104.7562618
  77.6132771  51.3742262 106.1065827  78.7663502  62.2785816  97.2959296
  77.8590563  62.0475070  97.4950445  79.2634534  61.4823435  97.4833277
  81.6731580  70.9883323 100.2155982  80.9993279  71.2915020 100.8240940
  82.0597402  71.7912404  99.8661439  80.8890037  58.4848455 109.7053651
  79.9712598  58.7063402 109.5475339  81.3050181  58.5594765 108.8465359
  81.6725085  59.8839870 104.8356332  82.4196904  60.3961268 104.5263454
  81.9416674  59.5623923 105.6960725  79.9451735  62.3798411 101.8183286
  79.0362954  62.0957444 101.9155756  79.9746819  62.7997490 100.9586593
  85.1771002  65.9905001 105.5874453  84.7233330  65.1495910 105.6439644
  84.5464969  66.6266399 105.9249234  84.1203922  56.9196987 106.8175121
  83.3826679  56.4074373 107.1485363  84.3730696  56.4797368 106.0058398
  83.6203942  67.8281497 106.5224272  83.9126916  68.3886554 105.8036637
  84.1302562  68.1210058 107.2777431  84.2215549  49.6973239 107.4116890
  84.5274426  48.8370602 107.1242805  84.9468154  50.2890859 107.2115884
  70.5139905  60.1003925 105.7998488  70.3164305  59.5073286 105.0749555
  69.9586569  59.7956135 106.5174427  78.4936629  59.9927032 107.9193081
  78.5485239  59.0400868 107.8435558  77.6827831  60.1486471 108.4034380
  79.6427823  63.9207155  99.1571364  79.2047253  63.2043014  98.6977002
  80.3838264  64.1483270  98.5956456  76.4328989  58.6104091 105.6783460
  75.6196855  58.9098262 106.0848652  76.9287983  58.2159780 106.3957942
  78.5837567  68.6061848 107.6117725  78.5413746  68.8322695 106.6826257
  79.5000266  68.3725223 107.7603526  82.0303201  59.0745916 114.5098354
  82.3852588  59.3017389 115.3692820  82.6775332  59.4064293 113.8875609
  87.7600938  62.1964352 105.2147683  87.6218836  62.3865948 104.2868872
  87.4037156  62.9583735 105.6715734  75.9243064  56.1822447 111.2944695
  76.5642443  56.0411206 110.5967658  75.0920594  55.8956960 110.9183297
  87.7870317  64.2640879 110.2258954  88.2206824  64.1716168 111.0742009
  88.5001898  64.2398379 109.5878970  76.7003368  65.4824877 107.4079687
  77.4943966  64.9875197 107.2062262  75.9895060  64.9542740 107.0447393
  81.5198212  67.8642973 111.7592055  81.5735234  68.4333909 112.5269771
  80.6512994  68.0344858 111.3946092  73.0086131  59.6267959 103.4839440
  72.0783719  59.5652415 103.7009402  73.1043603  59.1043912 102.6876081
  72.9271680  56.1522772 106.0717682  73.1878497  57.0668105 105.9626842
  73.7488853  55.6847214 106.2214295  74.3996606  57.5660529 113.2416506
  75.0719659  57.3577891 112.5929155  73.5726392  57.3682615 112.8021739
  88.6485867  64.3064579 112.7591840  88.8421757  65.2110390 113.0051115
  88.5486485  63.8471998 113.5930425  80.3022178  54.1922470 115.2582167
  79.6550093  54.8912420 115.1646644  81.0723193  54.6258614 115.6258415
  83.7100975  64.4571322 118.3332720  83.5586482  64.2281874 117.4162804
  83.7005655  65.4141924 118.3464066  80.4786312  62.0303235 113.3178987
  81.4078372  62.1814394 113.1447954  80.0577342  62.1187256 112.4627633
  79.2774644  66.0553899 111.0877525  79.1385729  65.6872684 111.9603463
  78.4889240  66.5701539 110.9161482  79.8722796  71.1562996 102.4303061
  80.0474551  70.6851039 103.2448684  79.1855584  71.7828762 102.6584322
  80.8279859  65.4335502 108.4766362  80.4929691  65.3936272 109.3724012
  80.3283804  64.7680218 108.0036773  74.8024103  60.8403132 114.0018944
  74.6643901  60.1083371 114.6030483  75.7129026  60.7512032 113.7203131
  83.7639050  62.7791536  98.7503422  83.1468221  62.0538365  98.6536475
  83.2955539  63.5400897  98.4070496  77.4306403  60.5523091 113.4902623
  78.1406022  59.9116284 113.4489242  77.3875712  60.8035986 114.4128804
  85.4193182  67.4890445 116.4109202  85.3605728  66.8049665 115.7439785
  85.8212701  68.2309435 115.9589828  76.1435337  57.5388309 115.3098263
  75.6072694  57.0879048 115.9619859  75.5552046  57.6734218 114.5668727
  74.4383881  74.3052359 109.2042921  74.6780479  74.9370883 109.8821940
  73.5953077  73.9540399 109.4908281  75.5537596  56.9976961  97.8724726
  74.6767063  56.8765761  97.5086973  76.0295349  56.2063039  97.6203615
  85.4210589  65.4530029 114.6423182  84.5337368  65.1155950 114.7649581
  85.9909140  64.7213060 114.8791947  67.0739737  61.7854120 107.9666233
  67.7610776  61.4715850 107.3787249  66.9187865  62.6895485 107.6933485
  71.8774459  56.6744317 112.3951257  71.7932647  56.0669986 111.6601667
  71.0557165  57.1653335 112.3960753  78.9511743  70.1131481 111.6084425
  78.8781914  70.9186452 112.1203730  78.5089136  70.3123447 110.7832447
  78.7401522  69.3503251 105.1187247  77.9569044  69.8924931 105.2125471
  79.4394268  69.8677231 105.5181488  82.0498173  55.1597880 107.7621452
  82.5466872  54.4067843 107.4422522  81.2785154  55.1962197 107.1964661
  89.9027930  60.8638246 109.4039744  89.8917806  61.7462961 109.0333677
  89.0345309  60.5109797 109.2094281  81.4110426  70.0118315 113.7642584
  82.1238399  70.6465780 113.6918485  80.9200455  70.1082181 112.9482586
  83.1327953  63.9169568 105.3359876  82.1984232  64.0371030 105.1664580
  83.3104622  63.0142034 105.0719885  78.6333141  57.3015263 107.4893137
  78.2630929  56.7486304 108.1774042  79.1292234  56.6973397 106.9368137
  86.5200505  59.7586887 105.8709910  86.9860957  60.5914879 105.7970212
  86.9708005  59.2931869 106.5755168  76.4622340  67.7612758 114.5848155
  77.1631799  68.3949241 114.7377549  75.9917455  68.1027490 113.8243794
  84.5876736  66.1030708 102.8696062  84.8636580  65.9887303 103.7789936
  83.7181234  65.7048193 102.8308235  84.4917167  52.1267474 109.9100811
  83.5780247  52.3571701 110.0783018  84.9210269  52.2105918 110.7614843
  84.2623626  60.3157366 112.4100705  83.6095076  60.5633273 111.7553158
  84.6404006  59.5021504 112.0763182  81.2230800  70.3517059 106.5128875
  81.4053194  69.5338715 106.9756628  82.0463786  70.5684751 106.0753765
  81.5572965  69.2785244 103.7743924  82.0860732  68.7677699 103.1614086
  81.8201185  68.9627774 104.6389457  80.3111199  61.0577177 118.8966742
  79.6351836  60.9571306 119.5669117  81.1338833  60.9016391 119.3602739
  72.0590058  67.2949114 111.5179257  72.6443495  66.5492801 111.6507162
  71.8614896  67.6053070 112.4015921  74.9128713  70.3300361 106.5341700
  74.2439088  70.8146489 106.0505740  74.7741583  70.5769581 107.4485078
  66.6507713  59.8654714 110.2383701  66.6891812  59.3318304 111.0320819
  66.1448005  59.3389919 109.6194678  79.0533982  72.3644104 113.1324358
  79.6052290  72.5275726 113.8973443  79.3940175  72.9548542 112.4604383
  74.0298475  54.7119254 113.7346243  74.0939801  55.5734085 113.3223641
  73.9665595  54.0993256 113.0018601  73.5050747  56.7842387 117.3819277
  74.1322786  56.4019464 117.9956801  72.6478666  56.5656589 117.7474970
  83.9044856  67.1905362 118.9873013  84.4484760  67.8035320 118.4927967
  83.3231701  67.7484940 119.5040026  70.2816290  58.5918816 103.3137632
  70.5769731  57.6829494 103.2604686  69.3804326  58.5706555 102.9918634
  82.1902369  70.3126080 110.1188040  82.0653508  69.5115820 109.6098986
  82.8481460  70.8072273 109.6302010  73.8110537  56.6674812 109.2965181
  73.0897123  57.2810780 109.1572654  74.6003793  57.2032577 109.2181826
  84.2537277  68.1135100 111.7467590  83.3067613  67.9940451 111.6745917
  84.6020050  67.2257598 111.8293852  76.6136851  54.0029239 115.5705832
  77.1371253  54.2491536 116.3332142  76.3949184  54.8349274 115.1508970
  72.0104132  56.2732914 103.4376957  71.6816838  55.3930292 103.2552063
  72.3643502  56.2180582 104.3253346  81.2583711  67.9087816 107.9471943
  81.1108673  66.9804524 108.1279513  82.0837204  67.9307907 107.4629018
  75.1245955  56.5605883 103.8052435  75.4642027  57.0891805 103.0831043
  75.5718075  56.8986289 104.5811001  84.8617833  68.7316375 109.0336815
  85.7864380  68.5259236 108.8961267  84.6933136  68.4832776 109.9426157
  77.8189396  54.9442934 113.2555503  77.4786216  54.1450747 113.6576183
  77.1128402  55.2444645 112.6832336  78.4705868  52.0292246 111.7082826
  79.2931937  51.5552725 111.5861716  78.7143931  52.8082730 112.2081512
  77.1114102  55.0580505 102.0045728  77.8322465  55.4361758 101.5009444
  76.4879406  55.7769382 102.1080705  81.2545225  55.7625654 102.9404060
  81.4708839  56.6450292 102.6392888  80.7739292  55.3711867 102.2109702
  75.9944446  58.7211367 109.5174804  75.8489027  59.0351670 110.4099086
  75.5169650  59.3396267 108.9645703  77.8540829  55.7113915 109.5655694
  77.8402398  54.8155008 109.2287992  78.5713257  55.7184579 110.1993980
  79.7066960  56.1451255 111.6108821  79.4484738  57.0668326 111.6093152
  79.1752000  55.7481690 112.3009286  84.6513149  69.2502042 104.3898907
  84.8250026  68.6848465 103.6372759  85.1442040  70.0502937 104.2078397
  70.4690109  61.2616712 112.4562466  69.9243577  62.0376519 112.5882740
  71.3469458  61.6087516 112.2981587  77.2577725  54.5928295 104.8343264
  77.3793636  53.6644942 105.0334152  76.9679768  54.6066981 103.9221580
  80.1268916  52.2783206 107.9709984  80.1490612  52.3422539 107.0161964
  80.5436975  51.4387714 108.1650490  90.5052540  62.0138465 106.0089207
  90.9483686  61.2645791 105.6108330  89.6279050  62.0048602 105.6262939
  85.6388321  68.5668807 101.4895805  86.3339226  69.1875500 101.7083120
  85.9811471  67.7164158 101.7648183  71.2556130  60.3886608 115.3492622
  70.5137866  60.5369243 115.9357253  70.9348875  60.6494873 114.4859372
  87.5379744  66.0168512 103.0183136  88.0631068  66.3555785 102.2932456
  87.4502097  65.0815528 102.8346271  79.1999793  69.9302586 115.1473013
  79.5086919  69.6851733 116.0195712  79.9975275  70.1349224 114.6591883
  79.2220405  72.0840496 107.3778389  78.7825395  71.5916874 108.0711246
  79.9728522  71.5413463 107.1370464  71.7012744  68.2752037 107.3803017
  72.5270764  67.9755808 107.0001661  71.3506796  67.5059659 107.8292806
  76.6694277  67.6278505 109.4500691  76.0474287  66.9649210 109.1502919
  77.3399144  67.6539637 108.7674339  69.9021349  66.1938363 108.3391951
  69.0653257  65.7660537 108.1575952  69.8744995  66.3870806 109.2762742
  76.7418805  56.1060293 119.0433197  76.7906960  56.9822416 118.6610966
  77.2841319  55.5637686 118.4704840  87.2273650  66.6501416 118.3234334
  86.4369194  66.6325555 117.7838833  86.9907005  67.1889710 119.0783370
  87.3471525  63.4993882 115.6367062  87.3969530  63.3343890 116.5782585
  87.2385449  62.6321141 115.2464943  76.2307784  66.1782428 102.9259151
  76.3795905  66.8617892 102.2725824  77.0374228  66.1587518 103.4408607
  84.6375288  59.4824810 116.9526369  85.5385151  59.3431275 116.6610367
  84.7123262  59.6479265 117.8924547  78.9718093  56.8591665 115.7979555
  78.1021403  57.1525231 115.5262144  79.2077574  57.4432110 116.5186819
  88.8489722  65.9190824 115.8809084  88.5574531  66.2820804 116.7172545
  88.2361854  65.2057832 115.7022416  90.0485405  63.4843704 108.4011654
  90.8832296  63.9233508 108.5649215  90.1844533  63.0082357 107.5819900
  87.0976911  61.0423439 114.3489142  87.5731032  61.2351085 113.5407993
  86.1742476  61.0982624 114.1032526  73.9860417  62.2047606 103.9320220
  73.7406459  61.3009936 104.1300430  74.1556332  62.2064756 102.9899698
  81.6757127  53.0771282 113.3144976  82.1939071  53.8132309 112.9891464
  81.3212260  53.3835275 114.1491735  73.2556065  57.9375963 101.4306382
  72.5625310  58.0120318 100.7746418  73.0107817  57.1736307 101.9527899
  81.9269721  49.4971565 108.8345872  82.2071475  48.8294754 109.4606299
  82.7120328  49.6900660 108.3220536  79.7303190  68.6730559 100.3970899
  79.1577157  69.2920746  99.9441371  80.3035983  69.2229920 100.9310821
  85.7978580  57.9189199 112.5817448  86.7496002  58.0187296 112.6029672
  85.6282030  57.1267467 113.0915532  83.8192959  55.0044782 112.7676848
  83.2242891  55.2849795 112.0723337  83.5342656  55.4938683 113.5393590
  82.9500449  68.9567709 101.5279481  83.8831123  68.8913270 101.7312356
  82.8623662  69.7923976 101.0694014  85.5788466  68.2733579  98.4883429
  85.5002098  67.9393443  99.3819186  86.3998133  68.7655347  98.4874901
  88.2766657  61.1395318 111.6959747  88.2442977  60.2011319 111.8819431
  88.8867281  61.2179355 110.9625572  80.1149988  60.0091371  97.7386951
  81.0609093  59.8797579  97.8075369  79.7364233  59.2706033  98.2156379
  88.4261146  57.9306362 111.7418030  87.9100194  57.1464818 111.5547959
  89.3101094  57.6025078 111.9064550  86.0871873  51.6747377 107.7013843
  85.8896694  51.3662465 108.5857175  86.6971578  52.4009016 107.8311773
  94.0943207  62.2011325 110.8365784  94.8246596  61.9396613 111.3973487
  93.4850153  61.4640047 110.8767852  92.1758504  60.3419188 111.4340235
  91.4491668  60.2075153 110.8256727  91.7605791  60.6496016 112.2396953
  79.9988681  64.0609117 119.1987608  80.9191690  64.2387716 119.3927655
  79.9638264  63.1165163 119.0467307  78.2992905  57.9341348  97.6741836
  77.3924361  57.6374460  97.7504550  78.5768886  57.6371166  96.8076123
  69.2170846  59.2547711 108.1240883  68.8973630  58.4013019 107.8315257
  68.6704274  59.4696289 108.8798850  72.9950753  61.9710152 111.8410389
  73.2136763  62.9027260 111.8598423  73.4076527  61.6118126 112.6265193
  79.9154971  52.4778237 103.8286078  79.1055699  52.1325322 104.2041324
  80.6039388  52.1685781 104.4173689  81.8445519  51.5556284 105.4510374
  82.3976558  51.9751738 106.1100397  82.0815606  50.6292032 105.4933330
  77.8678619  57.5443358 121.2313138  77.7675345  58.4937715 121.1625229
  77.6500161  57.2161597 120.3589208  77.0691690  54.7928283  97.8153816
  77.9310854  55.1183181  98.0749633  77.2542034  54.0059779  97.3026881
  69.0859106  62.8750623 110.0934004  68.3922577  62.4604575 109.5803959
  69.8332097  62.9171159 109.4967423  85.2224326  53.6656809 104.9589039
  84.6422995  54.3241613 104.5767091  84.9560259  52.8434154 104.5476456
  83.6727893  53.0661867 107.1610359  84.1727671  53.1778402 106.3524678
  84.3163501  52.7622920 107.8011167  77.7309889  60.9740497 120.0478200
  77.2476970  61.7740857 120.2542089  77.8170828  60.9848442 119.0945644
  70.9995848  62.8068876 107.9700019  70.9766536  62.9056564 107.0181902
  71.3096485  63.6534027 108.2917185  73.6583226  64.8645031 112.0846634
  74.6126480  64.8328974 112.0176565  73.4595750  64.4035655 112.8996860
  74.2482608  63.4346147 114.6517431  75.0675497  63.9290226 114.6752269
  74.5219416  62.5178116 114.6234999  84.0049204  55.8256900 104.0145387
  83.1175059  56.1106550 103.7965582  84.4203194  55.6650663 103.1672664
  87.3563741  55.8503421 107.7299726  88.1324131  56.3399873 108.0024343
  86.6311875  56.2761475 108.1871596  89.7936299  56.5631040 108.7873667
  90.3880790  56.3226776 108.0766975  89.8662883  55.8438171 109.4147203
  72.0133455  70.4064651 109.1016832  71.8787923  69.6465052 108.5354830
  71.5965517  71.1305551 108.6345620  83.1492418  65.5901574  98.1093407
  83.8528268  65.7951577  98.7251062  82.4255067  66.1578336  98.3742490
  83.9790228  61.3411436 104.2295677  83.9225430  61.7979987 103.3903309
  84.5318571  60.5802120 104.0518520  87.7895034  57.1301168 105.0545797
  87.5331968  56.7297803 105.8854004  87.1647902  57.8444961 104.9295936
  92.1007372  59.8697241 107.5617088  91.5406930  59.9390430 108.3348650
  91.4950875  59.6938225 106.8416584  75.1702581  71.3033968 109.3135274
  75.0534965  72.2479400 109.2113964  74.3495027  71.0007529 109.7021073
  85.0579115  66.0284104 100.1591867  85.8924719  65.5965302  99.9769342
  84.8963458  65.8566117 101.0868761  84.7125007  62.5316217 101.5248206
  84.6573811  62.3660488 100.5836650  84.0871063  63.2392250 101.6810396
  69.5017522  57.7684281 115.3509628  70.1476386  57.2583235 115.8396854
  69.2934674  58.5052963 115.9253054  82.0270915  64.8365129 120.8501769
  82.8962074  65.0105781 120.4888404  81.5477666  65.6559546 120.7277498
  78.0221133  52.0324326 101.1033525  78.0099803  52.9766166 101.2601795
  78.9144555  51.8494471 100.8092986  76.1957095  71.9562230 112.5291203
  77.0984342  71.9885840 112.8457698  75.9694465  71.0262681 112.5437538
  77.9510697  70.7093216 109.1901281  77.0006328  70.7095078 109.0765654
  78.2543183  69.9625951 108.6737316  81.8373252  48.6267103 105.3579461
  81.0705648  48.0725589 105.5036144  82.2483957  48.6988971 106.2193613
  73.8415013  54.9151898 119.4484643  74.7046475  54.5588703 119.6587967
  73.2680424  54.5765793 120.1360047  93.6863390  76.5453755 110.2547044
  94.3241800  76.4260502 109.5510384  93.5684233  77.4934599 110.3134996
  90.4953097  76.4981183 110.1908568  90.1571608  76.3822248 109.3029103
  91.3642865  76.0972348 110.1709574  86.3539912  78.3516659 106.1805459
  85.7904778  78.2606596 105.4121747  86.2392307  77.5316564 106.6607952
  90.9772880  77.6516035 116.1494774  90.9661520  77.2568833 115.2775278
  91.1393519  76.9182107 116.7428545  83.9004344  79.8467851 109.0189680
  84.6925636  79.5058675 108.6035979  84.1400994  79.9562826 109.9391833
  87.6980141  80.4353146 115.0973958  87.4070007  81.3398777 114.9820624
  88.3337125  80.4769674 115.8118027  88.6236348  77.8129995 111.6875318
  89.2199920  77.5886017 110.9732280  88.6811319  77.0714740 112.2900765
  88.1961376  75.2669430  99.5225508  88.4486897  74.7450951  98.7608971
  87.2585935  75.1035576  99.6252192  93.2404659  74.2705209 107.3300252
  94.0267748  73.8524632 106.9790669  93.5043363  75.1751301 107.4981900
  98.6413086  74.2080442 108.2333230  99.3738258  73.6379659 108.4671060
  97.8852442  73.8202042 108.6739736  90.2589206  76.6307683 105.4296573
  89.8947413  76.1038304 106.1409494  91.1156322  76.2406152 105.2563058
  96.1638506  67.9202016 112.6927839  95.8321831  68.7897427 112.4689054
  95.5684120  67.6038300 113.3721869  89.8994693  71.6597583 100.4257921
  90.0669095  72.5277819 100.7928392  89.7091862  71.8224865  99.5019210
  92.6570026  80.1214562 112.0923752  92.3570749  81.0239601 111.9839559
  92.3121085  79.8546745 112.9444904  86.1082507  76.5728359 108.1260456
  85.1833004  76.4404573 108.3338148  86.3566921  77.3522578 108.6230398
  96.0567170  72.6397102 109.7721189  95.1484047  72.5712510 109.4779950
  96.0054765  73.1169047 110.6003014  89.8783914  74.1155240 101.4104588
  89.7583539  74.5612291 102.2490068  89.1836502  74.4640558 100.8518126
  83.4691318  76.2161632 108.9604245  83.5983700  76.4696111 109.8743657
  82.7888770  76.8089340 108.6408900  90.1308035  74.0586748 117.7156086
  89.3541370  74.6180668 117.7058951  90.7698599  74.5443531 118.2370956
  97.9228816  70.8413540 111.5499063  97.2803196  71.1346074 110.9038857
  97.4183745  70.7266461 112.3552259  95.5768980  74.5876714 102.2384922
  96.4886836  74.8204100 102.0632620  95.0678627  75.1713758 101.6760001
  88.3854408  76.8672201 117.2774053  89.1269092  77.4057245 117.0008877
  87.6791393  77.4938490 117.4345605  93.8609747  79.0101341 115.8746215
  94.2693103  78.5683752 115.1300847  93.1387009  78.4353969 116.1280408
  90.2140817  73.9473948 113.2479772  91.0602013  74.3713362 113.3914421
  90.1539455  73.2907573 113.9418335  94.1838562  79.5702532 109.6298504
  93.5547425  79.7348246 108.9274571  93.7964224  79.9844142 110.4009468
  98.0627794  80.5056970 106.9842867  97.3778832  80.8855871 106.4339901
  98.1471643  81.1152297 107.7174815  93.3640263  71.6078317 114.9060945
  93.1201195  72.3620377 114.3695221  93.6400193  71.9863664 115.7408192
  95.3178726  78.1516929 113.5838211  95.5295621  78.7948689 112.9072592
  95.2708474  77.3179246 113.1160141  92.9204955  70.7634750 110.4874783
  92.0589434  71.0616003 110.7791521  92.9467389  70.9805149 109.5555816
  86.6290605  78.8548422 109.8328352  87.1991962  79.2835690 109.1945836
  87.2198717  78.5731006 110.5312538  88.6735410  75.4300093 103.7038154
  89.3759453  75.8821136 104.1712080  88.3416038  74.7883911 104.3318047
  87.1215772  74.0211849 118.0789363  86.4914432  74.7028130 118.3124760
  87.0151859  73.9094931 117.1342501  82.4160744  73.6883645 109.0055287
  81.6259798  73.9441174 108.5295398  82.9071991  74.5031983 109.1107328
  96.4324554  81.0288884 111.7560568  97.2541997  80.6269072 111.4743250
  96.4286956  80.9257119 112.7076684  84.3675489  74.0528224 105.9638764
  83.5706653  74.1646919 106.4822260  84.1401082  74.3914877 105.0979655
  90.1981157  80.5772928 113.9121279  90.2625589  81.0393335 114.7479450
  89.4892081  79.9470293 114.0403588  80.6998447  73.9414136 111.4370278
  80.9506485  74.8261146 111.7027854  81.2357995  73.7618737 110.6645370
 104.5230547  77.3727633 108.1045540 103.7694255  76.8035031 107.9489544
 104.6578088  77.3390297 109.0516174  86.3996514  68.3232615 120.4414614
  86.0063460  67.7698814 121.1162258  87.2162655  68.6343193 120.8321132
  89.3164475  69.7390494 118.0334871  90.0574189  70.3397647 117.9539333
  89.5482398  68.9968132 117.4752913  84.4605813  74.9246861 116.3113100
  84.3459328  74.0232119 116.6120199  83.6050331  75.1710558 115.9597917
  91.5397651  82.8664602 117.9100601  91.0961505  82.0800980 117.5921506
  92.2014865  83.0543752 117.2444492  86.2984772  84.3960403 112.4361280
  86.8492197  84.2677467 111.6638274  85.4596248  84.6955292 112.0856172
  93.6378889  83.1467402 115.9382002  93.6197364  83.9676283 115.4462271
  94.5598809  83.0221477 116.1632143  90.0951943  80.6611531 116.7805511
  90.6280280  79.8999819 116.5504819  89.5666024  80.3685183 117.5229665
  93.2621638  65.7671597 112.3099152  92.9185908  66.6573239 112.2338263
  93.6300601  65.5773255 111.4468737  93.2271921  75.7580208 100.8171588
  92.7118544  76.5284813 101.0559975  92.9549229  75.0845344 101.4404649
  90.8119032  70.6029909 105.8756826  89.9560628  70.2136759 105.6962465
  91.2245984  70.6821870 105.0156611  92.3418179  68.1376252 110.2748386
  91.8382974  68.1006387 109.4616191  92.6348785  69.0468995 110.3345042
  88.5861064  68.2214982 109.2814567  89.4514061  68.0257791 108.9220457
  88.6538573  67.9925334 110.2083924  98.2006195  78.5112563 102.7524761
  97.4235638  78.1723722 102.3079923  98.8797676  78.5165186 102.0779726
  93.0158224  73.6307300 102.6431369  92.7108360  73.9453449 103.4941512
  93.9688666  73.7088720 102.6858702  96.4397502  77.9846544 109.4091369
  95.7821176  78.6745805 109.4971498  97.2437901  78.3742976 109.7525355
  86.1923384  70.4517190 106.6530934  86.7667135  70.2292371 105.9204127
  86.7794366  70.5205884 107.4059536  95.2502961  76.3390917 107.4595311
  95.7634842  76.9720909 107.9617020  95.9004185  75.7392112 107.0938671
  86.5192971  72.4821651 100.6726819  85.6830283  72.8196337 100.9936094
  86.3797740  72.3470631  99.7353956  88.4946051  67.3258439 105.3806004
  87.8410464  67.0107456 104.7562618  88.4526525  66.7034179 106.1065827
  89.6057256  77.6077734  97.2959296  88.6984318  77.3766987  97.4950445
  90.1028288  76.8115353  97.4833277  91.7283792  73.8140372 109.7053651
  90.8106353  74.0355319 109.5475339  92.1443935  73.8886683 108.8465359
  92.5118839  75.2131788 104.8356332  93.2590658  75.7253185 104.5263454
  92.7810429  74.8915841 105.6960725  94.9597677  72.2488904 106.8175121
  94.2220433  71.7366290 107.1485363  95.2124450  71.8089286 106.0058398
  95.0609304  65.0265156 107.4116890  95.3668181  64.1662520 107.1242805
  95.7861909  65.6182776 107.2115884  81.3533660  75.4295843 105.7998488
  81.1558060  74.8365204 105.0749555  80.7980324  75.1248053 106.5174427
  89.3330384  75.3218949 107.9193081  89.3878993  74.3692786 107.8435558
  88.5221586  75.4778388 108.4034380  90.4821577  79.2499072  99.1571364
  90.0441007  78.5334931  98.6977002  91.2232018  79.4775187  98.5956456
  87.2722744  73.9396009 105.6783460  86.4590609  74.2390180 106.0848652
  87.7681738  73.5451698 106.3957942  92.8696955  74.4037834 114.5098354
  93.2246343  74.6309307 115.3692820  93.5169086  74.7356210 113.8875609
  98.5994692  77.5256269 105.2147683  98.4612591  77.7157865 104.2868872
  98.2430911  78.2875652 105.6715734  86.7636818  71.5114365 111.2944695
  87.4036198  71.3703124 110.5967658  85.9314349  71.2248878 110.9183297
  98.6264072  79.5932796 110.2258954  99.0600578  79.5008086 111.0742009
  99.3395652  79.5690297 109.5878970  83.8479886  74.9559877 103.4839440
  82.9177474  74.8944332 103.7009402  83.9437358  74.4335829 102.6876081
  83.7665435  71.4814690 106.0717682  84.0272252  72.3960023 105.9626842
  84.5882607  71.0139132 106.2214295  85.2390360  72.8952447 113.2416506
  85.9113413  72.6869809 112.5929155  84.4120147  72.6974533 112.8021739
  99.4879621  79.6356497 112.7591840  99.6815511  80.5402308 113.0051115
  99.3880239  79.1763916 113.5930425  91.1415932  69.5214388 115.2582167
  90.4943847  70.2204337 115.1646644  91.9116947  69.9550532 115.6258415
  94.5494730  79.7863240 118.3332720  94.3980236  79.5573792 117.4162804
  94.5399409  80.7433841 118.3464066  91.3180066  77.3595153 113.3178987
  92.2472126  77.5106312 113.1447954  90.8971096  77.4479173 112.4627633
  85.6417857  76.1695050 114.0018944  85.5037655  75.4375289 114.6030483
  86.5522781  76.0803950 113.7203131  94.6032805  78.1083454  98.7503422
  93.9861976  77.3830282  98.6536475  94.1349293  78.8692814  98.4070496
  88.2700158  75.8815009 113.4902623  88.9799776  75.2408201 113.4489242
  88.2269466  76.1327904 114.4128804  96.2586937  82.8182362 116.4109202
  96.1999483  82.1341583 115.7439785  96.6606455  83.5601352 115.9589828
  86.9829092  72.8680227 115.3098263  86.4466449  72.4170965 115.9619859
  86.3945800  73.0026136 114.5668727  86.3931351  72.3268878  97.8724726
  85.5160817  72.2057679  97.5086973  86.8689104  71.5354957  97.6203615
  96.2604344  80.7821946 114.6423182  95.3731123  80.4447868 114.7649581
  96.8302895  80.0504978 114.8791947  77.9133491  77.1146038 107.9666233
  78.6004531  76.8007768 107.3787249  77.7581620  78.0187403 107.6933485
  82.7168213  72.0036235 112.3951257  82.6326402  71.3961904 111.6601667
  81.8950920  72.4945253 112.3960753  92.8891927  70.4889798 107.7621452
  93.3860627  69.7359760 107.4422522  92.1178909  70.5254115 107.1964661
 100.7421684  76.1930164 109.4039744 100.7311561  77.0754879 109.0333677
  99.8739064  75.8401715 109.2094281  92.2504181  85.3410233 113.7642584
  92.9632153  85.9757698 113.6918485  91.7594209  85.4374099 112.9482586
  89.4726896  72.6307181 107.4893137  89.1024683  72.0778222 108.1774042
  89.9685988  72.0265315 106.9368137  97.3594259  75.0878805 105.8709910
  97.8254711  75.9206796 105.7970212  97.8101760  74.6223786 106.5755168
  87.3016094  83.0904676 114.5848155  88.0025554  83.7241159 114.7377549
  86.8311209  83.4319408 113.8243794  95.3310922  67.4559392 109.9100811
  94.4174002  67.6863618 110.0783018  95.7604023  67.5397836 110.7614843
  95.1017380  75.6449284 112.4100705  94.4488831  75.8925191 111.7553158
  95.4797760  74.8313422 112.0763182  91.1504953  76.3869095 118.8966742
  90.4745590  76.2863224 119.5669117  91.9732587  76.2308308 119.3602739
  82.8983812  82.6241031 111.5179257  83.4837249  81.8784719 111.6507162
  82.7008651  82.9344988 112.4015921  77.4901467  75.1946631 110.2383701
  77.5285567  74.6610222 111.0320819  76.9841760  74.6681837 109.6194678
  89.8927736  87.6936022 113.1324358  90.4446044  87.8567644 113.8973443
  90.2333930  88.2840460 112.4604383  84.8692229  70.0411172 113.7346243
  84.9333556  70.9026003 113.3223641  84.8059350  69.4285174 113.0018601
  84.3444502  72.1134304 117.3819277  84.9716541  71.7311382 117.9956801
  83.4872421  71.8948506 117.7474970  94.7438611  82.5197280 118.9873013
  95.2878515  83.1327238 118.4927967  94.1625455  83.0776858 119.5040026
  81.1210045  73.9210734 103.3137632  81.4163486  73.0121412 103.2604686
  80.2198080  73.8998473 102.9918634  84.6504292  71.9966730 109.2965181
  83.9290877  72.6102698 109.1572654  85.4397547  72.5324495 109.2181826
  87.4530605  69.3321157 115.5705832  87.9765007  69.5783453 116.3332142
  87.2342939  70.1641191 115.1508970  82.8497886  71.6024831 103.4376957
  82.5210592  70.7222210 103.2552063  83.2037257  71.5472500 104.3253346
  85.9639709  71.8897801 103.8052435  86.3035782  72.4183722 103.0831043
  86.4111830  72.2278207 104.5811001  88.6583150  70.2734852 113.2555503
  88.3179971  69.4742665 113.6576183  87.9522157  70.5736563 112.6832336
  89.3099622  67.3584164 111.7082826  90.1325691  66.8844642 111.5861716
  89.5537686  68.1374648 112.2081512  87.9507857  70.3872423 102.0045728
  88.6716219  70.7653675 101.5009444  87.3273161  71.1061299 102.1080705
  92.0938979  71.0917572 102.9404060  92.3102594  71.9742209 102.6392888
  91.6133047  70.7003785 102.2109702  86.8338201  74.0503285 109.5174804
  86.6882782  74.3643588 110.4099086  86.3563404  74.6688185 108.9645703
  88.6934584  71.0405833 109.5655694  88.6796152  70.1446926 109.2287992
  89.4107012  71.0476497 110.1993980  90.5460714  71.4743173 111.6108821
  90.2878492  72.3960244 111.6093152  90.0145755  71.0773608 112.3009286
  81.3083863  76.5908629 112.4562466  80.7637331  77.3668437 112.5882740
  82.1863213  76.9379434 112.2981587  88.0971480  69.9220213 104.8343264
  88.2187391  68.9936859 105.0334152  87.8073522  69.9358899 103.9221580
  90.9662670  67.6075124 107.9709984  90.9884367  67.6714457 107.0161964
  91.3830729  66.7679632 108.1650490 101.3446294  77.3430383 106.0089207
 101.7877440  76.5937708 105.6108330 100.4672805  77.3340519 105.6262939
  82.0949885  75.7178525 115.3492622  81.3531621  75.8661161 115.9357253
  81.7742629  75.9786791 114.4859372  90.0393548  85.2594504 115.1473013
  90.3480674  85.0143650 116.0195712  90.8369030  85.4641142 114.6591883
  82.5406499  83.6043954 107.3803017  83.3664518  83.3047726 107.0001661
  82.1900551  82.8351577 107.8292806  80.7415104  81.5230281 108.3391951
  79.9047012  81.0952455 108.1575952  80.7138749  81.7162724 109.2762742
  87.5812559  71.4352210 119.0433197  87.6300715  72.3114333 118.6610966
  88.1235073  70.8929603 118.4704840  98.0667405  81.9793334 118.3234334
  97.2762949  81.9617473 117.7838833  97.8300759  82.5181627 119.0783370
  98.1865280  78.8285800 115.6367062  98.2363285  78.6635808 116.5782585
  98.0779203  77.9613059 115.2464943  95.4769042  74.8116728 116.9526369
  96.3778905  74.6723193 116.6610367  95.5517017  74.9771183 117.8924547
  89.8111848  72.1883583 115.7979555  88.9415157  72.4817149 115.5262144
  90.0471328  72.7724028 116.5186819  99.6883477  81.2482742 115.8809084
  99.3968285  81.6112722 116.7172545  99.0755608  80.5349750 115.7022416
 100.8879159  78.8135621 108.4011654 101.7226050  79.2525425 108.5649215
 101.0238288  78.3374275 107.5819900  97.9370665  76.3715356 114.3489142
  98.4124787  76.5643003 113.5407993  97.0136230  76.4274542 114.1032526
  84.8254172  77.5339523 103.9320220  84.5800214  76.6301853 104.1300430
  84.9950086  77.5356674 102.9899698  92.5150881  68.4063200 113.3144976
  93.0332825  69.1424227 112.9891464  92.1606014  68.7127193 114.1491735
  84.0949819  73.2667881 101.4306382  83.4019064  73.3412236 100.7746418
  83.8501571  72.5028225 101.9527899  92.7663476  64.8263482 108.8345872
  93.0465229  64.1586671 109.4606299  93.5514083  65.0192578 108.3220536
  96.6372334  73.2481116 112.5817448  97.5889757  73.3479214 112.6029672
  96.4675784  72.4559385 113.0915532  94.6586713  70.3336700 112.7676848
  94.0636646  70.6141712 112.0723337  94.3736410  70.8230600 113.5393590
  99.1160412  76.4687236 111.6959747  99.0836732  75.5303237 111.8819431
  99.7261035  76.5471273 110.9625572  90.9543743  75.3383289  97.7386951
  91.9002847  75.2089497  97.8075369  90.5757988  74.5997951  98.2156379
  99.2654900  73.2598279 111.7418030  98.7493949  72.4756736 111.5547959
 100.1494849  72.9316996 111.9064550  96.9265627  67.0039295 107.7013843
  96.7290448  66.6954383 108.5857175  97.5365333  67.7300934 107.8311773
 104.9336962  77.5303243 110.8365784 105.6640350  77.2688531 111.3973487
 104.3243907  76.7931965 110.8767852 103.0152259  75.6711105 111.4340235
 102.2885422  75.5367070 110.8256727 102.5999546  75.9787934 112.2396953
  90.8382435  79.3901035 119.1987608  91.7585445  79.5679634 119.3927655
  90.8032018  78.4457080 119.0467307  89.1386660  73.2633265  97.6741836
  88.2318115  72.9666378  97.7504550  89.4162641  72.9663083  96.8076123
  80.0564600  74.5839629 108.1240883  79.7367385  73.7304937 107.8315257
  79.5098028  74.7988207 108.8798850  83.8344508  77.3002070 111.8410389
  84.0530518  78.2319178 111.8598423  84.2470282  76.9410044 112.6265193
  90.7548726  67.8070155 103.8286078  89.9449454  67.4617240 104.2041324
  91.4433142  67.4977699 104.4173689  92.6839274  66.8848202 105.4510374
  93.2370312  67.3043655 106.1100397  92.9209360  65.9583950 105.4933330
  88.7072373  72.8735276 121.2313138  88.6069100  73.8229632 121.1625229
  88.4893915  72.5453514 120.3589208  87.9085444  70.1220201  97.8153816
  88.7704608  70.4475099  98.0749633  88.0935789  69.3351696  97.3026881
  79.9252860  78.2042540 110.0934004  79.2316332  77.7896493 109.5803959
  80.6725851  78.2463077 109.4967423  96.0618081  68.9948727 104.9589039
  95.4816750  69.6533531 104.5767091  95.7954014  68.1726072 104.5476456
  94.5121647  68.3953785 107.1610359  95.0121426  68.5070319 106.3524678
  95.1557255  68.0914838 107.8011167  88.5703643  76.3032414 120.0478200
  88.0870725  77.1032774 120.2542089  88.6564582  76.3140359 119.0945644
  81.8389603  78.1360794 107.9700019  81.8160291  78.2348481 107.0181902
  82.1490239  78.9825945 108.2917185  84.4976981  80.1936949 112.0846634
  85.4520234  80.1620891 112.0176565  84.2989504  79.7327573 112.8996860
  85.0876363  78.7638065 114.6517431  85.9069252  79.2582144 114.6752269
  85.3613170  77.8470033 114.6234999  94.8442959  71.1548817 104.0145387
  93.9568814  71.4398468 103.7965582  95.2596948  70.9942581 103.1672664
  98.1957495  71.1795338 107.7299726  98.9717885  71.6691791 108.0024343
  97.4705629  71.6053393 108.1871596 100.6330054  71.8922958 108.7873667
 101.2274544  71.6518694 108.0766975 100.7056637  71.1730088 109.4147203
  82.8527209  85.7356569 109.1016832  82.7181677  84.9756969 108.5354830
  82.4359272  86.4597468 108.6345620  94.8183983  76.6703353 104.2295677
  94.7619184  77.1271905 103.3903309  95.3712325  75.9094038 104.0518520
  98.6288789  72.4593085 105.0545797  98.3725723  72.0589721 105.8854004
  98.0041657  73.1736879 104.9295936 102.9401126  75.1989158 107.5617088
 102.3800684  75.2682348 108.3348650 102.3344630  75.0230143 106.8416584
  80.3411277  73.0976199 115.3509628  80.9870141  72.5875153 115.8396854
  80.1328428  73.8344881 115.9253054  92.8664669  80.1657046 120.8501769
  93.7355829  80.3397699 120.4888404  92.3871421  80.9851463 120.7277498
  88.8614887  67.3616244 101.1033525  88.8493557  68.3058084 101.2601795
  89.7538309  67.1786389 100.8092986  87.0350849  87.2854147 112.5291203
  87.9378096  87.3177758 112.8457698  86.8088219  86.3554598 112.5437538
  92.6767007  63.9559020 105.3579461  91.9099403  63.4017507 105.5036144
  93.0877712  64.0280889 106.2193613  84.6808768  70.2443816 119.4484643
  85.5440230  69.8880621 119.6587967  84.1074179  69.9057711 120.1360047
 104.5257145  91.8745672 110.2547044 105.1635555  91.7552420 109.5510384
 104.4077988  92.8226516 110.3134996 101.3346851  91.8273100 110.1908568
 100.9965363  91.7114165 109.3029103 102.2036619  91.4264266 110.1709574
  97.1933667  93.6808577 106.1805459  96.6298532  93.5898514 105.4121747
  97.0786062  92.8608481 106.6607952 101.8166634  92.9807952 116.1494774
 101.8055275  92.5860750 115.2775278 101.9787274  92.2474025 116.7428545
  94.7398099  95.1759769 109.0189680  95.5319391  94.8350593 108.6035979
  94.9794749  95.2854744 109.9391833 102.7733226  97.3479545 101.4919924
 102.1221205  97.9333625 101.1053938 103.5677588  97.8785740 101.5514962
  98.5373895  95.7645064 115.0973958  98.2463761  96.6690695 114.9820624
  99.1730880  95.8061592 115.8118027  99.4630102  93.1421913 111.6875318
 100.0593674  92.9177935 110.9732280  99.5205074  92.4006658 112.2900765
 104.0798413  89.5997126 107.3300252 104.8661503  89.1816549 106.9790669
 104.3437118  90.5043218 107.4981900 104.2508491  95.0369977 102.0288909
 103.6154324  95.1104603 102.7409813 103.9205897  95.6263575 101.3507988
 109.4806841  89.5372359 108.2333230 110.2132012  88.9671576 108.4671060
 108.7246196  89.1493960 108.6739736 101.0982960  91.9599601 105.4296573
 100.7341167  91.4330222 106.1409494 101.9550076  91.5698070 105.2563058
 107.0032261  83.2493934 112.6927839 106.6715586  84.1189345 112.4689054
 106.4077874  82.9330218 113.3721869 103.4963780  95.4506480 112.0923752
 103.1964503  96.3531518 111.9839559 103.1514840  95.1838663 112.9444904
  96.9476262  91.9020276 108.1260456  96.0226758  91.7696490 108.3338148
  97.1960675  92.6814496 108.6230398 106.8960924  87.9689020 109.7721189
 105.9877802  87.9004428 109.4779950 106.8448520  88.4460965 110.6003014
  94.3085073  91.5453550 108.9604245  94.4377454  91.7988029 109.8743657
  93.6282524  92.1381258 108.6408900 100.9701790  89.3878665 117.7156086
 100.1935124  89.9472585 117.7058951 101.6092353  89.8735448 118.2370956
 108.7622571  86.1705458 111.5499063 108.1196951  86.4637991 110.9038857
 108.2577499  86.0558378 112.3552259 106.4162734  89.9168631 102.2384922
 107.3280590  90.1496018 102.0632620 105.9072381  90.5005676 101.6760001
  99.2248162  92.1964119 117.2774053  99.9662847  92.7349163 117.0008877
  98.5185148  92.8230407 117.4345605 104.7003502  94.3393259 115.8746215
 105.1086858  93.8975670 115.1300847 103.9780763  93.7645887 116.1280408
 101.0534572  89.2765866 113.2479772 101.8995767  89.7005279 113.3914421
 100.9933210  88.6199490 113.9418335 105.0232317  94.8994450 109.6298504
 104.3941179  95.0640164 108.9274571 104.6357979  95.3136059 110.4009468
 108.9021548  95.8348888 106.9842867 108.2172587  96.2147789 106.4339901
 108.9865398  96.4444214 107.7174815 104.2034017  86.9370234 114.9060945
 103.9594949  87.6912295 114.3695221 104.4793948  87.3155582 115.7408192
 106.1572480  93.4808847 113.5838211 106.3689375  94.1240607 112.9072592
 106.1102228  92.6471163 113.1160141 103.7598709  86.0926667 110.4874783
 102.8983188  86.3907921 110.7791521 103.7861144  86.3097066 109.5555816
 100.5760278  94.6368858 106.8948589 101.0398624  94.9156561 106.1053211
 100.3117077  93.7352302 106.7121679  97.4684359  94.1840339 109.8328352
  98.0385717  94.6127608 109.1945836  98.0592471  93.9022924 110.5312538
  97.9609526  89.3503767 118.0789363  97.3308187  90.0320048 118.3124760
  97.8545614  89.2386848 117.1342501 107.2718308  96.3580802 111.7560568
 108.0935752  95.9560989 111.4743250 107.2680711  96.2549036 112.7076684
 101.0374911  95.9064845 113.9121279 101.1019344  96.3685253 114.7479450
 100.3285835  95.2762210 114.0403588  91.5392201  89.2706053 111.4370278
  91.7900240  90.1553063 111.7027854  92.0751750  89.0910655 110.6645370
 115.3624301  92.7019551 108.1045540 114.6088009  92.1326949 107.9489544
 115.4971842  92.6682215 109.0516174 100.7522929  97.5732953 103.7800259
 100.6168604  98.4184489 104.2085107 101.2932742  97.7752230 103.0166193
  97.2390269  83.6524533 120.4414614  96.8457214  83.0990731 121.1162258
  98.0556409  83.9635111 120.8321132 100.1558230  85.0682412 118.0334871
 100.8967943  85.6689565 117.9539333 100.3876153  84.3260050 117.4752913
  95.2999568  90.2538779 116.3113100  95.1853083  89.3524036 116.6120199
  94.4444085  90.5002476 115.9597917 102.3791405  98.1956519 117.9100601
 101.9355260  97.4092898 117.5921506 103.0408619  98.3835670 117.2444492
  97.1378527  99.7252321 112.4361280  97.6885952  99.5969384 111.6638274
  96.2990003 100.0247210 112.0856172 104.4772644  98.4759319 115.9382002
 104.4591119  99.2968200 115.4462271 105.3992564  98.3513395 116.1632143
 100.9345698  95.9903449 116.7805511 101.4674035  95.2291737 116.5504819
 100.4059779  95.6977101 117.5229665 104.1015393  81.0963515 112.3099152
 103.7579662  81.9865156 112.2338263 104.4694355  80.9065172 111.4468737
 101.6512786  85.9321827 105.8756826 100.7954383  85.5428677 105.6962465
 102.0639738  86.0113787 105.0156611 103.1811933  83.4668170 110.2748386
 102.6776729  83.4298305 109.4616191 103.4742540  84.3760913 110.3345042
 109.0399950  93.8404480 102.7524761 108.2629392  93.5015640 102.3079923
 109.7191430  93.8457104 102.0779726 103.8551979  88.9599218 102.6431369
 103.5502114  89.2745367 103.4941512 104.8082421  89.0380638 102.6858702
 102.2998410  95.1189441 104.2924323 101.7719772  94.3842201 103.9797560
 101.7985913  95.8964118 104.0464291 107.2791256  93.3138462 109.4091369
 106.6214931  94.0037723 109.4971498 108.0831656  93.7034894 109.7525355
 106.0896715  91.6682834 107.4595311 106.6028597  92.3012826 107.9617020
 106.7397939  91.0684030 107.0938671  99.3339806  82.6550356 105.3806004
  98.6804218  82.3399374 104.7562618  99.2920280  82.0326097 106.1065827
 103.3519089 101.6467159 100.2155982 102.6780788 101.9498855 100.8240940
 103.7384911 102.4496239  99.8661439 102.5677546  89.1432290 109.7053651
 101.6500107  89.3647237 109.5475339 102.9837690  89.2178600 108.8465359
 103.3512594  90.5423706 104.8356332 104.0984413  91.0545103 104.5263454
 103.6204183  90.2207758 105.6960725 101.6239244  93.0382246 101.8183286
 100.7150463  92.7541279 101.9155756 101.6534328  93.4581325 100.9586593
 106.8558511  96.6488836 105.5874453 106.4020839  95.8079746 105.6439644
 106.2252478  97.2850234 105.9249234 105.7991431  87.5780822 106.8175121
 105.0614188  87.0658208 107.1485363 106.0518205  87.1381204 106.0058398
 105.2991451  98.4865333 106.5224272 105.5914425  99.0470390 105.8036637
 105.8090071  98.7793894 107.2777431 105.9003058  80.3557074 107.4116890
 106.2061935  79.4954437 107.1242805 106.6255663  80.9474694 107.2115884
 100.1724138  90.6510867 107.9193081 100.2272748  89.6984703 107.8435558
  99.3615340  90.8070306 108.4034380 100.2625076  99.2645684 107.6117725
 100.2201255  99.4906530 106.6826257 101.1787775  99.0309058 107.7603526
 103.7090710  89.7329751 114.5098354 104.0640097  89.9601224 115.3692820
 104.3562841  90.0648128 113.8875609 109.4388447  92.8548187 105.2147683
 109.3006345  93.0449783 104.2868872 109.0824665  93.6167570 105.6715734
 109.4657826  94.9224714 110.2258954 109.8994333  94.8300003 111.0742009
 110.1789407  94.8982215 109.5878970  98.3790877  96.1408713 107.4079687
  99.1731475  95.6459033 107.2062262  97.6682569  95.6126576 107.0447393
 103.1985721  98.5226808 111.7592055 103.2522743  99.0917745 112.5269771
 102.3300502  98.6928693 111.3946092 110.3273376  94.9648415 112.7591840
 110.5209266  95.8694225 113.0051115 110.2273994  94.5055834 113.5930425
 101.9809687  84.8506305 115.2582167 101.3337602  85.5496255 115.1646644
 102.7510702  85.2842449 115.6258415 105.3888484  95.1155157 118.3332720
 105.2373991  94.8865709 117.4162804 105.3793164  96.0725759 118.3464066
 102.1573821  92.6887070 113.3178987 103.0865881  92.8398230 113.1447954
 101.7364851  92.7771091 112.4627633 100.9562153  96.7137735 111.0877525
 100.8173238  96.3456519 111.9603463 100.1676749  97.2285374 110.9161482
 101.5510305 101.8146831 102.4303061 101.7262060 101.3434874 103.2448684
 100.8643093 102.4412597 102.6584322 102.5067368  96.0919337 108.4766362
 102.1717200  96.0520107 109.3724012 102.0071313  95.4264053 108.0036773
  96.4811612  91.4986967 114.0018944  96.3431410  90.7667206 114.6030483
  97.3916535  91.4095867 113.7203131  99.1093912  91.2106927 113.4902623
  99.8193531  90.5700119 113.4489242  99.0663221  91.4619822 114.4128804
 107.0980691  98.1474280 116.4109202 107.0393237  97.4633500 115.7439785
 107.5000209  98.8893270 115.9589828 107.0998098  96.1113864 114.6423182
 106.2124877  95.7739786 114.7649581 107.6696649  95.3796895 114.8791947
 100.6299252 100.7715316 111.6084425 100.5569423 101.5770288 112.1203730
 100.1876645 100.9707282 110.7832447 100.4189031 100.0087086 105.1187247
  99.6356553 100.5508767 105.2125471 101.1181777 100.5261066 105.5181488
 103.7285681  85.8181716 107.7621452 104.2254381  85.0651678 107.4422522
 102.9572663  85.8546032 107.1964661 111.5815439  91.5222081 109.4039744
 111.5705315  92.4046797 109.0333677 110.7132818  91.1693632 109.2094281
 103.0897935 100.6702150 113.7642584 103.8025907 101.3049615 113.6918485
 102.5987964 100.7666016 112.9482586 104.8115462  94.5753403 105.3359876
 103.8771741  94.6954866 105.1664580 104.9892131  93.6725870 105.0719885
 108.1988014  90.4170722 105.8709910 108.6648466  91.2498714 105.7970212
 108.6495514  89.9515704 106.5755168  98.1409849  98.4196594 114.5848155
  98.8419308  99.0533077 114.7377549  97.6704964  98.7611325 113.8243794
 106.2664245  96.7614544 102.8696062 106.5424089  96.6471138 103.7789936
 105.3968743  96.3632028 102.8308235 106.1704676  82.7851309 109.9100811
 105.2567756  83.0155536 110.0783018 106.5997778  82.8689753 110.7614843
 105.9411135  90.9741201 112.4100705 105.2882585  91.2217109 111.7553158
 106.3191515  90.1605339 112.0763182 102.9018309 101.0100894 106.5128875
 103.0840703 100.1922550 106.9756628 103.7251295 101.2268587 106.0753765
 103.2360474  99.9369080 103.7743924 103.7648241  99.4261534 103.1614086
 103.4988694  99.6211610 104.6389457 101.9898708  91.7161012 118.8966742
 101.3139345  91.6155142 119.5669117 102.8126342  91.5600226 119.3602739
  93.7377567  97.9532949 111.5179257  94.3231004  97.2076637 111.6507162
  93.5402405  98.2636906 112.4015921 100.7321491 103.0227940 113.1324358
 101.2839799 103.1859561 113.8973443 101.0727684 103.6132378 112.4604383
  95.1838256  87.4426222 117.3819277  95.8110295  87.0603299 117.9956801
  94.3266175  87.2240424 117.7474970 105.5832365  97.8489197 118.9873013
 106.1272269  98.4619156 118.4927967 105.0019210  98.4068776 119.5040026
 103.8689878 100.9709915 110.1188040 103.7441017 100.1699655 109.6098986
 104.5268969 101.4656109 109.6302010 105.9324786  98.7718935 111.7467590
 104.9855122  98.6524287 111.6745917 106.2807559  97.8841433 111.8293852
  98.2924360  84.6613074 115.5705832  98.8158762  84.9075371 116.3332142
  98.0736693  85.4933109 115.1508970 102.9371220  98.5671652 107.9471943
 102.7896182  97.6388359 108.1279513 103.7624713  98.5891742 107.4629018
 106.5405341  99.3900210 109.0336815 107.4651889  99.1843072 108.8961267
 106.3720645  99.1416612 109.9426157 100.1493377  82.6876082 111.7082826
 100.9719446  82.2136560 111.5861716 100.3931440  83.4666566 112.2081512
 102.9332734  86.4209489 102.9404060 103.1496348  87.3034127 102.6392888
 102.4526801  86.0295703 102.2109702 101.3854469  86.8035091 111.6108821
 101.1272247  87.7252161 111.6093152 100.8539509  86.4065525 112.3009286
 106.3300658  99.9085878 104.3898907 106.5037535  99.3432300 103.6372759
 106.8229549 100.7086773 104.2078397  92.1477618  91.9200547 112.4562466
  91.6031086  92.6960355 112.5882740  93.0256967  92.2671351 112.2981587
 101.8056425  82.9367041 107.9709984 101.8278121  83.0006374 107.0161964
 102.2224484  82.0971550 108.1650490 112.1840049  92.6722301 106.0089207
 112.6271195  91.9229626 105.6108330 111.3066559  92.6632437 105.6262939
 107.3175830  99.2252642 101.4895805 108.0126735  99.8459335 101.7083120
 107.6598980  98.3747993 101.7648183  92.9343639  91.0470443 115.3492622
  92.1925375  91.1953079 115.9357253  92.6136384  91.3078709 114.4859372
 109.2167253  96.6752348 103.0183136 109.7418577  97.0139620 102.2932456
 109.1289606  95.7399363 102.8346271 100.8787302 100.5886421 115.1473013
 101.1874428 100.3435568 116.0195712 101.6762784 100.7933060 114.6591883
 100.9007914 102.7424331 107.3778389 100.4612904 102.2500710 108.0711246
 101.6516031 102.1997299 107.1370464  98.3481786  98.2862340 109.4500691
  97.7261795  97.6233045 109.1502919  99.0186653  98.3123472 108.7674339
  98.4206314  86.7644128 119.0433197  98.4694469  87.6406251 118.6610966
  98.9628828  86.2221521 118.4704840 108.9061159  97.3085251 118.3234334
 108.1156703  97.2909390 117.7838833 108.6694514  97.8473545 119.0783370
 109.0259034  94.1577718 115.6367062 109.0757039  93.9927725 116.5782585
 108.9172958  93.2904977 115.2464943 106.3162797  90.1408646 116.9526369
 107.2172660  90.0015111 116.6610367 106.3910771  90.3063101 117.8924547
 100.6505602  87.5175501 115.7979555  99.7808912  87.8109067 115.5262144
 100.8865083  88.1015946 116.5186819 110.5277231  96.5774659 115.8809084
 110.2362040  96.9404640 116.7172545 109.9149363  95.8641668 115.7022416
 111.7272914  94.1427539 108.4011654 112.5619805  94.5817343 108.5649215
 111.8632042  93.6666192 107.5819900 108.7764420  91.7007274 114.3489142
 109.2518541  91.8934920 113.5407993 107.8529985  91.7566460 114.1032526
 103.3544636  83.7355117 113.3144976 103.8726580  84.4716144 112.9891464
 102.9999769  84.0419111 114.1491735 103.6057230  80.1555400 108.8345872
 103.8858984  79.4878589 109.4606299 104.3907837  80.3484496 108.3220536
 107.4766088  88.5773034 112.5817448 108.4283511  88.6771132 112.6029672
 107.3069539  87.7851303 113.0915532 105.4980468  85.6628617 112.7676848
 104.9030400  85.9433630 112.0723337 105.2130165  86.1522518 113.5393590
 104.6287958  99.6151544 101.5279481 105.5618632  99.5497106 101.7312356
 104.5411171 100.4507811 101.0694014 107.2575975  98.9317414  98.4883429
 107.1789607  98.5977278  99.3819186 108.0785642  99.4239182  98.4874901
 109.9554166  91.7979154 111.6959747 109.9230486  90.8595154 111.8819431
 110.5654790  91.8763190 110.9625572 110.1048655  88.5890197 111.7418030
 109.5887703  87.8048654 111.5547959 110.9888603  88.2608914 111.9064550
 107.7659382  82.3331213 107.7013843 107.5684203  82.0246301 108.5857175
 108.3759087  83.0592852 107.8311773 115.7730716  92.8595161 110.8365784
 116.5034105  92.5980449 111.3973487 115.1637662  92.1223882 110.8767852
 113.8546013  91.0003023 111.4340235 113.1279177  90.8658988 110.8256727
 113.4393300  91.3079852 112.2396953 101.6776190  94.7192953 119.1987608
 102.5979199  94.8971552 119.3927655 101.6425773  93.7748998 119.0467307
  94.6738262  92.6293987 111.8410389  94.8924272  93.5611095 111.8598423
  95.0864036  92.2701962 112.6265193 101.5942480  83.1362073 103.8286078
 100.7843208  82.7909158 104.2041324 102.2826897  82.8269616 104.4173689
 103.5233028  82.2140120 105.4510374 104.0764067  82.6335573 106.1100397
 103.7603115  81.2875868 105.4933330  99.5466128  88.2027193 121.2313138
  99.4462854  89.1521550 121.1625229  99.3287670  87.8745432 120.3589208
 106.9011835  84.3240645 104.9589039 106.3210504  84.9825449 104.5767091
 106.6347768  83.5017989 104.5476456 105.3515402  83.7245702 107.1610359
 105.8515180  83.8362237 106.3524678 105.9951010  83.4206755 107.8011167
  99.4097398  91.6324332 120.0478200  98.9264479  92.4324692 120.2542089
  99.4958337  91.6432277 119.0945644  95.3370735  95.5228867 112.0846634
  96.2913989  95.4912809 112.0176565  95.1383259  95.0619490 112.8996860
  95.9270117  94.0929983 114.6517431  96.7463006  94.5874061 114.6752269
  96.2006925  93.1761951 114.6234999 105.6836713  86.4840735 104.0145387
 104.7962568  86.7690386 103.7965582 106.0990702  86.3234498 103.1672664
 109.0351250  86.5087256 107.7299726 109.8111640  86.9983709 108.0024343
 108.3099384  86.9345310 108.1871596 111.4723808  87.2214875 108.7873667
 112.0668299  86.9810611 108.0766975 111.5450392  86.5022006 109.4147203
 105.6577737  91.9995271 104.2295677 105.6012939  92.4563822 103.3903309
 106.2106080  91.2385956 104.0518520 109.4682543  87.7885003 105.0545797
 109.2119477  87.3881639 105.8854004 108.8435411  88.5028797 104.9295936
 113.7794881  90.5281076 107.5617088 113.2194439  90.5974265 108.3348650
 113.1738384  90.3522061 106.8416584 106.7366624  96.6867939 100.1591867
 107.5712228  96.2549137  99.9769342 106.5750967  96.5149953 101.0868761
 106.3912516  93.1900052 101.5248206 106.3361320  93.0244324 100.5836650
 105.7658572  93.8976085 101.6810396  91.1805031  88.4268117 115.3509628
  91.8263895  87.9167071 115.8396854  90.9722183  89.1636798 115.9253054
 103.7058424  95.4948964 120.8501769 104.5749583  95.6689616 120.4888404
 103.2265175  96.3143381 120.7277498  97.8744604 102.6146065 112.5291203
  98.7771851 102.6469675 112.8457698  97.6481974 101.6846516 112.5437538
  99.6298206 101.3677052 109.1901281  98.6793837 101.3678913 109.0765654
  99.9330692 100.6209786 108.6737316 103.5160761  79.2850938 105.3579461
 102.7493157  78.7309425 105.5036144 103.9271466  79.3572807 106.2193613
  95.5202522  85.5735734 119.4484643  96.3833984  85.2172539 119.6587967
  94.9467933  85.2349629 120.1360047 115.3650899 107.2037590 110.2547044
 116.0029309 107.0844337 109.5510384 115.2471742 108.1518434 110.3134996
 112.1740606 107.1565018 110.1908568 111.8359117 107.0406083 109.3029103
 113.0430374 106.7556183 110.1709574 108.0327421 109.0100495 106.1805459
 107.4692286 108.9190432 105.4121747 107.9179816 108.1900399 106.6607952
 105.5791853 110.5051686 109.0189680 106.3713145 110.1642511 108.6035979
 105.8188503 110.6146661 109.9391833 113.6126980 112.6771462 101.4919924
 112.9614960 113.2625543 101.1053938 114.4071343 113.2077657 101.5514962
 107.5382607 109.7660599 101.8907059 108.3113483 109.2189587 101.7519934
 107.8908006 110.6304849 102.1021520 110.3023857 108.4713830 111.6875318
 110.8987429 108.2469853 110.9732280 110.3598828 107.7298576 112.2900765
 109.8748885 105.9253266  99.5225508 110.1274406 105.4034787  98.7608971
 108.9373444 105.7619411  99.6252192 114.9192168 104.9289044 107.3300252
 115.7055257 104.5108467 106.9790669 115.1830872 105.8335136 107.4981900
 115.0902245 110.3661894 102.0288909 114.4548078 110.4396521 102.7409813
 114.7599652 110.9555493 101.3507988 120.3200595 104.8664277 108.2333230
 121.0525767 104.2963494 108.4671060 119.5639951 104.4785878 108.6739736
 109.5945174 107.8281372 101.7249883 109.4781432 107.1526275 102.3930968
 109.7047434 107.3413745 100.9082036 111.9376715 107.2891519 105.4296573
 111.5734922 106.7622140 106.1409494 112.7943831 106.8989988 105.2563058
 117.8426015  98.5785851 112.6927839 117.5109340  99.4481262 112.4689054
 117.2471629  98.2622135 113.3721869 111.5782202 102.3181418 100.4257921
 111.7456604 103.1861655 100.7928392 111.3879371 102.4808700  99.5019210
 107.7870016 107.2312194 108.1260456 106.8620513 107.0988408 108.3338148
 108.0354430 108.0106413 108.6230398 117.7354679 103.2980937 109.7721189
 116.8271556 103.2296346 109.4779950 117.6842274 103.7752882 110.6003014
 111.5571423 104.7739076 101.4104588 111.4371048 105.2196127 102.2490068
 110.8624011 105.1224393 100.8518126 105.1478827 106.8745468 108.9604245
 105.2771209 107.1279947 109.8743657 104.4676279 107.4673176 108.6408900
 109.3178315 117.5442718 105.0594719 109.2402344 118.4950543 105.1383200
 108.7139958 117.1988590 105.7169646 119.6016325 101.4997376 111.5499063
 118.9590705 101.7929909 110.9038857 119.0971254 101.3850296 112.3552259
 117.2556489 105.2460549 102.2384922 118.1674345 105.4787936 102.0632620
 116.7466136 105.8297593 101.6760001 111.8928326 104.6057784 113.2479772
 112.7389522 105.0297197 113.3914421 111.8326964 103.9491408 113.9418335
 114.5992464 101.4218585 110.4874783 113.7376943 101.7199839 110.7791521
 114.6254898 101.6388984 109.5555816 111.4154033 109.9660776 106.8948589
 111.8792378 110.2448479 106.1053211 111.1510831 109.0644220 106.7121679
 108.3078114 109.5132257 109.8328352 108.8779471 109.9419525 109.1945836
 108.8986226 109.2314842 110.5312538 110.3522919 106.0883928 103.7038154
 111.0546962 106.5404972 104.1712080 110.0203547 105.4467747 104.3318047
 104.0948253 104.3467481 109.0055287 103.3047307 104.6025009 108.5295398
 104.5859500 105.1615818 109.1107328 106.0462998 104.7112060 105.9638764
 105.2494162 104.8230754 106.4822260 105.8188591 105.0498712 105.0979655
 102.3785956 104.5997971 111.4370278 102.6293994 105.4844981 111.7027854
 102.9145504 104.4202573 110.6645370 111.5916684 112.9024871 103.7800259
 111.4562358 113.7476406 104.2085107 112.1326496 113.1044148 103.0166193
 105.0446081 110.4200309 104.3528184 105.5570602 111.2143559 104.5033749
 105.6968794 109.7226599 104.2861786 106.8540966 113.5366065 106.4350937
 107.0307594 114.4584030 106.2471921 107.6497799 113.2224484 106.8645317
 106.1393322 105.5830697 116.3113100 106.0246837 104.6815954 116.6120199
 105.2837840 105.8294393 115.9597917 114.9409147  96.4255432 112.3099152
 114.5973417  97.3157074 112.2338263 115.3088110  96.2357090 111.4468737
 103.0094998 108.7488963 105.1287755 103.8470220 109.1585971 104.9121462
 103.1873265 107.8088405 105.0987948 114.9059430 106.4164044 100.8171588
 114.3906053 107.1868648 101.0559975 114.6336738 105.7429180 101.4404649
 112.4906541 101.2613744 105.8756826 111.6348137 100.8720595 105.6962465
 112.9033493 101.3405705 105.0156611 114.0205688  98.7960088 110.2748386
 113.5170483  98.7590223 109.4616191 114.3136294  99.7052830 110.3345042
 110.2648573  98.8798817 109.2814567 111.1301570  98.6841626 108.9220457
 110.3326082  98.6509169 110.2083924 119.8793704 109.1696398 102.7524761
 119.1023147 108.8307558 102.3079923 120.5585185 109.1749021 102.0779726
 114.6945733 104.2891136 102.6431369 114.3895869 104.6037285 103.4941512
 115.6476175 104.3672555 102.6858702 113.1392165 110.4481359 104.2924323
 112.6113526 109.7134119 103.9797560 112.6379668 111.2256035 104.0464291
 107.8710893 101.1101025 106.6530934 108.4454644 100.8876207 105.9204127
 108.4581875 101.1789720 107.4059536 116.9290470 106.9974752 107.4595311
 117.4422351 107.6304744 107.9617020 117.5791694 106.3975948 107.0938671
 108.1980480 103.1405486 100.6726819 107.3617792 103.4780173 100.9936094
 108.0585249 103.0054466  99.7353956 110.1733560  97.9842274 105.3806004
 109.5197973  97.6691291 104.7562618 110.1314034  97.3618015 106.1065827
 111.2844765 108.2661569  97.2959296 110.3771827 108.0350823  97.4950445
 111.7815797 107.4699188  97.4833277 114.1912844 116.9759076 100.2155982
 113.5174543 117.2790773 100.8240940 114.5778666 117.7788157  99.8661439
 113.4071301 104.4724208 109.7053651 112.4893862 104.6939155 109.5475339
 113.8231444 104.5470518 108.8465359 114.1906348 105.8715623 104.8356332
 114.9378167 106.3837021 104.5263454 114.4597938 105.5499676 105.6960725
 112.4632999 108.3674164 101.8183286 111.5544218 108.0833197 101.9155756
 112.4928082 108.7873243 100.9586593 117.6952266 111.9780754 105.5874453
 117.2414593 111.1371663 105.6439644 117.0646233 112.6142152 105.9249234
 116.6385185 102.9072740 106.8175121 115.9007942 102.3950126 107.1485363
 116.8911959 102.4673121 106.0058398 116.1385205 113.8157250 106.5224272
 116.4308180 114.3762307 105.8036637 116.6483826 114.1085811 107.2777431
 116.7396813  95.6848992 107.4116890 117.0455690  94.8246355 107.1242805
 117.4649418  96.2766612 107.2115884 103.0321169 106.0879678 105.7998488
 102.8345569 105.4949039 105.0749555 102.4767833 105.7831888 106.5174427
 111.0117893 105.9802785 107.9193081 111.0666502 105.0276621 107.8435558
 110.2009095 106.1362224 108.4034380 112.1609086 109.9082908  99.1571364
 111.7228516 109.1918767  98.6977002 112.9019527 110.1359023  98.5956456
 108.9510252 104.5979844 105.6783460 108.1378118 104.8974015 106.0848652
 109.4469247 104.2035533 106.3957942 111.1018830 114.5937601 107.6117725
 111.0595009 114.8198448 106.6826257 112.0181529 114.3600976 107.7603526
 120.2782201 108.1840105 105.2147683 120.1400100 108.3741701 104.2868872
 119.9218420 108.9459488 105.6715734 108.4424327 102.1698200 111.2944695
 109.0823707 102.0286959 110.5967658 107.6101858 101.8832713 110.9183297
 109.2184631 111.4700630 107.4079687 110.0125230 110.9750950 107.2062262
 108.5076324 110.9418493 107.0447393 105.5267395 105.6143712 103.4839440
 104.5964983 105.5528168 103.7009402 105.6224867 105.0919665 102.6876081
 105.4452944 102.1398525 106.0717682 105.7059761 103.0543858 105.9626842
 106.2670116 101.6722967 106.2214295 106.9177869 103.5536282 113.2416506
 107.5900922 103.3453644 112.5929155 106.0907656 103.3558368 112.8021739
 112.8203441 100.1798223 115.2582167 112.1731356 100.8788173 115.1646644
 113.5904456 100.6134367 115.6258415 112.3904059 117.1438749 102.4303061
 112.5655815 116.6726792 103.2448684 111.7036847 117.7704515 102.6584322
 113.3461122 111.4211255 108.4766362 113.0110955 111.3812025 109.3724012
 112.8465068 110.7555971 108.0036773 107.3205366 106.8278885 114.0018944
 107.1825164 106.0959124 114.6030483 108.2310290 106.7387785 113.7203131
 116.2820314 108.7667289  98.7503422 115.6649485 108.0414118  98.6536475
 115.8136802 109.5276650  98.4070496 109.9487667 106.5398844 113.4902623
 110.6587285 105.8992037 113.4489242 109.9056975 106.7911739 114.4128804
 108.6616601 103.5264062 115.3098263 108.1253958 103.0754801 115.9619859
 108.0733309 103.6609971 114.5668727  99.5921000 107.7729873 107.9666233
 100.2792040 107.4591603 107.3787249  99.4369129 108.6771238 107.6933485
 104.3955722 102.6620070 112.3951257 104.3113911 102.0545740 111.6601667
 103.5738429 103.1529088 112.3960753 111.2582786 115.3379004 105.1187247
 110.4750308 115.8800684 105.2125471 111.9575531 115.8552984 105.5181488
 114.5679436 101.1473633 107.7621452 115.0648136 100.3943596 107.4422522
 113.7966417 101.1837950 107.1964661 115.6509217 109.9045321 105.3359876
 114.7165495 110.0246783 105.1664580 115.8285885 109.0017787 105.0719885
 111.1514405 103.2891016 107.4893137 110.7812192 102.7362057 108.1774042
 111.6473497 102.6849150 106.9368137 119.0381768 105.7462640 105.8709910
 119.5042220 106.5790632 105.7970212 119.4889269 105.2807622 106.5755168
 117.1057999 112.0906461 102.8696062 117.3817843 111.9763056 103.7789936
 116.2362498 111.6923946 102.8308235 117.0098431  98.1143227 109.9100811
 116.0961511  98.3447454 110.0783018 117.4391532  98.1981671 110.7614843
 113.7412063 116.3392812 106.5128875 113.9234458 115.5214468 106.9756628
 114.5645049 116.5560504 106.0753765 114.0754229 115.2660997 103.7743924
 114.6041995 114.7553452 103.1614086 114.3382448 114.9503527 104.6389457
 104.5771321 113.2824867 111.5179257 105.1624758 112.5368554 111.6507162
 104.3796160 113.5928823 112.4015921 107.4309977 116.3176114 106.5341700
 106.7620352 116.8022242 106.0505740 107.2922846 116.5645334 107.4485078
  99.1688976 105.8530467 110.2383701  99.2073076 105.3194057 111.0320819
  98.6629269 105.3265672 109.6194678 106.5479738 100.6995007 113.7346243
 106.6121065 101.5609838 113.3223641 106.4846859 100.0869009 113.0018601
 106.0232011 102.7718140 117.3819277 106.6504050 102.3895217 117.9956801
 105.1659930 102.5532342 117.7474970 102.7997554 104.5794569 103.3137632
 103.0950995 103.6705247 103.2604686 101.8985589 104.5582308 102.9918634
 106.3291801 102.6550565 109.2965181 105.6078386 103.2686533 109.1572654
 107.1185056 103.1908330 109.2181826 109.1318114  99.9904992 115.5705832
 109.6552516 100.2367289 116.3332142 108.9130447 100.8225027 115.1508970
 104.5285395 102.2608667 103.4376957 104.1998101 101.3806045 103.2552063
 104.8824766 102.2056335 104.3253346 113.7764974 113.8963569 107.9471943
 113.6289937 112.9680277 108.1279513 114.6018468 113.9183660 107.4629018
 107.6427218 102.5481636 103.8052435 107.9823291 103.0767558 103.0831043
 108.0899339 102.8862042 104.5811001 110.3370659 100.9318687 113.2555503
 109.9967480 100.1326500 113.6576183 109.6309666 101.2320398 112.6832336
 110.9887131  98.0168000 111.7082826 111.8113200  97.5428478 111.5861716
 111.2325195  98.7958483 112.2081512 109.6295366 101.0456258 102.0045728
 110.3503728 101.4237511 101.5009444 109.0060670 101.7645135 102.1080705
 113.7726488 101.7501407 102.9404060 113.9890103 102.6326045 102.6392888
 113.2920556 101.3587620 102.2109702 108.5125710 104.7087120 109.5174804
 108.3670291 105.0227423 110.4099086 108.0350913 105.3272020 108.9645703
 110.3722093 101.6989668 109.5655694 110.3583661 100.8030761 109.2287992
 111.0894521 101.7060332 110.1993980 112.2248223 102.1327008 111.6108821
 111.9666001 103.0544079 111.6093152 111.6933264 101.7357443 112.3009286
 117.1694412 115.2377795 104.3898907 117.3431290 114.6724218 103.6372759
 117.6623303 116.0378690 104.2078397 102.9871372 107.2492465 112.4562466
 102.4424840 108.0252273 112.5882740 103.8650722 107.5963269 112.2981587
 109.7758989 100.5804048 104.8343264 109.8974900  99.6520695 105.0334152
 109.4861031 100.5942734 103.9221580 112.6450179  98.2658959 107.9709984
 112.6671876  98.3298292 107.0161964 113.0618238  97.4263468 108.1650490
 123.0233803 108.0014218 106.0089207 123.4664949 107.2521544 105.6108330
 122.1460314 107.9924355 105.6262939 118.1569585 114.5544560 101.4895805
 118.8520489 115.1751253 101.7083120 118.4992735 113.7039911 101.7648183
 103.7737394 106.3762361 115.3492622 103.0319130 106.5244996 115.9357253
 103.4530138 106.6370626 114.4859372 120.0561008 112.0044265 103.0183136
 120.5812332 112.3431538 102.2932456 119.9683360 111.0691281 102.8346271
 104.2194008 114.2627790 107.3803017 105.0452027 113.9631561 107.0001661
 103.8688060 113.4935412 107.8292806 109.1875541 113.6154258 109.4500691
 108.5655550 112.9524963 109.1502919 109.8580408 113.6415390 108.7674339
 102.4202613 112.1814116 108.3391951 101.5834521 111.7536290 108.1575952
 102.3926258 112.3746559 109.2762742 108.7489048 112.1658181 102.9259151
 108.8977168 112.8493645 102.2725824 109.5555491 112.1463271 103.4408607
 106.5041681 108.1923359 103.9320220 106.2587723 107.2885689 104.1300430
 106.6737595 108.1940509 102.9899698 114.1938390  99.0647035 113.3144976
 114.7120334  99.8008062 112.9891464 113.8393523  99.3711028 114.1491735
 114.4450985  95.4847318 108.8345872 114.7252738  94.8170507 109.4606299
 115.2301592  95.6776413 108.3220536 112.2484453 114.6606312 100.3970899
 111.6758420 115.2796499  99.9441371 112.8217247 115.2105673 100.9310821
 116.3374222 100.9920535 112.7676848 115.7424155 101.2725548 112.0723337
 116.0523919 101.4814436 113.5393590 115.4681713 114.9443462 101.5279481
 116.4012386 114.8789023 101.7312356 115.3804926 115.7799729 101.0694014
 118.0969730 114.2609332  98.4883429 118.0183361 113.9269196  99.3819186
 118.9179396 114.7531100  98.4874901 112.6331252 105.9967124  97.7386951
 113.5790356 105.8673332  97.8075369 112.2545497 105.2581786  98.2156379
 118.6053136  97.6623130 107.7013843 118.4077957  97.3538219 108.5857175
 119.2152842  98.3884769 107.8311773 110.8174169 103.9217101  97.6741836
 109.9105624 103.6250213  97.7504550 111.0950150 103.6246919  96.8076123
 101.7352109 105.2423464 108.1240883 101.4154894 104.3888772 107.8315257
 101.1885537 105.4572042 108.8798850 105.5132017 107.9585905 111.8410389
 105.7318026 108.8903013 111.8598423 105.9257791 107.5993880 112.6265193
 112.4336235  98.4653990 103.8286078 111.6236963  98.1201075 104.2041324
 113.1220651  98.1561534 104.4173689 114.3626783  97.5432037 105.4510374
 114.9157821  97.9627491 106.1100397 114.5996869  96.6167785 105.4933330
 109.5872953 100.7804036  97.8153816 110.4492117 101.1058934  98.0749633
 109.7723298  99.9935532  97.3026881 101.6040369 108.8626376 110.0934004
 100.9103841 108.4480328 109.5803959 102.3513360 108.9046912 109.4967423
 117.7405590  99.6532562 104.9589039 117.1604259 100.3117366 104.5767091
 117.4741523  98.8309907 104.5476456 116.1909156  99.0537620 107.1610359
 116.6908935  99.1654155 106.3524678 116.8344764  98.7498673 107.8011167
 103.5177112 108.7944629 107.9700019 103.4947800 108.8932317 107.0181902
 103.8277748 109.6409780 108.2917185 106.1764490 110.8520784 112.0846634
 107.1307743 110.8204727 112.0176565 105.9777013 110.3911408 112.8996860
 116.5230468 101.8132653 104.0145387 115.6356323 102.0982303 103.7965582
 116.9384457 101.6526416 103.1672664 119.8745004 101.8379174 107.7299726
 120.6505394 102.3275626 108.0024343 119.1493138 102.2637228 108.1871596
 122.3117563 102.5506793 108.7873667 122.9062053 102.3102529 108.0766975
 122.3844146 101.8313924 109.4147203 104.5314718 116.3940404 109.1016832
 104.3969186 115.6340805 108.5354830 104.1146781 117.1181304 108.6345620
 115.6673681 111.5777327  98.1093407 116.3709531 111.7827330  98.7251062
 114.9436330 112.1454089  98.3742490 116.4971492 107.3287189 104.2295677
 116.4406693 107.7855740 103.3903309 117.0499834 106.5677873 104.0518520
 120.3076298 103.1176921 105.0545797 120.0513232 102.7173556 105.8854004
 119.6829166 103.8320714 104.9295936 124.6188635 105.8572994 107.5617088
 124.0588193 105.9266183 108.3348650 124.0132139 105.6813978 106.8416584
 117.5760379 112.0159857 100.1591867 118.4105983 111.5841055  99.9769342
 117.4144722 111.8441870 101.0868761 117.2306271 108.5191970 101.5248206
 117.1755075 108.3536241 100.5836650 116.6052326 109.2268003 101.6810396
 102.0198786 103.7560034 115.3509628 102.6657650 103.2458988 115.8396854
 101.8115937 104.4928716 115.9253054 110.5402396  98.0200079 101.1033525
 110.5281066  98.9641919 101.2601795 111.4325818  97.8370224 100.8092986
 114.3554516  94.6142856 105.3579461 113.5886912  94.0601342 105.5036144
 114.7665221  94.6864724 106.2193613 120.7142640 121.2545183  99.5225508
 120.9668160 120.7326705  98.7608971 119.7767199 121.0911329  99.6252192
 122.4175956 117.6473336 100.4257921 122.5850359 118.5153572 100.7928392
 122.2273125 117.8100618  99.5019210 119.0374234 118.4697404 100.6726819
 118.2011546 118.8072090 100.9936094 118.8979004 118.3346384  99.7353956
 121.0127315 113.3134192 105.3806004 120.3591727 112.9983209 104.7562618
 120.9707789 112.6909932 106.1065827 122.1238520 123.5953487  97.2959296
 121.2165581 123.3642740  97.4950445 122.6209552 122.7991106  97.4833277
 116.3661149 120.9435630 103.4839440 115.4358737 120.8820085 103.7009402
 116.4618621 120.4211583 102.6876081 118.9112614 118.3144631  97.8724726
 118.0342081 118.1933432  97.5086973 119.3870367 117.5230710  97.6203615
 113.6391308 119.9086487 103.3137632 113.9344749 118.9997165 103.2604686
 112.7379344 119.8874226 102.9918634 115.3679150 117.5900584 103.4376957
 115.0391856 116.7097963 103.2552063 115.7218520 117.5348253 104.3253346
 120.4689120 116.3748176 102.0045728 121.1897483 116.7529428 101.5009444
 119.8454424 117.0937052 102.1080705 120.6152743 115.9095966 104.8343264
 120.7368654 114.9812612 105.0334152 120.3254786 115.9234652 103.9221580
 116.6131083 119.2543634 101.4306382 115.9200328 119.3287989 100.7746418
 116.3682835 118.4903978 101.9527899 123.4725006 121.3259042  97.7386951
 124.4184111 121.1965250  97.8075369 123.0939251 120.5873704  98.2156379
 121.6567923 119.2509018  97.6741836 120.7499379 118.9542131  97.7504550
 121.9343904 118.9538836  96.8076123 123.2729989 113.7945908 103.8286078
 122.4630717 113.4492993 104.2041324 123.9614406 113.4853452 104.4173689
 120.4266708 116.1095954  97.8153816 121.2885872 116.4350852  98.0749633
 120.6117052 115.3227449  97.3026881 121.3796151 113.3491997 101.1033525
 121.3674821 114.2933837 101.2601795 122.2719573 113.1662142 100.8092986
 125.1948270 109.9434773 105.3579461 124.4280666 109.3893260 105.5036144
 125.6058975 110.0156642 106.2193613  50.3288374  -7.7651793  96.9792350
  50.9666784  -7.8845046  96.2755690  50.2109217  -6.8170949  97.0380302
  47.1378080  -7.8124365  96.9153875  46.7996591  -7.9283301  96.0274410
  48.0067848  -8.2133200  96.8954881  42.9964896  -5.9588889  92.9050766
  42.4329761  -6.0498952  92.1367054  42.8817291  -6.7788984  93.3853258
  40.5429328  -4.4637697  95.7434986  41.3350620  -4.8046873  95.3281286
  40.7825978  -4.3542722  96.6637140  48.5764454  -2.2917921  88.2165231
  47.9252434  -1.7063841  87.8299245  49.3708817  -1.7611726  88.2760268
  42.5020082  -5.2028784  88.6152365  43.2750958  -5.7499797  88.4765241
  42.8545480  -4.3384535  88.8266827  45.2661331  -6.4975553  98.4120624
  45.8624903  -6.7219531  97.6977587  45.3236302  -7.2390808  99.0146072
  44.8386359  -9.0436118  86.2470815  45.0911880  -9.5654597  85.4854278
  43.9010918  -9.2069972  86.3497499  50.0539720  -4.6027489  88.7534215
  49.4185553  -4.5292863  89.4655120  49.7237126  -4.0133890  88.0753294
  44.5582648  -7.1408012  88.4495190  44.4418906  -7.8163109  89.1176274
  44.6684908  -7.6275638  87.6327343  46.9014189  -7.6797865  92.1541879
  46.5372396  -8.2067244  92.8654801  47.7581305  -8.0699396  91.9808365
  49.2995009  -4.1890986  98.8169058  48.9995732  -3.2865947  98.7084865
  48.9546069  -4.4558803  99.6690211  42.7507491  -7.7377189  94.8505763
  41.8257987  -7.8700975  95.0583454  42.9991904  -6.9582970  95.3475705
  46.5208897 -10.1950308  88.1349895  46.4008522  -9.7493257  88.9735375
  45.8261485  -9.8464990  87.5763433  44.2815789   2.5753334  91.7840026
  44.2039819   3.5261159  91.8628506  43.6777433   2.2299207  92.4414952
  50.8263545  -4.7403016  96.3543810  50.1972408  -4.5757302  95.6519878
  50.4389207  -4.3261406  97.1254774  54.7052777  -3.8048578  93.7088174
  54.0203815  -3.4249677  93.1585207  54.7896627  -3.1953252  94.4420122
  51.9603709  -6.1588619 100.3083517  52.1720604  -5.5156859  99.6317899
  51.9133457  -6.9926303  99.8405448  46.3791507  -5.0028608  93.6193895
  46.8429853  -4.7240905  92.8298518  46.1148305  -5.9045163  93.4366986
  43.2715588  -5.4557126  96.5573659  43.8416945  -5.0269858  95.9191143
  43.8623700  -5.7374542  97.2557844  45.3160393  -8.8805456  90.4283460
  46.0184437  -8.4284412  90.8957387  44.9841022  -9.5221637  91.0563354
  53.0749537  -3.2816664  98.4805875  53.8966981  -3.6836476  98.1988556
  53.0711940  -3.3848430  99.4321991  46.8406140  -3.7332620 100.6366585
  46.9050573  -3.2712213 101.4724757  46.1317064  -4.3635256 100.7648895
  46.5554158  -2.0664513  90.5045566  46.4199833  -1.2212977  90.9330413
  47.0963970  -1.8645235  89.7411499  40.0083555  -4.5489075  91.0773491
  40.5208076  -3.7545825  91.2279055  40.6606268  -5.2462784  91.0107092
  41.8178440  -1.4323319  93.1596244  41.9945068  -0.5105354  92.9717228
  42.6135274  -1.7464899  93.5890624  42.9409755   0.0854855  99.1606586
  43.4917181  -0.0428081  98.3883580  42.1021231   0.3849744  98.8101479
  50.2803872  -1.1638147 102.6627309  50.2622348  -0.3429265 102.1707578
  51.2023792  -1.2884071 102.8877450  49.8696904  -8.5525340  87.5416894
  49.3543528  -7.7820735  87.7805282  49.5974213  -9.2260204  88.1649956
  54.8431178  -5.7992985  89.4770068  54.0660621  -6.1381826  89.0325230
  55.5222659  -5.7940362  88.8025033  48.1029639  -4.5208025  91.0169629
  47.5751001  -5.2555265  90.7042867  47.6017142  -3.7433348  90.7709598
  53.0822485  -6.3259004  96.1336676  52.4246160  -5.6359743  96.2216804
  53.8862884  -5.9362572  96.4770662  51.8927944  -7.9714631  94.1840617
  52.4059826  -7.3384640  94.6862327  52.5429168  -8.5713436  93.8183977
  46.2482239  -6.7027814  84.0204602  45.3409301  -6.9338561  84.2195751
  46.7453271  -7.4990195  84.2078584  49.1550318   2.0069693  86.9401289
  48.4812017   2.3101390  87.5486246  49.5416140   2.8098773  86.5906746
  48.3708775 -10.4965176  96.4298958  47.4531336 -10.2750229  96.2720646
  48.7868919 -10.4218865  95.5710665  49.1543823  -9.0973760  91.5601638
  49.9015642  -8.5852363  91.2508760  49.4235412  -9.4189707  92.4206032
  47.4270473  -6.6015219  88.5428592  46.5181692  -6.8856187  88.6401062
  47.4565557  -6.1816141  87.6831899  52.6589740  -2.9908630  92.3119760
  52.2052067  -3.8317720  92.3684951  52.0283707  -2.3547232  92.6494540
  51.1022679  -1.1532133  93.2469578  51.3945654  -0.5927076  92.5281944
  51.6121300  -0.8603572  94.0022737  45.9755367  -8.9886599  94.6438388
  46.0303977  -9.9412762  94.5680864  45.1646569  -8.8327160  95.1279686
  47.1246561  -5.0606476  85.8816671  46.6865991  -5.7770617  85.4222308
  47.8657002  -4.8330361  85.3201762  46.0656305  -0.3751782  94.3363031
  46.0232483  -0.1490936  93.4071563  46.9819004  -0.6088408  94.4848833
  55.2419675  -6.7849279  91.9392990  55.1037574  -6.5947683  91.0114179
  54.8855894  -6.0229896  92.3961041  55.2689055  -4.7172752  96.9504261
  55.7025562  -4.8097463  97.7987315  55.9820636  -4.7415251  96.3124277
  44.1822105  -3.4988753  94.1324994  44.9762704  -3.9938433  93.9307569
  43.4713798  -4.0270890  93.7692700  49.0016950  -1.1170658  98.4837362
  49.0553972  -0.5479721  99.2515078  48.1331731  -0.9468773  98.1191399
  56.1304605  -4.6749051  99.4837147  56.3240495  -3.7703241  99.7296421
  56.0305223  -5.1341632 100.3175732  47.9605050  -6.9510396 100.0424294
  48.8897110  -6.7999236  99.8693261  47.5396080  -6.8626375  99.1872940
  46.7593381  -2.9259731  97.8122831  46.6204467  -3.2940947  98.6848769
  45.9707978  -2.4112092  97.6406789  47.3541533   2.1749365  89.1548368
  47.5293289   1.7037409  89.9693990  46.6674321   2.8015132  89.3829628
  48.3098597  -3.5478128  95.2011669  47.9748429  -3.5877358  96.0969319
  47.8102542  -4.2133413  94.7282079  51.2457788  -6.2022094  85.4748729
  50.6286959  -6.9275266  85.3781781  50.7774277  -5.4412734  85.1315803
  52.9011920  -1.4923186 103.1354509  52.8424466  -2.1763966 102.4685092
  53.3031438  -0.7504196 102.6835135  41.9202619   5.3238728  95.9288228
  42.1599217   5.9557252  96.6067246  41.0771815   4.9726768  96.2153587
  52.9029327  -3.5283602 101.3668489  52.0156106  -3.8657680 101.4894888
  53.4727878  -4.2600571 101.6037254  46.4330481   1.1317851  98.3329732
  46.3600652   1.9372822  98.8449036  45.9907874   1.3309816  97.5077753
  46.2220260   0.3689621  91.8432553  45.4387782   0.9111301  91.9370778
  46.9213005   0.8863600  92.2426795  48.8929164   1.0304685 100.4887891
  49.6057136   1.6652149 100.4163792  48.4019193   1.1268551  99.6727892
  50.6146691  -5.0644063  92.0605182  49.6802970  -4.9442600  91.8909887
  50.7923359  -5.9671596  91.7965192  43.9441078  -1.2200872 101.3093461
  44.6450537  -0.5864389 101.4622856  43.4736193  -0.8786140 100.5489101
  52.0695473  -2.8782922  89.5941368  52.3455317  -2.9926328  90.5035242
  51.1999972  -3.2765437  89.5553541  51.7442364  -8.6656265  99.1346012
  51.0913814  -8.4180357  98.4798464  52.1222743  -9.4792126  98.8008489
  48.7049537   1.3703429  93.2374182  48.8871932   0.5525085  93.7001934
  49.5282523   1.5871121  92.7999072  49.0391703   0.2971614  90.4989230
  49.5679469  -0.2135932  89.8859393  49.3019923  -0.0185856  91.3634764
  39.5408796  -1.6864517  98.2424564  40.1262233  -2.4320829  98.3752468
  39.3433634  -1.3760560  99.1261228  42.3947451   1.3486730  93.2587006
  41.7257826   1.8332858  92.7751046  42.2560321   1.5955951  94.1730385
  46.5352720   3.3830474  99.8569665  47.0871028   3.5462095 100.6218750
  46.8758913   3.9734912  99.1849690  49.6721107   1.3312450  96.8433347
  49.5472246   0.5302189  96.3344292  50.3300198   1.8258643  96.3547317
  51.7356015  -0.8678530  98.4712897  50.7886351  -0.9873179  98.3991224
  52.0838788  -1.7556032  98.5539158  48.7402448  -1.0725814  94.6717249
  48.5927411  -2.0009107  94.8524819  49.5655942  -1.0505723  94.1874324
  52.3436570  -0.2497255  95.7582122  53.2683118  -0.4554394  95.6206573
  52.1751874  -0.4980854  96.6671464  52.1331887   0.2688412  91.1144213
  52.3068764  -0.2965166  90.3618066  52.6260778   1.0689307  90.9323703
  53.1207059  -0.4144824  88.2141112  53.8157964   0.2061869  88.4328426
  53.4630209  -1.2649472  88.4893490  55.0198482  -2.9645118  89.7428443
  55.5449806  -2.6257845  89.0177763  54.9320835  -3.8998103  89.5591577
  46.6818531   0.9488956 101.8718319  46.9905657   0.7038102 102.7441019
  47.4794013   1.1535594 101.3837189  46.7039143   3.1026865  94.1023696
  46.2644133   2.6103244  94.7956552  47.4547260   2.5599833  93.8615771
  39.1831482  -0.7061594  94.1048324  40.0089502  -1.0057822  93.7246967
  38.8325534  -1.4753971  94.5538112  44.1513015  -1.3535126  96.1745997
  43.5293024  -2.0164421  95.8748225  44.8217882  -1.3273994  95.4919645
  37.3840087  -2.7875267  95.0637257  36.5471995  -3.2153093  94.8821259
  37.3563732  -2.5942824  96.0008049  54.7092388  -2.3312214 105.0479640
  53.9187932  -2.3488076 104.5084140  54.4725743  -1.7923921 105.8028677
  54.8290263  -5.4819748 102.3612369  54.8788268  -5.6469741 103.3027892
  54.7204187  -6.3492489 101.9710250  43.7126522  -2.8031202  89.6504458
  43.8614642  -2.1195738  88.9971131  44.5192965  -2.8226112  90.1653914
  56.3308460  -3.0622807 102.6054391  56.0393268  -2.6992826 103.4417852
  55.7180591  -3.7755798 102.4267723  57.5304142  -5.4969927  95.1256961
  58.3651034  -5.0580123  95.2894521  57.6663271  -5.9731274  94.3065207
  54.5795648  -7.9390192 101.0734449  55.0549770  -7.7462546 100.2653300
  53.6561214  -7.8831006 100.8277832  41.4679155  -6.7766025  90.6565527
  41.2225197  -7.6803695  90.8545737  41.6375069  -6.7748874  89.7145005
  47.2121927  -0.3083072  87.1216205  46.6395895   0.3107115  86.6686677
  47.7854721   0.2416290  87.6556127  50.4319187  -0.0245922  88.2524788
  51.3649860  -0.0900360  88.4557663  50.3442400   0.8110345  87.7939320
  53.0607204  -0.7080051  85.2128735  52.9820835  -1.0420188  86.1064493
  53.8816871  -0.2158284  85.2120208  47.5968726  -8.9722259  84.4632258
  48.5427831  -9.1016051  84.5320676  47.2182971  -9.7107597  84.9401686
  38.4814586  -6.1744754  94.6945326  38.4585274  -6.0757067  93.7427209
  38.7915223  -5.3279603  95.0162492  39.4952193   1.4251020  95.8262138
  39.3606661   0.6651421  95.2600136  39.0784255   2.1491920  95.3590927
  50.6311156  -3.3912056  84.8338713  51.3347006  -3.1862054  85.4496369
  49.9073804  -2.8235294  85.0987797  51.4608966  -7.6402195  90.9540984
  51.4044167  -7.1833643  90.1148616  52.0137308  -8.4011510  90.7763826
  42.6521319   2.3220337  96.0380581  42.5353703   3.2665770  95.9359271
  41.8313765   2.0193899  96.4266380  52.5397853  -2.9529527  86.8837174
  53.3743457  -3.3848328  86.7014648  52.3782196  -3.1247513  87.8114068
  52.1943745  -6.4497414  88.2493513  52.1392549  -6.6153142  87.3081957
  51.5689801  -5.7421381  88.4055703  43.6775833   2.9748599  99.2536509
  44.5803079   3.0072210  99.5703004  43.4513203   2.0449050  99.2682845
  45.4329435   1.7279586  95.9146588  44.4825066   1.7281447  95.8010960
  45.7361921   0.9812320  95.3982623  61.1682128   7.5640124  96.9792350
  61.8060538   7.4446872  96.2755690  61.0502971   8.5120968  97.0380302
  57.9771834   7.5167552  96.9153875  57.6390346   7.4008617  96.0274410
  58.8461603   7.1158717  96.8954881  53.8358650   9.3703029  92.9050766
  53.2723515   9.2792966  92.1367054  53.7211045   8.5502933  93.3853258
  58.4591617   8.6702404 102.8740081  58.4480258   8.2755202 102.0020584
  58.6212257   7.9368477 103.4673852  51.3823082  10.8654220  95.7434986
  52.1744374  10.5245045  95.3281286  51.6219732  10.9749195  96.6637140
  59.4158209  13.0373996  88.2165231  58.7646189  13.6228077  87.8299245
  60.2102572  13.5680191  88.2760268  53.3413836  10.1263134  88.6152365
  54.1144712   9.5792121  88.4765241  53.6939235  10.9907383  88.8266827
  55.1798879  11.4539516 101.8219264  54.8888745  12.3585147 101.7065931
  55.8155863  11.4956044 102.5363334  56.1055085   8.8316364  98.4120624
  56.7018658   8.6072387  97.6977587  56.1630057   8.0901110  99.0146072
  55.6780114   6.2855800  86.2470815  55.9305635   5.7637321  85.4854278
  54.7404673   6.1221945  86.3497499  60.7223397   5.2891578  94.0545558
  61.5086486   4.8711001  93.7035975  60.9862101   6.1937670  94.2227207
  60.8933474  10.7264428  88.7534215  60.2579307  10.7999055  89.4655120
  60.5630880  11.3158027  88.0753294  66.1231824   5.2266811  94.9578537
  66.8556996   4.6566028  95.1916366  65.3671180   4.8388412  95.3985042
  55.3976403   8.1883906  88.4495190  55.2812661   7.5128809  89.1176274
  55.5078662   7.7016280  87.6327343  57.7407944   7.6494053  92.1541879
  57.3766151   7.1224674  92.8654801  58.5975059   7.2592522  91.9808365
  63.6457244  -1.0611615  99.4173145  63.3140569  -0.1916204  99.1934360
  63.0502858  -1.3775331 100.0967176  57.3813431   2.6783953  87.1503228
  57.5487833   3.5464189  87.5173699  57.1910600   2.8411234  86.2264517
  60.1388764  11.1400931  98.8169058  59.8389487  12.0425970  98.7084865
  59.7939823  10.8733115  99.6690211  53.5901245   7.5914728  94.8505763
  52.6651742   7.4590942  95.0583454  53.8385658   8.3708948  95.3475705
  63.5385907   3.6583472  96.4966496  62.6302785   3.5898880  96.2025256
  63.4873503   4.1355417  97.3248321  57.3602651   5.1341610  88.1349895
  57.2402277   5.5798661  88.9735375  56.6655240   5.4826928  87.5763433
  50.9510056   7.2348002  95.6849552  51.0802437   7.4882481  96.5988963
  50.2707508   7.8275710  95.3654207  55.1209543  17.9045252  91.7840026
  55.0433573  18.8553077  91.8628506  54.5171187  17.5591124  92.4414952
  57.6126773   5.0773117 104.4401393  56.8360107   5.6367037 104.4304257
  58.2517336   5.5629900 104.9616263  65.4047554   1.8599910  98.2744369
  64.7621934   2.1532443  97.6284164  64.9002482   1.7452830  99.0797566
  63.0587718   5.6063083  88.9630229  63.9705574   5.8390470  88.7877926
  62.5497365   6.1900127  88.4005307  55.8673146   7.8858571 104.0019360
  56.6087830   8.4243615 103.7254183  55.1610131   8.5124859 104.1590912
  61.3428485  10.0287711 102.5991521  61.7511841   9.5870122 101.8546154
  60.6205747   9.4540339 102.8525714  57.6959555   4.9660318  99.9725078
  58.5420750   5.3899731 100.1159727  57.6358193   4.3093942 100.6663641
  61.6657300  10.5888902  96.3543810  61.0366162  10.7534616  95.6519878
  61.2782962  11.0030511  97.1254774  65.5446532  11.5243340  93.7088174
  64.8597570  11.9042241  93.1585207  65.6290381  12.1338666  94.4420122
  60.8459001   2.6264686 101.6306252  60.6019932   3.3806747 101.0940528
  61.1218931   3.0050034 102.4653499  62.7997463   9.1703299 100.3083517
  63.0114359   9.8135058  99.6317899  62.7527212   8.3365615  99.8405448
  60.4023692   1.7821119  97.2120090  59.5408171   2.0802373  97.5036827
  60.4286127   1.9991518  96.2801122  57.2185262  10.3263310  93.6193895
  57.6823607  10.6051013  92.8298518  56.9542060   9.4246754  93.4366986
  54.1109343   9.8734791  96.5573659  54.6810700  10.3022060  95.9191143
  54.7017455   9.5917376  97.2557844  56.1554148   6.4486462  90.4283460
  56.8578191   6.9007506  90.8957387  55.8234776   5.8070281  91.0563354
  54.6034509   5.0398219 104.8034670  53.9733170   5.7214500 105.0370067
  54.4970597   4.9281300 103.8587808  49.8979482   4.7070015  95.7300594
  49.1078536   4.9627543  95.2540705  50.3890729   5.5218353  95.8352634
  63.9143291  12.0475254  98.4805875  64.7360735  11.6455441  98.1988556
  63.9105694  11.9443488  99.4321991  51.8494227   5.0714594  92.6884071
  51.0525390   5.1833288  93.2067566  51.6219819   5.4101246  91.8224961
  57.6799895  11.5959297 100.6366585  57.7444327  12.0579704 101.4724757
  56.9710819  10.9656662 100.7648895  48.1817185   4.9600505  98.1615585
  48.4325223   5.8447515  98.4273161  48.7176733   4.7805107  97.3890677
  72.0049284   8.3914002  94.8290846  71.2512993   7.8221401  94.6734851
  72.1396826   8.3576667  95.7761481  57.3947912  13.2627405  90.5045566
  57.2593587  14.1078940  90.9330413  57.9357725  13.4646682  89.7411499
  50.8477310  10.7802843  91.0773491  51.3601830  11.5746093  91.2279055
  51.5000023  10.0829133  91.0107092  52.6572194  13.8968599  93.1596244
  52.8338823  14.8186564  92.9717228  53.4529028  13.5827018  93.5890624
  56.7983213   0.7576864 104.7580177  57.5392926   1.3584017 104.6784640
  57.0301136   0.0154501 104.1998220  51.9424551   5.9433231 103.0358407
  51.8278066   5.0418488 103.3365506  51.0869069   6.1896928 102.6843224
  59.0216389  13.8850971 104.6345908  58.5780243  13.0987350 104.3166812
  59.6833602  14.0730122 103.9689798  53.7803510  15.4146773  99.1606586
  54.3310935  15.2863836  98.3883580  52.9414986  15.7141662  98.8101479
  61.1197627  14.1653771 102.6627309  61.1016102  14.9862652 102.1707578
  62.0417547  14.0407846 102.8877450  57.5770681  11.6797901 103.5050817
  58.1099018  10.9186189 103.2750125  57.0484762  11.3871552 104.2474972
  60.7440376  -3.2142033  99.0344459  60.4004645  -2.3240392  98.9583570
  61.1119339  -3.4040376  98.1714044  48.8126227   9.1091497  91.8533061
  49.6501449   9.5188505  91.6366769  48.9904494   8.1690939  91.8233255
  60.7090659   6.7766578  87.5416894  60.1937282   7.5471182  87.7805282
  60.4367967   6.1031714  88.1649956  58.2937770   1.6216279  92.6002133
  57.4379366   1.2323129  92.4207771  58.7064721   1.7008239  91.7401918
  59.8236916  -0.8437378  96.9993692  59.3201712  -0.8807243  96.1861498
  60.1167523   0.0655364  97.0590349  56.0679802  -0.7598649  96.0059874
  56.9332799  -0.9555840  95.6465764  56.1357311  -0.9888297  96.9329231
  65.6824933   9.5298932  89.4770068  64.9054376   9.1910092  89.0325230
  66.3616414   9.5351556  88.8025033  60.4976962   4.6493670  89.3676675
  60.1927097   4.9639819  90.2186819  61.4507404   4.7275090  89.4104008
  58.9423394  10.8083893  91.0169629  58.4144755  10.0736653  90.7042867
  58.4410896  11.5858569  90.7709598  63.9216240   9.0032914  96.1336676
  63.2639914   9.6932175  96.2216804  64.7256639   9.3929346  96.4770662
  53.6742121   1.4703559  93.3776241  54.2485873   1.2478741  92.6449434
  54.2613104   1.5392254  94.1304842  62.7321699   7.3577286  94.1840617
  63.2453580   7.9907278  94.6862327  63.3822922   6.7578482  93.8183977
  54.0011708   3.5008020  87.3972126  53.1649021   3.8382707  87.7181401
  53.8616478   3.3657000  86.4599263  55.9764789  -1.6555192  92.1051310
  55.3229201  -1.9706175  91.4807925  55.9345263  -2.2779451  92.8311133
  57.0875994   8.6264103  84.0204602  56.1803056   8.3953357  84.2195751
  57.5847026   7.8301723  84.2078584  59.9944073  17.3361611  86.9401289
  59.3205772  17.6393307  87.5486246  60.3809895  18.1390691  86.5906746
  59.2102529   4.8326742  96.4298958  58.2925091   5.0541689  96.2720646
  59.6262673   4.9073052  95.5710665  59.9937577   6.2318158  91.5601638
  60.7409396   6.7439555  91.2508760  60.2629167   5.9102210  92.4206032
  58.2664227   8.7276698  88.5428592  57.3575447   8.4435731  88.6401062
  58.2959311   9.1475777  87.6831899  63.4983495  12.3383288  92.3119760
  63.0445822  11.4974198  92.3684951  62.8677461  12.9744686  92.6494540
  62.4416414   3.2675274  93.5420427  61.7039171   2.7552660  93.8730670
  62.6943188   2.8275655  92.7303704  61.9416434  14.1759784  93.2469578
  62.2339408  14.7364842  92.5281944  62.4515055  14.4688345  94.0022737
  62.5428042  -3.9548474  94.1362197  62.8486918  -4.8151111  93.8488112
  63.2680646  -3.3630854  93.9361191  48.8352398   6.4482212  92.5243795
  48.6376798   5.8551573  91.7994861  48.2799062   6.1434423  93.2419733
  56.8149121   6.3405319  94.6438388  56.8697731   5.3879155  94.5680864
  56.0040323   6.4964758  95.1279686  57.9640315  10.2685442  85.8816671
  57.5259745   9.5521301  85.4222308  58.7050756  10.4961557  85.3201762
  54.7541481   4.9582379  92.4028767  53.9409347   5.2576549  92.8093959
  55.2500475   4.5638067  93.1203249  56.9050059  14.9540136  94.3363031
  56.8626238  15.1800982  93.4071563  57.8212758  14.7203510  94.4848833
  60.3515693   5.4224203 101.2343661  60.7065081   5.6495676 102.0938126
  60.9987824   5.7542580 100.6120916  66.0813430   8.5442639  91.9392990
  65.9431329   8.7344235  91.0114179  65.7249649   9.3062022  92.3961041
  54.2455556   2.5300734  98.0190002  54.8854935   2.3889493  97.3212965
  53.4133087   2.2435248  97.6428604  66.1082810  10.6119166  96.9504261
  66.5419316  10.5194455  97.7987315  66.8214390  10.5876666  96.3124277
  55.0215860  11.8303165  94.1324994  55.8156458  11.3353485  93.9307569
  54.3107552  11.3021028  93.7692700  59.8410704  14.2121260  98.4837362
  59.8947727  14.7812196  99.2515078  58.9725486  14.3823145  98.1191399
  51.3298623   5.9746246  90.2084747  50.3996212   5.9130702  90.4254709
  51.4256095   5.4522199  89.4121388  51.2484172   2.5001059  92.7962988
  51.5090990   3.4146392  92.6872149  52.0701345   2.0325502  92.9459601
  52.7209098   3.9138816  99.9661813  53.3932151   3.7056178  99.3174462
  51.8938884   3.7160902  99.5267045  66.9698359  10.6542867  99.4837147
  67.1634249  11.5588677  99.7296421  66.8698977  10.1950286 100.3175732
  58.6234670   0.5400757 101.9827474  57.9762585   1.2390707 101.8891950
  59.3935685   0.9736901 102.3503722  62.0313468  10.8049609 105.0578027
  61.8798974  10.5760161 104.1408111  62.0218147  11.7620211 105.0709372
  58.7998804   8.3781522 100.0424294  59.7290864   8.5292682  99.8693261
  58.3789834   8.4665543  99.1872940  57.5987136  12.4032187  97.8122831
  57.4598222  12.0350971  98.6848769  56.8101732  12.9179826  97.6406789
  58.1935288  17.5041283  89.1548368  58.3687044  17.0329326  89.9693990
  57.5068076  18.1307049  89.3829628  59.1492351  11.7813789  95.2011669
  58.8142184  11.7414559  96.0969319  58.6496297  11.1158505  94.7282079
  53.1236595   7.1881419 100.7264250  52.9856393   6.4561658 101.3275789
  54.0341519   7.0990319 100.4448438  62.0851543   9.1269824  85.4748729
  61.4680713   8.4016652  85.3781781  61.6168031   9.8879184  85.1315803
  55.7518896   6.9001379 100.2147930  56.4618514   6.2594571 100.1734548
  55.7088204   7.1514273 101.1374111  63.7405674  13.8368732 103.1354509
  63.6818221  13.1527952 102.4685092  64.1425193  14.5787722 102.6835135
  54.4647830   3.8866596 102.0343569  53.9285187   3.4357335 102.6865166
  53.8764538   4.0212505 101.2914034  52.7596373  20.6530646  95.9288228
  52.9992971  21.2849170  96.6067246  51.9165570  20.3018686  96.2153587
  53.8750089   3.3455248  84.5970033  52.9979555   3.2244049  84.2332280
  54.3507842   2.5541326  84.3448922  63.7423082  11.8008316 101.3668489
  62.8549860  11.4634238 101.4894888  64.3121633  11.0691347 101.6037254
  45.3952229   8.1332408  94.6911540  46.0823269   7.8194138  94.1032555
  45.2400357   9.0373772  94.4178791  50.1986951   3.0222604  99.1196564
  50.1145140   2.4148274  98.3846974  49.3769657   3.5131622  99.1206060
  57.2724235  16.4609768  98.3329732  57.1994407  17.2664740  98.8449036
  56.8301628  16.6601734  97.5077753  57.0614015  15.6981538  91.8432553
  56.2781537  16.2403218  91.9370778  57.7606760  16.2155518  92.2426795
  60.3710665   1.5076168  94.4866759  60.8679364   0.7546130  94.1667829
  59.5997646   1.5440484  93.9209968  68.2240422   7.2116533  96.1285050
  68.2130298   8.0941249  95.7578983  67.3557802   6.8588084  95.9339587
  59.7322919  16.3596602 100.4887891  60.4450891  16.9944067 100.4163792
  59.2412947  16.4560468  99.6727892  61.4540445  10.2647855  92.0605182
  60.5196724  10.3849317  91.8909887  61.6317114   9.3620322  91.7965192
  56.9545634   3.6493551  94.2138443  56.5843421   3.0964591  94.9019349
  57.4504726   3.0451684  93.6613443  64.8412997   6.1065174  92.5955216
  65.3073449   6.9393166  92.5215519  65.2920497   5.6410156  93.3000475
  54.7834832  14.1091046 101.3093461  55.4844292  14.7427529 101.4622856
  54.3129947  14.4505777 100.5489101  62.9089228  12.4508996  89.5941368
  63.1849072  12.3365590  90.5035242  62.0393727  12.0526480  89.5553541
  62.8129660  -1.5254239  96.6346118  61.8992739  -1.2950012  96.8028325
  63.2422761  -1.4415795  97.4860150  62.5836118   6.6635653  99.1346012
  61.9307568   6.9111561  98.4798464  62.9616498   5.8499791  98.8008489
  59.5443292  16.6995346  93.2374182  59.7265686  15.8817002  93.7001934
  60.3676278  16.9163039  92.7999072  59.8785457  15.6263531  90.4989230
  60.4073224  15.1155986  89.8859393  60.1413677  15.3106062  91.3634764
  58.6323691   7.4055464 105.6212049  57.9564328   7.3049594 106.2914424
  59.4551325   7.2494678 106.0848046  50.3802550  13.6427401  98.2424564
  50.9655987  12.8971089  98.3752468  50.1827389  13.9531357  99.1261228
  53.2341205  16.6778648  93.2587006  52.5651581  17.1624776  92.7751046
  53.0954075  16.9247869  94.1730385  44.9720205   6.2133001  96.9629007
  45.0104304   5.6796592  97.7566125  44.4660498   5.6868206  96.3439984
  57.3746474  18.7122392  99.8569665  57.9264782  18.8754013 100.6218750
  57.7152667  19.3026829  99.1849690  52.3510967   1.0597541 100.4591549
  52.4152294   1.9212372 100.0468947  52.2878087   0.4471543  99.7263908
  51.8263240   3.1320674 104.1064584  52.4535279   2.7497751 104.7202108
  50.9691159   2.9134876 104.4720276  62.2257348  13.5383649 105.7118319
  62.7697252  14.1513607 105.2173274  61.6444193  14.0963228 106.2285332
  48.6028782   4.9397103  90.0382939  48.8982224   4.0307782  89.9849992
  47.7016818   4.9184843  89.7163941  60.5114861  16.6604367  96.8433347
  60.3866001  15.8594107  96.3344292  61.1693952  17.1550561  96.3547317
  52.1323029   3.0153100  96.0210487  51.4109615   3.6289067  95.8817960
  52.9216285   3.5510865  95.9427133  62.5749770  14.4613387  98.4712897
  61.6280105  14.3418738  98.3991224  62.9232543  13.5735885  98.5539158
  54.9349343   0.3507526 102.2951139  55.4583745   0.5969823 103.0577448
  54.7161676   1.1827561 101.8754276  50.3316624   2.6211201  90.1622264
  50.0029330   1.7408580  89.9797370  50.6855995   2.5658869  91.0498653
  59.5796203  14.2566104  94.6717249  59.4321165  13.3282811  94.8524819
  60.4049696  14.2786194  94.1874324  53.4458447   2.9084171  90.5297741
  53.7854520   3.4370092  89.8076350  53.8930568   3.2464577  91.3056308
  63.1830325  15.0794662  95.7582122  64.1076872  14.8737524  95.6206573
  63.0145628  14.8311063  96.6671464  56.1401888   1.2921221  99.9800809
  55.7998708   0.4929034 100.3821489  55.4340894   1.5922932  99.4077643
  56.7918360  -1.6229466  98.4328132  57.6144429  -2.0968988  98.3107023
  57.0356423  -0.8438983  98.9326819  55.4326594   1.4058792  88.7291034
  56.1534957   1.7840045  88.2254751  54.8091899   2.1247669  88.8326012
  59.5757717   2.1103941  89.6649366  59.7921332   2.9928579  89.3638195
  59.0951784   1.7190155  88.9355008  54.3156939   5.0689654  96.2420111
  54.1701519   5.3829957  97.1344393  53.8382142   5.6874555  95.6891010
  56.1753322   2.0592202  96.2901001  56.1614890   1.1633296  95.9533299
  56.8925750   2.0662866  96.9239287  58.0279452   2.4929543  98.3354128
  57.7697230   3.4146613  98.3338459  57.4964493   2.0959977  99.0254592
  62.9725641  15.5980330  91.1144213  63.1462519  15.0326752  90.3618066
  63.4654532  16.3981225  90.9323703  48.7902601   7.6094999  99.1807772
  48.2456069   8.3854807  99.3128047  49.6681951   7.9565803  99.0226894
  55.5790217   0.9406583  91.5588571  55.7006129   0.0123229  91.7579458
  55.2892260   0.9545269  90.6466886  58.4481408  -1.3738507  94.6955291
  58.4703105  -1.3099174  93.7407270  58.8649467  -2.2133998  94.8895797
  68.8265032   8.3616753  92.7334513  69.2696178   7.6124078  92.3353636
  67.9491542   8.3526889  92.3508245  63.9600813  14.9147094  88.2141112
  64.6551718  15.5353787  88.4328426  64.3023964  14.0642445  88.4893490
  49.5768623   6.7364895 102.0737929  48.8350359   6.8847530 102.6602560
  49.2561367   6.9973161 101.2104679  65.8592237  12.3646800  89.7428443
  66.3843561  12.7034072  89.0177763  65.7714589  11.4293815  89.5591577
  57.5212285  16.2780873 101.8718319  57.8299412  16.0330020 102.7441019
  58.3187767  16.4827512 101.3837189  57.5432897  18.4318783  94.1023696
  57.1037888  17.9395162  94.7956552  58.2941014  17.8891751  93.8615771
  50.0225236  14.6230324  94.1048324  50.8483256  14.3234096  93.7246967
  49.6719288  13.8537946  94.5538112  54.9906770  13.9756792  96.1745997
  54.3686779  13.3127497  95.8748225  55.6611636  14.0017924  95.4919645
  48.2233841  12.5416650  95.0637257  47.3865750  12.1138825  94.8821259
  48.1957487  12.7349094  96.0008049  55.0631297   2.4538580 105.7678503
  55.1119452   3.3300703 105.3856273  55.6053811   1.9115973 105.1950147
  65.5486143  12.9979703 105.0479640  64.7581686  12.9803842 104.5084140
  65.3119497  13.5367997 105.8028677  65.6684018   9.8472170 102.3612369
  65.7182023   9.6822177 103.3027892  65.5597941   8.9799429 101.9710250
  54.5520276  12.5260715  89.6504458  54.7008397  13.2096180  88.9971131
  55.3586720  12.5065805  90.1653914  62.9587780   5.8303098 103.6771676
  63.8597643   5.6909563 103.3855674  63.0335755   5.9957552 104.6169853
  57.2930585   3.2069952 102.5224862  56.4233895   3.5003518 102.2507451
  57.5290066   3.7910397 103.2432126  67.1702215  12.2669111 102.6054391
  66.8787023  12.6299092 103.4417852  66.5574346  11.5536119 102.4267723
  68.3697897   9.8321991  95.1256961  69.2044788  10.2711795  95.2894521
  68.5057026   9.3560644  94.3065207  65.4189403   7.3901726 101.0734449
  65.8943524   7.5829372 100.2653300  64.4954968   7.4460912 100.8277832
  52.3072909   8.5525893  90.6565527  52.0618951   7.6488223  90.8545737
  52.4768824   8.5543043  89.7145005  59.9969619  -0.5750431 100.0390282
  60.5151563   0.1610596  99.7136771  59.6424752  -0.2686437 100.8737042
  51.5768557   4.2854251  88.1551688  50.8837802   4.3598606  87.4991724
  51.3320309   3.5214594  88.6773205  60.2482213  -4.1550148  95.5591179
  60.5283967  -4.8226959  96.1851606  61.0332820  -3.9621053  95.0465843
  58.0515682  15.0208846  87.1216205  57.4789649  15.6399033  86.6686677
  58.6248476  15.5708207  87.6556127  64.1191072   4.2667486  99.3062754
  65.0708495   4.3665584  99.3274978  63.9494522   3.4745754  99.8160839
  62.1405451   1.3523069  99.4922155  61.5455383   1.6328082  98.7968644
  61.8555148   1.8416970 100.2638896  61.2712942  15.3045996  88.2524788
  62.2043615  15.2391558  88.4557663  61.1836155  16.1402263  87.7939320
  63.9000958  14.6211866  85.2128735  63.8214590  14.2871730  86.1064493
  64.7210625  15.1133634  85.2120208  66.5979150   7.4873606  98.4205054
  66.5655470   6.5489606  98.6064738  67.2079773   7.5657642  97.6870879
  58.4362480   6.3569659  84.4632258  59.3821585   6.2275867  84.5320676
  58.0576725   5.6184320  84.9401686  66.7473638   4.2784649  98.4663337
  66.2312687   3.4943106  98.2793266  67.6313587   3.9503366  98.6309856
  64.4084365  -1.9774335  94.4259150  64.2109186  -2.2859247  95.3102482
  65.0184071  -1.2512697  94.5557080  72.4155699   8.5489612  97.5611091
  73.1459088   8.2874901  98.1218794  71.8062645   7.8118334  97.6013159
  70.4970997   6.6897475  98.1585542  69.7704160   6.5553440  97.5502033
  70.0818283   6.9974304  98.9642260  58.3201173  10.4087405 105.9232915
  59.2404182  10.5866004 106.1172961  58.2850756   9.4643450 105.7712614
  56.6205398   4.2819635  84.3987143  55.7136853   3.9852748  84.4749857
  56.8981379   3.9849453  83.5321429  47.5383338   5.6025998  94.8486189
  47.2186122   4.7491307  94.5560563  46.9916766   5.8174576  95.6044157
  51.3163246   8.3188439  98.5655696  51.5349255   9.2505547  98.5843730
  51.7289019   7.9596414  99.3510500  58.2367463  -1.1743475  90.5531384
  57.4268192  -1.5196390  90.9286630  58.9251880  -1.4835932  91.1418996
  60.1658012  -2.0965429  92.1755681  60.7189050  -1.6769975  92.8345704
  60.4028098  -3.0229680  92.2178637  56.1891111   3.8921645 107.9558445
  56.0887838   4.8416002 107.8870536  55.9712653   3.5639884 107.0834515
  55.3904182   1.1406570  84.5399122  56.2523346   1.4661468  84.7994940
  55.5754526   0.3538066  84.0272188  47.4071598   9.2228910  96.8179311
  46.7135069   8.8082863  96.3049265  48.1544589   9.2649446  96.2212730
  63.5436819   0.0135097  91.6834345  62.9635488   0.6719901  91.3012398
  63.2772751  -0.8087559  91.2721763  61.9940385  -0.5859846  93.8855666
  62.4940163  -0.4743311  93.0769984  62.6375993  -0.8898793  94.5256474
  56.0522381   7.3218784 106.7723507  55.5689463   8.1219144 106.9787396
  56.1383320   7.3326729 105.8190951  49.3208341   9.1547164  94.6945326
  49.2979029   9.2534851  93.7427209  49.6308977  10.0012314  95.0162492
  51.9795718  11.2123319  98.8091940  52.9338972  11.1807261  98.7421872
  51.7808242  10.7513942  99.6242166  52.5695101   9.7824435 101.3762738
  53.3887990  10.2768513 101.3997575  52.8431908   8.8656403 101.3480306
  62.3261697   2.1735187  90.7390694  61.4387552   2.4584838  90.5210888
  62.7415686   2.0128950  89.8917970  65.6776233   2.1981708  94.4545033
  66.4536623   2.6878160  94.7269650  64.9524367   2.6239762  94.9116902
  68.1148791   2.9109327  95.5118973  68.7093282   2.6705063  94.8012282
  68.1875375   2.1916458  96.1392510  50.3345947  16.7542938  95.8262138
  50.2000415  15.9943339  95.2600136  49.9178009  17.4783838  95.3590927
  61.4704910  11.9379862  84.8338713  62.1740760  12.1429864  85.4496369
  60.7467559  12.5056624  85.0987797  62.3002720   7.6889723  90.9540984
  62.2437922   8.1458274  90.1148616  62.8531063   6.9280408  90.7763826
  66.1107526   3.4779455  91.7791103  65.8544461   3.0776090  92.6099311
  65.4860394   4.1923249  91.6541242  70.4219864   6.2175528  94.2862395
  69.8619422   6.2868717  95.0593957  69.8163368   6.0416513  93.5661891
  53.4915073  17.6512255  96.0380581  53.3747457  18.5957688  95.9359271
  52.6707519  17.3485817  96.4266380  63.3791608  12.3762391  86.8837174
  64.2137212  11.9443589  86.7014648  63.2175951  12.2044405  87.8114068
  63.0337500   8.8794504  88.2493513  62.9786304   8.7138776  87.3081957
  62.4083555   9.5870537  88.4055703  47.8230015   4.1162569 102.0754935
  48.4688878   3.6061523 102.5642160  47.6147166   4.8531250 102.6498360
  60.3483407  11.1843416 107.5747076  61.2174567  11.3584068 107.2133711
  59.8690158  12.0037833 107.4522805  56.3433625  -1.6197387  87.8278831
  56.3312295  -0.6755547  87.9847102  57.2357047  -1.8027241  87.5338292
  54.5169587  18.3040517  99.2536509  55.4196834  18.3364127  99.5703004
  54.2906957  17.3740968  99.2682845  56.2723189  17.0571504  95.9146588
  55.3218820  17.0573365  95.8010960  56.5755675  16.3104238  95.3982623
  60.1585745  -5.0254610  92.0824768  59.3918140  -5.5796124  92.2281450
  60.5696450  -4.9532741  92.9438920  72.0075883  22.8932042  96.9792350
  72.6454293  22.7738789  96.2755690  71.8896726  23.8412886  97.0380302
  68.8165589  22.8459470  96.9153875  68.4784100  22.7300535  96.0274410
  69.6855357  22.4450635  96.8954881  64.6752405  24.6994946  92.9050766
  64.1117270  24.6084883  92.1367054  64.5604800  23.8794851  93.3853258
  69.2985372  23.9994322 102.8740081  69.2874013  23.6047120 102.0020584
  69.4606011  23.2660394 103.4673852  62.2216837  26.1946138  95.7434986
  63.0138129  25.8536963  95.3281286  62.4613487  26.3041113  96.6637140
  66.0192633  26.7831434 101.8219264  65.7282499  27.6877064 101.7065931
  66.6549617  26.8247961 102.5363334  66.9448840  24.1608282  98.4120624
  67.5412412  23.9364305  97.6977587  67.0023811  23.4193028  99.0146072
  71.5617151  20.6183496  94.0545558  72.3480240  20.2002919  93.7035975
  71.8255855  21.5229588  94.2227207  76.9625578  20.5558729  94.9578537
  77.6950750  19.9857946  95.1916366  76.2064934  20.1680329  95.3985042
  68.5801698  22.9785971  92.1541879  68.2159905  22.4516591  92.8654801
  69.4368814  22.5884440  91.9808365  74.4850999  14.2680303  99.4173145
  74.1534323  15.1375714  99.1934360  73.8896612  13.9516587 100.0967176
  68.2207185  18.0075870  87.1503228  68.3881587  18.8756107  87.5173699
  68.0304354  18.1703152  86.2264517  70.9782518  26.4692849  98.8169058
  70.6783241  27.3717888  98.7084865  70.6333578  26.2025032  99.6690211
  64.4295000  22.9206646  94.8505763  63.5045496  22.7882860  95.0583454
  64.6779413  23.7000865  95.3475705  74.3779662  18.9875389  96.4966496
  73.4696539  18.9190798  96.2025256  74.3267258  19.4647334  97.3248321
  61.7903811  22.5639919  95.6849552  61.9196192  22.8174398  96.5988963
  61.1101262  23.1567627  95.3654207  68.4520528  20.4065035 104.4401393
  67.6753862  20.9658955 104.4304257  69.0911091  20.8921818 104.9616263
  76.2441308  17.1891828  98.2744369  75.6015689  17.4824361  97.6284164
  75.7396237  17.0744748  99.0797566  73.8981472  20.9355001  88.9630229
  74.8099328  21.1682388  88.7877926  73.3891119  21.5192045  88.4005307
  66.7066900  23.2150488 104.0019360  67.4481584  23.7535532 103.7254183
  66.0003886  23.8416777 104.1590912  72.1822240  25.3579629 102.5991521
  72.5905596  24.9162039 101.8546154  71.4599501  24.7832256 102.8525714
  68.5353310  20.2952235  99.9725078  69.3814505  20.7191649 100.1159727
  68.4751947  19.6385860 100.6663641  72.5051054  25.9180819  96.3543810
  71.8759917  26.0826533  95.6519878  72.1176716  26.3322429  97.1254774
  76.3840286  26.8535257  93.7088174  75.6991324  27.2334159  93.1585207
  76.4684136  27.4630584  94.4420122  71.6852755  17.9556604 101.6306252
  71.4413687  18.7098664 101.0940528  71.9612686  18.3341951 102.4653499
  73.6391218  24.4995216 100.3083517  73.8508113  25.1426976  99.6317899
  73.5920966  23.6657533  99.8405448  71.2417447  17.1113037  97.2120090
  70.3801926  17.4094290  97.5036827  71.2679881  17.3283436  96.2801122
  68.0579016  25.6555227  93.6193895  68.5217362  25.9342930  92.8298518
  67.7935814  24.7538672  93.4366986  64.9503097  25.2026709  96.5573659
  65.5204454  25.6313977  95.9191143  65.5411209  24.9209294  97.2557844
  66.9947902  21.7778380  90.4283460  67.6971946  22.2299423  90.8957387
  66.6628531  21.1362199  91.0563354  65.4428264  20.3690136 104.8034670
  64.8126924  21.0506417 105.0370067  65.3364352  20.2573218 103.8587808
  60.7373236  20.0361932  95.7300594  59.9472290  20.2919461  95.2540705
  61.2284484  20.8510270  95.8352634  74.7537046  27.3767172  98.4805875
  75.5754490  26.9747359  98.1988556  74.7499449  27.2735406  99.4321991
  62.6887982  20.4006512  92.6884071  61.8919145  20.5125206  93.2067566
  62.4613574  20.7393164  91.8224961  68.5193649  26.9251215 100.6366585
  68.5838082  27.3871622 101.4724757  67.8104573  26.2948580 100.7648895
  59.0210939  20.2892423  98.1615585  59.2718978  21.1739433  98.4273161
  59.5570488  20.1097024  97.3890677  82.8443039  23.7205920  94.8290846
  82.0906747  23.1513318  94.6734851  82.9790580  23.6868585  95.7761481
  64.7209007  14.6710902 107.1659921  64.3275952  14.1177101 107.8407565
  65.5375147  14.9821481 107.5566438  67.6376968  16.0868781 104.7580177
  68.3786681  16.6875934 104.6784640  67.8694890  15.3446419 104.1998220
  62.7818306  21.2725149 103.0358407  62.6671821  20.3710406 103.3365506
  61.9262823  21.5188845 102.6843224  69.8610143  29.2142889 104.6345908
  69.4173997  28.4279267 104.3166812  70.5227357  29.4022039 103.9689798
  64.6197264  30.7438691  99.1606586  65.1704690  30.6155754  98.3883580
  63.7808740  31.0433580  98.8101479  71.9591381  29.4945689 102.6627309
  71.9409857  30.3154570 102.1707578  72.8811301  29.3699764 102.8877450
  68.4164436  27.0089818 103.5050817  68.9492772  26.2478107 103.2750125
  67.8878517  26.7163470 104.2474972  71.5834130  12.1149884  99.0344459
  71.2398400  13.0051526  98.9583570  71.9513093  11.9251542  98.1714044
  59.6519981  24.4383415  91.8533061  60.4895203  24.8480423  91.6366769
  59.8298249  23.4982857  91.8233255  69.1331524  16.9508196  92.6002133
  68.2773121  16.5615047  92.4207771  69.5458476  17.0300157  91.7401918
  70.6630671  14.4854539  96.9993692  70.1595466  14.4484675  96.1861498
  70.9561278  15.3947282  97.0590349  66.9073557  14.5693269  96.0059874
  67.7726554  14.3736078  95.6465764  66.9751066  14.3403621  96.9329231
  76.5218687  24.8590850  89.4770068  75.7448130  24.5202010  89.0325230
  77.2010168  24.8643473  88.8025033  71.3370716  19.9785587  89.3676675
  71.0320852  20.2931737  90.2186819  72.2901158  20.0567007  89.4104008
  74.7609994  24.3324831  96.1336676  74.1033669  25.0224093  96.2216804
  75.5650393  24.7221263  96.4770662  64.5135876  16.7995477  93.3776241
  65.0879628  16.5770659  92.6449434  65.1006858  16.8684172  94.1304842
  73.5715453  22.6869204  94.1840617  74.0847335  23.3199196  94.6862327
  74.2216677  22.0870400  93.8183977  66.8158544  13.6736726  92.1051310
  66.1622956  13.3585743  91.4807925  66.7739018  13.0512466  92.8311133
  70.0496284  20.1618660  96.4298958  69.1318845  20.3833607  96.2720646
  70.4656428  20.2364970  95.5710665  70.8331332  21.5610075  91.5601638
  71.5803151  22.0731472  91.2508760  71.1022921  21.2394128  92.4206032
  74.3377249  27.6675205  92.3119760  73.8839576  26.8266115  92.3684951
  73.7071216  28.3036604  92.6494540  73.2810169  18.5967191  93.5420427
  72.5432926  18.0844578  93.8730670  73.5336942  18.1567573  92.7303704
  72.7810188  29.5051702  93.2469578  73.0733163  30.0656759  92.5281944
  73.2908809  29.7980263  94.0022737  73.3821796  11.3743443  94.1362197
  73.6880673  10.5140807  93.8488112  74.1074401  11.9661064  93.9361191
  59.6746152  21.7774130  92.5243795  59.4770552  21.1843491  91.7994861
  59.1192816  21.4726340  93.2419733  67.6542876  21.6697237  94.6438388
  67.7091486  20.7171073  94.5680864  66.8434078  21.8256676  95.1279686
  65.5935236  20.2874296  92.4028767  64.7803101  20.5868467  92.8093959
  66.0894230  19.8929985  93.1203249  67.7443814  30.2832053  94.3363031
  67.7019992  30.5092900  93.4071563  68.6606513  30.0495428  94.4848833
  71.1909447  20.7516121 101.2343661  71.5458835  20.9787594 102.0938126
  71.8381579  21.0834498 100.6120916  76.9207184  23.8734557  91.9392990
  76.7825083  24.0636153  91.0114179  76.5643403  24.6353939  92.3961041
  65.0849311  17.8592652  98.0190002  65.7248690  17.7181411  97.3212965
  64.2526841  17.5727165  97.6428604  76.9476564  25.9411084  96.9504261
  77.3813071  25.8486373  97.7987315  77.6608145  25.9168584  96.3124277
  65.8609614  27.1595082  94.1324994  66.6550213  26.6645402  93.9307569
  65.1501307  26.6312945  93.7692700  70.6804459  29.5413178  98.4837362
  70.7341481  30.1104114  99.2515078  69.8119240  29.7115063  98.1191399
  62.1692378  21.3038164  90.2084747  61.2389966  21.2422619  90.4254709
  62.2649850  20.7814117  89.4121388  62.0877927  17.8292977  92.7962988
  62.3484744  18.7438310  92.6872149  62.9095099  17.3617419  92.9459601
  63.5602852  19.2430734  99.9661813  64.2325906  19.0348096  99.3174462
  62.7332639  19.0452820  99.5267045  77.8092114  25.9834784  99.4837147
  78.0028004  26.8880595  99.7296421  77.7092732  25.5242203 100.3175732
  69.4628424  15.8692675 101.9827474  68.8156339  16.5682625 101.8891950
  70.2329440  16.3028819 102.3503722  72.8707222  26.1341527 105.0578027
  72.7192729  25.9052079 104.1408111  72.8611902  27.0912128 105.0709372
  69.6392559  23.7073440 100.0424294  70.5684619  23.8584599  99.8693261
  69.2183589  23.7957461  99.1872940  68.4380890  27.7324104  97.8122831
  68.2991976  27.3642889  98.6848769  67.6495487  28.2471744  97.6406789
  69.9886106  27.1105707  95.2011669  69.6535938  27.0706477  96.0969319
  69.4890051  26.4450423  94.7282079  63.9630350  22.5173337 100.7264250
  63.8250147  21.7853576 101.3275789  64.8735273  22.4282237 100.4448438
  66.5912650  22.2293296 100.2147930  67.3012269  21.5886488 100.1734548
  66.5481958  22.4806191 101.1374111  74.5799429  29.1660650 103.1354509
  74.5211975  28.4819870 102.4685092  74.9818947  29.9079640 102.6835135
  65.3041584  19.2158514 102.0343569  64.7678941  18.7649253 102.6865166
  64.7158293  19.3504423 101.2914034  63.5990128  35.9822563  95.9288228
  63.8386726  36.6141088  96.6067246  62.7559324  35.6310603  96.2153587
  74.5816836  27.1300234 101.3668489  73.6943615  26.7926155 101.4894888
  75.1515387  26.3983265 101.6037254  56.2345983  23.4624325  94.6911540
  56.9217023  23.1486055  94.1032555  56.0794112  24.3665690  94.4178791
  61.0380705  18.3514522  99.1196564  60.9538894  17.7440191  98.3846974
  60.2163412  18.8423540  99.1206060  68.1117990  31.7901686  98.3329732
  68.0388161  32.5956657  98.8449036  67.6695383  31.9893652  97.5077753
  71.2104419  16.8368085  94.4866759  71.7073119  16.0838048  94.1667829
  70.4391401  16.8732402  93.9209968  79.0634177  22.5408451  96.1285050
  79.0524053  23.4233166  95.7578983  78.1951556  22.1880002  95.9339587
  70.5716673  31.6888520 100.4887891  71.2844645  32.3235985 100.4163792
  70.0806702  31.7852386  99.6727892  67.7939388  18.9785468  94.2138443
  67.4237176  18.4256509  94.9019349  68.2898480  18.3743602  93.6613443
  75.6806751  21.4357092  92.5955216  76.1467204  22.2685083  92.5215519
  76.1314252  20.9702073  93.3000475  65.6228587  29.4382963 101.3093461
  66.3238046  30.0719446 101.4622856  65.1523702  29.7797695 100.5489101
  73.6523414  13.8037679  96.6346118  72.7386494  14.0341906  96.8028325
  74.0816516  13.8876123  97.4860150  73.4229873  21.9927571  99.1346012
  72.7701323  22.2403478  98.4798464  73.8010252  21.1791709  98.8008489
  69.4717446  22.7347382 105.6212049  68.7958083  22.6341511 106.2914424
  70.2945079  22.5786596 106.0848046  61.2196305  28.9719318  98.2424564
  61.8049741  28.2263006  98.3752468  61.0221143  29.2823275  99.1261228
  64.0734960  32.0070566  93.2587006  63.4045335  32.4916693  92.7751046
  63.9347830  32.2539786  94.1730385  55.8113959  21.5424919  96.9629007
  55.8498059  21.0088509  97.7566125  55.3054252  21.0160124  96.3439984
  68.2140228  34.0414309  99.8569665  68.7658537  34.2045931 100.6218750
  68.5546422  34.6318747  99.1849690  63.1904722  16.3889459 100.4591549
  63.2546048  17.2504290 100.0468947  63.1271842  15.7763461  99.7263908
  62.6656994  18.4612592 104.1064584  63.2929033  18.0789669 104.7202108
  61.8084913  18.2426794 104.4720276  73.0651103  28.8675567 105.7118319
  73.6091007  29.4805525 105.2173274  72.4837948  29.4255145 106.2285332
  59.4422537  20.2689021  90.0382939  59.7375978  19.3599699  89.9849992
  58.5410573  20.2476760  89.7163941  71.3508616  31.9896285  96.8433347
  71.2259755  31.1886025  96.3344292  72.0087707  32.4842478  96.3547317
  62.9716784  18.3445017  96.0210487  62.2503370  18.9580985  95.8817960
  63.7610040  18.8802782  95.9427133  73.4143524  29.7905305  98.4712897
  72.4673860  29.6710656  98.3991224  73.7626297  28.9027803  98.5539158
  65.7743098  15.6799444 102.2951139  66.2977499  15.9261740 103.0577448
  65.5555431  16.5119479 101.8754276  61.1710379  17.9503118  90.1622264
  60.8423085  17.0700497  89.9797370  61.5249749  17.8950787  91.0498653
  70.4189957  29.5858021  94.6717249  70.2714920  28.6574729  94.8524819
  71.2443451  29.6078112  94.1874324  64.2852202  18.2376088  90.5297741
  64.6248274  18.7662010  89.8076350  64.7324322  18.5756494  91.3056308
  74.0224079  30.4086580  95.7582122  74.9470627  30.2029441  95.6206573
  73.8539383  30.1602981  96.6671464  66.9795643  16.6213139  99.9800809
  66.6392463  15.8220952 100.3821489  66.2734649  16.9214850  99.4077643
  67.6312114  13.7062451  98.4328132  68.4538184  13.2322930  98.3107023
  67.8750178  14.4852935  98.9326819  66.2720349  16.7350710  88.7291034
  66.9928711  17.1131963  88.2254751  65.6485653  17.4539587  88.8326012
  70.4151472  17.4395859  89.6649366  70.6315086  18.3220497  89.3638195
  69.9345539  17.0482072  88.9355008  65.1550693  20.3981572  96.2420111
  65.0095274  20.7121875  97.1344393  64.6775897  21.0166472  95.6891010
  67.0147076  17.3884120  96.2901001  67.0008645  16.4925213  95.9533299
  67.7319504  17.3954784  96.9239287  68.8673207  17.8221460  98.3354128
  68.6090985  18.7438531  98.3338459  68.3358247  17.4251895  99.0254592
  59.6296355  22.9386916  99.1807772  59.0849823  23.7146724  99.3128047
  60.5075705  23.2857721  99.0226894  66.4183972  16.2698500  91.5588571
  66.5399883  15.3415146  91.7579458  66.1286014  16.2837186  90.6466886
  69.2875162  13.9553411  94.6955291  69.3096859  14.0192744  93.7407270
  69.7043221  13.1157919  94.8895797  79.6658787  23.6908670  92.7334513
  80.1089933  22.9415996  92.3353636  78.7885297  23.6818807  92.3508245
  60.4162377  22.0656813 102.0737929  59.6744113  22.2139448 102.6602560
  60.0955121  22.3265078 101.2104679  68.3606040  31.6072791 101.8718319
  68.6693166  31.3621938 102.7441019  69.1581522  31.8119429 101.3837189
  68.3826652  33.7610701  94.1023696  67.9431642  33.2687079  94.7956552
  69.1334769  33.2183668  93.8615771  60.8618991  29.9522241  94.1048324
  61.6877011  29.6526013  93.7246967  60.5113043  29.1829864  94.5538112
  65.8300524  29.3048710  96.1745997  65.2080533  28.6419415  95.8748225
  66.5005391  29.3309842  95.4919645  59.0627596  27.8708568  95.0637257
  58.2259504  27.4430742  94.8821259  59.0351241  28.0641011  96.0008049
  65.9025051  17.7830498 105.7678503  65.9513207  18.6592620 105.3856273
  66.4447566  17.2407891 105.1950147  76.3879897  28.3271621 105.0479640
  75.5975441  28.3095760 104.5084140  76.1513252  28.8659915 105.8028677
  76.5077772  25.1764087 102.3612369  76.5575777  25.0114095 103.3027892
  76.3991696  24.3091346 101.9710250  73.7981535  21.1595015 103.6771676
  74.6991397  21.0201480 103.3855674  73.8729509  21.3249470 104.6169853
  68.1324340  18.5361870 102.5224862  67.2627649  18.8295436 102.2507451
  68.3683820  19.1202315 103.2432126  78.0095969  27.5961029 102.6054391
  77.7180777  27.9591009 103.4417852  77.3968100  26.8828037 102.4267723
  79.2091651  25.1613909  95.1256961  80.0438543  25.6003713  95.2894521
  79.3450780  24.6852562  94.3065207  76.2583157  22.7193643 101.0734449
  76.7337279  22.9121290 100.2653300  75.3348723  22.7752829 100.8277832
  70.8363374  14.7541487 100.0390282  71.3545318  15.4902514  99.7136771
  70.4818507  15.0605480 100.8737042  62.4162311  19.6146168  88.1551688
  61.7231556  19.6890523  87.4991724  62.1714063  18.8506512  88.6773205
  71.0875968  11.1741770  95.5591179  71.3677722  10.5064959  96.1851606
  71.8726575  11.3670865  95.0465843  74.9584826  19.5959404  99.3062754
  75.9102249  19.6957501  99.3274978  74.7888277  18.8037672  99.8160839
  72.9799206  16.6814987  99.4922155  72.3849138  16.9619999  98.7968644
  72.6948902  17.1708888 100.2638896  77.4372904  22.8165523  98.4205054
  77.4049224  21.8781524  98.6064738  78.0473528  22.8949560  97.6870879
  77.5867393  19.6076567  98.4663337  77.0706441  18.8235023  98.2793266
  78.4707341  19.2795283  98.6309856  75.2478119  13.3517582  94.4259150
  75.0502941  13.0432670  95.3102482  75.8577825  14.0779221  94.5557080
  83.2549454  23.8781530  97.5611091  83.9852842  23.6166818  98.1218794
  82.6456399  23.1410252  97.6013159  81.3364751  22.0189393  98.1585542
  80.6097915  21.8845358  97.5502033  80.9212038  22.3266221  98.9642260
  69.1594927  25.7379322 105.9232915  70.0797937  25.9157921 106.1172961
  69.1244511  24.7935368 105.7712614  58.3777092  20.9317916  94.8486189
  58.0579877  20.0783224  94.5560563  57.8310521  21.1466494  95.6044157
  62.1557000  23.6480357  98.5655696  62.3743010  24.5797465  98.5843730
  62.5682774  23.2888331  99.3510500  69.0761218  14.1548442  90.5531384
  68.2661946  13.8095527  90.9286630  69.7645635  13.8455986  91.1418996
  71.0051766  13.2326489  92.1755681  71.5582805  13.6521943  92.8345704
  71.2421852  12.3062237  92.2178637  67.0284865  19.2213563 107.9558445
  66.9281592  20.1707920 107.8870536  66.8106407  18.8931802 107.0834515
  66.2297937  16.4698488  84.5399122  67.0917101  16.7953386  84.7994940
  66.4148281  15.6829984  84.0272188  58.2465352  24.5520827  96.8179311
  57.5528824  24.1374780  96.3049265  58.9938343  24.5941364  96.2212730
  74.3830573  15.3427014  91.6834345  73.8029242  16.0011818  91.3012398
  74.1166506  14.5204359  91.2721763  72.8334140  14.7432072  93.8855666
  73.3333918  14.8548607  93.0769984  73.4769747  14.4393125  94.5256474
  66.8916135  22.6510702 106.7723507  66.4083217  23.4511062 106.9787396
  66.9777074  22.6618646 105.8190951  60.1602095  24.4839081  94.6945326
  60.1372783  24.5826769  93.7427209  60.4702731  25.3304232  95.0162492
  62.8189473  26.5415236  98.8091940  63.7732726  26.5099179  98.7421872
  62.6201996  26.0805860  99.6242166  63.4088855  25.1116352 101.3762738
  64.2281744  25.6060431 101.3997575  63.6825663  24.1948320 101.3480306
  73.1655451  17.5027105  90.7390694  72.2781306  17.7876755  90.5210888
  73.5809440  17.3420868  89.8917970  76.5169987  17.5273626  94.4545033
  77.2930377  18.0170078  94.7269650  75.7918122  17.9531680  94.9116902
  78.9542546  18.2401245  95.5118973  79.5487037  17.9996981  94.8012282
  79.0269130  17.5208375  96.1392510  61.1739702  32.0834856  95.8262138
  61.0394170  31.3235257  95.2600136  60.7571764  32.8075756  95.3590927
  76.9501281  18.8071372  91.7791103  76.6938215  18.4068008  92.6099311
  76.3254149  19.5215166  91.6541242  81.2613619  21.5467446  94.2862395
  80.7013177  21.6160635  95.0593957  80.6557122  21.3708430  93.5661891
  64.3308828  32.9804173  96.0380581  64.2141212  33.9249605  95.9359271
  63.5101274  32.6777734  96.4266380  58.6623769  19.4454486 102.0754935
  59.3082633  18.9353440 102.5642160  58.4540920  20.1823168 102.6498360
  71.1877161  26.5135334 107.5747076  72.0568321  26.6875986 107.2133711
  70.7083913  27.3329751 107.4522805  67.1827380  13.7094531  87.8278831
  67.1706050  14.6536371  87.9847102  68.0750802  13.5264676  87.5338292
  65.3563342  33.6332435  99.2536509  66.2590588  33.6656045  99.5703004
  65.1300712  32.7032886  99.2682845  67.1116944  32.3863421  95.9146588
  66.1612575  32.3865283  95.8010960  67.4149430  31.6396156  95.3982623
  70.9979499  10.3037307  92.0824768  70.2311895   9.7495794  92.2281450
  71.4090204  10.3759176  92.9438920  63.0021260  16.5922103 106.1729949
  63.8652722  16.2358908 106.3833274  62.4286671  16.2535998 106.8605354
  82.8469637  38.2223960  96.9792350  83.4848047  38.1030707  96.2755690
  82.7290480  39.1704804  97.0380302  79.6559343  38.1751388  96.9153875
  79.3177855  38.0592452  96.0274410  80.5249112  37.7742553  96.8954881
  75.5146159  40.0286864  92.9050766  74.9511024  39.9376801  92.1367054
  75.3998554  39.2086769  93.3853258  80.1379126  39.3286239 102.8740081
  80.1267767  38.9339038 102.0020584  80.2999766  38.5952312 103.4673852
  73.0610591  41.5238056  95.7434986  73.8531883  41.1828880  95.3281286
  73.3007241  41.6333031  96.6637140  81.0945718  43.6957832  88.2165231
  80.4433698  44.2811912  87.8299245  81.8890081  44.2264027  88.2760268
  76.8586388  42.1123351 101.8219264  76.5676254  43.0168982 101.7065931
  77.4943372  42.1539879 102.5363334  77.7842594  39.4900200  98.4120624
  78.3806167  39.2656222  97.6977587  77.8417566  38.7484945  99.0146072
  82.4010906  35.9475413  94.0545558  83.1873995  35.5294837  93.7035975
  82.6649610  36.8521506  94.2227207  82.5720983  41.3848264  88.7534215
  81.9366816  41.4582890  89.4655120  82.2418389  41.9741863  88.0753294
  87.8019333  35.8850647  94.9578537  88.5344505  35.3149863  95.1916366
  87.0458688  35.4972247  95.3985042  77.0763912  38.8467741  88.4495190
  76.9600170  38.1712644  89.1176274  77.1866171  38.3600115  87.6327343
  79.4195453  38.3077888  92.1541879  79.0553660  37.7808509  92.8654801
  80.2762568  37.9176357  91.9808365  85.3244753  29.5972221  99.4173145
  84.9928078  30.4667632  99.1934360  84.7290367  29.2808505 100.0967176
  79.0600939  33.3367788  87.1503228  79.2275342  34.2048024  87.5173699
  78.8698109  33.4995070  86.2264517  81.8176273  41.7984767  98.8169058
  81.5176996  42.7009806  98.7084865  81.4727332  41.5316950  99.6690211
  75.2688754  38.2498564  94.8505763  74.3439251  38.1174778  95.0583454
  75.5173167  39.0292783  95.3475705  85.2173416  34.3167307  96.4966496
  84.3090294  34.2482715  96.2025256  85.1661012  34.7939252  97.3248321
  79.0390160  35.7925445  88.1349895  78.9189786  36.2382496  88.9735375
  78.3442749  36.1410763  87.5763433  72.6297565  37.8931837  95.6849552
  72.7589946  38.1466316  96.5988963  71.9495016  38.4859545  95.3654207
  76.7997052  48.5629087  91.7840026  76.7221082  49.5136912  91.8628506
  76.1958696  48.2174960  92.4414952  79.2914282  35.7356953 104.4401393
  78.5147616  36.2950873 104.4304257  79.9304845  36.2213736 104.9616263
  87.0835063  32.5183745  98.2744369  86.4409443  32.8116279  97.6284164
  86.5789991  32.4036666  99.0797566  84.7375227  36.2646919  88.9630229
  85.6493083  36.4974305  88.7877926  84.2284874  36.8483963  88.4005307
  77.5460655  38.5442406 104.0019360  78.2875339  39.0827450 103.7254183
  76.8397640  39.1708695 104.1590912  83.0215994  40.6871546 102.5991521
  83.4299350  40.2453957 101.8546154  82.2993256  40.1124174 102.8525714
  79.3747064  35.6244153  99.9725078  80.2208259  36.0483567 100.1159727
  79.3145702  34.9677777 100.6663641  83.3444809  41.2472737  96.3543810
  82.7153671  41.4118451  95.6519878  82.9570471  41.6614347  97.1254774
  87.2234041  42.1827175  93.7088174  86.5385079  42.5626076  93.1585207
  87.3077890  42.7922502  94.4420122  82.5246510  33.2848522 101.6306252
  82.2807441  34.0390582 101.0940528  82.8006440  33.6633869 102.4653499
  84.4784972  39.8287134 100.3083517  84.6901868  40.4718894  99.6317899
  84.4314721  38.9949450  99.8405448  82.0811201  32.4404955  97.2120090
  81.2195680  32.7386208  97.5036827  82.1073636  32.6575353  96.2801122
  78.8972771  40.9847145  93.6193895  79.3611116  41.2634848  92.8298518
  78.6329569  40.0830590  93.4366986  75.7896852  40.5318627  96.5573659
  76.3598209  40.9605895  95.9191143  76.3804964  40.2501211  97.2557844
  77.8341657  37.1070297  90.4283460  78.5365700  37.5591341  90.8957387
  77.5022285  36.4654116  91.0563354  76.2822018  35.6982054 104.8034670
  75.6520679  36.3798335 105.0370067  76.1758106  35.5865136 103.8587808
  71.5766991  35.3653850  95.7300594  70.7866045  35.6211379  95.2540705
  72.0678238  36.1802188  95.8352634  85.5930800  42.7059089  98.4805875
  86.4148244  42.3039277  98.1988556  85.5893203  42.6027323  99.4321991
  73.5281736  35.7298429  92.6884071  72.7312899  35.8417124  93.2067566
  73.3007328  36.0685082  91.8224961  79.3587404  42.2543133 100.6366585
  79.4231836  42.7163540 101.4724757  78.6498328  41.6240498 100.7648895
  69.8604694  35.6184341  98.1615585  70.1112732  36.5031350  98.4273161
  70.3964242  35.4388942  97.3890677  93.6836793  39.0497838  94.8290846
  92.9300502  38.4805236  94.6734851  93.8184335  39.0160502  95.7761481
  79.0735421  43.9211240  90.5045566  78.9381096  44.7662776  90.9330413
  79.6145234  44.1230518  89.7411499  75.5602761  30.0002820 107.1659921
  75.1669707  29.4469018 107.8407565  76.3768901  30.3113398 107.5566438
  78.4770722  31.4160699 104.7580177  79.2180435  32.0167852 104.6784640
  78.7088645  30.6738337 104.1998220  73.6212060  36.6017066 103.0358407
  73.5065575  35.7002324 103.3365506  72.7656578  36.8480763 102.6843224
  80.7003898  44.5434807 104.6345908  80.2567752  43.7571185 104.3166812
  81.3621111  44.7313957 103.9689798  75.4591019  46.0730608  99.1606586
  76.0098444  45.9447672  98.3883580  74.6202495  46.3725497  98.8101479
  82.7985136  44.8237607 102.6627309  82.7803611  45.6446488 102.1707578
  83.7205056  44.6991682 102.8877450  79.2558190  42.3381736 103.5050817
  79.7886527  41.5770024 103.2750125  78.7272271  42.0455388 104.2474972
  82.4227885  27.4441802  99.0344459  82.0792154  28.3343444  98.9583570
  82.7906848  27.2543460  98.1714044  82.3878168  37.4350413  87.5416894
  81.8724791  38.2055018  87.7805282  82.1155476  36.7615549  88.1649956
  79.9725279  32.2800114  92.6002133  79.1166875  31.8906964  92.4207771
  80.3852230  32.3592075  91.7401918  81.5024425  29.8146457  96.9993692
  80.9989221  29.7776592  96.1861498  81.7955032  30.7239200  97.0590349
  77.7467311  29.8985187  96.0059874  78.6120308  29.7027996  95.6465764
  77.8144820  29.6695539  96.9329231  87.3612442  40.1882768  89.4770068
  86.5841885  39.8493927  89.0325230  88.0403923  40.1935391  88.8025033
  82.1764471  35.3077505  89.3676675  81.8714606  35.6223654  90.2186819
  83.1294913  35.3858925  89.4104008  80.6210903  41.4667728  91.0169629
  80.0932264  40.7320488  90.7042867  80.1198405  42.2442405  90.7709598
  85.6003749  39.6616749  96.1336676  84.9427423  40.3516010  96.2216804
  86.4044148  40.0513181  96.4770662  75.3529630  32.1287395  93.3776241
  75.9273382  31.9062576  92.6449434  75.9400613  32.1976089  94.1304842
  84.4109208  38.0161122  94.1840617  84.9241089  38.6491114  94.6862327
  85.0610431  37.4162317  93.8183977  77.6552298  29.0028644  92.1051310
  77.0016710  28.6877661  91.4807925  77.6132772  28.3804384  92.8311133
  81.6731582  47.9945446  86.9401289  80.9993281  48.2977143  87.5486246
  82.0597404  48.7974526  86.5906746  80.8890038  35.4910577  96.4298958
  79.9712600  35.7125524  96.2720646  81.3050182  35.5656888  95.5710665
  81.6725086  36.8901993  91.5601638  82.4196905  37.4023390  91.2508760
  81.9416676  36.5686046  92.4206032  79.9451736  39.3860534  88.5428592
  79.0362956  39.1019566  88.6401062  79.9746820  39.8059612  87.6831899
  85.1771004  42.9967123  92.3119760  84.7233331  42.1558033  92.3684951
  84.5464970  43.6328521  92.6494540  84.1203923  33.9259109  93.5420427
  83.3826680  33.4136495  93.8730670  84.3730697  33.4859491  92.7303704
  83.6203943  44.8343620  93.2469578  83.9126917  45.3948677  92.5281944
  84.1302564  45.1272181  94.0022737  84.2215551  26.7035361  94.1362197
  84.5274427  25.8432725  93.8488112  84.9468155  27.2952981  93.9361191
  70.5139907  37.1066048  92.5243795  70.3164307  36.5135408  91.7994861
  69.9586571  36.8018258  93.2419733  78.4936630  36.9989154  94.6438388
  78.5485240  36.0462991  94.5680864  77.6827832  37.1548593  95.1279686
  79.6427824  40.9269277  85.8816671  79.2047254  40.2105136  85.4222308
  80.3838265  41.1545392  85.3201762  76.4328990  35.6166214  92.4028767
  75.6196856  35.9160385  92.8093959  76.9287984  35.2221903  93.1203249
  78.5837568  45.6123971  94.3363031  78.5413747  45.8384817  93.4071563
  79.5000267  45.3787345  94.4848833  82.0303202  36.0808038 101.2343661
  82.3852590  36.3079512 102.0938126  82.6775333  36.4126415 100.6120916
  87.7600939  39.2026474  91.9392990  87.6218837  39.3928070  91.0114179
  87.4037158  39.9645857  92.3961041  75.9243065  33.1884569  98.0190002
  76.5642444  33.0473329  97.3212965  75.0920596  32.9019083  97.6428604
  87.7870318  41.2703001  96.9504261  88.2206825  41.1778290  97.7987315
  88.5001899  41.2460502  96.3124277  76.7003369  42.4887000  94.1324994
  77.4943967  41.9937320  93.9307569  75.9895061  41.9604863  93.7692700
  81.5198213  44.8705095  98.4837362  81.5735236  45.4396032  99.2515078
  80.6512995  45.0406980  98.1191399  74.3996607  34.5722652  99.9661813
  75.0719660  34.3640014  99.3174462  73.5726393  34.3744738  99.5267045
  88.6485868  41.3126702  99.4837147  88.8421758  42.2172512  99.7296421
  88.5486486  40.8534121 100.3175732  80.3022179  31.1984593 101.9827474
  79.6550094  31.8974542 101.8891950  81.0723194  31.6320736 102.3503722
  83.7100977  41.4633445 105.0578027  83.5586483  41.2343996 104.1408111
  83.7005656  42.4204046 105.0709372  80.4786313  39.0365357 100.0424294
  81.4078373  39.1876517  99.8693261  80.0577343  39.1249378  99.1872940
  79.2774645  43.0616022  97.8122831  79.1385731  42.6934806  98.6848769
  78.4889241  43.5763661  97.6406789  79.8722797  48.1625118  89.1548368
  80.0474553  47.6913162  89.9693990  79.1855585  48.7890885  89.3829628
  80.8279860  42.4397625  95.2011669  80.4929693  42.3998395  96.0969319
  80.3283806  41.7742341  94.7282079  74.8024104  37.8465255 100.7264250
  74.6643902  37.1145493 101.3275789  75.7129028  37.7574155 100.4448438
  83.7639052  39.7853659  85.4748729  83.1468222  39.0600487  85.3781781
  83.2955540  40.5463019  85.1315803  77.4306405  37.5585214 100.2147930
  78.1406023  36.9178406 100.1734548  77.3875713  37.8098109 101.1374111
  85.4193183  44.4952567 103.1354509  85.3605730  43.8111787 102.4685092
  85.8212702  45.2371557 102.6835135  76.1435339  34.5450432 102.0343569
  75.6072696  34.0941170 102.6865166  75.5552047  34.6796341 101.2914034
  74.4383882  51.3114481  95.9288228  74.6780480  51.9433005  96.6067246
  73.5953079  50.9602521  96.2153587  85.4210591  42.4592151 101.3668489
  84.5337369  42.1218073 101.4894888  85.9909142  41.7275182 101.6037254
  67.0739738  38.7916243  94.6911540  67.7610778  38.4777973  94.1032555
  66.9187866  39.6957608  94.4178791  71.8774460  33.6806440  99.1196564
  71.7932649  33.0732109  98.3846974  71.0557166  34.1715458  99.1206060
  78.9511744  47.1193604  98.3329732  78.8781916  47.9248575  98.8449036
  78.5089137  47.3185569  97.5077753  78.7401524  46.3565374  91.8432553
  77.9569046  46.8987054  91.9370778  79.4394269  46.8739353  92.2426795
  82.0498174  32.1660003  94.4866759  82.5466873  31.4129965  94.1667829
  81.2785155  32.2024320  93.9209968  89.9027931  37.8700369  96.1285050
  89.8917807  38.7525084  95.7578983  89.0345311  37.5171919  95.9339587
  81.4110428  47.0180438 100.4887891  82.1238400  47.6527902 100.4163792
  80.9200456  47.1144304  99.6727892  83.1327954  40.9231690  92.0605182
  82.1984233  41.0433153  91.8909887  83.3104623  40.0204157  91.7965192
  78.6333143  34.3077386  94.2138443  78.2630930  33.7548426  94.9019349
  79.1292235  33.7035520  93.6613443  86.5200506  36.7649010  92.5955216
  86.9860958  37.5977001  92.5215519  86.9708006  36.2993991  93.3000475
  76.4622341  44.7674881 101.3093461  77.1631801  45.4011364 101.4622856
  75.9917456  45.1089613 100.5489101  84.5876737  43.1092831  89.5941368
  84.8636581  42.9949425  90.5035242  83.7181236  42.7110316  89.5553541
  84.4917169  29.1329597  96.6346118  83.5780248  29.3633823  96.8028325
  84.9210270  29.2168041  97.4860150  84.2623627  37.3219489  99.1346012
  83.6095077  37.5695396  98.4798464  84.6404007  36.5083627  98.8008489
  81.2230801  47.3579182  93.2374182  81.4053195  46.5400838  93.7001934
  82.0463787  47.5746874  92.7999072  81.5572966  46.2847367  90.4989230
  82.0860733  45.7739821  89.8859393  81.8201186  45.9689897  91.3634764
  80.3111200  38.0639300 105.6212049  79.6351837  37.9633429 106.2914424
  81.1338834  37.9078513 106.0848046  74.9128714  47.3362484  93.2587006
  74.2439090  47.8208611  92.7751046  74.7741584  47.5831704  94.1730385
  66.6507714  36.8716836  96.9629007  66.6891813  36.3380427  97.7566125
  66.1448007  36.3452042  96.3439984  79.0533983  49.3706227  99.8569665
  79.6052291  49.5337849 100.6218750  79.3940176  49.9610665  99.1849690
  74.0298476  31.7181377 100.4591549  74.0939803  32.5796208 100.0468947
  73.9665596  31.1055378  99.7263908  73.5050749  33.7904509 104.1064584
  74.1322788  33.4081587 104.7202108  72.6478668  33.5718711 104.4720276
  83.9044857  44.1967485 105.7118319  84.4484761  44.8097443 105.2173274
  83.3231702  44.7547063 106.2285332  82.1902370  47.3188203  96.8433347
  82.0653510  46.5177942  96.3344292  82.8481461  47.8134396  96.3547317
  73.8110538  33.6736935  96.0210487  73.0897124  34.2872903  95.8817960
  74.6003794  34.2094700  95.9427133  84.2537279  45.1197223  98.4712897
  83.3067614  45.0002574  98.3991224  84.6020052  44.2319721  98.5539158
  76.6136852  31.0091362 102.2951139  77.1371254  31.2553658 103.0577448
  76.3949185  31.8411396 101.8754276  81.2583712  44.9149939  94.6717249
  81.1108674  43.9866646  94.8524819  82.0837205  44.9370030  94.1874324
  84.8617834  45.7378498  95.7582122  85.7864381  45.5321359  95.6206573
  84.6933137  45.4894899  96.6671464  77.8189397  31.9505057  99.9800809
  77.4786217  31.1512870 100.3821489  77.1128403  32.2506768  99.4077643
  78.4705869  29.0354369  98.4328132  79.2931938  28.5614847  98.3107023
  78.7143932  29.8144853  98.9326819  81.2545226  32.7687777  89.6649366
  81.4708841  33.6512414  89.3638195  80.7739293  32.3773990  88.9355008
  75.9944448  35.7273490  96.2420111  75.8489028  36.0413793  97.1344393
  75.5169651  36.3458390  95.6891010  77.8540831  32.7176038  96.2901001
  77.8402399  31.8217131  95.9533299  78.5713259  32.7246701  96.9239287
  79.7066961  33.1513378  98.3354128  79.4484739  34.0730449  98.3338459
  79.1752002  32.7543812  99.0254592  84.6513150  46.2564165  91.1144213
  84.8250028  45.6910588  90.3618066  85.1442041  47.0565060  90.9323703
  70.4690110  38.2678834  99.1807772  69.9243578  39.0438642  99.3128047
  71.3469460  38.6149639  99.0226894  77.2577726  31.5990418  91.5588571
  77.3793638  30.6707064  91.7579458  76.9679769  31.6129104  90.6466886
  80.1268917  29.2845328  94.6955291  80.1490614  29.3484662  93.7407270
  80.5436976  28.4449837  94.8895797  90.5052541  39.0200588  92.7334513
  90.9483687  38.2707913  92.3353636  89.6279051  39.0110724  92.3508245
  85.6388322  45.5730929  88.2141112  86.3339227  46.1937622  88.4328426
  85.9811473  44.7226281  88.4893490  71.2556132  37.3948730 102.0737929
  70.5137868  37.5431366 102.6602560  70.9348876  37.6556996 101.2104679
  87.5379746  43.0230635  89.7428443  88.0631070  43.3617908  89.0177763
  87.4502098  42.0877650  89.5591577  79.1999794  46.9364709 101.8718319
  79.5086921  46.6913855 102.7441019  79.9975276  47.1411347 101.3837189
  79.2220406  49.0902618  94.1023696  78.7825397  48.5978997  94.7956552
  79.9728523  48.5475586  93.8615771  76.6694278  44.6340627  96.1745997
  76.0474288  43.9711332  95.8748225  77.3399145  44.6601759  95.4919645
  76.7418806  33.1122415 105.7678503  76.7906961  33.9884538 105.3856273
  77.2841320  32.5699808 105.1950147  87.2273652  43.6563539 105.0479640
  86.4369195  43.6387677 104.5084140  86.9907006  44.1951832 105.8028677
  87.3471527  40.5056005 102.3612369  87.3969532  40.3406012 103.3027892
  87.2385450  39.6383264 101.9710250  84.6375289  36.4886933 103.6771676
  85.5385152  36.3493398 103.3855674  84.7123264  36.6541388 104.6169853
  78.9718094  33.8653788 102.5224862  78.1021404  34.1587354 102.2507451
  79.2077575  34.4494233 103.2432126  88.8489724  42.9252946 102.6054391
  88.5574532  43.2882927 103.4417852  88.2361855  42.2119955 102.4267723
  90.0485406  40.4905826  95.1256961  90.8832297  40.9295630  95.2894521
  90.1844535  40.0144479  94.3065207  87.0976912  38.0485561 101.0734449
  87.5731033  38.2413207 100.2653300  86.1742477  38.1044747 100.8277832
  81.6757128  30.0833405 100.0390282  82.1939072  30.8194432  99.7136771
  81.3212261  30.3897398 100.8737042  81.9269722  26.5033687  95.5591179
  82.2071476  25.8356876  96.1851606  82.7120329  26.6962783  95.0465843
  79.7303191  45.6792681  87.1216205  79.1577158  46.2982868  86.6686677
  80.3035985  46.2292043  87.6556127  85.7978581  34.9251321  99.3062754
  86.7496004  35.0249419  99.3274978  85.6282031  34.1329590  99.8160839
  83.8192960  32.0106904  99.4922155  83.2242892  32.2911917  98.7968644
  83.5342657  32.5000805 100.2638896  82.9500451  45.9629831  88.2524788
  83.8831124  45.8975393  88.4557663  82.8623664  46.7986098  87.7939320
  85.5788467  45.2795702  85.2128735  85.5002099  44.9455565  86.1064493
  86.3998134  45.7717470  85.2120208  88.2766659  38.1457441  98.4205054
  88.2442979  37.2073442  98.6064738  88.8867282  38.2241478  97.6870879
  88.4261147  34.9368484  98.4663337  87.9100196  34.1526941  98.2793266
  89.3101096  34.6087201  98.6309856  86.0871874  28.6809500  94.4259150
  85.8896695  28.3724588  95.3102482  86.6971580  29.4071139  94.5557080
  94.0943208  39.2073448  97.5611091  94.8246597  38.9458736  98.1218794
  93.4850154  38.4702170  97.6013159  92.1758506  37.3481310  98.1585542
  91.4491669  37.2137275  97.5502033  91.7605792  37.6558139  98.9642260
  79.9988682  41.0671240 105.9232915  80.9191691  41.2449839 106.1172961
  79.9638265  40.1227285 105.7712614  69.2170847  36.2609834  94.8486189
  68.8973631  35.4075142  94.5560563  68.6704275  36.4758412  95.6044157
  72.9950755  38.9772275  98.5655696  73.2136764  39.9089382  98.5843730
  73.4076528  38.6180249  99.3510500  79.9154972  29.4840360  90.5531384
  79.1055701  29.1387445  90.9286630  80.6039389  29.1747904  91.1418996
  81.8445521  28.5618407  92.1755681  82.3976559  28.9813860  92.8345704
  82.0815607  27.6354155  92.2178637  77.8678620  34.5505480 107.9558445
  77.7675347  35.4999837 107.8870536  77.6500162  34.2223719 107.0834515
  69.0859107  39.8812745  96.8179311  68.3922578  39.4666698  96.3049265
  69.8332098  39.9233282  96.2212730  85.2224328  30.6718932  91.6834345
  84.6422997  31.3303736  91.3012398  84.9560260  29.8496277  91.2721763
  83.6727894  30.0723990  93.8855666  84.1727672  30.1840524  93.0769984
  84.3163502  29.7685042  94.5256474  77.7309890  37.9802619 106.7723507
  77.2476972  38.7802979 106.9787396  77.8170829  37.9910564 105.8190951
  70.9995849  39.8130999  94.6945326  70.9766538  39.9118686  93.7427209
  71.3096486  40.6596150  95.0162492  73.6583227  41.8707154  98.8091940
  74.6126481  41.8391096  98.7421872  73.4595751  41.4097778  99.6242166
  74.2482609  40.4408270 101.3762738  75.0675498  40.9352349 101.3997575
  74.5219417  39.5240238 101.3480306  84.0049206  32.8319022  90.7390694
  83.1175061  33.1168673  90.5210888  84.4203195  32.6712786  89.8917970
  87.3563742  32.8565543  94.4545033  88.1324132  33.3461996  94.7269650
  86.6311876  33.2823598  94.9116902  89.7936300  33.5693163  95.5118973
  90.3880791  33.3288898  94.8012282  89.8662884  32.8500293  96.1392510
  83.1492419  42.5963697  84.8338713  83.8528269  42.8013699  85.4496369
  82.4255068  43.1640459  85.0987797  83.9790229  38.3473558  90.9540984
  83.9225431  38.8042110  90.1148616  84.5318572  37.5864243  90.7763826
  87.7895035  34.1363290  91.7791103  87.5331970  33.7359926  92.6099311
  87.1647903  34.8507084  91.6541242  92.1007373  36.8759363  94.2862395
  91.5406931  36.9452553  95.0593957  91.4950877  36.7000348  93.5661891
  75.1702582  48.3096090  96.0380581  75.0534966  49.2541523  95.9359271
  74.3495028  48.0069652  96.4266380  85.0579117  43.0346226  86.8837174
  85.8924720  42.6027425  86.7014648  84.8963459  42.8628240  87.8114068
  84.7125009  39.5378340  88.2493513  84.6573813  39.3722611  87.3081957
  84.0871064  40.2454372  88.4055703  69.5017524  34.7746404 102.0754935
  70.1476387  34.2645358 102.5642160  69.2934675  35.5115086 102.6498360
  82.0270916  41.8427251 107.5747076  82.8962076  42.0167904 107.2133711
  81.5477667  42.6621668 107.4522805  76.1957096  48.9624352  99.2536509
  77.0984343  48.9947963  99.5703004  75.9694466  48.0324803  99.2682845
  77.9510698  47.7155339  95.9146588  77.0006329  47.7157201  95.8010960
  78.2543184  46.9688073  95.3982623  81.8373254  25.6329225  92.0824768
  81.0705649  25.0787712  92.2281450  82.2483959  25.7051094  92.9438920
  73.8415015  31.9214021 106.1729949  74.7046476  31.5650826 106.3833274
  73.2680425  31.5827916 106.8605354  93.6863392  53.5515877  96.9792350
  94.3241802  53.4322625  96.2755690  93.5684235  54.4996721  97.0380302
  90.4953098  53.5043305  96.9153875  90.1571609  53.3884370  96.0274410
  91.3642866  53.1034471  96.8954881  86.3539914  55.3578782  92.9050766
  85.7904779  55.2668719  92.1367054  86.2392309  54.5378686  93.3853258
  90.9772881  54.6578157 102.8740081  90.9661522  54.2630955 102.0020584
  91.1393520  53.9244230 103.4673852  83.9004346  56.8529973  95.7434986
  84.6925637  56.5120798  95.3281286  84.1400996  56.9624948  96.6637140
  91.9339472  59.0249750  88.2165231  91.2827452  59.6103830  87.8299245
  92.7283835  59.5555944  88.2760268  85.8595099  56.1138887  88.6152365
  86.6325976  55.5667874  88.4765241  86.2120498  56.9783136  88.8266827
  87.6980142  57.4415269 101.8219264  87.4070008  58.3460900 101.7065931
  88.3337126  57.4831797 102.5363334  88.6236349  54.8192117  98.4120624
  89.2199921  54.5948140  97.6977587  88.6811320  54.0776863  99.0146072
  93.2404660  51.2767331  94.0545558  94.0267749  50.8586754  93.7035975
  93.5043364  52.1813423  94.2227207  93.4114737  56.7140181  88.7534215
  92.7760570  56.7874808  89.4655120  93.0812144  57.3033780  88.0753294
  98.6413087  51.2142564  94.9578537  99.3738259  50.6441781  95.1916366
  97.8852443  50.8264165  95.3985042  90.2589207  53.6369806  92.1541879
  89.8947414  53.1100427  92.8654801  91.1156323  53.2468275  91.9808365
  96.1638508  44.9264138  99.4173145  95.8321832  45.7959549  99.1934360
  95.5684121  44.6100422 100.0967176  89.8994694  48.6659706  87.1503228
  90.0669096  49.5339942  87.5173699  89.7091863  48.8286987  86.2264517
  92.6570027  57.1276684  98.8169058  92.3570750  58.0301723  98.7084865
  92.3121087  56.8608868  99.6690211  86.1082509  53.5790481  94.8505763
  85.1833005  53.4466695  95.0583454  86.3566922  54.3584701  95.3475705
  96.0567171  49.6459225  96.4966496  95.1484048  49.5774633  96.2025256
  96.0054767  50.1231170  97.3248321  89.8783915  51.1217363  88.1349895
  89.7583540  51.5674414  88.9735375  89.1836503  51.4702681  87.5763433
  83.4691320  53.2223755  95.6849552  83.5983701  53.4758234  96.5988963
  82.7888771  53.8151463  95.3654207  87.6390807  63.8921005  91.7840026
  87.5614837  64.8428830  91.8628506  87.0352451  63.5466877  92.4414952
  90.1308037  51.0648870 104.4401393  89.3541371  51.6242790 104.4304257
  90.7698600  51.5505653 104.9616263  97.9228817  47.8475663  98.2744369
  97.2803198  48.1408196  97.6284164  97.4183746  47.7328583  99.0797566
  95.5768981  51.5938836  88.9630229  96.4886837  51.8266223  88.7877926
  95.0678628  52.1775880  88.4005307  88.3854409  53.8734324 104.0019360
  89.1269093  54.4119368 103.7254183  87.6791394  54.5000612 104.1590912
  93.8609749  56.0163464 102.5991521  94.2693105  55.5745875 101.8546154
  93.1387010  55.4416092 102.8525714  90.2140819  50.9536071  99.9725078
  91.0602014  51.3775484 100.1159727  90.1539456  50.2969695 100.6663641
  94.1838563  56.5764655  96.3543810  93.5547426  56.7410369  95.6519878
  93.7964225  56.9906264  97.1254774  98.0627795  57.5119093  93.7088174
  97.3778833  57.8917994  93.1585207  98.1471645  58.1214419  94.4420122
  93.3640264  48.6140439 101.6306252  93.1201196  49.3682500 101.0940528
  93.6400195  48.9925787 102.4653499  95.3178727  55.1579052 100.3083517
  95.5295622  55.8010811  99.6317899  95.2708475  54.3241368  99.8405448
  92.9204956  47.7696872  97.2120090  92.0589435  48.0678126  97.5036827
  92.9467390  47.9867271  96.2801122  89.7366525  56.3139063  93.6193895
  90.2004871  56.5926766  92.8298518  89.4723323  55.4122507  93.4366986
  86.6290606  55.8610544  96.5573659  87.1991963  56.2897813  95.9191143
  87.2198718  55.5793129  97.2557844  88.6735411  52.4362215  90.4283460
  89.3759455  52.8883259  90.8957387  88.3416040  51.7946034  91.0563354
  87.1215773  51.0273972 104.8034670  86.4914433  51.7090253 105.0370067
  87.0151861  50.9157053 103.8587808  82.4160745  50.6945768  95.7300594
  81.6259799  50.9503296  95.2540705  82.9071993  51.5094106  95.8352634
  96.4324555  58.0351007  98.4805875  97.2541998  57.6331194  98.1988556
  96.4286958  57.9319241  99.4321991  84.3675491  51.0590347  92.6884071
  83.5706654  51.1709041  93.2067566  84.1401083  51.3976999  91.8224961
  90.1981158  57.5835050 100.6366585  90.2625591  58.0455458 101.4724757
  89.4892082  56.9532415 100.7648895  80.6998448  50.9476258  98.1615585
  80.9506487  51.8323268  98.4273161  81.2357997  50.7680860  97.3890677
 104.5230548  54.3789755  94.8290846 103.7694256  53.8097154  94.6734851
 104.6578089  54.3452420  95.7761481  89.9129176  59.2503158  90.5045566
  89.7774851  60.0954693  90.9330413  90.4538988  59.4522435  89.7411499
  86.3996516  45.3294738 107.1659921  86.0063461  44.7760936 107.8407565
  87.2162656  45.6405316 107.5566438  83.3658573  56.7678596  91.0773491
  83.8783094  57.5621846  91.2279055  84.0181286  56.0704886  91.0107092
  85.1753458  59.8844352  93.1596244  85.3520086  60.8062317  92.9717228
  85.9710291  59.5702771  93.5890624  89.3164477  46.7452617 104.7580177
  90.0574190  47.3459770 104.6784640  89.5482399  46.0030254 104.1998220
  84.4605815  51.9308984 103.0358407  84.3459330  51.0294241 103.3365506
  83.6050332  52.1772681 102.6843224  91.5397652  59.8726724 104.6345908
  91.0961506  59.0863103 104.3166812  92.2014866  60.0605875 103.9689798
  86.2984773  61.4022526  99.1606586  86.8492199  61.2739589  98.3883580
  85.4596249  61.7017415  98.8101479  93.6378890  60.1529524 102.6627309
  93.6197366  60.9738405 102.1707578  94.5598810  60.0283599 102.8877450
  90.0951944  57.6673654 103.5050817  90.6280281  56.9061942 103.2750125
  89.5666026  57.3747306 104.2474972  93.2621639  42.7733720  99.0344459
  92.9185909  43.6635361  98.9583570  93.6300602  42.5835377  98.1714044
  81.3307490  55.0967250  91.8533061  82.1682712  55.5064258  91.6366769
  81.5085758  54.1566692  91.8233255  93.2271922  52.7642331  87.5416894
  92.7118546  53.5346935  87.7805282  92.9549231  52.0907467  88.1649956
  90.8119033  47.6092032  92.6002133  89.9560630  47.2198882  92.4207771
  91.2245985  47.6883992  91.7401918  92.3418180  45.1438375  96.9993692
  91.8382975  45.1068510  96.1861498  92.6348787  46.0531118  97.0590349
  88.5861066  45.2277105  96.0059874  89.4514062  45.0319913  95.6465764
  88.6538575  44.9987456  96.9329231  98.2006196  55.5174685  89.4770068
  97.4235639  55.1785845  89.0325230  98.8797677  55.5227309  88.8025033
  93.0158225  50.6369423  89.3676675  92.7108361  50.9515572  90.2186819
  93.9688667  50.7150843  89.4104008  91.4604657  56.7959646  91.0169629
  90.9326019  56.0612406  90.7042867  90.9592160  57.5734323  90.7709598
  96.4397503  54.9908667  96.1336676  95.7821178  55.6807928  96.2216804
  97.2437902  55.3805099  96.4770662  86.1923385  47.4579312  93.3776241
  86.7667137  47.2354494  92.6449434  86.7794367  47.5268007  94.1304842
  95.2502962  53.3453039  94.1840617  95.7634844  53.9783031  94.6862327
  95.9004186  52.7454235  93.8183977  86.5192972  49.4883773  87.3972126
  85.6830284  49.8258460  87.7181401  86.3797742  49.3532753  86.4599263
  88.4946053  44.3320561  92.1051310  87.8410465  44.0169579  91.4807925
  88.4526527  43.7096302  92.8311133  92.5125336  63.3237364  86.9401289
  91.8387035  63.6269060  87.5486246  92.8991158  64.1266444  86.5906746
  91.7283793  50.8202495  96.4298958  90.8106354  51.0417442  96.2720646
  92.1443936  50.8948805  95.5710665  92.5118841  52.2193911  91.5601638
  93.2590660  52.7315308  91.2508760  92.7810430  51.8977963  92.4206032
  90.7845491  54.7152451  88.5428592  89.8756710  54.4311484  88.6401062
  90.8140575  55.1351530  87.6831899  96.0164758  58.3259041  92.3119760
  95.5627085  57.4849951  92.3684951  95.3858725  58.9620439  92.6494540
  94.9597678  49.2551027  93.5420427  94.2220435  48.7428413  93.8730670
  95.2124451  48.8151408  92.7303704  94.4597697  60.1635537  93.2469578
  94.7520672  60.7240595  92.5281944  94.9696318  60.4564098  94.0022737
  95.0609305  42.0327279  94.1362197  95.3668182  41.1724642  93.8488112
  95.7861910  42.6244899  93.9361191  81.3533661  52.4357965  92.5243795
  81.1558061  51.8427326  91.7994861  80.7980325  52.1310176  93.2419733
  89.3330385  52.3281072  94.6438388  89.3878995  51.3754908  94.5680864
  88.5221587  52.4840511  95.1279686  87.2722745  50.9458132  92.4028767
  86.4590610  51.2452302  92.8093959  87.7681739  50.5513820  93.1203249
  89.4231323  60.9415889  94.3363031  89.3807501  61.1676735  93.4071563
  90.3394022  60.7079263  94.4848833  92.8696956  51.4099956 101.2343661
  93.2246344  51.6371429 102.0938126  93.5169088  51.7418333 100.6120916
  98.5994693  54.5318392  91.9392990  98.4612592  54.7219988  91.0114179
  98.2430912  55.2937775  92.3961041  86.7636820  48.5176487  98.0190002
  87.4036199  48.3765246  97.3212965  85.9314350  48.2311001  97.6428604
  98.6264073  56.5994919  96.9504261  99.0600580  56.5070208  97.7987315
  99.3395654  56.5752419  96.3124277  87.5397123  57.8178918  94.1324994
  88.3337722  57.3229238  93.9307569  86.8288816  57.2896781  93.7692700
  92.3591968  60.1997013  98.4837362  92.4128990  60.7687949  99.2515078
  91.4906749  60.3698898  98.1191399  83.8479887  51.9621999  90.2084747
  82.9177475  51.9006455  90.4254709  83.9437359  51.4397952  89.4121388
  83.7665436  48.4876812  92.7962988  84.0272253  49.4022145  92.6872149
  84.5882608  48.0201255  92.9459601  85.2390361  49.9014569  99.9661813
  85.9113415  49.6931931  99.3174462  84.4120148  49.7036655  99.5267045
  99.4879623  56.6418620  99.4837147  99.6815513  57.5464430  99.7296421
  99.3880241  56.1826039 100.3175732  91.1415933  46.5276510 101.9827474
  90.4943848  47.2266460 101.8891950  91.9116949  46.9612654 102.3503722
  94.5494731  56.7925362 105.0578027  94.3980238  56.5635914 104.1408111
  94.5399411  57.7495964 105.0709372  91.3180068  54.3657275 100.0424294
  92.2472128  54.5168435  99.8693261  90.8971098  54.4541296  99.1872940
  90.1168399  58.3907940  97.8122831  89.9779485  58.0226724  98.6848769
  89.3282996  58.9055579  97.6406789  90.7116551  63.4917036  89.1548368
  90.8868307  63.0205079  89.9693990  90.0249339  64.1182802  89.3829628
  91.6673615  57.7689542  95.2011669  91.3323447  57.7290312  96.0969319
  91.1677560  57.1034258  94.7282079  85.6417859  53.1757172 100.7264250
  85.5037656  52.4437411 101.3275789  86.5522782  53.0866072 100.4448438
  94.6032806  55.1145577  85.4748729  93.9861977  54.3892405  85.3781781
  94.1349295  55.8754937  85.1315803  88.2700159  52.8877132 100.2147930
  88.9799778  52.2470324 100.1734548  88.2269467  53.1390026 101.1374111
  96.2586938  59.8244485 103.1354509  96.1999484  59.1403705 102.4685092
  96.6606456  60.5663475 102.6835135  86.9829093  49.8742350 102.0343569
  86.4466450  49.4233088 102.6865166  86.3945802  50.0088258 101.2914034
  85.2777637  66.6406399  95.9288228  85.5174235  67.2724923  96.6067246
  84.4346833  66.2894439  96.2153587  86.3931352  49.3331001  84.5970033
  85.5160818  49.2119802  84.2332280  86.8689105  48.5417079  84.3448922
  96.2604345  57.7884069 101.3668489  95.3731124  57.4509991 101.4894888
  96.8302896  57.0567100 101.6037254  77.9133492  54.1208161  94.6911540
  78.6004532  53.8069891  94.1032555  77.7581621  55.0249525  94.4178791
  82.7168214  49.0098357  99.1196564  82.6326403  48.4024027  98.3846974
  81.8950921  49.5007376  99.1206060  89.7905499  62.4485521  98.3329732
  89.7175670  63.2540493  98.8449036  89.3482892  62.6477487  97.5077753
  89.5795278  61.6857291  91.8432553  88.7962800  62.2278971  91.9370778
  90.2788023  62.2031271  92.2426795  92.8891928  47.4951921  94.4866759
  93.3860628  46.7421883  94.1667829  92.1178910  47.5316237  93.9209968
 100.7421686  53.1992286  96.1285050 100.7311562  54.0817002  95.7578983
  99.8739065  52.8463837  95.9339587  92.2504182  62.3472355 100.4887891
  92.9632154  62.9819820 100.4163792  91.7594211  62.4436221  99.6727892
  93.9721709  56.2523608  92.0605182  93.0377988  56.3725070  91.8909887
  94.1498377  55.3496075  91.7965192  89.4726897  49.6369304  94.2138443
  89.1024685  49.0840344  94.9019349  89.9685989  49.0327437  93.6613443
  97.3594260  52.0940927  92.5955216  97.8254713  52.9268919  92.5215519
  97.8101761  51.6285909  93.3000475  87.3016096  60.0966799 101.3093461
  88.0025555  60.7303282 101.4622856  86.8311211  60.4381530 100.5489101
  95.4270491  58.4384749  89.5941368  95.7030335  58.3241343  90.5035242
  94.5574990  58.0402233  89.5553541  95.3310923  44.4621514  96.6346118
  94.4174003  44.6925741  96.8028325  95.7604025  44.5459958  97.4860150
  95.1017382  52.6511406  99.1346012  94.4488832  52.8987314  98.4798464
  95.4797761  51.8375544  98.8008489  92.0624555  62.6871099  93.2374182
  92.2446950  61.8692755  93.7001934  92.8857541  62.9038792  92.7999072
  92.3966721  61.6139285  90.4989230  92.9254487  61.1031739  89.8859393
  92.6594941  61.2981815  91.3634764  91.1504955  53.3931217 105.6212049
  90.4745592  53.2925347 106.2914424  91.9732588  53.2370431 106.0848046
  82.8983814  59.6303154  98.2424564  83.4837250  58.8846842  98.3752468
  82.7008652  59.9407111  99.1261228  85.7522469  62.6654401  93.2587006
  85.0832844  63.1500529  92.7751046  85.6135339  62.9123622  94.1730385
  77.4901468  52.2008754  96.9629007  77.5285568  51.6672345  97.7566125
  76.9841761  51.6743960  96.3439984  89.8927737  64.6998145  99.8569665
  90.4446045  64.8629766 100.6218750  90.2333931  65.2902583  99.1849690
  84.8692231  47.0473295 100.4591549  84.9333557  47.9088125 100.0468947
  84.8059351  46.4347296  99.7263908  84.3444503  49.1196427 104.1064584
  84.9716542  48.7373504 104.7202108  83.4872422  48.9010629 104.4720276
  94.7438612  59.5259402 105.7118319  95.2878516  60.1389360 105.2173274
  94.1625457  60.0838981 106.2285332  81.1210046  50.9272856  90.0382939
  81.4163487  50.0183535  89.9849992  80.2198082  50.9060596  89.7163941
  93.0296125  62.6480120  96.8433347  92.9047264  61.8469860  96.3344292
  93.6875216  63.1426314  96.3547317  84.6504293  49.0028853  96.0210487
  83.9290879  49.6164820  95.8817960  85.4397549  49.5386618  95.9427133
  95.0931033  60.4489140  98.4712897  94.1461369  60.3294492  98.3991224
  95.4413806  59.5611638  98.5539158  87.4530606  46.3383279 102.2951139
  87.9765008  46.5845576 103.0577448  87.2342940  47.1703314 101.8754276
  82.8497888  48.6086954  90.1622264  82.5210594  47.7284333  89.9797370
  83.2037258  48.5534623  91.0498653  92.0977466  60.2441857  94.6717249
  91.9502429  59.3158564  94.8524819  92.9230960  60.2661947  94.1874324
  85.9639711  48.8959924  90.5297741  86.3035783  49.4245845  89.8076350
  86.4111831  49.2340330  91.3056308  95.7011588  61.0670415  95.7582122
  96.6258136  60.8613277  95.6206573  95.5326892  60.8186816  96.6671464
  88.6583152  47.2796974  99.9800809  88.3179972  46.4804787 100.3821489
  87.9522158  47.5798685  99.4077643  89.3099623  44.3646287  98.4328132
  90.1325693  43.8906765  98.3107023  89.5537687  45.1436771  98.9326819
  87.9507858  47.3934545  88.7291034  88.6716220  47.7715798  88.2254751
  87.3273162  48.1123422  88.8326012  92.0938981  48.0979694  89.6649366
  92.3102595  48.9804332  89.3638195  91.6133048  47.7065908  88.9355008
  86.8338202  51.0565407  96.2420111  86.6882783  51.3705710  97.1344393
  86.3563406  51.6750308  95.6891010  88.6934585  48.0467955  96.2901001
  88.6796154  47.1509049  95.9533299  89.4107013  48.0538619  96.9239287
  90.5460716  48.4805296  98.3354128  90.2878494  49.4022366  98.3338459
  90.0145756  48.0835730  99.0254592  95.4906904  61.5856083  91.1144213
  95.6643782  61.0202505  90.3618066  95.9835796  62.3856978  90.9323703
  81.3083864  53.5970752  99.1807772  80.7637332  54.3730560  99.3128047
  82.1863214  53.9441556  99.0226894  88.0971481  46.9282336  91.5588571
  88.2187392  45.9998982  91.7579458  87.8073523  46.9421022  90.6466886
  90.9662671  44.6137246  94.6955291  90.9884368  44.6776579  93.7407270
  91.3830730  43.7741755  94.8895797 101.3446296  54.3492506  92.7334513
 101.7877442  53.5999831  92.3353636 100.4672806  54.3402642  92.3508245
  96.4782077  60.9022847  88.2141112  97.1732982  61.5229540  88.4328426
  96.8205227  60.0518198  88.4893490  82.0949886  52.7240648 102.0737929
  81.3531622  52.8723283 102.6602560  81.7742630  52.9848914 101.2104679
  98.3773500  58.3522553  89.7428443  98.9024824  58.6909825  89.0177763
  98.2895853  57.4169568  89.5591577  90.0393549  62.2656626 101.8718319
  90.3480675  62.0205773 102.7441019  90.8369031  62.4703265 101.3837189
  90.0614161  64.4194536  94.1023696  89.6219151  63.9270915  94.7956552
  90.8122278  63.8767504  93.8615771  82.5406500  60.6106077  94.1048324
  83.3664520  60.3109849  93.7246967  82.1900552  59.8413699  94.5538112
  87.5088033  59.9632545  96.1745997  86.8868042  59.3003250  95.8748225
  88.1792900  59.9893677  95.4919645  80.7415105  58.5292403  95.0637257
  79.9047013  58.1014578  94.8821259  80.7138750  58.7224847  96.0008049
  87.5812560  48.4414333 105.7678503  87.6300716  49.3176456 105.3856273
  88.1235075  47.8991726 105.1950147  98.0667406  58.9855456 105.0479640
  97.2762950  58.9679595 104.5084140  97.8300761  59.5243750 105.8028677
  98.1865281  55.8347923 102.3612369  98.2363286  55.6697930 103.3027892
  98.0779205  54.9675182 101.9710250  87.0701540  58.5136468  89.6504458
  87.2189660  59.1971933  88.9971131  87.8767983  58.4941558  90.1653914
  95.4769044  51.8178851 103.6771676  96.3778906  51.6785316 103.3855674
  95.5517018  51.9833306 104.6169853  89.8111849  49.1945705 102.5224862
  88.9415158  49.4879271 102.2507451  90.0471329  49.7786150 103.2432126
  99.6883478  58.2544864 102.6054391  99.3968286  58.6174845 103.4417852
  99.0755609  57.5411872 102.4267723 100.8879160  55.8197744  95.1256961
 101.7226052  56.2587548  95.2894521 101.0238289  55.3436397  94.3065207
  97.9370666  53.3777479 101.0734449  98.4124788  53.5705125 100.2653300
  97.0136232  53.4336665 100.8277832  84.8254173  54.5401646  90.6565527
  84.5800215  53.6363976  90.8545737  84.9950087  54.5418796  89.7145005
  92.5150883  45.4125322 100.0390282  93.0332827  46.1486349  99.7136771
  92.1606016  45.7189316 100.8737042  84.0949820  50.2730004  88.1551688
  83.4019065  50.3474359  87.4991724  83.8501572  49.5090347  88.6773205
  92.7663477  41.8325605  95.5591179  93.0465231  41.1648794  96.1851606
  93.5514084  42.0254701  95.0465843  90.5696945  61.0084599  87.1216205
  89.9970912  61.6274786  86.6686677  91.1429739  61.5583960  87.6556127
  96.6372335  50.2543239  99.3062754  97.5889758  50.3541337  99.3274978
  96.4675786  49.4621507  99.8160839  94.6586715  47.3398822  99.4922155
  94.0636647  47.6203835  98.7968644  94.3736411  47.8292723 100.2638896
  93.7894205  61.2921749  88.2524788  94.7224878  61.2267311  88.4557663
  93.7017418  62.1278016  87.7939320  96.4182222  60.6087619  85.2128735
  96.3395853  60.2747483  86.1064493  97.2391889  61.1009387  85.2120208
  99.1160413  53.4749359  98.4205054  99.0836733  52.5365359  98.6064738
  99.7261037  53.5533395  97.6870879  90.9543744  52.3445412  84.4632258
  91.9002849  52.2151620  84.5320676  90.5757989  51.6060073  84.9401686
  99.2654902  50.2660402  98.4663337  98.7493950  49.4818859  98.2793266
 100.1494850  49.9379119  98.6309856  96.9265628  44.0101418  94.4259150
  96.7290450  43.7016506  95.3102482  97.5365334  44.7363056  94.5557080
 104.9336963  54.5365365  97.5611091 105.6640351  54.2750654  98.1218794
 104.3243908  53.7994087  97.6013159 103.0152260  52.6773228  98.1585542
 102.2885424  52.5429193  97.5502033 102.5999547  52.9850057  98.9642260
  90.8382436  56.3963158 105.9232915  91.7585446  56.5741757 106.1172961
  90.8032019  55.4519203 105.7712614  89.1386661  50.2695388  84.3987143
  88.2318116  49.9728501  84.4749857  89.4162642  49.9725206  83.5321429
  80.0564601  51.5901751  94.8486189  79.7367386  50.7367060  94.5560563
  79.5098030  51.8050329  95.6044157  83.8344509  54.3064192  98.5655696
  84.0530519  55.2381300  98.5843730  84.2470283  53.9472167  99.3510500
  90.7548727  44.8132278  90.5531384  89.9449455  44.4679363  90.9286630
  91.4433144  44.5039821  91.1418996  92.6839275  43.8910324  92.1755681
  93.2370314  44.3105778  92.8345704  92.9209361  42.9646073  92.2178637
  88.7072374  49.8797398 107.9558445  88.6069101  50.8291755 107.8870536
  88.4893916  49.5515637 107.0834515  87.9085446  47.1282323  84.5399122
  88.7704610  47.4537221  84.7994940  88.0935790  46.3413819  84.0272188
  79.9252861  55.2104663  96.8179311  79.2316333  54.7958616  96.3049265
  80.6725852  55.2525199  96.2212730  96.0618082  46.0010850  91.6834345
  95.4816751  46.6595654  91.3012398  95.7954015  45.1788194  91.2721763
  94.5121649  45.4015907  93.8855666  95.0121427  45.5132442  93.0769984
  95.1557256  45.0976960  94.5256474  88.5703644  53.3094537 106.7723507
  88.0870726  54.1094897 106.9787396  88.6564583  53.3202482 105.8190951
  81.8389604  55.1422917  94.6945326  81.8160292  55.2410604  93.7427209
  82.1490240  55.9888067  95.0162492  84.4976982  57.1999072  98.8091940
  85.4520235  57.1683014  98.7421872  84.2989505  56.7389695  99.6242166
  85.0876364  55.7700188 101.3762738  85.9069253  56.2644266 101.3997575
  85.3613172  54.8532156 101.3480306  94.8442960  48.1610940  90.7390694
  93.9568815  48.4460591  90.5210888  95.2596949  48.0004703  89.8917970
  98.1957496  48.1857461  94.4545033  98.9717886  48.6753913  94.7269650
  97.4705630  48.6115515  94.9116902 100.6330055  48.8985080  95.5118973
 101.2274546  48.6580816  94.8012282 100.7056639  48.1792211  96.1392510
  82.8527211  62.7418691  95.8262138  82.7181679  61.9819092  95.2600136
  82.4359273  63.4659591  95.3590927  93.9886174  57.9255615  84.8338713
  94.6922024  58.1305617  85.4496369  93.2648822  58.4932377  85.0987797
  94.8183984  53.6765476  90.9540984  94.7619185  54.1334027  90.1148616
  95.3712326  52.9156161  90.7763826  98.6288790  49.4655208  91.7791103
  98.3725724  49.0651843  92.6099311  98.0041658  50.1799002  91.6541242
 102.9401128  52.2051281  94.2862395 102.3800686  52.2744470  95.0593957
 102.3344631  52.0292266  93.5661891  86.0096337  63.6388008  96.0380581
  85.8928721  64.5833441  95.9359271  85.1888783  63.3361570  96.4266380
  95.8972871  58.3638144  86.8837174  96.7318475  57.9319342  86.7014648
  95.7357214  58.1920158  87.8114068  95.5518763  54.8670257  88.2493513
  95.4967567  54.7014529  87.3081957  94.9264819  55.5746290  88.4055703
  80.3411278  50.1038322 102.0754935  80.9870142  49.5937276 102.5642160
  80.1328429  50.8407003 102.6498360  92.8664670  57.1719169 107.5747076
  93.7355830  57.3459821 107.2133711  92.3871422  57.9913586 107.4522805
  88.8614889  44.3678366  87.8278831  88.8493559  45.3120206  87.9847102
  89.7538311  44.1848512  87.5338292  87.0350851  64.2916270  99.2536509
  87.9378097  64.3239880  99.5703004  86.8088221  63.3616721  99.2682845
  88.7904453  63.0447257  95.9146588  87.8400084  63.0449118  95.8010960
  89.0936939  62.2979991  95.3982623  92.6767008  40.9621143  92.0824768
  91.9099404  40.4079630  92.2281450  93.0877713  41.0343012  92.9438920
  84.6808769  47.2505939 106.1729949  85.5440231  46.8942743 106.3833274
  84.1074180  46.9119833 106.8605354 104.5257146  68.8807795  96.9792350
 105.1635556  68.7614542  96.2755690 104.4077989  69.8288639  97.0380302
 101.3346852  68.8335223  96.9153875 100.9965364  68.7176288  96.0274410
 102.2036621  68.4326388  96.8954881  97.1933668  70.6870700  92.9050766
  96.6298533  70.5960636  92.1367054  97.0786063  69.8670604  93.3853258
 101.8166635  69.9870075 102.8740081 101.8055276  69.5922873 102.0020584
 101.9787275  69.2536147 103.4673852  94.7398100  72.1821891  95.7434986
  95.5319392  71.8412716  95.3281286  94.9794750  72.2916866  96.6637140
 102.7733227  74.3541667  88.2165231 102.1221207  74.9395748  87.8299245
 103.5677590  74.8847862  88.2760268  98.5373897  72.7707187 101.8219264
  98.2463763  73.6752817 101.7065931  99.1730881  72.8123714 102.5363334
  99.4630103  70.1484035  98.4120624 100.0593676  69.9240058  97.6977587
  99.5205075  69.4068781  99.0146072  99.0355132  67.6023470  86.2470815
  99.2880652  67.0804992  85.4854278  98.0979691  67.4389616  86.3497499
 104.0798415  66.6059249  94.0545558 104.8661504  66.1878672  93.7035975
 104.3437119  67.5105341  94.2227207 104.2508492  72.0432099  88.7534215
 103.6154325  72.1166726  89.4655120 103.9205898  72.6325698  88.0753294
 109.4806842  66.5434482  94.9578537 110.2132014  65.9733699  95.1916366
 108.7246197  66.1556082  95.3985042  98.7551421  69.5051576  88.4495190
  98.6387679  68.8296480  89.1176274  98.8653680  69.0183950  87.6327343
 101.0982961  68.9661724  92.1541879 100.7341169  68.4392345  92.8654801
 101.9550077  68.5760193  91.9808365 107.0032262  60.2556056  99.4173145
 106.6715587  61.1251467  99.1934360 106.4077876  59.9392340 100.0967176
 100.7388448  63.9951623  87.1503228 100.9062851  64.8631860  87.5173699
 100.5485618  64.1578905  86.2264517 103.4963782  72.4568602  98.8169058
 103.1964505  73.3593641  98.7084865 103.1514841  72.1900785  99.6690211
  96.9476263  68.9082399  94.8505763  96.0226760  68.7758613  95.0583454
  97.1960676  69.6876618  95.3475705 106.8960925  64.9751142  96.4966496
 105.9877803  64.9066551  96.2025256 106.8448521  65.4523087  97.3248321
 100.7177669  66.4509281  88.1349895 100.5977295  66.8966331  88.9735375
 100.0230258  66.7994598  87.5763433  94.3085074  68.5515673  95.6849552
  94.4377455  68.8050151  96.5988963  93.6282525  69.1443381  95.3654207
  98.4784561  79.2212922  91.7840026  98.4008591  80.1720748  91.8628506
  97.8746205  78.8758795  92.4414952 100.9701791  66.3940788 104.4401393
 100.1935125  66.9534708 104.4304257 101.6092354  66.8797571 104.9616263
 108.7622572  63.1767581  98.2744369 108.1196952  63.4700114  97.6284164
 108.2577500  63.0620501  99.0797566 106.4162735  66.9230754  88.9630229
 107.3280592  67.1558141  88.7877926 105.9072383  67.5067798  88.4005307
  99.2248164  69.2026241 104.0019360  99.9662848  69.7411285 103.7254183
  98.5185149  69.8292530 104.1590912 104.7003503  71.3455382 102.5991521
 105.1086859  70.9037792 101.8546154 103.9780765  70.7708009 102.8525714
 101.0534573  66.2827989  99.9725078 101.8995768  66.7067402 100.1159727
 100.9933211  65.6261613 100.6663641 105.0232318  71.9056572  96.3543810
 104.3941180  72.0702286  95.6519878 104.6357980  72.3198182  97.1254774
 108.9021550  72.8411010  93.7088174 108.2172588  73.2209912  93.1585207
 108.9865399  73.4506337  94.4420122 104.2034019  63.9432357 101.6306252
 103.9594950  64.6974417 101.0940528 104.4793949  64.3217704 102.4653499
 106.1572481  70.4870969 100.3083517 106.3689377  71.1302729  99.6317899
 106.1102230  69.6533286  99.8405448 103.7598710  63.0988790  97.2120090
 102.8983189  63.3970043  97.5036827 103.7861145  63.3159189  96.2801122
 100.5760280  71.6430980  93.6193895 101.0398625  71.9218683  92.8298518
 100.3117078  70.7414425  93.4366986  97.4684361  71.1902462  96.5573659
  98.0385718  71.6189730  95.9191143  98.0592473  70.9085047  97.2557844
  99.5129166  67.7654133  90.4283460 100.2153209  68.2175176  90.8957387
  99.1809794  67.1237952  91.0563354  97.9609527  66.3565889 104.8034670
  97.3308188  67.0382170 105.0370067  97.8545615  66.2448971 103.8587808
  93.2554500  66.0237685  95.7300594  92.4653554  66.2795214  95.2540705
  93.7465747  66.8386023  95.8352634 107.2718309  73.3642925  98.4805875
 108.0935753  72.9623112  98.1988556 107.2680712  73.2611159  99.4321991
  95.2069245  66.3882265  92.6884071  94.4100408  66.5000959  93.2067566
  94.9794837  66.7268917  91.8224961 101.0374913  72.9126968 100.6366585
 101.1019345  73.3747375 101.4724757 100.3285837  72.2824333 100.7648895
  91.5392203  66.2768176  98.1615585  91.7900241  67.1615186  98.4273161
  92.0751751  66.0972777  97.3890677 115.3624302  69.7081673  94.8290846
 114.6088011  69.1389071  94.6734851 115.4971844  69.6744338  95.7761481
 100.7522930  74.5795075  90.5045566 100.6168605  75.4246611  90.9330413
 101.2932743  74.7814353  89.7411499  97.2390270  60.6586655 107.1659921
  96.8457216  60.1052854 107.8407565  98.0556410  60.9697234 107.5566438
 100.1558231  62.0744534 104.7580177 100.8967944  62.6751688 104.6784640
 100.3876154  61.3322172 104.1998220  95.2999569  67.2600902 103.0358407
  95.1853084  66.3586159 103.3365506  94.4444087  67.5064598 102.6843224
 102.3791407  75.2018642 104.6345908 101.9355261  74.4155021 104.3166812
 103.0408620  75.3897792 103.9689798  97.1378528  76.7314444  99.1606586
  97.6885953  76.6031507  98.3883580  96.2990004  77.0309333  98.8101479
 104.4772645  75.4821442 102.6627309 104.4591120  76.3030323 102.1707578
 105.3992565  75.3575517 102.8877450 100.9345699  72.9965571 103.5050817
 101.4674036  72.2353860 103.2750125 100.4059780  72.7039223 104.2474972
 104.1015394  58.1025637  99.0344459 103.7579663  58.9927279  98.9583570
 104.4694357  57.9127295  98.1714044 104.0665677  68.0934248  87.5416894
 103.5512300  68.8638853  87.7805282 103.7942985  67.4199385  88.1649956
 101.6512788  62.9383949  92.6002133 100.7954384  62.5490800  92.4207771
 102.0639739  63.0175910  91.7401918 103.1811934  60.4730292  96.9993692
 102.6776730  60.4360428  96.1861498 103.4742541  61.3823035  97.0590349
  99.4254820  60.5569022  96.0059874 100.2907817  60.3611831  95.6465764
  99.4932329  60.3279374  96.9329231 109.0399951  70.8466603  89.4770068
 108.2629394  70.5077763  89.0325230 109.7191432  70.8519226  88.8025033
 103.8551980  65.9661341  89.3676675 103.5502115  66.2807490  90.2186819
 104.8082422  66.0442760  89.4104008 102.2998412  72.1251564  91.0169629
 101.7719773  71.3904323  90.7042867 101.7985914  72.9026240  90.7709598
 107.2791258  70.3200584  96.1336676 106.6214932  71.0099846  96.2216804
 108.0831657  70.7097016  96.4770662  97.0317139  62.7871230  93.3776241
  97.6060891  62.5646412  92.6449434  97.6188122  62.8559925  94.1304842
 106.0896716  68.6744957  94.1840617 106.6028598  69.3074949  94.6862327
 106.7397940  68.0746153  93.8183977  97.3586726  64.8175691  87.3972126
  96.5224039  65.1550378  87.7181401  97.2191496  64.6824671  86.4599263
  99.3339807  59.6612479  92.1051310  98.6804219  59.3461496  91.4807925
  99.2920281  59.0388219  92.8311133 100.4451012  69.9431774  84.0204602
  99.5378074  69.7121028  84.2195751 100.9422044  69.1469393  84.2078584
 103.3519091  78.6529281  86.9401289 102.6780789  78.9560978  87.5486246
 103.7384913  79.4558362  86.5906746 102.5677547  66.1494413  96.4298958
 101.6500109  66.3709360  96.2720646 102.9837691  66.2240723  95.5710665
 103.3512595  67.5485828  91.5601638 104.0984414  68.0607225  91.2508760
 103.6204185  67.2269881  92.4206032 101.6239245  70.0444369  88.5428592
 100.7150465  69.7603402  88.6401062 101.6534329  70.4643448  87.6831899
 106.8558513  73.6550958  92.3119760 106.4020840  72.8141868  92.3684951
 106.2252479  74.2912357  92.6494540 105.7991432  64.5842945  93.5420427
 105.0614189  64.0720331  93.8730670 106.0518206  64.1443326  92.7303704
 105.2991452  75.4927455  93.2469578 105.5914426  76.0532512  92.5281944
 105.8090073  75.7856016  94.0022737 105.9003060  57.3619197  94.1362197
 106.2061936  56.5016560  93.8488112 106.6255664  57.9536817  93.9361191
  92.1927416  67.7649883  92.5243795  91.9951815  67.1719244  91.7994861
  91.6374080  67.4602093  93.2419733 100.1724139  67.6572990  94.6438388
 100.2272749  66.7046826  94.5680864  99.3615341  67.8132429  95.1279686
 101.3215333  71.5853113  85.8816671 100.8834763  70.8688972  85.4222308
 102.0625774  71.8129227  85.3201762  98.1116499  66.2750049  92.4028767
  97.2984365  66.5744220  92.8093959  98.6075493  65.8805738  93.1203249
 100.2625077  76.2707806  94.3363031 100.2201256  76.4968653  93.4071563
 101.1787776  76.0371181  94.4848833 103.7090711  66.7391874 101.2343661
 104.0640099  66.9663347 102.0938126 104.3562842  67.0710251 100.6120916
 109.4388448  69.8610310  91.9392990 109.3006346  70.0511906  91.0114179
 109.0824667  70.6229692  92.3961041  97.6030574  63.8468405  98.0190002
  98.2429953  63.7057164  97.3212965  96.7708105  63.5602918  97.6428604
 109.4657827  71.9286837  96.9504261 109.8994334  71.8362126  97.7987315
 110.1789408  71.9044337  96.3124277  98.3790878  73.1470835  94.1324994
  99.1731476  72.6521155  93.9307569  97.6682570  72.6188698  93.7692700
 103.1985722  75.5288931  98.4837362 103.2522745  76.0979867  99.2515078
 102.3300504  75.6990816  98.1191399  94.6873641  67.2913917  90.2084747
  93.7571229  67.2298372  90.4254709  94.7831113  66.7689870  89.4121388
  94.6059190  63.8168730  92.7962988  94.8666008  64.7314063  92.6872149
  95.4276363  63.3493172  92.9459601  96.0784116  65.2306487  99.9661813
  96.7507169  65.0223849  99.3174462  95.2513902  65.0328573  99.5267045
 110.3273377  71.9710537  99.4837147 110.5209267  72.8756348  99.7296421
 110.2273995  71.5117956 100.3175732 101.9809688  61.8568428 101.9827474
 101.3337603  62.5558378 101.8891950 102.7510703  62.2904572 102.3503722
 105.3888486  72.1217280 105.0578027 105.2373992  71.8927832 104.1408111
 105.3793165  73.0787882 105.0709372 102.1573822  69.6949193 100.0424294
 103.0865882  69.8460352  99.8693261 101.7364852  69.7833214  99.1872940
 100.9562154  73.7199857  97.8122831 100.8173240  73.3518642  98.6848769
 100.1676750  74.2347497  97.6406789 101.5510306  78.8208954  89.1548368
 101.7262062  78.3496997  89.9693990 100.8643094  79.4474720  89.3829628
 102.5067369  73.0981460  95.2011669 102.1717202  73.0582230  96.0969319
 102.0071315  72.4326176  94.7282079  96.4811613  68.5049090 100.7264250
  96.3431411  67.7729329 101.3275789  97.3916536  68.4157990 100.4448438
 105.4426561  70.4437494  85.4748729 104.8255731  69.7184322  85.3781781
 104.9743049  71.2046855  85.1315803  99.1093914  68.2169049 100.2147930
  99.8193532  67.5762241 100.1734548  99.0663222  68.4681944 101.1374111
 107.0980692  75.1536403 103.1354509 107.0393239  74.4695623 102.4685092
 107.5000211  75.8955393 102.6835135  97.8222848  65.2034267 102.0343569
  97.2860205  64.7525006 102.6865166  97.2339556  65.3380176 101.2914034
  97.2325107  64.6622919  84.5970033  96.3554573  64.5411719  84.2332280
  97.7082860  63.8708997  84.3448922 107.0998100  73.1175987 101.3668489
 106.2124878  72.7801908 101.4894888 107.6696651  72.3859018 101.6037254
  88.7527247  69.4500078  94.6911540  89.4398287  69.1361808  94.1032555
  88.5975375  70.3541443  94.4178791  93.5561969  64.3390275  99.1196564
  93.4720158  63.7315944  98.3846974  92.7344675  64.8299293  99.1206060
 100.6299253  77.7777439  98.3329732 100.5569425  78.5832410  98.8449036
 100.1876646  77.9769405  97.5077753 100.4189033  77.0149209  91.8432553
  99.6356555  77.5570889  91.9370778 101.1181778  77.5323189  92.2426795
 103.7285683  62.8243838  94.4866759 104.2254382  62.0713801  94.1667829
 102.9572664  62.8608155  93.9209968 111.5815440  68.5284204  96.1285050
 111.5705316  69.4108919  95.7578983 110.7132820  68.1755755  95.9339587
 103.0897937  77.6764273 100.4887891 103.8025909  78.3111738 100.4163792
 102.5987965  77.7728139  99.6727892 104.8115463  71.5815526  92.0605182
 103.8771742  71.7016988  91.8909887 104.9892132  70.6787992  91.7965192
 100.3120652  64.9661221  94.2138443  99.9418439  64.4132262  94.9019349
 100.8079744  64.3619355  93.6613443 108.1988015  67.4232845  92.5955216
 108.6648467  68.2560837  92.5215519 108.6495515  66.9577826  93.3000475
  98.1409850  75.4258716 101.3093461  98.8419310  76.0595199 101.4622856
  97.6704965  75.7673448 100.5489101 106.2664246  73.7676666  89.5941368
 106.5424090  73.6533261  90.5035242 105.3968745  73.3694151  89.5553541
 106.1704678  59.7913432  96.6346118 105.2567757  60.0217659  96.8028325
 106.5997779  59.8751876  97.4860150 105.9411136  67.9803324  99.1346012
 105.2882586  68.2279231  98.4798464 106.3191516  67.1667462  98.8008489
 103.2360475  76.9431202  90.4989230 103.7648242  76.4323657  89.8859393
 103.4988695  76.6273732  91.3634764 101.9898709  68.7223135 105.6212049
 101.3139346  68.6217264 106.2914424 102.8126343  68.5662349 106.0848046
  93.7377568  74.9595071  98.2424564  94.3231005  74.2138759  98.3752468
  93.5402407  75.2699028  99.1261228  96.5916223  77.9946319  93.2587006
  95.9226599  78.4792446  92.7751046  96.4529093  78.2415539  94.1730385
  88.3295223  67.5300672  96.9629007  88.3679322  66.9964262  97.7566125
  87.8235516  67.0035877  96.3439984 100.7321492  80.0290062  99.8569665
 101.2839800  80.1921684 100.6218750 101.0727685  80.6194500  99.1849690
  95.7085985  62.3765212 100.4591549  95.7727312  63.2380043 100.0468947
  95.6453105  61.7639214  99.7263908  95.1838258  64.4488345 104.1064584
  95.8110297  64.0665422 104.7202108  94.3266177  64.2302547 104.4720276
 105.5832366  74.8551320 105.7118319 106.1272270  75.4681278 105.2173274
 105.0019211  75.4130898 106.2285332  91.9603800  66.2564774  90.0382939
  92.2557242  65.3475452  89.9849992  91.0591836  66.2352513  89.7163941
  95.4898047  64.3320770  96.0210487  94.7684633  64.9456738  95.8817960
  96.2791303  64.8678535  95.9427133 105.9324788  75.7781058  98.4712897
 104.9855123  75.6586409  98.3991224 106.2807561  74.8903556  98.5539158
  98.2924361  61.6675197 102.2951139  98.8158763  61.9137493 103.0577448
  98.0736694  62.4995232 101.8754276  93.6891642  63.9378871  90.1622264
  93.3604348  63.0576250  89.9797370  94.0431013  63.8826540  91.0498653
 102.9371221  75.5733774  94.6717249 102.7896183  74.6450482  94.8524819
 103.7624714  75.5953865  94.1874324  96.8033465  64.2251841  90.5297741
  97.1429538  64.7537763  89.8076350  97.2505586  64.5632247  91.3056308
 106.5405343  76.3962333  95.7582122 107.4651890  76.1905194  95.6206573
 106.3720646  76.1478734  96.6671464  99.4976906  62.6088892  99.9800809
  99.1573726  61.8096705 100.3821489  98.7915912  62.9090603  99.4077643
 100.1493378  59.6938204  98.4328132 100.9719447  59.2198683  98.3107023
 100.3931441  60.4728688  98.9326819  98.7901612  62.7226463  88.7291034
  99.5109975  63.1007716  88.2254751  98.1666916  63.4415340  88.8326012
 102.9332735  63.4271612  89.6649366 103.1496350  64.3096250  89.3638195
 102.4526802  63.0357825  88.9355008  97.6731957  66.3857325  96.2420111
  97.5276537  66.6997628  97.1344393  97.1957160  67.0042225  95.6891010
  99.5328339  63.3759873  96.2901001  99.5189908  62.4800966  95.9533299
 100.2500768  63.3830537  96.9239287 101.3854470  63.8097213  98.3354128
 101.1272248  64.7314284  98.3338459 100.8539511  63.4127648  99.0254592
 106.3300659  76.9148000  91.1144213 106.5037536  76.3494423  90.3618066
 106.8229550  77.7148895  90.9323703  92.1477619  68.9262669  99.1807772
  91.6031087  69.7022477  99.3128047  93.0256969  69.2733474  99.0226894
  98.9365235  62.2574253  91.5588571  99.0581147  61.3290900  91.7579458
  98.6467278  62.2712939  90.6466886 101.8056426  59.9429164  94.6955291
 101.8278123  60.0068497  93.7407270 102.2224485  59.1033672  94.8895797
 112.1840050  69.6784423  92.7334513 112.6271196  68.9291749  92.3353636
 111.3066560  69.6694560  92.3508245 107.3175831  76.2314765  88.2141112
 108.0126736  76.8521457  88.4328426 107.6598982  75.3810116  88.4893490
  92.9343641  68.0532566 102.0737929  92.1925377  68.2015201 102.6602560
  92.6136385  68.3140831 101.2104679 109.2167255  73.6814470  89.7428443
 109.7418579  74.0201743  89.0177763 109.1289607  72.7461486  89.5591577
 100.8787303  77.5948544 101.8718319 101.1874430  77.3497691 102.7441019
 101.6762785  77.7995182 101.3837189  93.3800254  75.9397994  94.1048324
  94.2058274  75.6401766  93.7246967  93.0294306  75.1705617  94.5538112
  98.3481787  75.2924463  96.1745997  97.7261797  74.6295168  95.8748225
  99.0186654  75.3185595  95.4919645  91.5808859  73.8584321  95.0637257
  90.7440768  73.4306495  94.8821259  91.5532505  74.0516764  96.0008049
  98.4206315  63.7706251 105.7678503  98.4694470  64.6468374 105.3856273
  98.9628829  63.2283644 105.1950147 108.9061161  74.3147374 105.0479640
 108.1156704  74.2971513 104.5084140 108.6694515  74.8535668 105.8028677
 109.0259036  71.1639840 102.3612369 109.0757041  70.9989848 103.3027892
 108.9172959  70.2967099 101.9710250 106.3162798  67.1470768 103.6771676
 107.2172661  67.0077233 103.3855674 106.3910773  67.3125223 104.6169853
 100.6505603  64.5237623 102.5224862  99.7808913  64.8171189 102.2507451
 100.8865084  65.1078068 103.2432126 110.5277233  73.5836782 102.6054391
 110.2362041  73.9466762 103.4417852 109.9149364  72.8703790 102.4267723
 111.7272915  71.1489662  95.1256961 112.5619806  71.5879466  95.2894521
 111.8632044  70.6728315  94.3065207 108.7764421  68.7069396 101.0734449
 109.2518542  68.8997043 100.2653300 107.8529986  68.7628582 100.8277832
 103.3544637  60.7417240 100.0390282 103.8726581  61.4778267  99.7136771
 102.9999770  61.0481233 100.8737042  94.9343575  65.6021921  88.1551688
  94.2412820  65.6766276  87.4991724  94.6895327  64.8382265  88.6773205
 103.6057231  57.1617523  95.5591179 103.8858985  56.4940712  96.1851606
 104.3907838  57.3546618  95.0465843 101.4090700  76.3376516  87.1216205
 100.8364667  76.9566704  86.6686677 101.9823494  76.8875878  87.6556127
 107.4766090  65.5835157  99.3062754 108.4283513  65.6833254  99.3274978
 107.3069540  64.7913425  99.8160839 105.4980469  62.6690740  99.4922155
 104.9030401  62.9495753  98.7968644 105.2130166  63.1584641 100.2638896
 104.6287960  76.6213667  88.2524788 105.5618633  76.5559228  88.4557663
 104.5411173  77.4569933  87.7939320 107.2575976  75.9379537  85.2128735
 107.1789608  75.6039401  86.1064493 108.0785643  76.4301305  85.2120208
 109.9554168  68.8041276  98.4205054 109.9230488  67.8657277  98.6064738
 110.5654791  68.8825313  97.6870879 101.7937498  67.6737329  84.4632258
 102.7396603  67.5443537  84.5320676 101.4151743  66.9351991  84.9401686
 110.1048656  65.5952320  98.4663337 109.5887705  64.8110776  98.2793266
 110.9888605  65.2671036  98.6309856 107.7659383  59.3393335  94.4259150
 107.5684204  59.0308423  95.3102482 108.3759089  60.0654974  94.5557080
 115.7730717  69.8657283  97.5611091 116.5034106  69.6042571  98.1218794
 115.1637663  69.1286005  97.6013159 113.8546015  68.0065146  98.1585542
 113.1279178  67.8721111  97.5502033 113.4393301  68.3141974  98.9642260
 101.6776191  71.7255075 105.9232915 102.5979200  71.9033674 106.1172961
 101.6425774  70.7811121 105.7712614  99.9780416  65.5987306  84.3987143
  99.0711871  65.3020418  84.4749857 100.2556397  65.3017124  83.5321429
  90.8958356  66.9193669  94.8486189  90.5761140  66.0658977  94.5560563
  90.3491784  67.1342247  95.6044157  94.6738263  69.6356110  98.5655696
  94.8924273  70.5673218  98.5843730  95.0864037  69.2764084  99.3510500
 101.5942481  60.1424195  90.5531384 100.7843210  59.7971280  90.9286630
 102.2826898  59.8331739  91.1418996 103.5233030  59.2202242  92.1755681
 104.0764068  59.6397696  92.8345704 103.7603116  58.2937990  92.2178637
  99.5466129  65.2089316 107.9558445  99.4462856  66.1583673 107.8870536
  99.3287671  64.8807555 107.0834515  98.7479200  62.4574241  84.5399122
  99.6098364  62.7829139  84.7994940  98.9329544  61.6705737  84.0272188
  90.7646616  70.5396581  96.8179311  90.0710087  70.1250533  96.3049265
  91.5119607  70.5817117  96.2212730 106.9011837  61.3302767  91.6834345
 106.3210506  61.9887571  91.3012398 106.6347769  60.5080112  91.2721763
 105.3515403  60.7307825  93.8855666 105.8515181  60.8424360  93.0769984
 105.9951011  60.4268878  94.5256474  99.4097399  68.6386455 106.7723507
  98.9264481  69.4386815 106.9787396  99.4958338  68.6494399 105.8190951
  92.6783358  70.4714834  94.6945326  92.6554047  70.5702522  93.7427209
  92.9883995  71.3179985  95.0162492  95.3370736  72.5290989  98.8091940
  96.2913990  72.4974932  98.7421872  95.1383260  72.0681613  99.6242166
  95.9270118  71.0992105 101.3762738  96.7463007  71.5936184 101.3997575
  96.2006926  70.1824074 101.3480306 105.6836715  63.4902858  90.7390694
 104.7962570  63.7752508  90.5210888 106.0990704  63.3296621  89.8917970
 109.0351251  63.5149379  94.4545033 109.8111641  64.0045831  94.7269650
 108.3099385  63.9407433  94.9116902 111.4723809  64.2276998  95.5118973
 112.0668300  63.9872734  94.8012282 111.5450393  63.5084128  96.1392510
  93.6920965  78.0710609  95.8262138  93.5575433  77.3111010  95.2600136
  93.2753027  78.7951509  95.3590927 104.8279928  73.2547532  84.8338713
 105.5315778  73.4597535  85.4496369 104.1042577  73.8224294  85.0987797
 105.6577738  69.0057394  90.9540984 105.6012940  69.4625945  90.1148616
 106.2106081  68.2448078  90.7763826 109.4682544  64.7947125  91.7791103
 109.2119479  64.3943761  92.6099311 108.8435412  65.5090919  91.6541242
 113.7794882  67.5343199  94.2862395 113.2194440  67.6036388  95.0593957
 113.1738386  67.3584183  93.5661891  96.8490091  78.9679926  96.0380581
  96.7322475  79.9125358  95.9359271  96.0282537  78.6653487  96.4266380
 106.7366626  73.6930062  86.8837174 107.5712229  73.2611260  86.7014648
 106.5750968  73.5212075  87.8114068 106.3912518  70.1962175  88.2493513
 106.3361322  70.0306446  87.3081957 105.7658573  70.9038208  88.4055703
  91.1805033  65.4330239 102.0754935  91.8263896  64.9229193 102.5642160
  90.9722184  66.1698921 102.6498360 103.7058425  72.5011087 107.5747076
 104.5749585  72.6751739 107.2133711 103.2265176  73.3205504 107.4522805
  99.7008643  59.6970284  87.8278831  99.6887313  60.6412124  87.9847102
 100.5932065  59.5140429  87.5338292  97.8744605  79.6208188  99.2536509
  98.7771852  79.6531798  99.5703004  97.6481975  78.6908639  99.2682845
  99.6298207  78.3739174  95.9146588  98.6793838  78.3741036  95.8010960
  99.9330693  77.6271909  95.3982623 103.5160763  56.2913061  92.0824768
 102.7493158  55.7371547  92.2281450 103.9271468  56.3634929  92.9438920
  95.5202524  62.5797856 106.1729949  96.3833985  62.2234661 106.3833274
  94.9467934  62.2411751 106.8605354 115.3650901  84.2099713  96.9792350
 116.0029311  84.0906460  96.2755690 115.2471744  85.1580557  97.0380302
 112.1740607  84.1627141  96.9153875 111.8359118  84.0468205  96.0274410
 113.0430375  83.7618306  96.8954881 112.6560390  85.3161992 102.8740081
 112.6449031  84.9214791 102.0020584 112.8181029  84.5828065 103.4673852
 110.3023858  85.4775953  98.4120624 110.8987430  85.2531975  97.6977587
 110.3598829  84.7360698  99.0146072 109.8748886  82.9315388  86.2470815
 110.1274407  82.4096909  85.4854278 108.9373445  82.7681534  86.3497499
 114.9192169  81.9351167  94.0545558 115.7055258  81.5170590  93.7035975
 115.1830873  82.8397259  94.2227207 120.3200596  81.8726400  94.9578537
 121.0525768  81.3025617  95.1916366 119.5639952  81.4848000  95.3985042
 117.8426017  75.5847974  99.4173145 117.5109341  76.4543385  99.1934360
 117.2471630  75.2684258 100.0967176 111.5782203  79.3243541  87.1503228
 111.7456605  80.1923777  87.5173699 111.3879372  79.4870823  86.2264517
 114.3357536  87.7860520  98.8169058 114.0358259  88.6885559  98.7084865
 113.9908596  87.5192703  99.6690211 117.7354680  80.3043060  96.4966496
 116.8271557  80.2358468  96.2025256 117.6842276  80.7815005  97.3248321
 111.5571424  81.7801198  88.1349895 111.4371049  82.2258249  88.9735375
 110.8624012  82.1286516  87.5763433 111.8095546  81.7232706 104.4401393
 111.0328880  82.2826626 104.4304257 112.4486109  82.2089489 104.9616263
 119.6016326  78.5059498  98.2744369 118.9590707  78.7992032  97.6284164
 119.0971255  78.3912419  99.0797566 117.2556490  82.2522672  88.9630229
 118.1674346  82.4850058  88.7877926 116.7466137  82.8359716  88.4005307
 110.0641918  84.5318159 104.0019360 110.8056602  85.0703203 103.7254183
 109.3578903  85.1584448 104.1590912 115.5397258  86.6747299 102.5991521
 115.9480614  86.2329710 101.8546154 114.8174519  86.0999927 102.8525714
 111.8928328  81.6119906  99.9725078 112.7389523  82.0359320 100.1159727
 111.8326965  80.9553530 100.6663641 115.8626072  87.2348490  96.3543810
 115.2334935  87.3994204  95.6519878 115.4751734  87.6490100  97.1254774
 119.7415304  88.1702928  93.7088174 119.0566342  88.5501829  93.1585207
 119.8259154  88.7798255  94.4420122 115.0427773  79.2724275 101.6306252
 114.7988705  80.0266335 101.0940528 115.3187704  79.6509622 102.4653499
 116.9966236  85.8162887 100.3083517 117.2083131  86.4594647  99.6317899
 116.9495984  84.9825203  99.8405448 114.5992465  78.4280708  97.2120090
 113.7376944  78.7261961  97.5036827 114.6254899  78.6451106  96.2801122
 108.8003282  81.6857807 104.8034670 108.1701942  82.3674088 105.0370067
 108.6939370  81.5740889 103.8587808 118.1112064  88.6934842  98.4805875
 118.9329507  88.2915030  98.1988556 118.1074467  88.5903076  99.4321991
 126.2018057  85.0373591  94.8290846 125.4481765  84.4680989  94.6734851
 126.3365598  85.0036255  95.7761481 108.0784024  75.9878573 107.1659921
 107.6850970  75.4344772 107.8407565 108.8950165  76.2989151 107.5566438
 110.9951985  77.4036452 104.7580177 111.7361699  78.0043605 104.6784640
 111.2269908  76.6614090 104.1998220 106.1393323  82.5892819 103.0358407
 106.0246839  81.6878077 103.3365506 105.2837841  82.8356516 102.6843224
 113.2185161  90.5310560 104.6345908 112.7749015  89.7446938 104.3166812
 113.8802375  90.7189710 103.9689798 115.3166399  90.8113360 102.6627309
 115.2984875  91.6322241 102.1707578 116.2386319  90.6867435 102.8877450
 111.7739453  88.3257489 103.5050817 112.3067790  87.5645777 103.2750125
 111.2453535  88.0331141 104.2474972 114.9409148  73.4317555  99.0344459
 114.5973418  74.3219197  98.9583570 115.3088111  73.2419213  98.1714044
 114.9059431  83.4226166  87.5416894 114.3906055  84.1930771  87.7805282
 114.6336740  82.7491302  88.1649956 112.4906542  78.2675867  92.6002133
 111.6348139  77.8782717  92.4207771 112.9033494  78.3467828  91.7401918
 114.0205689  75.8022210  96.9993692 113.5170484  75.7652345  96.1861498
 114.3136296  76.7114953  97.0590349 110.2648575  75.8860940  96.0059874
 111.1301571  75.6903749  95.6465764 110.3326084  75.6571292  96.9329231
 119.8793705  86.1758521  89.4770068 119.1023148  85.8369680  89.0325230
 120.5585186  86.1811144  88.8025033 114.6945734  81.2953258  89.3676675
 114.3895870  81.6099407  90.2186819 115.6476176  81.3734678  89.4104008
 118.1185012  85.6492502  96.1336676 117.4608687  86.3391763  96.2216804
 118.9225411  86.0388934  96.4770662 107.8710894  78.1163148  93.3776241
 108.4454646  77.8938329  92.6449434 108.4581876  78.1851842  94.1304842
 116.9290471  84.0036875  94.1840617 117.4422353  84.6366867  94.6862327
 117.5791695  83.4038070  93.8183977 108.1980481  80.1467609  87.3972126
 107.3617793  80.4842295  87.7181401 108.0585251  80.0116589  86.4599263
 110.1733561  74.9904397  92.1051310 109.5197974  74.6753414  91.4807925
 110.1314036  74.3680137  92.8311133 114.1912845  93.9821199  86.9401289
 113.5174544  94.2852896  87.5486246 114.5778667  94.7850279  86.5906746
 113.4071302  81.4786330  96.4298958 112.4893863  81.7001277  96.2720646
 113.8231445  81.5532641  95.5710665 114.1906350  82.8777746  91.5601638
 114.9378169  83.3899143  91.2508760 114.4597939  82.5561799  92.4206032
 116.6385187  79.9134862  93.5420427 115.9007944  79.4012248  93.8730670
 116.8911960  79.4735244  92.7303704 116.7396814  72.6911114  94.1362197
 117.0455691  71.8308478  93.8488112 117.4649419  73.2828734  93.9361191
 112.1609088  86.9145030  85.8816671 111.7228518  86.1980889  85.4222308
 112.9019528  87.1421145  85.3201762 114.5484465  82.0683791 101.2343661
 114.9033853  82.2955265 102.0938126 115.1956597  82.4002168 100.6120916
 120.2782202  85.1902227  91.9392990 120.1400101  85.3803823  91.0114179
 119.9218421  85.9521610  92.3961041 108.4424328  79.1760323  98.0190002
 109.0823708  79.0349082  97.3212965 107.6101859  78.8894836  97.6428604
 120.3051582  87.2578754  96.9504261 120.7388089  87.1654043  97.7987315
 121.0183163  87.2336255  96.3124277 106.9177870  80.5598405  99.9661813
 107.5900924  80.3515767  99.3174462 106.0907657  80.3620491  99.5267045
 121.1667132  87.3002455  99.4837147 121.3603022  88.2048266  99.7296421
 121.0667750  86.8409874 100.3175732 112.8203442  77.1860346 101.9827474
 112.1731357  77.8850295 101.8891950 113.5904458  77.6196490 102.3503722
 116.2282240  87.4509198 105.0578027 116.0767747  87.2219749 104.1408111
 116.2186920  88.4079799 105.0709372 112.9967577  85.0241111 100.0424294
 113.9259637  85.1752270  99.8693261 112.5758607  85.1125131  99.1872940
 112.3904060  94.1500871  89.1548368 112.5655816  93.6788915  89.9693990
 111.7036848  94.7766638  89.3829628 107.3205368  83.8341008 100.7264250
 107.1825165  83.1021246 101.3275789 108.2310291  83.7449908 100.4448438
 116.2820315  85.7729412  85.4748729 115.6649486  85.0476240  85.3781781
 115.8136804  86.5338772  85.1315803 109.9487668  83.5460967 100.2147930
 110.6587287  82.9054159 100.1734548 109.9056976  83.7973862 101.1374111
 117.9374447  90.4828320 103.1354509 117.8786993  89.7987540 102.4685092
 118.3393965  91.2247310 102.6835135 108.6616602  80.5326185 102.0343569
 108.1253959  80.0816923 102.6865166 108.0733311  80.6672094 101.2914034
 108.0718861  79.9914836  84.5970033 107.1948327  79.8703637  84.2332280
 108.5476614  79.2000915  84.3448922 117.9391854  88.4467904 101.3668489
 117.0518633  88.1093826 101.4894888 118.5090405  87.7150935 101.6037254
 104.3955723  79.6682193  99.1196564 104.3113912  79.0607862  98.3846974
 103.5738430  80.1591211  99.1206060 114.5679437  78.1535756  94.4866759
 115.0648137  77.4005718  94.1667829 113.7966419  78.1900073  93.9209968
 122.4209195  83.8576122  96.1285050 122.4099071  84.7400837  95.7578983
 121.5526574  83.5047672  95.9339587 113.9291691  93.0056191 100.4887891
 114.6419663  93.6403655 100.4163792 113.4381720  93.1020057  99.6727892
 111.1514406  80.2953139  94.2138443 110.7812194  79.7424179  94.9019349
 111.6473498  79.6911273  93.6613443 119.0381769  82.7524763  92.5955216
 119.5042221  83.5852754  92.5215519 119.4889270  82.2869744  93.3000475
 117.1058000  89.0968584  89.5941368 117.3817844  88.9825178  90.5035242
 116.2362499  88.6986069  89.5553541 117.0098432  75.1205350  96.6346118
 116.0961512  75.3509576  96.8028325 117.4391534  75.2043794  97.4860150
 116.7804891  83.3095242  99.1346012 116.1276341  83.5571149  98.4798464
 117.1585270  82.4959380  98.8008489 113.7412064  93.3454935  93.2374182
 113.9234459  92.5276591  93.7001934 114.5645050  93.5622627  92.7999072
 114.0754230  92.2723120  90.4989230 114.6041996  91.7615574  89.8859393
 114.3382449  91.9565650  91.3634764 112.8292464  84.0515053 105.6212049
 112.1533101  83.9509182 106.2914424 113.6520097  83.8954266 106.0848046
 111.5715246  95.3581980  99.8569665 112.1233554  95.5213602 100.6218750
 111.9121440  95.9486418  99.1849690 106.5479740  77.7057130 100.4591549
 106.6121066  78.5671961 100.0468947 106.4846860  77.0931132  99.7263908
 106.0232012  79.7780262 104.1064584 106.6504051  79.3957340 104.7202108
 105.1659931  79.5594464 104.4720276 116.4226121  90.1843238 105.7118319
 116.9666025  90.7973196 105.2173274 115.8412966  90.7422816 106.2285332
 114.7083634  93.3063956  96.8433347 114.5834773  92.5053695  96.3344292
 115.3662725  93.8010149  96.3547317 116.7718542  91.1072976  98.4712897
 115.8248878  90.9878327  98.3991224 117.1201315  90.2195474  98.5539158
 109.1318115  76.9967115 102.2951139 109.6552517  77.2429411 103.0577448
 108.9130449  77.8287149 101.8754276 104.5285397  79.2670789  90.1622264
 104.1998103  78.3868168  89.9797370 104.8824767  79.2118458  91.0498653
 117.3799097  91.7254251  95.7582122 118.3045645  91.5197112  95.6206573
 117.2114401  91.4770652  96.6671464 110.3370661  77.9380810  99.9800809
 109.9967481  77.1388623 100.3821489 109.6309667  78.2382521  99.4077643
 110.9887132  75.0230122  98.4328132 111.8113202  74.5490600  98.3107023
 111.2325196  75.8020606  98.9326819 109.6295367  78.0518381  88.7291034
 110.3503729  78.4299633  88.2254751 109.0060671  78.7707257  88.8326012
 113.7726490  78.7563530  89.6649366 113.9890104  79.6388167  89.3638195
 113.2920557  78.3649743  88.9355008 108.5125711  81.7149243  96.2420111
 108.3670292  82.0289546  97.1344393 108.0350915  82.3334143  95.6891010
 110.3722094  78.7051791  96.2901001 110.3583663  77.8092884  95.9533299
 111.0894522  78.7122454  96.9239287 112.2248225  79.1389131  98.3354128
 111.9666003  80.0606202  98.3338459 111.6933265  78.7419565  99.0254592
 117.1694413  92.2439918  91.1144213 117.3431291  91.6786341  90.3618066
 117.6623305  93.0440813  90.9323703 109.7758990  77.5866171  91.5588571
 109.8974901  76.6582817  91.7579458 109.4861032  77.6004857  90.6466886
 112.6450180  75.2721081  94.6955291 112.6671877  75.3360415  93.7407270
 113.0618239  74.4325590  94.8895797 123.0233805  85.0076341  92.7334513
 123.4664951  84.2583666  92.3353636 122.1460315  84.9986477  92.3508245
 118.1569586  91.5606682  88.2141112 118.8520491  92.1813375  88.4328426
 118.4992736  90.7102034  88.4893490 120.0561009  89.0106388  89.7428443
 120.5812333  89.3493661  89.0177763 119.9683362  88.0753403  89.5591577
 111.7181058  92.9240462 101.8718319 112.0268184  92.6789608 102.7441019
 112.5156540  93.1287100 101.3837189 109.2600069  79.0998168 105.7678503
 109.3088225  79.9760291 105.3856273 109.8022584  78.5575561 105.1950147
 119.7454915  89.6439292 105.0479640 118.9550459  89.6263430 104.5084140
 119.5088270  90.1827585 105.8028677 119.8652790  86.4931758 102.3612369
 119.9150795  86.3281765 103.3027892 119.7566714  85.6259017 101.9710250
 117.1556553  82.4762686 103.6771676 118.0566415  82.3369151 103.3855674
 117.2304527  82.6417141 104.6169853 111.4899358  79.8529541 102.5224862
 110.6202667  80.1463107 102.2507451 111.7258838  80.4369986 103.2432126
 121.3670987  88.9128700 102.6054391 121.0755795  89.2758680 103.4417852
 120.7543118  88.1995708 102.4267723 122.5666669  86.4781579  95.1256961
 123.4013561  86.9171383  95.2894521 122.7025798  86.0020233  94.3065207
 119.6158175  84.0361314 101.0734449 120.0912297  84.2288960 100.2653300
 118.6923741  84.0920500 100.8277832 114.1938392  76.0709158 100.0390282
 114.7120336  76.8070185  99.7136771 113.8393525  76.3773151 100.8737042
 114.4450986  72.4909440  95.5591179 114.7252740  71.8232629  96.1851606
 115.2301593  72.6838536  95.0465843 118.3159844  80.9127074  99.3062754
 119.2677267  81.0125172  99.3274978 118.1463295  80.1205343  99.8160839
 116.3374224  77.9982657  99.4922155 115.7424156  78.2787670  98.7968644
 116.0523920  78.4876558 100.2638896 115.4681714  91.9505584  88.2524788
 116.4012387  91.8851146  88.4557663 115.3804927  92.7861851  87.7939320
 118.0969731  91.2671455  85.2128735 118.0183362  90.9331318  86.1064493
 118.9179398  91.7593223  85.2120208 120.7947922  84.1333194  98.4205054
 120.7624242  83.1949195  98.6064738 121.4048546  84.2117231  97.6870879
 112.6331253  83.0029247  84.4632258 113.5790358  82.8735455  84.5320676
 112.2545498  82.2643909  84.9401686 120.9442411  80.9244237  98.4663337
 120.4281459  80.1402694  98.2793266 121.8282359  80.5962954  98.6309856
 118.6053137  74.6685253  94.4259150 118.4077959  74.3600341  95.3102482
 119.2152843  75.3946892  94.5557080 126.6124472  85.1949201  97.5611091
 127.3427860  84.9334489  98.1218794 126.0031417  84.4577923  97.6013159
 124.6939769  83.3357063  98.1585542 123.9672933  83.2013028  97.5502033
 124.2787056  83.6433892  98.9642260 112.5169945  87.0546993 105.9232915
 113.4372955  87.2325592 106.1172961 112.4819528  86.1103038 105.7712614
 110.8174170  80.9279223  84.3987143 109.9105625  80.6312336  84.4749857
 111.0950151  80.6309041  83.5321429 105.5132018  84.9648028  98.5655696
 105.7318028  85.8965136  98.5843730 105.9257792  84.6056002  99.3510500
 112.4336236  75.4716113  90.5531384 111.6236964  75.1263198  90.9286630
 113.1220653  75.1623657  91.1418996 114.3626784  74.5494160  92.1755681
 114.9157823  74.9689613  92.8345704 114.5996870  73.6229908  92.2178637
 110.3859883  80.5381233 107.9558445 110.2856610  81.4875590 107.8870536
 110.1681425  80.2099472 107.0834515 109.5872955  77.7866159  84.5399122
 110.4492119  78.1121057  84.7994940 109.7723299  76.9997654  84.0272188
 117.7405591  76.6594685  91.6834345 117.1604260  77.3179489  91.3012398
 117.4741524  75.8372030  91.2721763 116.1909158  76.0599743  93.8855666
 116.6908936  76.1716277  93.0769984 116.8344765  75.7560796  94.5256474
 110.2491153  83.9678372 106.7723507 109.7658235  84.7678732 106.9787396
 110.3352092  83.9786317 105.8190951 106.7663873  86.4284023 101.3762738
 107.5856762  86.9228102 101.3997575 107.0400681  85.5115991 101.3480306
 116.5230469  78.8194775  90.7390694 115.6356324  79.1044426  90.5210888
 116.9384458  78.6588539  89.8917970 119.8745005  78.8441296  94.4545033
 120.6505395  79.3337749  94.7269650 119.1493139  79.2699351  94.9116902
 122.3117564  79.5568916  95.5118973 122.9062055  79.3164652  94.8012282
 122.3844148  78.8376046  96.1392510 115.6673683  88.5839450  84.8338713
 116.3709533  88.7889453  85.4496369 114.9436331  89.1516212  85.0987797
 116.4971493  84.3349311  90.9540984 116.4406694  84.7917863  90.1148616
 117.0499835  83.5739996  90.7763826 120.3076299  80.1239043  91.7791103
 120.0513233  79.7235679  92.6099311 119.6829167  80.8382837  91.6541242
 124.6188637  82.8635116  94.2862395 124.0588195  82.9328306  95.0593957
 124.0132140  82.6876101  93.5661891 117.5760380  89.0221979  86.8837174
 118.4105984  88.5903178  86.7014648 117.4144723  88.8503993  87.8114068
 117.2306272  85.5254093  88.2493513 117.1755076  85.3598364  87.3081957
 116.6052327  86.2330125  88.4055703 102.0198787  80.7622157 102.0754935
 102.6657651  80.2521111 102.5642160 101.8115938  81.4990839 102.6498360
 114.5452179  87.8303004 107.5747076 115.4143339  88.0043657 107.2133711
 114.0658931  88.6497421 107.4522805 110.5402398  75.0262202  87.8278831
 110.5281068  75.9704041  87.9847102 111.4325820  74.8432347  87.5338292
 108.7138360  94.9500105  99.2536509 109.6165606  94.9823716  99.5703004
 108.4875730  94.0200556  99.2682845 114.3554517  71.6204978  92.0824768
 113.5886913  71.0663465  92.2281450 114.7665222  71.6926847  92.9438920
 106.3596278  77.9089774 106.1729949 107.2227740  77.5526579 106.3833274
 105.7861689  77.5703669 106.8605354 126.2044655  99.5391630  96.9792350
 126.8423065  99.4198378  96.2755690 126.0865498 100.4872474  97.0380302
 123.0134361  99.4919058  96.9153875 122.6752873  99.3760123  96.0274410
 123.8824130  99.0910224  96.8954881 118.8721177 101.3454535  92.9050766
 118.3086042 101.2544472  92.1367054 118.7573572 100.5254439  93.3853258
 123.4954144 100.6453910 102.8740081 123.4842785 100.2506708 102.0020584
 123.6574784  99.9119983 103.4673852 116.4185609 102.8405726  95.7434986
 117.2106901 102.4996551  95.3281286 116.6582259 102.9500702  96.6637140
 124.4520736 105.0125503  88.2165231 123.8008716 105.5979583  87.8299245
 125.2465099 105.5431697  88.2760268 118.3776363 102.1014640  88.6152365
 119.1507239 101.5543627  88.4765241 118.7301762 102.9658889  88.8266827
 120.2161406 103.4291022 101.8219264 119.9251272 104.3336653 101.7065931
 120.8518390 103.4707550 102.5363334 121.1417612 100.8067870  98.4120624
 121.7381185 100.5823893  97.6977587 121.1992584 100.0652616  99.0146072
 120.7142641  98.2607306  86.2470815 120.9668161  97.7388827  85.4854278
 119.7767200  98.0973451  86.3497499 125.7585924  97.2643084  94.0545558
 126.5449013  96.8462507  93.7035975 126.0224628  98.1689176  94.2227207
 125.9296001 102.7015934  88.7534215 125.2941834 102.7750561  89.4655120
 125.5993407 103.2909533  88.0753294 131.1594351  97.2018317  94.9578537
 131.8919523  96.6317534  95.1916366 130.4033706  96.8139918  95.3985042
 120.4338930 100.1635412  88.4495190 120.3175188  99.4880315  89.1176274
 120.5441189  99.6767786  87.6327343 122.7770470  99.6245559  92.1541879
 122.4128678  99.0976180  92.8654801 123.6337586  99.2344028  91.9808365
 128.6819771  90.9139891  99.4173145 128.3503096  91.7835302  99.1934360
 128.0865384  90.5976175 100.0967176 122.4175957  94.6535459  87.1503228
 122.5850360  95.5215695  87.5173699 122.2273127  94.8162740  86.2264517
 125.1751291 103.1152437  98.8169058 124.8752014 104.0177476  98.7084865
 124.8302350 102.8484621  99.6690211 118.6263772  99.5666234  94.8505763
 117.7014269  99.4342448  95.0583454 118.8748185 100.3460454  95.3475705
 128.5748434  95.6334978  96.4966496 127.6665312  95.5650386  96.2025256
 128.5236030  96.1106923  97.3248321 122.3965178  97.1093116  88.1349895
 122.2764804  97.5550167  88.9735375 121.7017767  97.4578434  87.5763433
 115.9872583  99.2099508  95.6849552 116.1164964  99.4633987  96.5988963
 115.3070034  99.8027216  95.3654207 120.1572070 109.8796758  91.7840026
 120.0796100 110.8304583  91.8628506 119.5533714 109.5342630  92.4414952
 122.6489300  97.0524623 104.4401393 121.8722634  97.6118543 104.4304257
 123.2879863  97.5381406 104.9616263 130.4410081  93.8351416  98.2744369
 129.7984461  94.1283949  97.6284164 129.9365009  93.7204336  99.0797566
 128.0950244  97.5814589  88.9630229 129.0068101  97.8141976  88.7877926
 127.5859892  98.1651633  88.4005307 120.9035673  99.8610077 104.0019360
 121.6450357 100.3995121 103.7254183 120.1972658 100.4876365 104.1590912
 126.3791012 102.0039217 102.5991521 126.7874368 101.5621628 101.8546154
 125.6568274 101.4291845 102.8525714 122.7322082  96.9411824  99.9725078
 123.5783277  97.3651237 100.1159727 122.6720720  96.2845448 100.6663641
 126.7019827 102.5640408  96.3543810 126.0728689 102.7286122  95.6519878
 126.3145489 102.9782017  97.1254774 130.5809059 103.4994846  93.7088174
 129.8960097 103.8793747  93.1585207 130.6652908 104.1090172  94.4420122
 125.8821528  94.6016192 101.6306252 125.6382459  95.3558253 101.0940528
 126.1581458  94.9801540 102.4653499 127.8359990 101.1454805 100.3083517
 128.0476886 101.7886564  99.6317899 127.7889739 100.3117121  99.8405448
 125.4386219  93.7572625  97.2120090 124.5770698  94.0553879  97.5036827
 125.4648654  93.9743024  96.2801122 122.2547789 102.3014816  93.6193895
 122.7186134 102.5802519  92.8298518 121.9904587 101.3998260  93.4366986
 119.1471870 101.8486297  96.5573659 119.7173227 102.2773566  95.9191143
 119.7379982 101.5668882  97.2557844 121.1916675  98.4237968  90.4283460
 121.8940718  98.8759012  90.8957387 120.8597303  97.7821787  91.0563354
 119.6397036  97.0149725 104.8034670 119.0095697  97.6966006 105.0370067
 119.5333124  96.9032806 103.8587808 114.9342009  96.6821521  95.7300594
 114.1441063  96.9379049  95.2540705 115.4253256  97.4969859  95.8352634
 128.9505818 104.0226760  98.4805875 129.7723262 103.6206947  98.1988556
 128.9468221 103.9194994  99.4321991 116.8856754  97.0466100  92.6884071
 116.0887917  97.1584794  93.2067566 116.6582346  97.3852752  91.8224961
 122.7162422 103.5710803 100.6366585 122.7806854 104.0331211 101.4724757
 122.0073346 102.9408168 100.7648895 113.2179712  96.9352011  98.1615585
 113.4687750  97.8199021  98.4273161 113.7539260  96.7556613  97.3890677
 137.0411811 100.3665508  94.8290846 136.2875520  99.7972907  94.6734851
 137.1759352 100.3328173  95.7761481 122.4310439 105.2378911  90.5045566
 122.2956114 106.0830447  90.9330413 122.9720252 105.4398188  89.7411499
 118.9177779  91.3170491 107.1659921 118.5244725  90.7636689 107.8407565
 119.7343919  91.6281069 107.5566438 115.8839837 102.7554349  91.0773491
 116.3964357 103.5497599  91.2279055 116.5362550 102.0580639  91.0107092
 117.6934721 105.8720105  93.1596244 117.8701350 106.7938070  92.9717228
 118.4891555 105.5578524  93.5890624 121.8345740  92.7328370 104.7580177
 122.5755453  93.3335523 104.6784640 122.0663663  91.9906008 104.1998220
 116.9787078  97.9184737 103.0358407 116.8640593  97.0169994 103.3365506
 116.1231596  98.1648434 102.6843224 124.0578916 105.8602477 104.6345908
 123.6142770 105.0738856 104.3166812 124.7196129 106.0481628 103.9689798
 118.8166037 107.3898279  99.1606586 119.3673462 107.2615342  98.3883580
 117.9777513 107.6893168  98.8101479 126.1560154 106.1405277 102.6627309
 126.1378629 106.9614158 102.1707578 127.0780074 106.0159352 102.8877450
 122.6133208 103.6549407 103.5050817 123.1461545 102.8937695 103.2750125
 122.0847289 103.3623059 104.2474972 125.7802903  88.7609473  99.0344459
 125.4367172  89.6511114  98.9583570 126.1481866  88.5711130  98.1714044
 125.7453186  98.7518084  87.5416894 125.2299809  99.5222688  87.7805282
 125.4730494  98.0783220  88.1649956 123.3300297  93.5967785  92.6002133
 122.4741893  93.2074635  92.4207771 123.7427248  93.6759745  91.7401918
 124.8599443  91.1314128  96.9993692 124.3564239  91.0944263  96.1861498
 125.1530050  92.0406871  97.0590349 121.1042329  91.2152858  96.0059874
 121.9695326  91.0195666  95.6465764 121.1719838  90.9863209  96.9329231
 130.7187460 101.5050438  89.4770068 129.9416903 101.1661598  89.0325230
 131.3978941 101.5103062  88.8025033 125.5339489  96.6245176  89.3676675
 125.2289624  96.9391325  90.2186819 126.4869931  96.7026596  89.4104008
 123.9785921 102.7835399  91.0169629 123.4507282 102.0488159  90.7042867
 123.4773423 103.5610076  90.7709598 128.9578767 100.9784420  96.1336676
 128.3002441 101.6683681  96.2216804 129.7619166 101.3680852  96.4770662
 118.7104648  93.4455065  93.3776241 119.2848400  93.2230247  92.6449434
 119.2975631  93.5143760  94.1304842 127.7684225  99.3328792  94.1840617
 128.2816107  99.9658784  94.6862327 128.4185449  98.7329988  93.8183977
 119.0374235  95.4759527  87.3972126 118.2011548  95.8134213  87.7181401
 118.8979005  95.3408506  86.4599263 121.0127316  90.3196314  92.1051310
 120.3591728  90.0045332  91.4807925 120.9707790  89.6972055  92.8311133
 122.1238521 100.6015609  84.0204602 121.2165583 100.3704863  84.2195751
 122.6209553  99.8053229  84.2078584 125.0306600 109.3113117  86.9401289
 124.3568298 109.6144813  87.5486246 125.4172422 110.1142197  86.5906746
 124.2465056  96.8078248  96.4298958 123.3287618  97.0293195  96.2720646
 124.6625200  96.8824558  95.5710665 125.0300104  98.2069664  91.5601638
 125.7771923  98.7191061  91.2508760 125.2991694  97.8853716  92.4206032
 123.3026754 100.7028204  88.5428592 122.3937974 100.4187237  88.6401062
 123.3321838 101.1227283  87.6831899 128.5346022 104.3134794  92.3119760
 128.0808349 103.4725704  92.3684951 127.9039988 104.9496192  92.6494540
 127.4778941  95.2426780  93.5420427 126.7401698  94.7304166  93.8730670
 127.7305715  94.8027161  92.7303704 126.9778961 106.1511291  93.2469578
 127.2701935 106.7116348  92.5281944 127.4877581 106.4439852  94.0022737
 127.5790569  88.0203032  94.1362197 127.8849445  87.1600395  93.8488112
 128.3043173  88.6120652  93.9361191 121.8511648  98.3156825  94.6438388
 121.9060258  97.3630661  94.5680864 121.0402850  98.4716264  95.1279686
 123.0002842 102.2436948  85.8816671 122.5622272 101.5272807  85.4222308
 123.7413283 102.4713063  85.3201762 119.7904008  96.9333885  92.4028767
 118.9771874  97.2328055  92.8093959 120.2863002  96.5389573  93.1203249
 121.9412586 106.9291642  94.3363031 121.8988765 107.1552488  93.4071563
 122.8575285 106.6955016  94.4848833 125.3878220  97.3975709 101.2343661
 125.7427608  97.6247182 102.0938126 126.0350351  97.7294086 100.6120916
 131.1175957 100.5194145  91.9392990 130.9793855 100.7095741  91.0114179
 130.7612176 101.2813528  92.3961041 119.2818083  94.5052240  98.0190002
 119.9217462  94.3640999  97.3212965 118.4495614  94.2186754  97.6428604
 131.1445336 102.5870672  96.9504261 131.5781843 102.4945961  97.7987315
 131.8576917 102.5628173  96.3124277 120.0578387 103.8054671  94.1324994
 120.8518985 103.3104991  93.9307569 119.3470079 103.2772534  93.7692700
 124.8773231 106.1872766  98.4837362 124.9310254 106.7563702  99.2515078
 124.0088013 106.3574651  98.1191399 116.3661150  97.9497752  90.2084747
 115.4358738  97.8882208  90.4254709 116.4618622  97.4273705  89.4121388
 116.2846699  94.4752565  92.7962988 116.5453517  95.3897898  92.6872149
 117.1063872  94.0077008  92.9459601 117.7571625  95.8890322  99.9661813
 118.4294678  95.6807684  99.3174462 116.9301411  95.6912408  99.5267045
 132.0060886 102.6294373  99.4837147 132.1996776 103.5340183  99.7296421
 131.9061504 102.1701792 100.3175732 123.6597197  92.5152263 101.9827474
 123.0125112  93.2142213 101.8891950 124.4298212  92.9488407 102.3503722
 127.0675995 102.7801115 105.0578027 126.9161501 102.5511667 104.1408111
 127.0580674 103.7371717 105.0709372 123.8361331 100.3533028 100.0424294
 124.7653391 100.5044188  99.8693261 123.4152361 100.4417049  99.1872940
 122.6349663 104.3783693  97.8122831 122.4960749 104.0102477  98.6848769
 121.8464259 104.8931332  97.6406789 123.2297815 109.4792789  89.1548368
 123.4049571 109.0080832  89.9693990 122.5430603 110.1058555  89.3829628
 124.1854878 103.7565295  95.2011669 123.8504711 103.7166065  96.0969319
 123.6858824 103.0910011  94.7282079 118.1599122  99.1632925 100.7264250
 118.0218920  98.4313164 101.3275789 119.0704045  99.0741825 100.4448438
 127.1214070 101.1021330  85.4748729 126.5043240 100.3768158  85.3781781
 126.6530558 101.8630690  85.1315803 120.7881423  98.8752885 100.2147930
 121.4981041  98.2346077 100.1734548 120.7450731  99.1265780 101.1374111
 128.7768201 105.8120238 103.1354509 128.7180747 105.1279458 102.4685092
 129.1787720 106.5539228 102.6835135 119.5010357  95.8618103 102.0343569
 118.9647714  95.4108841 102.6865166 118.9127065  95.9964011 101.2914034
 117.7958900 112.6282152  95.9288228 118.0355498 113.2600676  96.6067246
 116.9528097 112.2770192  96.2153587 118.9112616  95.3206754  84.5970033
 118.0342082  95.1995555  84.2332280 119.3870369  94.5292832  84.3448922
 128.7785609 103.7759822 101.3668489 127.8912387 103.4385744 101.4894888
 129.3484160 103.0442853 101.6037254 115.2349478  94.9974110  99.1196564
 115.1507667  94.3899780  98.3846974 114.4132184  95.4883129  99.1206060
 122.3086762 108.4361274  98.3329732 122.2356933 109.2416246  98.8449036
 121.8664155 108.6353240  97.5077753 122.0976542 107.6733044  91.8432553
 121.3144064 108.2154724  91.9370778 122.7969287 108.1907024  92.2426795
 125.4073192  93.4827674  94.4866759 125.9041891  92.7297636  94.1667829
 124.6360173  93.5191990  93.9209968 133.2602949  99.1868039  96.1285050
 133.2492825 100.0692755  95.7578983 132.3920329  98.8339590  95.9339587
 124.7685446 108.3348108 100.4887891 125.4813418 108.9695573 100.4163792
 124.2775474 108.4311974  99.6727892 126.4902972 102.2399361  92.0605182
 125.5559251 102.3600823  91.8909887 126.6679641 101.3371828  91.7965192
 121.9908160  95.6245057  94.2138443 121.6205948  95.0716097  94.9019349
 122.4867253  95.0203190  93.6613443 129.8775524  98.0816680  92.5955216
 130.3435976  98.9144672  92.5215519 130.3283024  97.6161662  93.3000475
 119.8197359 106.0842552 101.3093461 120.5206819 106.7179035 101.4622856
 119.3492474 106.4257283 100.5489101 127.9451755 104.4260502  89.5941368
 128.2211599 104.3117096  90.5035242 127.0756254 104.0277986  89.5553541
 127.8492187  90.4497267  96.6346118 126.9355266  90.6801494  96.8028325
 128.2785288  90.5335711  97.4860150 127.6198645  98.6387159  99.1346012
 126.9670095  98.8863067  98.4798464 127.9979025  97.8251297  98.8008489
 124.5805819 108.6746852  93.2374182 124.7628213 107.8568508  93.7001934
 125.4038805 108.8914545  92.7999072 124.9147984 107.6015038  90.4989230
 125.4435751 107.0907492  89.8859393 125.1776204 107.2857568  91.3634764
 123.6686218  99.3806970 105.6212049 122.9926855  99.2801100 106.2914424
 124.4913852  99.2246184 106.0848046 115.4165077 105.6178907  98.2424564
 116.0018514 104.8722595  98.3752468 115.2189916 105.9282864  99.1261228
 118.2703732 108.6530154  93.2587006 117.6014108 109.1376282  92.7751046
 118.1316602 108.8999375  94.1730385 122.4109001 110.6873898  99.8569665
 122.9627309 110.8505519 100.6218750 122.7515194 111.2778336  99.1849690
 117.3873494  93.0349048 100.4591549 117.4514821  93.8963878 100.0468947
 117.3240614  92.4223049  99.7263908 116.8625767  95.1072180 104.1064584
 117.4897805  94.7249257 104.7202108 116.0053686  94.8886382 104.4720276
 127.2619875 105.5135155 105.7118319 127.8059779 106.1265114 105.2173274
 126.6806720 106.0714734 106.2285332 113.6391309  96.9148609  90.0382939
 113.9344751  96.0059288  89.9849992 112.7379345  96.8936349  89.7163941
 125.5477388 108.6355873  96.8433347 125.4228528 107.8345613  96.3344292
 126.2056479 109.1302067  96.3547317 117.1685556  94.9904606  96.0210487
 116.4472142  95.6040573  95.8817960 117.9578812  95.5262371  95.9427133
 127.6112297 106.4364893  98.4712897 126.6642632 106.3170245  98.3991224
 127.9595070 105.5487391  98.5539158 119.9711870  92.3259032 102.2951139
 120.4946272  92.5721329 103.0577448 119.7524203  93.1579067 101.8754276
 115.3679151  94.5962707  90.1622264 115.0391857  93.7160086  89.9797370
 115.7218522  94.5410376  91.0498653 124.6158730 106.2317610  94.6717249
 124.4683692 105.3034317  94.8524819 125.4412223 106.2537700  94.1874324
 118.4820974  94.8835677  90.5297741 118.8217047  95.4121598  89.8076350
 118.9293095  95.2216083  91.3056308 128.2192852 107.0546168  95.7582122
 129.1439399 106.8489030  95.6206573 128.0508155 106.8062569  96.6671464
 121.1764415  93.2672727  99.9800809 120.8361235  92.4680540 100.3821489
 120.4703421  93.5674438  99.4077643 121.8280887  90.3522040  98.4328132
 122.6506956  89.8782518  98.3107023 122.0718950  91.1312524  98.9326819
 120.4689121  93.3810298  88.7291034 121.1897484  93.7591551  88.2254751
 119.8454425  94.0999175  88.8326012 124.6120244  94.0855447  89.6649366
 124.8283859  94.9680085  89.3638195 124.1314311  93.6941661  88.9355008
 119.3519466  97.0441160  96.2420111 119.2064046  97.3581463  97.1344393
 118.8744669  97.6626061  95.6891010 121.2115848  94.0343708  96.2901001
 121.1977417  93.1384802  95.9533299 121.9288277  94.0414372  96.9239287
 123.0641979  94.4681049  98.3354128 122.8059757  95.3898119  98.3338459
 122.5327020  94.0711483  99.0254592 128.0088168 107.5731836  91.1144213
 128.1825045 107.0078258  90.3618066 128.5017059 108.3732731  90.9323703
 113.8265128  99.5846505  99.1807772 113.2818596 100.3606313  99.3128047
 114.7044478  99.9317309  99.0226894 120.6152744  92.9158089  91.5588571
 120.7368656  91.9874735  91.7579458 120.3254787  92.9296775  90.6466886
 123.4843935  90.6012999  94.6955291 123.5065632  90.6652332  93.7407270
 123.9011994  89.7617508  94.8895797 133.8627559 100.3368259  92.7334513
 134.3058705  99.5875584  92.3353636 132.9854069 100.3278395  92.3508245
 128.9963340 106.8898600  88.2141112 129.6914245 107.5105293  88.4328426
 129.3386491 106.0393951  88.4893490 114.6131150  98.7116401 102.0737929
 113.8712886  98.8599036 102.6602560 114.2923894  98.9724667 101.2104679
 130.8954764 104.3398306  89.7428443 131.4206088 104.6785578  89.0177763
 130.8077116 103.4045321  89.5591577 122.5574812 108.2532379 101.8718319
 122.8661939 108.0081526 102.7441019 123.3550294 108.4579018 101.3837189
 122.5795424 110.4070289  94.1023696 122.1400415 109.9146668  94.7956552
 123.3303541 109.8643257  93.8615771 115.0587763 106.5981830  94.1048324
 115.8845783 106.2985602  93.7246967 114.7081815 105.8289452  94.5538112
 120.0269296 105.9508298  96.1745997 119.4049306 105.2879003  95.8748225
 120.6974163 105.9769430  95.4919645 113.2596368 104.5168156  95.0637257
 112.4228277 104.0890331  94.8821259 113.2320014 104.7100600  96.0008049
 120.0993824  94.4290086 105.7678503 120.1481979  95.3052209 105.3856273
 120.6416338  93.8867479 105.1950147 130.5848670 104.9731209 105.0479640
 129.7944213 104.9555348 104.5084140 130.3482024 105.5119503 105.8028677
 130.7046545 101.8223676 102.3612369 130.7544550 101.6573683 103.3027892
 130.5960468 100.9550935 101.9710250 119.5882803 104.5012221  89.6504458
 119.7370924 105.1847686  88.9971131 120.3949247 104.4817311  90.1653914
 127.9950307  97.8054604 103.6771676 128.8960170  97.6661069 103.3855674
 128.0698282  97.9709059 104.6169853 122.3293112  95.1821458 102.5224862
 121.4596422  95.4755025 102.2507451 122.5652593  95.7661903 103.2432126
 132.2064741 104.2420617 102.6054391 131.9149550 104.6050598 103.4417852
 131.5936873 103.5287625 102.4267723 133.4060424 101.8073497  95.1256961
 134.2407315 102.2463301  95.2894521 133.5419553 101.3312150  94.3065207
 130.4551930  99.3653232 101.0734449 130.9306051  99.5580878 100.2653300
 129.5317495  99.4212418 100.8277832 117.3435436 100.5277399  90.6565527
 117.0981478  99.6239729  90.8545737 117.5131351 100.5294549  89.7145005
 125.0332146  91.4001075 100.0390282 125.5514090  92.1362102  99.7136771
 124.6787279  91.7065069 100.8737042 116.6131084  96.2605757  88.1551688
 115.9200329  96.3350112  87.4991724 116.3682836  95.4966100  88.6773205
 125.2844740  87.8201358  95.5591179 125.5646494  87.1524547  96.1851606
 126.0695347  88.0130454  95.0465843 123.0878209 106.9960352  87.1216205
 122.5152176 107.6150539  86.6686677 123.6611003 107.5459714  87.6556127
 129.1553599  96.2418992  99.3062754 130.1071022  96.3417090  99.3274978
 128.9857049  95.4497260  99.8160839 127.1767978  93.3274575  99.4922155
 126.5817910  93.6079588  98.7968644 126.8917675  93.8168476 100.2638896
 126.3075469 107.2797502  88.2524788 127.2406142 107.2143064  88.4557663
 126.2198681 108.1153769  87.7939320 128.9363485 106.5963372  85.2128735
 128.8577117 106.2623236  86.1064493 129.7573152 107.0885140  85.2120208
 131.6341677  99.4625112  98.4205054 131.6017997  98.5241112  98.6064738
 132.2442300  99.5409148  97.6870879 123.4725007  98.3321165  84.4632258
 124.4184112  98.2027373  84.5320676 123.0939252  97.5935826  84.9401686
 131.7836165  96.2536155  98.4663337 131.2675214  95.4694612  98.2793266
 132.6676114  95.9254872  98.6309856 129.4446892  89.9977171  94.4259150
 129.2471713  89.6892259  95.3102482 130.0546598  90.7238810  94.5557080
 135.5333523  98.6648981  98.1585542 134.8066687  98.5304946  97.5502033
 135.1180810  98.9725810  98.9642260 123.3563700 102.3838911 105.9232915
 124.2766709 102.5617510 106.1172961 123.3213283 101.4394956 105.7712614
 121.6567925  96.2571141  84.3987143 120.7499380  95.9604254  84.4749857
 121.9343906  95.9600959  83.5321429 116.3525772 100.2939945  98.5655696
 116.5711782 101.2257053  98.5843730 116.7651546  99.9347920  99.3510500
 123.2729990  90.8008031  90.5531384 122.4630719  90.4555116  90.9286630
 123.9614407  90.4915574  91.1418996 125.2020539  89.8786077  92.1755681
 125.7551577  90.2981531  92.8345704 125.4390625  88.9521826  92.2178637
 121.2253638  95.8673151 107.9558445 121.1250365  96.8167508 107.8870536
 121.0075180  95.5391390 107.0834515 120.4266709  93.1158076  84.5399122
 121.2885873  93.4412975  84.7994940 120.6117053  92.3289572  84.0272188
 112.4434125 101.1980416  96.8179311 111.7497596 100.7834369  96.3049265
 113.1907116 101.2400952  96.2212730 128.5799346  91.9886603  91.6834345
 127.9998015  92.6471407  91.3012398 128.3135278  91.1663947  91.2721763
 127.0302912  91.3891660  93.8855666 127.5302690  91.5008195  93.0769984
 127.6738520  91.0852713  94.5256474 121.0884908  99.2970290 106.7723507
 120.6051990 100.0970650 106.9787396 121.1745847  99.3078235 105.8190951
 114.3570867 101.1298670  94.6945326 114.3341556 101.2286357  93.7427209
 114.6671504 101.9763820  95.0162492 117.0158245 103.1874825  98.8091940
 117.9701499 103.1558767  98.7421872 116.8170769 102.7265448  99.6242166
 117.6057627 101.7575941 101.3762738 118.4250516 102.2520019 101.3997575
 117.8794435 100.8407909 101.3480306 127.3624224  94.1486693  90.7390694
 126.4750079  94.4336344  90.5210888 127.7778213  93.9880456  89.8917970
 130.7138760  94.1733214  94.4545033 131.4899150  94.6629666  94.7269650
 129.9886894  94.5991268  94.9116902 133.1511318  94.8860833  95.5118973
 133.7455809  94.6456569  94.8012282 133.2237902  94.1667964  96.1392510
 115.3708474 108.7294444  95.8262138 115.2362942 107.9694845  95.2600136
 114.9540536 109.4535344  95.3590927 126.5067437 103.9131368  84.8338713
 127.2103287 104.1181370  85.4496369 125.7830086 104.4808130  85.0987797
 127.3365247  99.6641229  90.9540984 127.2800449 100.1209780  90.1148616
 127.8893590  98.9031914  90.7763826 131.1470053  95.4530961  91.7791103
 130.8906988  95.0527597  92.6099311 130.5222921  96.1674755  91.6541242
 135.4582391  98.1927034  94.2862395 134.8981949  98.2620223  95.0593957
 134.8525895  98.0168019  93.5661891 118.5277600 109.6263761  96.0380581
 118.4109984 110.5709194  95.9359271 117.7070046 109.3237323  96.4266380
 128.4154135 104.3513897  86.8837174 129.2499738 103.9195095  86.7014648
 128.2538477 104.1795911  87.8114068 128.0700027 100.8546010  88.2493513
 128.0148831 100.6890282  87.3081957 127.4446082 101.5622043  88.4055703
 112.8592542  96.0914075 102.0754935 113.5051405  95.5813029 102.5642160
 112.6509693  96.8282756 102.6498360 125.3845934 103.1594922 107.5747076
 126.2537094 103.3335574 107.2133711 124.9052685 103.9789339 107.4522805
 121.3796152  90.3554119  87.8278831 121.3674822  91.2995959  87.9847102
 122.2719574  90.1724265  87.5338292 119.5532114 110.2792023  99.2536509
 120.4559361 110.3115633  99.5703004 119.3269484 109.3492474  99.2682845
 121.3085716 109.0323010  95.9146588 120.3581347 109.0324871  95.8010960
 121.6118202 108.2855744  95.3982623 125.1948272  86.9496896  92.0824768
 124.4280667  86.3955383  92.2281450 125.6058977  87.0218765  92.9438920
 117.1990033  93.2381692 106.1729949 118.0621494  92.8818497 106.3833274
 116.6255443  92.8995586 106.8605354 133.8528116 114.8210976  96.9153875
 133.5146627 114.7052041  96.0274410 134.7217884 114.4202141  96.8954881
 129.7114932 116.6746453  92.9050766 129.1479797 116.5836389  92.1367054
 129.5967327 115.8546357  93.3853258 127.2579364 118.1697644  95.7434986
 128.0500655 117.8288469  95.3281286 127.4976014 118.2792619  96.6637140
 129.2170117 117.4306557  88.6152365 129.9900993 116.8835544  88.4765241
 129.5695516 118.2950807  88.8266827 131.9811367 116.1359788  98.4120624
 132.5774939 115.9115811  97.6977587 132.0386338 115.3944534  99.0146072
 131.5536395 113.5899224  86.2470815 131.8061916 113.0680745  85.4854278
 130.6160954 113.4265369  86.3497499 136.5979678 112.5935002  94.0545558
 137.3842767 112.1754425  93.7035975 136.8618382 113.4981094  94.2227207
 131.2732684 115.4927329  88.4495190 131.1568942 114.8172233  89.1176274
 131.3834944 115.0059703  87.6327343 133.6164225 114.9537477  92.1541879
 133.2522432 114.4268098  92.8654801 134.4731341 114.5635946  91.9808365
 133.2569712 109.9827376  87.1503228 133.4244114 110.8507613  87.5173699
 133.0666881 110.1454658  86.2264517 129.4657527 114.8958152  94.8505763
 128.5408023 114.7634366  95.0583454 129.7141940 115.6752371  95.3475705
 133.2358933 112.4385034  88.1349895 133.1158558 112.8842085  88.9735375
 132.5411521 112.7870351  87.5763433 126.8266338 114.5391426  95.6849552
 126.9558719 114.7925904  96.5988963 126.1463789 115.1319134  95.3654207
 133.5715837 112.2703742  99.9725078 134.4177032 112.6943155 100.1159727
 133.5114474 111.6137366 100.6663641 136.2779974 109.0864543  97.2120090
 135.4164453 109.3845796  97.5036827 136.3042408 109.3034942  96.2801122
 133.0941543 117.6306733  93.6193895 133.5579889 117.9094436  92.8298518
 132.8298341 116.7290178  93.4366986 129.9865624 117.1778215  96.5573659
 130.5566981 117.6065483  95.9191143 130.5773736 116.8960800  97.2557844
 132.0310429 113.7529886  90.4283460 132.7334473 114.2050930  90.8957387
 131.6991058 113.1113705  91.0563354 125.7735763 112.0113439  95.7300594
 124.9834817 112.2670967  95.2540705 126.2647011 112.8261776  95.8352634
 127.7250509 112.3758018  92.6884071 126.9281672 112.4876712  93.2067566
 127.4976101 112.7144670  91.8224961 124.0573466 112.2643929  98.1615585
 124.3081505 113.1490939  98.4273161 124.5933015 112.0848530  97.3890677
 126.7233591 118.0846267  91.0773491 127.2358112 118.8789517  91.2279055
 127.3756304 117.3872557  91.0107092 128.5328476 121.2012023  93.1596244
 128.7095104 122.1229987  92.9717228 129.3285309 120.8870442  93.5890624
 127.8180832 113.2476655 103.0358407 127.7034348 112.3461912 103.3365506
 126.9625350 113.4940351 102.6843224 136.6196657 104.0901390  99.0344459
 136.2760927 104.9803032  98.9583570 136.9875620 103.9003048  98.1714044
 124.6882508 116.4134921  91.8533061 125.5257730 116.8231929  91.6366769
 124.8660776 115.4734363  91.8233255 136.5846940 114.0810001  87.5416894
 136.0693564 114.8514606  87.7805282 136.3124249 113.4075138  88.1649956
 134.1694051 108.9259702  92.6002133 133.3135647 108.5366553  92.4207771
 134.5821003 109.0051663  91.7401918 135.6993198 106.4606046  96.9993692
 135.1957993 106.4236181  96.1861498 135.9923805 107.3698788  97.0590349
 131.9436084 106.5444775  96.0059874 132.8089080 106.3487584  95.6465764
 132.0113593 106.3155127  96.9329231 136.3733243 111.9537094  89.3676675
 136.0683379 112.2683243  90.2186819 137.3263685 112.0318513  89.4104008
 134.8179675 118.1127317  91.0169629 134.2901037 117.3780076  90.7042867
 134.3167178 118.8901993  90.7709598 129.5498403 108.7746983  93.3776241
 130.1242155 108.5522165  92.6449434 130.1369385 108.8435678  94.1304842
 129.8767990 110.8051444  87.3972126 129.0405302 111.1426131  87.7181401
 129.7372760 110.6700424  86.4599263 131.8521070 105.6488232  92.1051310
 131.1985483 105.3337249  91.4807925 131.8101545 105.0263973  92.8311133
 132.9632275 115.9307527  84.0204602 132.0559337 115.6996781  84.2195751
 133.4603307 115.1345146  84.2078584 135.0858811 112.1370166  96.4298958
 134.1681372 112.3585113  96.2720646 135.5018954 112.2116476  95.5710665
 135.8693859 113.5361581  91.5601638 136.6165678 114.0482978  91.2508760
 136.1385448 113.2145634  92.4206032 134.1420509 116.0320122  88.5428592
 133.2331728 115.7479155  88.6401062 134.1715593 116.4519201  87.6831899
 124.7108679 113.7525636  92.5243795 124.5133079 113.1594997  91.7994861
 124.1555343 113.4477846  93.2419733 132.6905403 113.6448743  94.6438388
 132.7454013 112.6922579  94.5680864 131.8796605 113.8008182  95.1279686
 133.8396597 117.5728866  85.8816671 133.4016026 116.8564725  85.4222308
 134.5807037 117.8004980  85.3201762 130.6297763 112.2625802  92.4028767
 129.8165628 112.5619973  92.8093959 131.1256757 111.8681491  93.1203249
 130.1211837 109.8344158  98.0190002 130.7611217 109.6932917  97.3212965
 129.2889368 109.5478671  97.6428604 130.8972141 119.1346588  94.1324994
 131.6912740 118.6396908  93.9307569 130.1863834 118.6064451  93.7692700
 127.2054905 113.2789670  90.2084747 126.2752493 113.2174126  90.4254709
 127.3012377 112.7565623  89.4121388 127.1240454 109.8044483  92.7962988
 127.3847271 110.7189816  92.6872149 127.9457626 109.3368925  92.9459601
 128.5965379 111.2182240  99.9661813 129.2688433 111.0099602  99.3174462
 127.7695166 111.0204326  99.5267045 134.4990951 107.8444181 101.9827474
 133.8518866 108.5434131 101.8891950 135.2691967 108.2780325 102.3503722
 135.0248633 119.0857213  95.2011669 134.6898465 119.0457983  96.0969319
 134.5252578 118.4201929  94.7282079 128.9992876 114.4924843 100.7264250
 128.8612674 113.7605082 101.3275789 129.9097800 114.4033743 100.4448438
 131.6275177 114.2044802 100.2147930 132.3374796 113.5637995 100.1734548
 131.5844485 114.4557697 101.1374111 130.3404111 111.1910020 102.0343569
 129.8041468 110.7400759 102.6865166 129.7520820 111.3255929 101.2914034
 129.7506370 110.6498672  84.5970033 128.8735836 110.5287472  84.2332280
 130.2264123 109.8584750  84.3448922 121.2708510 115.4375831  94.6911540
 121.9579550 115.1237561  94.1032555 121.1156639 116.3417196  94.4178791
 126.0743232 110.3266028  99.1196564 125.9901421 109.7191697  98.3846974
 125.2525939 110.8175046  99.1206060 136.2466946 108.8119591  94.4866759
 136.7435646 108.0589554  94.1667829 135.4753928 108.8483908  93.9209968
 137.3296727 117.5691279  92.0605182 136.3953006 117.6892741  91.8909887
 137.5073395 116.6663745  91.7965192 132.8301915 110.9536974  94.2138443
 132.4599703 110.4008015  94.9019349 133.3261007 110.3495108  93.6613443
 126.2558832 120.9470824  98.2424564 126.8412268 120.2014512  98.3752468
 126.0583670 121.2574781  99.1261228 120.8476486 113.5176425  96.9629007
 120.8860586 112.9840015  97.7566125 120.3416779 112.9911630  96.3439984
 128.2267249 108.3640965 100.4591549 128.2908575 109.2255796 100.0468947
 128.1634369 107.7514967  99.7263908 127.7019521 110.4364098 104.1064584
 128.3291560 110.0541175 104.7202108 126.8447440 110.2178300 104.4720276
 124.4785064 112.2440527  90.0382939 124.7738505 111.3351205  89.9849992
 123.5773100 112.2228266  89.7163941 128.0079311 110.3196523  96.0210487
 127.2865897 110.9332491  95.8817960 128.7972567 110.8554288  95.9427133
 130.8105624 107.6550950 102.2951139 131.3340026 107.9013246 103.0577448
 130.5917958 108.4870985 101.8754276 126.2072906 109.9254625  90.1622264
 125.8785612 109.0452003  89.9797370 126.5612276 109.8702293  91.0498653
 129.3214729 110.2127594  90.5297741 129.6610801 110.7413516  89.8076350
 129.7686849 110.5508000  91.3056308 132.0158169 108.5964645  99.9800809
 131.6754990 107.7972458 100.3821489 131.3097176 108.8966356  99.4077643
 132.6674641 105.6813957  98.4328132 133.4900711 105.2074436  98.3107023
 132.9112705 106.4604441  98.9326819 131.3082876 108.7102216  88.7291034
 132.0291238 109.0883469  88.2254751 130.6848180 109.4291093  88.8326012
 135.4513999 109.4147365  89.6649366 135.6677613 110.2972003  89.3638195
 134.9708066 109.0233578  88.9355008 130.1913220 112.3733078  96.2420111
 130.0457801 112.6873381  97.1344393 129.7138424 112.9917978  95.6891010
 132.0509603 109.3635626  96.2901001 132.0371172 108.4676719  95.9533299
 132.7682031 109.3706290  96.9239287 133.9035734 109.7972966  98.3354128
 133.6453511 110.7190037  98.3338459 133.3720774 109.4003401  99.0254592
 124.6658882 114.9138422  99.1807772 124.1212350 115.6898230  99.3128047
 125.5438232 115.2609227  99.0226894 131.4546499 108.2450006  91.5588571
 131.5762410 107.3166653  91.7579458 131.1648541 108.2588692  90.6466886
 134.3237689 105.9304917  94.6955291 134.3459386 105.9944250  93.7407270
 134.7405748 105.0909425  94.8895797 125.4524904 114.0408319 102.0737929
 124.7106640 114.1890954 102.6602560 125.1317648 114.3016584 101.2104679
 125.8981518 121.9273747  94.1048324 126.7239538 121.6277519  93.7246967
 125.5475570 121.1581370  94.5538112 130.8663051 121.2800216  96.1745997
 130.2443060 120.6170921  95.8748225 131.5367918 121.3061348  95.4919645
 124.0990123 119.8460074  95.0637257 123.2622031 119.4182248  94.8821259
 124.0713768 120.0392517  96.0008049 130.4276558 119.8304139  89.6504458
 130.5764678 120.5139603  88.9971131 131.2343001 119.8109229  90.1653914
 128.1829191 115.8569317  90.6565527 127.9375233 114.9531647  90.8545737
 128.3525105 115.8586467  89.7145005 135.8725901 106.7292993 100.0390282
 136.3907845 107.4654020  99.7136771 135.5181033 107.0356986 100.8737042
 127.4524838 111.5897674  88.1551688 126.7594083 111.6642029  87.4991724
 127.2076590 110.8258018  88.6773205 136.1238495 103.1493276  95.5591179
 136.4040249 102.4816465  96.1851606 136.9089102 103.3422371  95.0465843
 134.3118762 113.6613082  84.4632258 135.2577867 113.5319290  84.5320676
 133.9333007 112.9227744  84.9401686 132.4961679 111.5863059  84.3987143
 131.5893134 111.2896171  84.4749857 132.7737660 111.2892877  83.5321429
 123.4139619 112.9069422  94.8486189 123.0942404 112.0534730  94.5560563
 122.8673048 113.1218000  95.6044157 127.1919527 115.6231863  98.5655696
 127.4105537 116.5548971  98.5843730 127.6045301 115.2639837  99.3510500
 134.1123745 106.1299948  90.5531384 133.3024473 105.7847033  90.9286630
 134.8008162 105.8207492  91.1418996 136.0414293 105.2077995  92.1755681
 136.5945332 105.6273449  92.8345704 136.2784379 104.2813743  92.2178637
 131.2660464 108.4449994  84.5399122 132.1279628 108.7704892  84.7994940
 131.4510808 107.6581490  84.0272188 123.2827879 116.5272334  96.8179311
 122.5891351 116.1126286  96.3049265 124.0300870 116.5692870  96.2212730
 125.1964622 116.4590587  94.6945326 125.1735310 116.5578275  93.7427209
 125.5065258 117.3055738  95.0162492 127.8552000 118.5166742  98.8091940
 128.8095253 118.4850685  98.7421872 127.6564523 118.0557366  99.6242166
 126.2102229 124.0586362  95.8262138 126.0756697 123.2986763  95.2600136
 125.7934291 124.7827262  95.3590927 123.6986296 111.4205992 102.0754935
 124.3445160 110.9104946 102.5642160 123.4903447 112.1574674 102.6498360
 132.2189907 105.6846037  87.8278831 132.2068576 106.6287877  87.9847102
 133.1113329 105.5016182  87.5338292 136.0342026 102.2788814  92.0824768
 135.2674422 101.7247300  92.2281450 136.4452731 102.3510682  92.9438920
  55.1209545  -5.0892626  78.5085333  55.0433574  -4.1384801  78.5873813
  54.5171188  -5.4346753  79.1660259  53.7803511  -7.5791105  85.8851893
  54.3310936  -7.7074041  85.1128887  52.9414987  -7.2796216  85.5346786
  59.9944074  -5.6576267  73.6646595  59.3205773  -5.3544570  74.2731553
  60.3809896  -4.8547186  73.3152052  58.1935289  -5.4896594  75.8793674
  58.3687045  -5.9608551  76.6939297  57.5068077  -4.8630828  76.1074935
  52.7596374  -2.3407232  82.6533535  52.9992973  -1.7088707  83.3312553
  51.9165571  -2.6919192  82.9398894  57.2724236  -6.5328109  85.0575039
  57.1994408  -5.7273138  85.5694343  56.8301629  -6.3336143  84.2323060
  57.0614016  -7.2956339  78.5677860  56.2781538  -6.7534659  78.6616085
  57.7606761  -6.7782360  78.9672101  59.7322920  -6.6341275  87.2133197
  60.4450892  -5.9993810  87.1409099  59.2412948  -6.5377409  86.3973199
  50.3802551  -9.3510477  84.9669871  50.9655988 -10.0966789  85.0997775
  50.1827390  -9.0406520  85.8506535  53.2341207  -6.3159229  79.9832313
  52.5651582  -5.8313102  79.4996353  53.0954076  -6.0690009  80.8975692
  57.3746475  -4.2815486  86.5814971  57.9264783  -4.1183864  87.3464057
  57.7152669  -3.6911048  85.9094996  57.5212287  -6.7157004  88.5963626
  57.8299413  -6.9607857  89.4686325  58.3187769  -6.5110366  88.1082496
  57.5432899  -4.5619095  80.8269002  57.1037889  -5.0542716  81.5201859
  58.2941016  -5.1046127  80.5861078  50.0225238  -8.3707554  80.8293630
  50.8483258  -8.6703782  80.4492274  49.6719290  -9.1399931  81.2783419
  48.2233843 -10.4521227  81.7882564  47.3865751 -10.8799053  81.6066565
  48.1957488 -10.2588784  82.7253355  50.3345948  -6.2394939  82.5507445
  50.2000416  -6.9994538  81.9845443  49.9178011  -5.5154039  82.0836234
  53.4915074  -5.3425622  82.7625888  53.3747458  -4.3980190  82.6604578
  52.6707521  -5.6452061  83.1511687  54.5169588  -4.6897360  85.9781816
  55.4196835  -4.6573750  86.2948311  54.2906958  -5.6196909  85.9928152
  56.2723190  -5.9366374  82.6391895  55.3218821  -5.9364512  82.5256267
  56.5755677  -6.6833639  82.1227929  72.0075884  -0.1005835  83.7037657
  72.6454294  -0.2199088  83.0000997  71.8896727   0.8475009  83.7625609
  68.8165590  -0.1478407  83.6399182  68.4784102  -0.2637343  82.7519717
  69.6855358  -0.5487242  83.6200188  64.6752406   1.7057069  79.6296073
  64.1117271   1.6147006  78.8612360  64.5604801   0.8856974  80.1098565
  69.2985373   1.0056444  89.5985387  69.2874014   0.6109243  88.7265891
  69.4606013   0.2722517  90.1919159  62.2216838   3.2008261  82.4680293
  63.0138130   2.8599085  82.0526592  62.4613488   3.3103236  83.3882446
  70.2551965   5.3728037  74.9410537  69.6039944   5.9582117  74.5544551
  71.0496327   5.9034232  75.0005575  64.1807592   2.4617174  75.3397672
  64.9538468   1.9146161  75.2010548  64.5332991   3.3261423  75.5512133
  66.0192634   3.7893556  88.5464571  65.7282500   4.6939187  88.4311237
  66.6549619   3.8310084  89.2608641  66.9448841   1.1670405  85.1365931
  67.5412413   0.9426427  84.4222894  67.0023813   0.4255150  85.7391379
  66.5173870  -1.3790160  72.9716122  66.7699390  -1.9008639  72.2099585
  65.5798429  -1.5424015  73.0742805  71.7327230   3.0618469  75.4779522
  71.0973063   3.1353095  76.1900426  71.4024636   3.6512068  74.7998601
  66.2370158   0.5237946  75.1740497  66.1206416  -0.1517151  75.8421581
  66.3472418   0.0370320  74.3572650  68.5801699  -0.0151907  78.8787186
  68.2159906  -0.5421286  79.5900107  69.4368815  -0.4053438  78.7053671
  70.9782519   3.4754972  85.5414365  70.6783243   4.3780011  85.4330172
  70.6333579   3.2087155  86.3935518  64.4295001  -0.0731231  81.5751069
  63.5045497  -0.2055017  81.7828761  64.6779414   0.7062988  82.0721012
  68.1996407  -2.5304350  74.8595201  68.0796032  -2.0847299  75.6980682
  67.5048996  -2.1819032  74.3008739  61.7903812  -0.4297958  82.4094858
  61.9196193  -0.1763479  83.3234270  61.1101263   0.1629750  82.0899513
  65.9603299  10.2399292  78.5085333  65.8827329  11.1907117  78.5873813
  65.3564943   9.8945165  79.1660259  68.4520529  -2.5872843  91.1646699
  67.6753863  -2.0278922  91.1549564  69.0911092  -2.1016060  91.6861570
  66.7066901   0.2212611  90.7264666  67.4481586   0.7597655  90.4499490
  66.0003887   0.8478900  90.8836218  72.1822241   2.3641751  89.3236828
  72.5905597   1.9224162  88.5791460  71.4599502   1.7894379  89.5771021
  68.5353311  -2.6985642  86.6970385  69.3814506  -2.2746228  86.8405034
  68.4751949  -3.3552018  87.3908948  72.5051056   2.9242942  83.0789117
  71.8759918   3.0888656  82.3765185  72.1176718   3.3384551  83.8500081
  76.3840287   3.8597380  80.4333481  75.6991326   4.2396281  79.8830514
  76.4684137   4.4692706  81.1665428  73.6391219   1.5057339  87.0328824
  73.8508114   2.1489099  86.3563205  73.5920967   0.6719655  86.5650754
  68.0579017   2.6617350  80.3439202  68.5217363   2.9405053  79.5543824
  67.7935816   1.7600795  80.1612293  64.9503099   2.2088832  83.2818965
  65.5204456   2.6376100  82.6436450  65.5411210   1.9271416  83.9803151
  66.9947904  -1.2159498  77.1528767  67.6971947  -0.7638454  77.6202693
  66.6628532  -1.8575679  77.7808660  65.4428265  -2.6247741  91.5279976
  64.8126926  -1.9431460  91.7615373  65.3364353  -2.7364659  90.5833115
  60.7373237  -2.9575945  82.4545901  59.9472291  -2.7018416  81.9786011
  61.2284485  -2.1427607  82.5597941  74.7537047   4.3829294  85.2051181
  75.5754491   3.9809482  84.9233863  74.7499450   4.2797528  86.1567297
  62.6887983  -2.5931366  79.4129377  61.8919146  -2.4812671  79.9312873
  62.4613575  -2.2544713  78.5470268  68.5193650   3.9313338  87.3611892
  68.5838083   4.3933745  88.1970064  67.8104574   3.3010702  87.4894202
  59.0210940  -2.7045455  84.8860891  59.2718979  -1.8198445  85.1518467
  59.5570489  -2.8840853  84.1135983  68.2341668   5.5981445  77.2290872
  68.0987343   6.4432981  77.6575720  68.7751481   5.8000723  76.4656806
  61.6871066   3.1156883  77.8018797  62.1995586   3.9100133  77.9524362
  62.3393778   2.4183173  77.7352399  63.4965950   6.2322639  79.8841551
  63.6732579   7.1540604  79.6962534  64.2922784   5.9181059  80.3135930
  62.7818307  -1.7212729  89.7603714  62.6671822  -2.6227472  90.0610813
  61.9262825  -1.4749032  89.4088530  69.8610145   6.2205012  91.3591214
  69.4173999   5.4341390  91.0412119  70.5227358   6.4084162  90.6935105
  64.6197266   7.7500813  85.8851893  65.1704691   7.6217876  85.1128887
  63.7808742   8.0495702  85.5346786  71.9591383   6.5007811  89.3872616
  71.9409858   7.3216692  88.8952885  72.8811303   6.3761887  89.6122757
  68.4164437   4.0151941  90.2296124  68.9492774   3.2540229  89.9995432
  67.8878518   3.7225593  90.9720278  59.6519982   1.4445537  78.5778368
  60.4895204   1.8542546  78.3612076  59.8298250   0.5044980  78.5478562
  71.5484414  -0.8879382  74.2662201  71.0331038  -0.1174777  74.5050588
  71.2761723  -1.5614246  74.8895262  76.5218689   1.8652973  76.2015374
  75.7448131   1.5264132  75.7570536  77.2010170   1.8705596  75.5270339
  69.7817149   3.1437933  77.7414936  69.2538511   2.4090693  77.4288173
  69.2804652   3.9212610  77.4954904  74.7609995   1.3386954  82.8581982
  74.1033670   2.0286215  82.9462111  75.5650395   1.7283386  83.2015969
  73.5715454  -0.3068673  80.9085924  74.0847336   0.3261318  81.4107634
  74.2216678  -0.9067478  80.5429284  64.8405464  -4.1637939  74.1217433
  64.0042776  -3.8263253  74.4426708  64.7010234  -4.2988959  73.1844570
  67.9269750   0.9618144  70.7449909  67.0196811   0.7307397  70.9441058
  68.4240782   0.1655763  70.9323891  70.8337829   9.6715651  73.6646595
  70.1599527   9.9747348  74.2731553  71.2203650  10.4744731  73.3152052
  70.0496285  -2.8319218  83.1544265  69.1318847  -2.6104271  82.9965953
  70.4656429  -2.7572907  82.2955972  70.8331333  -1.4327802  78.2846945
  71.5803152  -0.9206405  77.9754067  71.1022922  -1.7543749  79.1451338
  69.1057983   1.0630739  75.2673899  68.1969202   0.7789771  75.3646369
  69.1353067   1.4829817  74.4077206  74.3377250   4.6737328  79.0365067
  73.8839578   3.8328238  79.0930257  73.7071217   5.3098726  79.3739847
  72.7810190   6.5113825  79.9714885  73.0733164   7.0718882  79.2527250
  73.2908810   6.8042386  80.7268044  59.6746153  -1.2163747  79.2489101
  59.4770553  -1.8094387  78.5240168  59.1192817  -1.5211537  79.9665040
  67.6542877  -1.3240641  81.3683694  67.7091487  -2.2766804  81.2926171
  66.8434079  -1.1681202  81.8524993  68.8034071   2.6039482  72.6061978
  68.3653501   1.8875341  72.1467615  69.5444512   2.8315597  72.0447069
  65.5935237  -2.7063581  79.1274073  64.7803103  -2.4069411  79.5339265
  66.0894231  -3.1007892  79.8448556  67.7443815   7.2894176  81.0608338
  67.7019994   7.5155022  80.1316870  68.6606514   7.0557550  81.2094139
  71.1909449  -2.2421757  87.9588967  71.5458836  -2.0150284  88.8183433
  71.8381580  -1.9103380  87.3366223  76.9207186   0.8796679  78.6638296
  76.7825084   1.0698275  77.7359485  76.5643404   1.6416062  79.1206347
  76.9476565   2.9473206  83.6749568  77.3813072   2.8548495  84.5232622
  77.6608146   2.9230707  83.0369584  65.8609616   4.1657205  80.8570301
  66.6550214   3.6707525  80.6552876  65.1501308   3.6375068  80.4938006
  70.6804460   6.5475300  85.2082668  70.7341482   7.1166237  85.9760384
  69.8119242   6.7177185  84.8436705  62.1692379  -1.6899713  76.9330053
  61.2389967  -1.7515258  77.1500016  62.2649851  -2.2123761  76.1366695
  62.0877928  -5.1644901  79.5208295  62.3484746  -4.2499567  79.4117456
  62.9095101  -5.6320458  79.6704908  63.5602854  -3.7507143  86.6907120
  64.2325907  -3.9589781  86.0419769  62.7332640  -3.9485057  86.2512352
  77.8092115   2.9896907  86.2082453  78.0028005   3.8942717  86.4541728
  77.7092733   2.5304326  87.0421038  72.8707223   3.1403650  91.7823334
  72.7192730   2.9114201  90.8653417  72.8611903   4.0974251  91.7954679
  69.6392560   0.7135562  86.7669600  70.5684620   0.8646722  86.5938568
  69.2183590   0.8019583  85.9118247  68.4380892   4.7386227  84.5368138
  68.2991977   4.3705011  85.4094076  67.6495488   5.2533866  84.3652096
  69.0329044   9.8395323  75.8793674  69.2080799   9.3683366  76.6939297
  68.3461832  10.4661089  76.1074935  69.9886107   4.1167830  81.9256976
  69.6535939   4.0768599  82.8214626  69.4890053   3.4512545  81.4527386
  63.9630351  -0.4764540  87.4509557  63.8250149  -1.2084302  88.0521096
  64.8735274  -0.5655640  87.1693745  72.9245298   1.4623864  72.1994035
  72.3074469   0.7370692  72.1027088  72.4561787   2.2233224  71.8561110
  66.5912651  -0.7644581  86.9393236  67.3012270  -1.4051389  86.8979855
  66.5481960  -0.5131686  87.8619417  74.5799430   6.1722772  89.8599816
  74.5211976   5.4881992  89.1930399  74.9818949   6.9141762  89.4080442
  65.3041585  -3.7779363  88.7588876  64.7678942  -4.2288625  89.4110472
  64.7158294  -3.6433454  88.0159340  63.5990129  12.9884686  82.6533535
  63.8386727  13.6203210  83.3312553  62.7559325  12.6372726  82.9398894
  64.7143844  -4.3190712  71.3215340  63.8373311  -4.4401911  70.9577586
  65.1901597  -5.1104634  71.0694228  74.5816837   4.1362356  88.0913795
  73.6943616   3.7988278  88.2140194  75.1515388   3.4045387  88.3282561
  56.2345985   0.4686448  81.4156847  56.9217024   0.1548178  80.8277862
  56.0794113   1.3727813  81.1424098  61.0380707  -4.6423356  85.8441870
  60.9538895  -5.2497686  85.1092280  60.2163413  -4.1514337  85.8451367
  68.1117991   8.7963808  85.0575039  68.0388162   9.6018780  85.5694343
  67.6695384   8.9955774  84.2323060  67.9007770   8.0335579  78.5677860
  67.1175292   8.5757259  78.6616085  68.6000516   8.5509558  78.9672101
  70.5716674   8.6950643  87.2133197  71.2844647   9.3298107  87.1409099
  70.0806703   8.7914509  86.3973199  72.2934201   2.6001895  78.7850489
  71.3590480   2.7203358  78.6155193  72.4710870   1.6974362  78.5210499
  65.6228588   6.4445086  88.0338768  66.3238047   7.0781569  88.1868162
  65.1523703   6.7859818  87.2734407  73.7482984   4.7863036  76.3186675
  74.0242828   4.6719630  77.2280549  72.8787482   4.3880521  76.2798848
  73.4229874  -1.0010307  85.8591318  72.7701324  -0.7534399  85.2043771
  73.8010254  -1.8146168  85.5253796  70.3837048   9.0349387  79.9619489
  70.5659442   8.2171043  80.4247241  71.2070034   9.2517079  79.5244379
  70.7179213   7.9617572  77.2234537  71.2466980   7.4510026  76.6104699
  70.9807433   7.6460102  78.0880070  69.4717447  -0.2590496  92.3457355
  68.7958084  -0.3596366  93.0159731  70.2945081  -0.4151282  92.8093353
  61.2196306   5.9781441  84.9669871  61.8049743   5.2325129  85.0997775
  61.0221144   6.2885398  85.8506535  64.0734961   9.0132688  79.9832313
  63.4045336   9.4978816  79.4996353  63.9347831   9.2601909  80.8975692
  55.8113961  -1.4512959  83.6874314  55.8498060  -1.9849368  84.4811432
  55.3054253  -1.9777753  83.0685291  68.2140230  11.0476432  86.5814971
  68.7658538  11.2108053  87.3464057  68.5546423  11.6380870  85.9094996
  62.6656995  -4.5325286  90.8309890  63.2929034  -4.9148208  91.4447415
  61.8084914  -4.7511084  91.1965583  73.0651104   5.8737689  92.4363626
  73.6091008   6.4867648  91.9418581  72.4837949   6.4317268  92.9530639
  59.4422538  -2.7248857  76.7628245  59.7375979  -3.6338178  76.7095299
  58.5410574  -2.7461117  76.4409248  71.3508617   8.9958407  83.5678654
  71.2259756   8.1948147  83.0589599  72.0087708   9.4904601  83.0792624
  62.9716785  -4.6492860  82.7455794  62.2503371  -4.0356892  82.6063267
  63.7610041  -4.1135095  82.6672440  73.4143525   6.7967428  85.1958204
  72.4673861   6.6772779  85.1236530  73.7626299   5.9089926  85.2784465
  61.1710380  -5.0434759  76.8867570  60.8423086  -5.9237380  76.7042676
  61.5249751  -5.0987090  77.7743960  70.4189959   6.5920144  81.3962556
  70.2714921   5.6636851  81.5770126  71.2443452   6.6140234  80.9119631
  64.2852203  -4.7561789  77.2543048  64.6248275  -4.2275868  76.5321656
  64.7324323  -4.4181383  78.0301615  74.0224081   7.4148702  82.4827429
  74.9470628   7.2091564  82.3451880  73.8539384   7.1665104  83.3916770
  65.1550694  -2.5956305  82.9665418  65.0095275  -2.2816002  83.8589699
  64.6775898  -1.9771405  82.4136316  73.8119397   7.9334370  77.8389520
  73.9856274   7.3680792  77.0863373  74.3048288   8.7335265  77.6569010
  59.6296357  -0.0550961  85.9053079  59.0849825   0.7208847  86.0373353
  60.5075706   0.2919844  85.7472200  74.7994569   7.2501134  74.9386418
  75.4945474   7.8707827  75.1573733  75.1417719   6.3996486  75.2138796
  60.4162378  -0.9281065  88.7983236  59.6744114  -0.7798429  89.3847866
  60.0955123  -0.6672799  87.9349985  76.6985992   4.7000840  76.4673749
  77.2237316   5.0388113  75.7423069  76.6108345   3.7647855  76.2836884
  68.3606041   8.6134914  88.5963626  68.6693168   8.3684060  89.4686325
  69.1581523   8.8181552  88.1082496  68.3826653  10.7672823  80.8269002
  67.9431643  10.2749202  81.5201859  69.1334770  10.2245791  80.5861078
  60.8618992   6.9584364  80.8293630  61.6877012   6.6588136  80.4492274
  60.5113044   6.1891986  81.2783419  65.8300525   6.3110832  82.8991304
  65.2080535   5.6481537  82.5993532  66.5005392   6.3371964  82.2164952
  59.0627597   4.8770690  81.7882564  58.2259505   4.4492865  81.6066565
  59.0351243   5.0703134  82.7253355  76.3879898   5.3333744  91.7724947
  75.5975442   5.3157882  91.2329447  76.1513253   5.8722037  92.5273984
  76.5077773   2.1826210  89.0857676  76.5575778   2.0176217  90.0273198
  76.3991697   1.3153469  88.6955556  65.3914032   4.8614756  76.3749765
  65.5402153   5.5450220  75.7216437  66.1980476   4.8419846  76.8899220
  78.0095970   4.6023151  89.3299697  77.7180779   4.9653132  90.1663158
  77.3968102   3.8890160  89.1513029  79.2091653   2.1676031  81.8502267
  80.0438544   2.6065835  82.0139828  79.3450781   1.6914684  81.0310513
  76.2583159  -0.2744234  87.7979755  76.7337280  -0.0816588  86.9898607
  75.3348724  -0.2185048  87.5523139  63.1466665   0.8879933  77.3810833
  62.9012707  -0.0157737  77.5791044  63.3162580   0.8897084  76.4390311
  62.4162313  -3.3791709  74.8796995  61.7231558  -3.3047354  74.2237031
  62.1714065  -4.1431366  75.4018512  68.8909438   7.3562886  73.8461512
  68.3183405   7.9753073  73.3931984  69.4642231   7.9062248  74.3801434
  72.1106697   7.6400036  74.9770094  73.0437371   7.5745598  75.1802970
  72.0229910   8.4756303  74.5184627  74.7394714   6.9565907  71.9374042
  74.6608346   6.6225770  72.8309800  75.5604381   7.4487674  71.9365514
  69.2756236  -1.3076301  71.1877564  70.2215341  -1.4370093  71.2565983
  68.8970481  -2.0461639  71.6646993  69.1594929   2.7441445  92.6478221
  70.0797938   2.9220044  92.8418268  69.1244512   1.7997490  92.4957921
  67.4599153  -3.3826325  71.1232450  66.5530609  -3.6793212  71.1995163
  67.7375134  -3.6796507  70.2566736  58.3777094  -2.0619961  81.5731496
  58.0579878  -2.9154653  81.2805870  57.8310522  -1.8471383  82.3289463
  62.1557001   0.6542480  85.2901003  62.3743011   1.5859587  85.3089036
  62.5682775   0.2950454  86.0755806  67.0284867  -3.7724315  94.6803752
  66.9281593  -2.8229958  94.6115843  66.8106409  -4.1006076  93.8079822
  58.2465354   1.5582950  83.5424618  57.5528825   1.1436903  83.0294572
  58.9938345   1.6003487  82.9458037  66.8916137  -0.3427176  93.4968813
  66.4083218   0.4573184  93.7032702  66.9777076  -0.3319231  92.5436257
  60.1602096   1.4901204  81.4190633  60.1372784   1.5888891  80.4672516
  60.4702733   2.3366355  81.7407799  62.8189474   3.5477359  85.5337247
  63.7732728   3.5161301  85.4667179  62.6201998   3.0867983  86.3487473
  63.4088856   2.1178475  88.1008045  64.2281745   2.6122554  88.1242882
  63.6825664   1.2010443  88.0725612  61.1739703   9.0896978  82.5507445
  61.0394171   8.3297379  81.9845443  60.7571765   9.8137878  82.0836234
  72.3098666   4.2733902  71.5584020  73.0134516   4.4783904  72.1741676
  71.5861315   4.8410664  71.8233104  73.1396476   0.0243763  77.6786290
  73.0831678   0.4812315  76.8393923  73.6924819  -0.7365552  77.5009133
  64.3308829   9.9866295  82.7625888  64.2141213  10.9311728  82.6604578
  63.5101275   9.6839857  83.1511687  74.2185363   4.7116431  73.6082480
  75.0530967   4.2797630  73.4259955  74.0569706   4.5398445  74.5359375
  73.8731256   1.2148544  74.9738820  73.8180059   1.0492816  74.0327264
  73.2477311   1.9224577  75.1301009  58.6623770  -3.5483391  88.8000242
  59.3082634  -4.0584437  89.2887467  58.4540922  -2.8114710  89.3743667
  71.1877163   3.5197456  94.2992382  72.0568322   3.6938109  93.9379017
  70.7083914   4.3391873  94.1768112  65.3563343  10.6394557  85.9781816
  66.2590590  10.6718168  86.2948311  65.1300713   9.7095008  85.9928152
  67.1116945   9.3925544  82.6391895  66.1612576   9.3927405  82.5256267
  67.4149431   8.6458278  82.1227929  82.8469638  15.2286082  83.7037657
  83.4848048  15.1092830  83.0000997  82.7290481  16.1766926  83.7625609
  79.6559345  15.1813510  83.6399182  79.3177856  15.0654575  82.7519717
  80.5249113  14.7804675  83.6200188  75.5146160  17.0348987  79.6296073
  74.9511026  16.9438924  78.8612360  75.3998555  16.2148891  80.1098565
  80.1379128  16.3348362  89.5985387  80.1267768  15.9401160  88.7265891
  80.2999767  15.6014435  90.1919159  73.0610592  18.5300178  82.4680293
  73.8531884  18.1891003  82.0526592  73.3007242  18.6395153  83.3882446
  81.0945719  20.7019954  74.9410537  80.4433699  21.2874035  74.5544551
  81.8890082  21.2326149  75.0005575  75.0201346  17.7909092  75.3397672
  75.7932222  17.2438079  75.2010548  75.3726745  18.6553341  75.5512133
  76.8586389  19.1185474  88.5464571  76.5676255  20.0231105  88.4311237
  77.4943373  19.1602001  89.2608641  77.7842596  16.4962322  85.1365931
  78.3806168  16.2718345  84.4222894  77.8417567  15.7547068  85.7391379
  77.3567624  13.9501758  72.9716122  77.6093145  13.4283279  72.2099585
  76.4192183  13.7867903  73.0742805  82.4010907  12.9537536  80.7790865
  83.1873996  12.5356959  80.4281282  82.6649611  13.8583628  80.9472513
  82.5720984  18.3910386  75.4779522  81.9366817  18.4645013  76.1900426
  82.2418391  18.9803985  74.7998601  87.8019334  12.8912769  81.6823844
  88.5344506  12.3211986  81.9161673  87.0458690  12.5034370  82.1230349
  77.0763913  15.8529864  75.1740497  76.9600171  15.1774767  75.8421581
  77.1866173  15.3662238  74.3572650  79.4195454  15.3140011  78.8787186
  79.0553661  14.7870632  79.5900107  80.2762570  14.9238480  78.7053671
  85.3244754   6.6034343  86.1418452  84.9928079   7.4729754  85.9179667
  84.7290368   6.2870627  86.8212482  79.0600941  10.3429910  73.8748534
  79.2275343  11.2110147  74.2419006  78.8698110  10.5057192  72.9509824
  81.8176274  18.8046889  85.5414365  81.5176997  19.7071928  85.4330172
  81.4727333  18.5379073  86.3935518  75.2688755  15.2560686  81.5751069
  74.3439252  15.1236900  81.7828761  75.5173169  16.0354905  82.0721012
  85.2173418  11.3229430  83.2211802  84.3090295  11.2544838  82.9270563
  85.1661014  11.8001374  84.0493628  79.0390162  12.7987568  74.8595201
  78.9189787  13.2444619  75.6980682  78.3442750  13.1472886  74.3008739
  72.6297566  14.8993960  82.4094858  72.7589948  15.1528439  83.3234270
  71.9495018  15.4921668  82.0899513  76.7997054  25.5691210  78.5085333
  76.7221083  26.5199035  78.5873813  76.1958697  25.2237082  79.1660259
  79.2914283  12.7419075  91.1646699  78.5147618  13.3012995  91.1549564
  79.9304847  13.2275858  91.6861570  87.0835064   9.5245868  84.9989676
  86.4409444   9.8178401  84.3529471  86.5789993   9.4098788  85.8042873
  84.7375228  13.2709041  75.6875535  85.6493084  13.5036428  75.5123233
  84.2284875  13.8546085  75.1250614  77.5460656  15.5504529  90.7264666
  78.2875340  16.0889572  90.4499490  76.8397641  16.1770817  90.8836218
  83.0215995  17.6933669  89.3236828  83.4299351  17.2516080  88.5791460
  82.2993257  17.1186296  89.5771021  79.3747065  12.6306276  86.6970385
  80.2208261  13.0545689  86.8405034  79.3145703  11.9739900  87.3908948
  83.3444810  18.2534860  83.0789117  82.7153673  18.4180574  82.3765185
  82.9570472  18.6676469  83.8500081  87.2234042  19.1889297  80.4333481
  86.5385080  19.5688199  79.8830514  87.3077891  19.7984624  81.1665428
  82.5246511  10.2910644  88.3551559  82.2807443  11.0452705  87.8185834
  82.8006441  10.6695992  89.1898806  84.4784974  16.8349256  87.0328824
  84.6901869  17.4781016  86.3563205  84.4314722  16.0011573  86.5650754
  82.0811203   9.4467077  83.9365396  81.2195682   9.7448331  84.2282134
  82.1073637   9.6637476  83.0046429  78.8972772  17.9909268  80.3439202
  79.3611117  18.2696971  79.5543824  78.6329570  17.0892712  80.1612293
  75.7896853  17.5380749  83.2818965  76.3598210  17.9668018  82.6436450
  76.3804965  17.2563334  83.9803151  77.8341658  14.1132420  77.1528767
  78.5365701  14.5653464  77.6202693  77.5022287  13.4716239  77.7808660
  76.2822020  12.7044177  91.5279976  75.6520680  13.3860458  91.7615373
  76.1758107  12.5927258  90.5833115  71.5766992  12.3715973  82.4545901
  70.7866046  12.6273501  81.9786011  72.0678239  13.1864311  82.5597941
  85.5930802  19.7121212  85.2051181  86.4148245  19.3101399  84.9233863
  85.5893204  19.6089446  86.1567297  73.5281737  12.7360552  79.4129377
  72.7312901  12.8479246  79.9312873  73.3007330  13.0747204  78.5470268
  79.3587405  19.2605255  87.3611892  79.4231837  19.7225662  88.1970064
  78.6498329  18.6302620  87.4894202  69.8604695  12.6246463  84.8860891
  70.1112733  13.5093473  85.1518467  70.3964243  12.4451065  84.1135983
  93.6836795  16.0559960  81.5536153  92.9300503  15.4867358  81.3980157
  93.8184336  16.0222625  82.5006788  79.0735423  20.9273363  77.2290872
  78.9381097  21.7724898  77.6575720  79.6145235  21.1292640  76.4656806
  75.5602762   7.0064943  93.8905227  75.1669708   6.4531141  94.5652872
  76.3768903   7.3175521  94.2811745  72.5264820  18.4448801  77.8018797
  73.0389341  19.2392051  77.9524362  73.1787533  17.7475091  77.7352399
  74.3359705  21.5614557  79.8841551  74.5126333  22.4832522  79.6962534
  75.1316538  21.2472976  80.3135930  78.4770723   8.4222822  91.4825484
  79.2180437   9.0229975  91.4029947  78.7088646   7.6800459  90.9243527
  73.6212061  13.6079189  89.7603714  73.5065576  12.7064446  90.0610813
  72.7656579  13.8542886  89.4088530  80.7003899  21.5496929  91.3591214
  80.2567753  20.7633308  91.0412119  81.3621113  21.7376080  90.6935105
  75.4591020  23.0792731  85.8851893  76.0098445  22.9509794  85.1128887
  74.6202496  23.3787620  85.5346786  82.7985137  21.8299729  89.3872616
  82.7803612  22.6508610  88.8952885  83.7205057  21.7053804  89.6122757
  79.2558191  19.3443859  90.2296124  79.7886528  18.5832147  89.9995432
  78.7272272  19.0517510  90.9720278  82.4227886   4.4503925  85.7589766
  82.0792156   5.3405566  85.6828876  82.7906849   4.2605582  84.8959351
  70.4913737  16.7737455  78.5778368  71.3288959  17.1834463  78.3612076
  70.6692005  15.8336897  78.5478562  82.3878169  14.4412536  74.2662201
  81.8724792  15.2117140  74.5050588  82.1155477  13.7677672  74.8895262
  79.9725280   9.2862236  79.3247439  79.1166876   8.8969087  79.1453078
  80.3852232   9.3654197  78.4647225  81.5024427   6.8208580  83.7238999
  80.9989222   6.7838715  82.9106804  81.7955033   7.7301322  83.7835656
  77.7467312   6.9047309  82.7305181  78.6120309   6.7090118  82.3711070
  77.8144821   6.6757661  83.6574537  87.3612443  17.1944890  76.2015374
  86.5841886  16.8556050  75.7570536  88.0403924  17.1997513  75.5270339
  82.1764472  12.3139628  76.0921982  81.8714608  12.6285777  76.9432125
  83.1294914  12.3921048  76.1349315  80.6210904  18.4729851  77.7414936
  80.0932266  17.7382611  77.4288173  80.1198407  19.2504527  77.4954904
  85.6003750  16.6678872  82.8581982  84.9427424  17.3578133  82.9462111
  86.4044149  17.0575304  83.2015969  75.3529632   9.1349517  80.1021548
  75.9273383   8.9124699  79.3694740  75.9400614   9.2038212  80.8550149
  84.4109209  15.0223244  80.9085924  84.9241091  15.6553236  81.4107634
  85.0610433  14.4224440  80.5429284  75.6799219  11.1653978  74.1217433
  74.8436531  11.5028665  74.4426708  75.5403988  11.0302958  73.1844570
  77.6552299   6.0090766  78.8296617  77.0016712   5.6939783  78.2053232
  77.6132773   5.3866507  79.5556440  78.7663504  16.2910061  70.7449909
  77.8590566  16.0599315  70.9441058  79.2634536  15.4947681  70.9323891
  81.6731583  25.0007569  73.6646595  80.9993282  25.3039265  74.2731553
  82.0597405  25.8036649  73.3152052  80.8890040  12.4972700  83.1544265
  79.9712601  12.7187647  82.9965953  81.3050183  12.5719010  82.2955972
  81.6725087  13.8964115  78.2846945  82.4196906  14.4085513  77.9754067
  81.9416677  13.5748168  79.1451338  79.9451738  16.3922656  75.2673899
  79.0362957  16.1081689  75.3646369  79.9746821  16.8121735  74.4077206
  85.1771005  20.0029246  79.0365067  84.7233332  19.1620156  79.0930257
  84.5464972  20.6390644  79.3739847  84.1203925  10.9321232  80.2665734
  83.3826681  10.4198618  80.5975977  84.3730698  10.4921613  79.4549011
  83.6203944  21.8405742  79.9714885  83.9126919  22.4010800  79.2527250
  84.1302565  22.1334303  80.7268044  84.2215552   3.7097484  80.8607503
  84.5274429   2.8494847  80.5733418  84.9468157   4.3015104  80.6606497
  70.5139908  14.1128170  79.2489101  70.3164308  13.5197531  78.5240168
  69.9586572  13.8080381  79.9665040  78.4936632  14.0051277  81.3683694
  78.5485241  13.0525113  81.2926171  77.6827834  14.1610716  81.8524993
  79.6427825  17.9331400  72.6061978  79.2047255  17.2167259  72.1467615
  80.3838266  18.1607515  72.0447069  76.4328992  12.6228337  79.1274073
  75.6196857  12.9222507  79.5339265  76.9287986  12.2284025  79.8448556
  78.5837569  22.6186093  81.0608338  78.5413748  22.8446940  80.1316870
  79.5000268  22.3849468  81.2094139  82.0303203  13.0870161  87.9588967
  82.3852591  13.3141634  88.8183433  82.6775334  13.4188538  87.3366223
  87.7600940  16.2088597  78.6638296  87.6218839  16.3990193  77.7359485
  87.4037159  16.9707980  79.1206347  75.9243066  10.1946692  84.7435308
  76.5642446  10.0535451  84.0458272  75.0920597   9.9081205  84.3673910
  87.7870320  18.2765124  83.6749568  88.2206826  18.1840413  84.5232622
  88.5001900  18.2522624  83.0369584  76.7003370  19.4949123  80.8570301
  77.4943969  18.9999443  80.6552876  75.9895063  18.9666986  80.4938006
  81.5198215  21.8767218  85.2082668  81.5735237  22.4458154  85.9760384
  80.6512996  22.0469103  84.8436705  73.0086134  13.6392204  76.9330053
  72.0783722  13.5776660  77.1500016  73.1043606  13.1168157  76.1366695
  72.9271683  10.1647017  79.5208295  73.1878500  11.0792350  79.4117456
  73.7488855   9.6971460  79.6704908  74.3996608  11.5784774  86.6907120
  75.0719661  11.3702136  86.0419769  73.5726395  11.3806860  86.2512352
  88.6485869  18.3188825  86.2082453  88.8421759  19.2234635  86.4541728
  88.5486487  17.8596244  87.0421038  80.3022180   8.2046715  88.7072780
  79.6550095   8.9036665  88.6137257  81.0723195   8.6382859  89.0749029
  83.7100978  18.4695567  91.7823334  83.5586484  18.2406119  90.8653417
  83.7005657  19.4266169  91.7954679  80.4786314  16.0427480  86.7669600
  81.4078374  16.1938640  86.5938568  80.0577344  16.1311501  85.9118247
  79.2774646  20.0678144  84.5368138  79.1385732  19.6996929  85.4094076
  78.4889242  20.5825784  84.3652096  79.8722798  25.1687241  75.8793674
  80.0474554  24.6975284  76.6939297  79.1855586  25.7953007  76.1074935
  80.8279861  19.4459747  81.9256976  80.4929694  19.4060517  82.8214626
  80.3283807  18.7804463  81.4527386  74.8024105  14.8527377  87.4509557
  74.6643903  14.1207616  88.0521096  75.7129029  14.7636277  87.1693745
  83.7639053  16.7915782  72.1994035  83.1468224  16.0662610  72.1027088
  83.2955541  17.5525142  71.8561110  77.4306406  14.5647337  86.9393236
  78.1406024  13.9240529  86.8979855  77.3875714  14.8160231  87.8619417
  85.4193185  21.5014690  89.8599816  85.3605731  20.8173910  89.1930399
  85.8212703  22.2433680  89.4080442  76.1435340  11.5512554  88.7588876
  75.6072697  11.1003293  89.4110472  75.5552048  11.6858463  88.0159340
  75.5537599  11.0101206  71.3215340  74.6767065  10.8890007  70.9577586
  76.0295352  10.2187284  71.0694228  85.4210592  19.4654274  88.0913795
  84.5337371  19.1280196  88.2140194  85.9909143  18.7337305  88.3282561
  67.0739739  15.7978366  81.4156847  67.7610779  15.4840096  80.8277862
  66.9187868  16.7019730  81.1424098  71.8774461  10.6868562  85.8441870
  71.7932650  10.0794232  85.1092280  71.0557168  11.1777580  85.8451367
  78.9511745  24.1255726  85.0575039  78.8781917  24.9310698  85.5694343
  78.5089138  24.3247692  84.2323060  78.7401525  23.3627496  78.5677860
  77.9569047  23.9049176  78.6616085  79.4394270  23.8801476  78.9672101
  82.0498175   9.1722126  81.2112065  82.5466875   8.4192088  80.8913136
  81.2785157   9.2086442  80.6455275  89.9027932  14.8762491  82.8530357
  89.8917809  15.7587207  82.4824290  89.0345312  14.5234042  82.6584894
  81.4110429  24.0242560  87.2133197  82.1238401  24.6590025  87.1409099
  80.9200457  24.1206426  86.3973199  83.1327956  17.9293813  78.7850489
  82.1984234  18.0495275  78.6155193  83.3104624  17.0266280  78.5210499
  78.6333144  11.3139509  80.9383750  78.2630931  10.7610549  81.6264656
  79.1292236  10.7097642  80.3858750  86.5200507  13.7711132  79.3200523
  86.9860959  14.6039124  79.2460826  86.9708008  13.3056114  80.0245781
  76.4622342  21.7737004  88.0338768  77.1631802  22.4073487  88.1868162
  75.9917457  22.1151735  87.2734407  84.5876738  20.1154953  76.3186675
  84.8636582  20.0011548  77.2280549  83.7181237  19.7172438  76.2798848
  84.4917170   6.1391719  83.3591424  83.5780250   6.3695946  83.5273631
  84.9210271   6.2230163  84.2105457  84.2623628  14.3281611  85.8591318
  83.6095079  14.5757519  85.2043771  84.6404008  13.5145749  85.5253796
  81.2230802  24.3641304  79.9619489  81.4053197  23.5462960  80.4247241
  82.0463788  24.5808997  79.5244379  81.5572968  23.2909489  77.2234537
  82.0860734  22.7801944  76.6104699  81.8201187  22.9752020  78.0880070
  80.3111201  15.0701422  92.3457355  79.6351838  14.9695551  93.0159731
  81.1338835  14.9140636  92.8093353  74.9128716  24.3424606  79.9832313
  74.2439091  24.8270734  79.4996353  74.7741585  24.5893827  80.8975692
  66.6507715  13.8778959  83.6874314  66.6891815  13.3442550  84.4811432
  66.1448008  13.3514164  83.0685291  79.0533984  26.3768350  86.5814971
  79.6052292  26.5399971  87.3464057  79.3940178  26.9672787  85.9094996
  74.0298477   8.7243499  87.1836856  74.0939804   9.5858330  86.7714254
  73.9665598   8.1117501  86.4509215  73.5050750  10.7966632  90.8309890
  74.1322789  10.4143709  91.4447415  72.6478669  10.5780834  91.1965583
  83.9044859  21.2029607  92.4363626  84.4484763  21.8159565  91.9418581
  83.3231703  21.7609186  92.9530639  70.2816293  12.6043061  76.7628245
  70.5769734  11.6953739  76.7095299  69.3804328  12.5830801  76.4409248
  82.1902371  24.3250325  83.5678654  82.0653511  23.5240065  83.0589599
  82.8481463  24.8196519  83.0792624  73.8110540  10.6799058  82.7455794
  73.0897125  11.2935025  82.6063267  74.6003795  11.2156822  82.6672440
  84.2537280  22.1259345  85.1958204  83.3067615  22.0064696  85.1236530
  84.6020053  21.2381843  85.2784465  76.6136853   8.0153484  89.0196446
  77.1371255   8.2615781  89.7822755  76.3949187   8.8473519  88.5999583
  72.0104134  10.2857159  76.8867570  71.6816840   9.4054538  76.7042676
  72.3643505  10.2304827  77.7743960  81.2583713  21.9212061  81.3962556
  81.1108676  20.9928769  81.5770126  82.0837207  21.9432152  80.9119631
  75.1245957  10.5730129  77.2543048  75.4642030  11.1016050  76.5321656
  75.5718078  10.9110535  78.0301615  84.8617835  22.7440620  82.4827429
  85.7864382  22.5383482  82.3451880  84.6933138  22.4957021  83.3916770
  77.8189398   8.9567179  86.7046116  77.4786219   8.1574992  87.1066796
  77.1128405   9.2568890  86.1322949  78.4705870   6.0416492  85.1573439
  79.2931939   5.5676970  85.0352329  78.7143934   6.8206975  85.6572125
  77.1114105   9.0704750  75.4536341  77.8322467   9.4486003  74.9500058
  76.4879409   9.7893627  75.5571319  81.2545227   9.7749899  76.3894673
  81.4708842  10.6574537  76.0883501  80.7739295   9.3836113  75.6600315
  75.9944449  12.7335612  82.9665418  75.8489030  13.0475915  83.8589699
  75.5169653  13.3520513  82.4136316  77.8540832   9.7238160  83.0146307
  77.8402401   8.8279254  82.6778605  78.5713260   9.7308824  83.6484593
  79.7066962  10.1575501  85.0599435  79.4484740  11.0792571  85.0583765
  79.1752003   9.7605935  85.7499899  84.6513151  23.2626288  77.8389520
  84.8250029  22.6972710  77.0863373  85.1442042  24.0627183  77.6569010
  70.4690111  15.2740957  85.9053079  69.9243579  16.0500765  86.0373353
  71.3469461  15.6211761  85.7472200  77.2577728   8.6052541  78.2833877
  77.3793639   7.6769187  78.4824765  76.9679770   8.6191227  77.3712193
  80.1268918   6.2907451  81.4200597  80.1490615   6.3546784  80.4652577
  80.5436977   5.4511960  81.6141103  90.5052542  16.0262711  79.4579820
  90.9483688  15.2770036  79.0598943  89.6279053  16.0172847  79.0753552
  85.6388324  22.5793052  74.9386418  86.3339228  23.1999745  75.1573733
  85.9811474  21.7288403  75.2138796  71.2556133  14.4010853  88.7983236
  70.5137869  14.5493488  89.3847866  70.9348877  14.6619119  87.9349985
  87.5379747  20.0292758  76.4673749  88.0631071  20.3680030  75.7423069
  87.4502099  19.0939773  76.2836884  79.1999796  23.9426831  88.5963626
  79.5086922  23.6975978  89.4686325  79.9975278  24.1473470  88.1082496
  79.2220408  26.0964741  80.8269002  78.7825398  25.6041120  81.5201859
  79.9728525  25.5537709  80.5861078  71.7012747  22.2876282  80.8293630
  72.5270766  21.9880054  80.4492274  71.3506799  21.5183904  81.2783419
  76.6694280  21.6402750  82.8991304  76.0474289  20.9773455  82.5993532
  77.3399147  21.6663882  82.2164952  69.9021352  20.2062608  81.7882564
  69.0653260  19.7784783  81.6066565  69.8744997  20.3995052  82.7253355
  76.7418807  10.1184538  92.4923810  76.7906963  10.9946661  92.1101580
  77.2841321   9.5761931  91.9195453  87.2273653  20.6625661  91.7724947
  86.4369197  20.6449800  91.2329447  86.9907007  21.2013955  92.5273984
  87.3471528  17.5118128  89.0857676  87.3969533  17.3468135  90.0273198
  87.2385451  16.6445387  88.6955556  76.2307787  20.1906673  76.3749765
  76.3795907  20.8742138  75.7216437  77.0374230  20.1711763  76.8899220
  84.6375290  13.4949056  90.4016982  85.5385153  13.3555520  90.1100980
  84.7123265  13.6603510  91.3415160  78.9718096  10.8715910  89.2470169
  78.1021405  11.1649476  88.9752757  79.2077576  11.4556355  89.9677432
  88.8489725  19.9315069  89.3299697  88.5574533  20.2945050  90.1663158
  88.2361856  19.2182077  89.1513029  90.0485407  17.4967949  81.8502267
  90.8832298  17.9357753  82.0139828  90.1844536  17.0206602  81.0310513
  87.0976913  15.0547684  87.7979755  87.5731035  15.2475330  86.9898607
  86.1742478  15.1106870  87.5523139  73.9860420  16.2171851  77.3810833
  73.7406462  15.3134181  77.5791044  74.1556334  16.2189001  76.4390311
  81.6757130   7.0895527  86.7635589  82.1939073   7.8256554  86.4382078
  81.3212262   7.3959521  87.5982348  73.2556067  11.9500208  74.8796995
  72.5625312  12.0244563  74.2237031  73.0107819  11.1860552  75.4018512
  81.9269724   3.5095810  82.2836486  82.2071477   2.8418999  82.9096912
  82.7120331   3.7024905  81.7711150  79.7303192  22.6854804  73.8461512
  79.1577159  23.3044991  73.3931984  80.3035986  23.2354165  74.3801434
  85.7978582  11.9313444  86.0308061  86.7496005  12.0311541  86.0520285
  85.6282032  11.1391712  86.5406145  83.8192961   9.0169027  86.2167462
  83.2242894   9.2974040  85.5213950  83.5342658   9.5062928  86.9884203
  82.9500452  22.9691954  74.9770094  83.8831125  22.9037516  75.1802970
  82.8623665  23.8048221  74.5184627  85.5788469  22.2857824  71.9374042
  85.5002100  21.9517688  72.8309800  86.3998135  22.7779592  71.9365514
  88.2766660  15.1519564  85.1450360  88.2442980  14.2135564  85.3310044
  88.8867283  15.2303600  84.4116185  80.1149991  14.0215616  71.1877564
  81.0609095  13.8921825  71.2565983  79.7364236  13.2830278  71.6646993
  88.4261148  11.9430607  85.1908644  87.9100197  11.1589064  85.0038572
  89.3101097  11.6149324  85.3555163  86.0871875   5.6871623  81.1504456
  85.8896696   5.3786711  82.0347788  86.6971581   6.4133261  81.2802386
  94.0943210  16.2135570  84.2856397  94.8246598  15.9520858  84.8464101
  93.4850155  15.4764292  84.3258465  92.1758507  14.3543433  84.8830848
  91.4491670  14.2199398  84.2747340  91.7605794  14.6620262  85.6887566
  79.9988683  18.0733363  92.6478221  80.9191693  18.2511962  92.8418268
  79.9638266  17.1289408  92.4957921  78.2992908  11.9465593  71.1232450
  77.3924363  11.6498706  71.1995163  78.5768889  11.6495411  70.2566736
  69.2170848  13.2671956  81.5731496  68.8973633  12.4137264  81.2805870
  68.6704276  13.4820534  82.3289463  72.9950756  15.9834397  85.2901003
  73.2136766  16.9151505  85.3089036  73.4076530  15.6242372  86.0755806
  79.9154974   6.4902483  77.2776691  79.1055702   6.1449568  77.6531937
  80.6039390   6.1810026  77.8664303  81.8445522   5.5680529  78.9000988
  82.3976560   5.9875983  79.5591011  82.0815608   4.6416277  78.9423944
  77.8678621  11.5567603  94.6803752  77.7675348  12.5061960  94.6115843
  77.6500163  11.2285842  93.8079822  77.0691692   8.8052528  71.2644429
  77.9310856   9.1307426  71.5240246  77.2542037   8.0184024  70.7517495
  85.2224329   7.6781055  78.4079652  84.6422998   8.3365859  78.0257704
  84.9560262   6.8558399  77.9967069  83.6727895   7.0786112  80.6100972
  84.1727674   7.1902647  79.8015291  84.3163503   6.7747165  81.2501781
  77.7309891  14.9864742  93.4968813  77.2476973  15.7865102  93.7032702
  77.8170830  14.9972687  92.5436257  70.9995851  16.8193122  81.4190633
  70.9766539  16.9180809  80.4672516  71.3096487  17.6658272  81.7407799
  73.6583229  18.8769277  85.5337247  74.6126482  18.8453219  85.4667179
  73.4595752  18.4159900  86.3487473  74.2482611  17.4470393  88.1008045
  75.0675500  17.9414471  88.1242882  74.5219418  16.5302361  88.0725612
  84.0049207   9.8381145  77.4636000  83.1175062  10.1230796  77.2456195
  84.4203196   9.6774908  76.6163277  87.3563743   9.8627666  81.1790339
  88.1324133  10.3524118  81.4514956  86.6311877  10.2885720  81.6362209
  89.7936302  10.5755285  82.2364280  90.3880793  10.3351021  81.5257588
  89.8662885   9.8562416  82.8637816  83.1492420  19.6025820  71.5584020
  83.8528271  19.8075822  72.1741676  82.4255069  20.1702581  71.8233104
  83.9790231  15.3535681  77.6786290  83.9225432  15.8104232  76.8393923
  84.5318573  14.5926365  77.5009133  87.7895037  11.1425413  78.5036410
  87.5331971  10.7422048  79.3344618  87.1647905  11.8569207  78.3786549
  92.1007374  13.8821486  81.0107701  91.5406932  13.9514675  81.7839263
  91.4950878  13.7062471  80.2907197  75.1702583  25.3158213  82.7625888
  75.0534967  26.2603646  82.6604578  74.3495030  25.0131775  83.1511687
  85.0579118  20.0408349  73.6082480  85.8924722  19.6089547  73.4259955
  84.8963461  19.8690362  74.5359375  84.7125010  16.5440462  74.9738820
  84.6573814  16.3784734  74.0327264  84.0871065  17.2516495  75.1301009
  69.5017525  11.7808526  88.8000242  70.1476389  11.2707480  89.2887467
  69.2934676  12.5177208  89.3743667  82.0270917  18.8489374  94.2992382
  82.8962077  19.0230026  93.9379017  81.5477669  19.6683791  94.1768112
  78.0221135   6.0448571  74.5524138  78.0099805   6.9890411  74.7092409
  78.9144557   5.8618717  74.2583599  77.9510699  24.7217462  82.6391895
  77.0006330  24.7219323  82.5256267  78.2543186  23.9750196  82.1227929
  81.8373255   2.6391348  78.8070075  81.0705651   2.0849834  78.9526757
  82.2483960   2.7113217  79.6684226  73.8415016   8.9276144  92.8975256
  74.7046478   8.5712948  93.1078581  73.2680427   8.5890038  93.5850660
  93.6863393  30.5578000  83.7037657  94.3241803  30.4384747  83.0000997
  93.5684236  31.5058844  83.7625609  90.4953099  30.5105428  83.6399182
  90.1571611  30.3946493  82.7519717  91.3642867  30.1096593  83.6200188
  86.3539915  32.3640904  79.6296073  85.7904780  32.2730841  78.8612360
  86.2392310  31.5440809  80.1098565  90.9772882  31.6640280  89.5985387
  90.9661523  31.2693078  88.7265891  91.1393522  30.9306352  90.1919159
  83.9004347  33.8592096  82.4680293  84.6925639  33.5182921  82.0526592
  84.1400997  33.9687071  83.3882446  91.9339474  36.0311872  74.9410537
  91.2827453  36.6165953  74.5544551  92.7283836  36.5618067  75.0005575
  85.8595101  33.1201009  75.3397672  86.6325977  32.5729996  75.2010548
  86.2120500  33.9845259  75.5512133  87.6980143  34.4477392  88.5464571
  87.4070009  35.3523022  88.4311237  88.3337128  34.4893919  89.2608641
  88.6236350  31.8254240  85.1365931  89.2199922  31.6010262  84.4222894
  88.6811322  31.0838986  85.7391379  88.1961379  29.2793675  72.9716122
  88.4486899  28.7575197  72.2099585  87.2585938  29.1159821  73.0742805
  93.2404661  28.2829454  80.7790865  94.0267751  27.8648877  80.4281282
  93.5043366  29.1875546  80.9472513  93.4114739  33.7202304  75.4779522
  92.7760572  33.7936931  76.1900426  93.0812145  34.3095903  74.7998601
  98.6413089  28.2204687  81.6823844  99.3738260  27.6503904  81.9161673
  97.8852444  27.8326287  82.1230349  87.9157667  31.1821781  75.1740497
  87.7993925  30.5066685  75.8421581  88.0259927  30.6954155  74.3572650
  90.2589208  30.6431928  78.8787186  89.8947415  30.1162549  79.5900107
  91.1156324  30.2530398  78.7053671  96.1638509  21.9326261  86.1418452
  95.8321834  22.8021672  85.9179667  95.5684122  21.6162545  86.8212482
  89.8994695  25.6721828  73.8748534  90.0669098  26.5402065  74.2419006
  89.7091864  25.8349110  72.9509824  92.6570028  34.1338807  85.5414365
  92.3570752  35.0363846  85.4330172  92.3121088  33.8670990  86.3935518
  86.1082510  30.5852604  81.5751069  85.1833006  30.4528818  81.7828761
  86.3566923  31.3646823  82.0721012  96.0567172  26.6521347  83.2211802
  95.1484050  26.5836756  82.9270563  96.0054768  27.1293292  84.0493628
  89.8783916  28.1279486  74.8595201  89.7583541  28.5736536  75.6980682
  89.1836504  28.4764803  74.3008739  83.4691321  30.2285877  82.4094858
  83.5983702  30.4820356  83.3234270  82.7888772  30.8213585  82.0899513
  87.6390808  40.8983127  78.5085333  87.5614838  41.8490952  78.5873813
  87.0352452  40.5529000  79.1660259  90.1308038  28.0710993  91.1646699
  89.3541372  28.6304913  91.1549564  90.7698601  28.5567776  91.6861570
  97.9228819  24.8537786  84.9989676  97.2803199  25.1470319  84.3529471
  97.4183747  24.7390706  85.8042873  95.5768982  28.6000959  75.6875535
  96.4886838  28.8328346  75.5123233  95.0678629  29.1838003  75.1250614
  88.3854410  30.8796446  90.7264666  89.1269095  31.4181490  90.4499490
  87.6791396  31.5062735  90.8836218  93.8609750  33.0225587  89.3236828
  94.2693106  32.5807997  88.5791460  93.1387011  32.4478214  89.5771021
  90.2140820  27.9598193  86.6970385  91.0602015  28.3837607  86.8405034
  90.1539458  27.3031818  87.3908948  94.1838565  33.5826777  83.0789117
  93.5547427  33.7472491  82.3765185  93.7964227  33.9968387  83.8500081
  98.0627796  34.5181215  80.4333481  97.3778835  34.8980116  79.8830514
  98.1471646  35.1276542  81.1665428  93.3640265  25.6202562  88.3551559
  93.1201197  26.3744622  87.8185834  93.6400196  25.9987909  89.1898806
  95.3178728  32.1641174  87.0328824  95.5295623  32.8072934  86.3563205
  95.2708476  31.3303491  86.5650754  92.9204957  24.7758995  83.9365396
  92.0589436  25.0740248  84.2282134  92.9467392  24.9929394  83.0046429
  89.7366526  33.3201185  80.3439202  90.2004872  33.5988888  79.5543824
  89.4723325  32.4184630  80.1612293  86.6290608  32.8672667  83.2818965
  87.1991965  33.2959935  82.6436450  87.2198719  32.5855252  83.9803151
  88.6735413  29.4424338  77.1528767  89.3759456  29.8945381  77.6202693
  88.3416041  28.8008157  77.7808660  87.1215774  28.0336094  91.5279976
  86.4914435  28.7152375  91.7615373  87.0151862  27.9219176  90.5833115
  82.4160746  27.7007890  82.4545901  81.6259800  27.9565419  81.9786011
  82.9071994  28.5156228  82.5597941  96.4324556  35.0413130  85.2051181
  97.2542000  34.6393317  84.9233863  96.4286959  34.9381364  86.1567297
  84.3675492  28.0652470  79.4129377  83.5706655  28.1771164  79.9312873
  84.1401084  28.4039122  78.5470268  90.1981159  34.5897173  87.3611892
  90.2625592  35.0517580  88.1970064  89.4892083  33.9594538  87.4894202
  80.6998449  27.9538381  84.8860891  80.9506488  28.8385391  85.1518467
  81.2357998  27.7742982  84.1135983 104.5230549  31.3851878  81.5536153
 103.7694257  30.8159276  81.3980157 104.6578090  31.3514543  82.5006788
  89.9129177  36.2565280  77.2290872  89.7774852  37.1016816  77.6575720
  90.4538990  36.4584558  76.4656806  86.3996517  22.3356860  93.8905227
  86.0063462  21.7823059  94.5652872  87.2162657  22.6467439  94.2811745
  83.3658575  33.7740718  77.8018797  83.8783095  34.5683969  77.9524362
  84.0181287  33.0767009  77.7352399  85.1753459  36.8906475  79.8841551
  85.3520088  37.8124439  79.6962534  85.9710293  36.5764894  80.3135930
  89.3164478  23.7514739  91.4825484  90.0574191  24.3521892  91.4029947
  89.5482401  23.0092377  90.9243527  84.4605816  28.9371107  89.7603714
  84.3459331  28.0356364  90.0610813  83.6050334  29.1834803  89.4088530
  91.5397654  36.8788847  91.3591214  91.0961508  36.0925225  91.0412119
  92.2014867  37.0667997  90.6935105  86.2984775  38.4084648  85.8851893
  86.8492200  38.2801712  85.1128887  85.4596251  38.7079537  85.5346786
  93.6378892  37.1591647  89.3872616  93.6197367  37.9800528  88.8952885
  94.5598812  37.0345722  89.6122757  90.0951946  34.6735776  90.2296124
  90.6280283  33.9124064  89.9995432  89.5666027  34.3809428  90.9720278
  93.2621641  19.7795842  85.7589766  92.9185910  20.6697484  85.6828876
  93.6300603  19.5897500  84.8959351  81.3307491  32.1029373  78.5778368
  82.1682713  32.5126381  78.3612076  81.5085759  31.1628815  78.5478562
  93.2271923  29.7704453  74.2662201  92.7118547  30.5409058  74.5050588
  92.9549232  29.0969590  74.8895262  90.8119034  24.6154154  79.3247439
  89.9560631  24.2261005  79.1453078  91.2245986  24.6946115  78.4647225
  92.3418181  22.1500497  83.7238999  91.8382977  22.1130633  82.9106804
  92.6348788  23.0593240  83.7835656  88.5861067  22.2339227  82.7305181
  89.4514064  22.0382036  82.3711070  88.6538576  22.0049579  83.6574537
  98.2006198  32.5236808  76.2015374  97.4235640  32.1847967  75.7570536
  98.8797679  32.5289431  75.5270339  93.0158227  27.6431545  76.0921982
  92.7108362  27.9577695  76.9432125  93.9688669  27.7212965  76.1349315
  91.4604658  33.8021769  77.7414936  90.9326020  33.0674528  77.4288173
  90.9592161  34.5796445  77.4954904  96.4397504  31.9970789  82.8581982
  95.7821179  32.6870051  82.9462111  97.2437904  32.3867221  83.2015969
  86.1923386  24.4641435  80.1021548  86.7667138  24.2416617  79.3694740
  86.7794368  24.5330130  80.8550149  95.2502963  30.3515162  80.9085924
  95.7634845  30.9845154  81.4107634  95.9004187  29.7516357  80.5429284
  86.5192973  26.4945896  74.1217433  85.6830285  26.8320583  74.4426708
  86.3797743  26.3594876  73.1844570  88.4946054  21.3382684  78.8296617
  87.8410466  21.0231701  78.2053232  88.4526528  20.7158424  79.5556440
  89.6057259  31.6201979  70.7449909  88.6984320  31.3891232  70.9441058
  90.1028291  30.8239598  70.9323891  92.5125337  40.3299486  73.6646595
  91.8387036  40.6331183  74.2731553  92.8991159  41.1328567  73.3152052
  91.7283794  27.8264617  83.1544265  90.8106355  28.0479564  82.9965953
  92.1443938  27.9010928  82.2955972  92.5118842  29.2256033  78.2846945
  93.2590661  29.7377430  77.9754067  92.7810431  28.9040086  79.1451338
  90.7845492  31.7214574  75.2673899  89.8756711  31.4373607  75.3646369
  90.8140576  32.1413652  74.4077206  96.0164759  35.3321163  79.0365067
  95.5627087  34.4912073  79.0930257  95.3858726  35.9682562  79.3739847
  94.9597679  26.2613149  80.2665734  94.2220436  25.7490536  80.5975977
  95.2124453  25.8213531  79.4549011  94.4597699  37.1697660  79.9714885
  94.7520673  37.7302717  79.2527250  94.9696319  37.4626221  80.7268044
  95.0609306  19.0389401  80.8607503  95.3668183  18.1786765  80.5733418
  95.7861911  19.6307022  80.6606497  81.3533662  29.4420088  79.2489101
  81.1558062  28.8489449  78.5240168  80.7980326  29.1372298  79.9665040
  89.3330386  29.3343194  81.3683694  89.3878996  28.3817031  81.2926171
  88.5221588  29.4902634  81.8524993  90.4821580  33.2623318  72.6061978
  90.0441010  32.5459176  72.1467615  91.2232021  33.4899432  72.0447069
  87.2722746  27.9520254  79.1274073  86.4590612  28.2514425  79.5339265
  87.7681740  27.5575943  79.8448556  89.4231324  37.9478011  81.0608338
  89.3807503  38.1738857  80.1316870  90.3394023  37.7141386  81.2094139
  92.8696958  28.4162079  87.9588967  93.2246345  28.6433552  88.8183433
  93.5169089  28.7480455  87.3366223  98.5994695  31.5380515  78.6638296
  98.4612593  31.7282111  77.7359485  98.2430913  32.2999897  79.1206347
  86.7636821  25.5238610  84.7435308  87.4036200  25.3827369  84.0458272
  85.9314351  25.2373123  84.3673910  98.6264074  33.6057042  83.6749568
  99.0600581  33.5132331  84.5232622  99.3395655  33.5814542  83.0369584
  87.5397125  34.8241040  80.8570301  88.3337723  34.3291360  80.6552876
  86.8288817  34.2958903  80.4938006  92.3591969  37.2059136  85.2082668
  92.4128991  37.7750072  85.9760384  91.4906751  37.3761021  84.8436705
  83.8479888  28.9684122  76.9330053  82.9177476  28.9068577  77.1500016
  83.9437360  28.4460075  76.1366695  83.7665437  25.4938935  79.5208295
  84.0272254  26.4084268  79.4117456  84.5882610  25.0263377  79.6704908
  85.2390363  26.9076692  86.6907120  85.9113416  26.6994054  86.0419769
  84.4120149  26.7098778  86.2512352  99.4879624  33.6480742  86.2082453
  99.6815514  34.5526553  86.4541728  99.3880242  33.1888161  87.0421038
  91.1415935  23.5338633  88.7072780  90.4943850  24.2328582  88.6137257
  91.9116950  23.9674777  89.0749029  94.5494732  33.7987485  91.7823334
  94.3980239  33.5698037  90.8653417  94.5399412  34.7558086  91.7954679
  91.3180069  31.3719398  86.7669600  92.2472129  31.5230557  86.5938568
  90.8971099  31.4603419  85.9118247  90.1168401  35.3970062  84.5368138
  89.9779486  35.0288847  85.4094076  89.3282997  35.9117702  84.3652096
  90.7116553  40.4979159  75.8793674  90.8868308  40.0267202  76.6939297
  90.0249341  41.1244925  76.1074935  91.6673616  34.7751665  81.9256976
  91.3323448  34.7352435  82.8214626  91.1677561  34.1096381  81.4527386
  85.6417860  30.1819295  87.4509557  85.5037658  29.4499534  88.0521096
  86.5522783  30.0928195  87.1693745  94.6032807  32.1207699  72.1994035
  93.9861978  31.3954527  72.1027088  94.1349296  32.8817059  71.8561110
  88.2700160  29.8939254  86.9393236  88.9799779  29.2532446  86.8979855
  88.2269469  30.1452149  87.8619417  96.2586939  36.8306608  89.8599816
  96.1999485  36.1465828  89.1930399  96.6606458  37.5725598  89.4080442
  86.9829094  26.8804472  88.7588876  86.4466451  26.4295211  89.4110472
  86.3945803  27.0150381  88.0159340  85.2777638  43.6468521  82.6533535
  85.5174236  44.2787046  83.3312553  84.4346834  43.2956561  82.9398894
  86.3931353  26.3393124  71.3215340  85.5160820  26.2181924  70.9577586
  86.8689106  25.5479202  71.0694228  96.2604346  34.7946192  88.0913795
  95.3731125  34.4572113  88.2140194  96.8302897  34.0629223  88.3282561
  77.9133494  31.1270283  81.4156847  78.6004533  30.8132013  80.8277862
  77.7581622  32.0311648  81.1424098  82.7168216  26.0160480  85.8441870
  82.6326404  25.4086149  85.1092280  81.8950922  26.5069498  85.8451367
  89.7905500  39.4547644  85.0575039  89.7175671  40.2602615  85.5694343
  89.3482893  39.6539610  84.2323060  89.5795279  38.6919414  78.5677860
  88.7962801  39.2341094  78.6616085  90.2788025  39.2093394  78.9672101
  92.8891930  24.5014043  81.2112065  93.3860629  23.7484006  80.8913136
  92.1178911  24.5378360  80.6455275 100.7421687  30.2054409  82.8530357
 100.7311563  31.0879124  82.4824290  99.8739066  29.8525960  82.6584894
  92.2504183  39.3534478  87.2133197  92.9632156  39.9881943  87.1409099
  91.7594212  39.4498344  86.3973199  93.9721710  33.2585731  78.7850489
  93.0377989  33.3787193  78.6155193  94.1498379  32.3558197  78.5210499
  89.4726898  26.6431426  80.9383750  89.1024686  26.0902467  81.6264656
  89.9685991  26.0389560  80.3858750  97.3594262  29.1003050  79.3200523
  97.8254714  29.9331041  79.2460826  97.8101762  28.6348031  80.0245781
  87.3016097  37.1028921  88.0338768  88.0025556  37.7365404  88.1868162
  86.8311212  37.4443653  87.2734407  95.4270493  35.4446871  76.3186675
  95.7030337  35.3303466  77.2280549  94.5574991  35.0464356  76.2798848
  95.3310924  21.4683637  83.3591424  94.4174004  21.6987864  83.5273631
  95.7604026  21.5522081  84.2105457  95.1017383  29.6573529  85.8591318
  94.4488833  29.9049436  85.2043771  95.4797763  28.8437667  85.5253796
  92.0624557  39.6933222  79.9619489  92.2446951  38.8754878  80.4247241
  92.8857543  39.9100914  79.5244379  92.3966722  38.6201407  77.2234537
  92.9254489  38.1093862  76.6104699  92.6594942  38.3043937  78.0880070
  91.1504956  30.3993340  92.3457355  90.4745593  30.2987469  93.0159731
  91.9732590  30.2432554  92.8093353  82.8983815  36.6365276  84.9669871
  83.4837252  35.8908964  85.0997775  82.7008653  36.9469233  85.8506535
  85.7522470  39.6716524  79.9832313  85.0832845  40.1562651  79.4996353
  85.6135340  39.9185744  80.8975692  77.4901470  29.2070877  83.6874314
  77.5285569  28.6734467  84.4811432  76.9841762  28.6806082  83.0685291
  89.8927739  41.7060267  86.5814971  90.4446047  41.8691889  87.3464057
  90.2333932  42.2964705  85.9094996  84.8692232  24.0535417  87.1836856
  84.9333558  24.9150248  86.7714254  84.8059352  23.4409419  86.4509215
  84.3444504  26.1258550  90.8309890  84.9716543  25.7435627  91.4447415
  83.4872423  25.9072752  91.1965583  94.7438613  36.5321525  92.4363626
  95.2878517  37.1451483  91.9418581  94.1625458  37.0901103  92.9530639
  81.1210047  27.9334979  76.7628245  81.4163488  27.0245657  76.7095299
  80.2198083  27.9122718  76.4409248  93.0296126  39.6542243  83.5678654
  92.9047265  38.8531983  83.0589599  93.6875217  40.1488436  83.0792624
  84.6504294  26.0090975  82.7455794  83.9290880  26.6226943  82.6063267
  85.4397550  26.5448740  82.6672440  95.0931034  37.4551263  85.1958204
  94.1461370  37.3356614  85.1236530  95.4413807  36.5673761  85.2784465
  87.4530608  23.3445402  89.0196446  87.9765010  23.5907698  89.7822755
  87.2342941  24.1765437  88.5999583  82.8497889  25.6149076  76.8867570
  82.5210595  24.7346455  76.7042676  83.2037259  25.5596745  77.7743960
  92.0977468  37.2503979  81.3962556  91.9502430  36.3220687  81.5770126
  92.9230961  37.2724070  80.9119631  85.9639712  25.9022046  77.2543048
  86.3035784  26.4307967  76.5321656  86.4111832  26.2402452  78.0301615
  95.7011590  38.0732538  82.4827429  96.6258137  37.8675399  82.3451880
  95.5326893  37.8248939  83.3916770  88.6583153  24.2859097  86.7046116
  88.3179973  23.4866910  87.1066796  87.9522159  24.5860808  86.1322949
  89.3099625  21.3708409  85.1573439  90.1325694  20.8968888  85.0352329
  89.5537688  22.1498893  85.6572125  87.9507859  24.3996668  75.4536341
  88.6716222  24.7777921  74.9500058  87.3273163  25.1185545  75.5571319
  92.0938982  25.1041817  76.3894673  92.3102596  25.9866455  76.0883501
  91.6133049  24.7128030  75.6600315  86.8338203  28.0627530  82.9665418
  86.6882784  28.3767833  83.8589699  86.3563407  28.6812430  82.4136316
  88.6934586  25.0530078  83.0146307  88.6796155  24.1571171  82.6778605
  89.4107014  25.0600742  83.6484593  90.5460717  25.4867418  85.0599435
  90.2878495  26.4084489  85.0583765  90.0145757  25.0897853  85.7499899
  95.4906906  38.5918205  77.8389520  95.6643783  38.0264628  77.0863373
  95.9835797  39.3919100  77.6569010  81.3083866  30.6032874  85.9053079
  80.7637334  31.3792682  86.0373353  82.1863215  30.9503679  85.7472200
  88.0971482  23.9344458  78.2833877  88.2187393  23.0061104  78.4824765
  87.8073525  23.9483144  77.3712193  90.9662673  21.6199369  81.4200597
  90.9884369  21.6838702  80.4652577  91.3830732  20.7803877  81.6141103
 101.3446297  31.3554628  79.4579820 101.7877443  30.6061953  79.0598943
 100.4672807  31.3464765  79.0753552  96.4782078  37.9084970  74.9386418
  97.1732983  38.5291662  75.1573733  96.8205228  37.0580321  75.2138796
  82.0949887  29.7302771  88.7983236  81.3531623  29.8785406  89.3847866
  81.7742632  29.9911036  87.9349985  98.3773501  35.3584675  76.4673749
  98.9024825  35.6971948  75.7423069  98.2895854  34.4231691  76.2836884
  90.0393550  39.2718749  88.5963626  90.3480676  39.0267896  89.4686325
  90.8369032  39.4765387  88.1082496  90.0614162  41.4256659  80.8269002
  89.6219152  40.9333037  81.5201859  90.8122279  40.8829626  80.5861078
  82.5406501  37.6168199  80.8293630  83.3664521  37.3171971  80.4492274
  82.1900553  36.8475822  81.2783419  87.5088034  36.9694668  82.8991304
  86.8868044  36.3065373  82.5993532  88.1792901  36.9955799  82.2164952
  80.7415106  35.5354526  81.7882564  79.9047014  35.1076700  81.6066565
  80.7138752  35.7286969  82.7253355  87.5812562  25.4476456  92.4923810
  87.6300717  26.3238578  92.1101580  88.1235076  24.9053849  91.9195453
  98.0667407  35.9917579  91.7724947  97.2762951  35.9741718  91.2329447
  97.8300762  36.5305873  92.5273984  98.1865282  32.8410045  89.0857676
  98.2363287  32.6760053  90.0273198  98.0779206  31.9737304  88.6955556
  87.0701541  35.5198591  76.3749765  87.2189662  36.2034055  75.7216437
  87.8767985  35.5003681  76.8899220  95.4769045  28.8240973  90.4016982
  96.3778908  28.6847438  90.1100980  95.5517019  28.9895428  91.3415160
  89.8111850  26.2007828  89.2470169  88.9415160  26.4941394  88.9752757
  90.0471331  26.7848273  89.9677432  99.6883479  35.2606987  89.3299697
  99.3968288  35.6236967  90.1663158  99.0755611  34.5473995  89.1513029
 100.8879162  32.8259867  81.8502267 101.7226053  33.2649671  82.0139828
 101.0238290  32.3498520  81.0310513  97.9370668  30.3839601  87.7979755
  98.4124789  30.5767248  86.9898607  97.0136233  30.4398787  87.5523139
  84.8254174  31.5463769  77.3810833  84.5800216  30.6426099  77.5791044
  84.9950089  31.5480919  76.4390311  92.5150884  22.4187445  86.7635589
  93.0332828  23.1548472  86.4382078  92.1606017  22.7251438  87.5982348
  84.0949822  27.2792126  74.8796995  83.4019067  27.3536481  74.2237031
  83.8501574  26.5152470  75.4018512  92.7663478  18.8387727  82.2836486
  93.0465232  18.1710917  82.9096912  93.5514085  19.0316823  81.7711150
  90.5696947  38.0146721  73.8461512  89.9970914  38.6336909  73.3931984
  91.1429740  38.5646083  74.3801434  96.6372337  27.2605361  86.0308061
  97.5889759  27.3603459  86.0520285  96.4675787  26.4683630  86.5406145
  94.6586716  24.3460945  86.2167462  94.0636648  24.6265957  85.5213950
  94.3736413  24.8354846  86.9884203  93.7894206  38.2983872  74.9770094
  94.7224880  38.2329433  75.1802970  93.7017419  39.1340138  74.5184627
  96.4182223  37.6149742  71.9374042  96.3395855  37.2809605  72.8309800
  97.2391890  38.1071510  71.9365514  99.1160414  30.4811481  85.1450360
  99.0836734  29.5427482  85.3310044  99.7261038  30.5595518  84.4116185
  90.9543745  29.3507534  71.1877564  91.9002850  29.2213742  71.2565983
  90.5757990  28.6122196  71.6646993  99.2654903  27.2722525  85.1908644
  98.7493951  26.4880981  85.0038572 100.1494851  26.9441241  85.3555163
  96.9265630  21.0163540  81.1504456  96.7290451  20.7078628  82.0347788
  97.5365335  21.7425179  81.2802386 104.9336964  31.5427488  84.2856397
 105.6640353  31.2812776  84.8464101 104.3243910  30.8056210  84.3258465
 103.0152261  29.6835351  84.8830848 102.2885425  29.5491316  84.2747340
 102.5999548  29.9912179  85.6887566  90.8382438  33.4025280  92.6478221
  91.7585447  33.5803879  92.8418268  90.8032021  32.4581326  92.4957921
  89.1386662  27.2757511  71.1232450  88.2318118  26.9790623  71.1995163
  89.4162643  26.9787329  70.2566736  80.0564603  28.5963874  81.5731496
  79.7367387  27.7429182  81.2805870  79.5098031  28.8112452  82.3289463
  83.8344510  31.3126315  85.2901003  84.0530520  32.2443423  85.3089036
  84.2470284  30.9534289  86.0755806  90.7548728  21.8194400  77.2776691
  89.9449456  21.4741485  77.6531937  91.4433145  21.5101944  77.8664303
  92.6839276  20.8972447  78.9000988  93.2370315  21.3167900  79.5591011
  92.9209363  19.9708195  78.9423944  88.7072376  26.8859521  94.6803752
  88.6069102  27.8353878  94.6115843  88.4893918  26.5577760  93.8079822
  87.9085447  24.1344446  71.2644429  88.7704611  24.4599344  71.5240246
  88.0935791  23.3475942  70.7517495  96.0618083  23.0072972  78.4079652
  95.4816752  23.6657776  78.0257704  95.7954016  22.1850317  77.9967069
  94.5121650  22.4078030  80.6100972  95.0121428  22.5194564  79.8015291
  95.1557258  22.1039083  81.2501781  88.5703646  30.3156660  93.4968813
  88.0870727  31.1157020  93.7032702  88.6564585  30.3264604  92.5436257
  81.8389605  32.1485039  81.4190633  81.8160293  32.2472726  80.4672516
  82.1490242  32.9950190  81.7407799  84.4976983  34.2061194  85.5337247
  85.4520237  34.1745137  85.4667179  84.2989507  33.7451818  86.3487473
  85.0876365  32.7762310  88.1008045  85.9069254  33.2706389  88.1242882
  85.3613173  31.8594278  88.0725612  94.8442961  25.1673063  77.4636000
  93.9568816  25.4522713  77.2456195  95.2596951  25.0066826  76.6163277
  98.1957498  25.1919584  81.1790339  98.9717888  25.6816036  81.4514956
  97.4705632  25.6177638  81.6362209 100.6330056  25.9047203  82.2364280
 101.2274547  25.6642939  81.5257588 100.7056640  25.1854333  82.8637816
  82.8527212  39.7480814  82.5507445  82.7181680  38.9881215  81.9845443
  82.4359274  40.4721714  82.0836234  93.9886175  34.9317737  71.5584020
  94.6922025  35.1367740  72.1741676  93.2648824  35.4994499  71.8233104
  94.8183985  30.6827599  77.6786290  94.7619187  31.1396150  76.8393923
  95.3712328  29.9218283  77.5009133  98.6288791  26.4717330  78.5036410
  98.3725725  26.0713966  79.3344618  98.0041659  27.1861124  78.3786549
 102.9401129  29.2113404  81.0107701 102.3800687  29.2806593  81.7839263
 102.3344632  29.0354388  80.2907197  86.0096338  40.6450131  82.7625888
  85.8928722  41.5895563  82.6604578  85.1888784  40.3423692  83.1511687
  95.8972872  35.3700266  73.6082480  96.7318476  34.9381465  73.4259955
  95.7357215  35.1982280  74.5359375  95.5518765  31.8732380  74.9738820
  95.4967568  31.7076651  74.0327264  94.9264820  32.5808413  75.1301009
  80.3411279  27.1100444  88.8000242  80.9870143  26.5999398  89.2887467
  80.1328431  27.8469126  89.3743667  92.8664672  34.1781292  94.2992382
  93.7355831  34.3521944  93.9379017  92.3871423  34.9975708  94.1768112
  88.8614890  21.3740489  74.5524138  88.8493560  22.3182329  74.7092409
  89.7538312  21.1910634  74.2583599  87.0350852  41.2978393  85.9781816
  87.9378099  41.3302003  86.2948311  86.8088222  40.3678844  85.9928152
  88.7904454  40.0509379  82.6391895  87.8400085  40.0511241  82.5256267
  89.0936940  39.3042114  82.1227929  92.6767009  17.9683265  78.8070075
  91.9099405  17.4141752  78.9526757  93.0877714  18.0405134  79.6684226
  84.6808770  24.2568061  92.8975256  85.5440232  23.9004866  93.1078581
  84.1074181  23.9181956  93.5850660 104.5257147  45.8869918  83.7037657
 105.1635557  45.7676665  83.0000997 104.4077990  46.8350762  83.7625609
 101.3346854  45.8397346  83.6399182 100.9965365  45.7238410  82.7519717
 102.2036622  45.4388511  83.6200188  97.1933669  47.6932822  79.6296073
  96.6298535  47.6022759  78.8612360  97.0786064  46.8732727  80.1098565
 101.8166637  46.9932197  89.5985387 101.8055277  46.5984996  88.7265891
 101.9787276  46.2598270  90.1919159  94.7398101  49.1884014  82.4680293
  95.5319393  48.8474838  82.0526592  94.9794751  49.2978989  83.3882446
 102.7733228  51.3603790  74.9410537 102.1221208  51.9457870  74.5544551
 103.5677591  51.8909985  75.0005575  96.6988855  48.4492927  75.3397672
  97.4719731  47.9021914  75.2010548  97.0514254  49.3137176  75.5512133
  98.5373898  49.7769309  88.5464571  98.2463764  50.6814940  88.4311237
  99.1730882  49.8185837  89.2608641  99.4630105  47.1546158  85.1365931
 100.0593677  46.9302180  84.4222894  99.5205076  46.4130903  85.7391379
  99.0355133  44.6085593  72.9716122  99.2880654  44.0867114  72.2099585
  98.0979692  44.4451739  73.0742805 104.0798416  43.6121371  80.7790865
 104.8661505  43.1940795  80.4281282 104.3437120  44.5167464  80.9472513
 104.2508493  49.0494222  75.4779522 103.6154326  49.1228848  76.1900426
 103.9205900  49.6387821  74.7998601 109.4806843  43.5496605  81.6823844
 110.2132015  42.9795821  81.9161673 108.7246199  43.1618205  82.1230349
  98.7551422  46.5113699  75.1740497  98.6387680  45.8358602  75.8421581
  98.8653682  46.0246073  74.3572650 101.0982963  45.9723846  78.8787186
 100.7341170  45.4454467  79.5900107 101.9550079  45.5822315  78.7053671
 107.0032263  37.2618179  86.1418452 106.6715588  38.1313590  85.9179667
 106.4077877  36.9454463  86.8212482 100.7388450  41.0013746  73.8748534
 100.9062852  41.8693982  74.2419006 100.5485619  41.1641028  72.9509824
 103.4963783  49.4630725  85.5414365 103.1964506  50.3655764  85.4330172
 103.1514842  49.1962908  86.3935518  96.9476264  45.9144522  81.5751069
  96.0226761  45.7820736  81.7828761  97.1960678  46.6938741  82.0721012
 106.8960927  41.9813265  83.2211802 105.9877804  41.9128673  82.9270563
 106.8448522  42.4585210  84.0493628 100.7177671  43.4571403  74.8595201
 100.5977296  43.9028454  75.6980682 100.0230259  43.8056721  74.3008739
  94.3085075  45.5577795  82.4094858  94.4377457  45.8112274  83.3234270
  93.6282527  46.1505503  82.0899513  98.4784563  56.2275045  78.5085333
  98.4008592  57.1782870  78.5873813  97.8746206  55.8820918  79.1660259
 100.9701792  43.4002911  91.1646699 100.1935127  43.9596831  91.1549564
 101.6092356  43.8859693  91.6861570 108.7622573  40.1829703  84.9989676
 108.1196953  40.4762236  84.3529471 108.2577502  40.0682624  85.8042873
 106.4162737  43.9292877  75.6875535 107.3280593  44.1620263  75.5123233
 105.9072384  44.5129921  75.1250614  99.2248165  46.2088364  90.7264666
  99.9662849  46.7473408  90.4499490  98.5185150  46.8354653  90.8836218
 104.7003504  48.3517504  89.3236828 105.1086860  47.9099915  88.5791460
 103.9780766  47.7770132  89.5771021 101.0534574  43.2890111  86.6970385
 101.8995770  43.7129525  86.8405034 100.9933212  42.6323735  87.3908948
 105.0232319  48.9118695  83.0789117 104.3941182  49.0764409  82.3765185
 104.6357981  49.3260305  83.8500081 108.9021551  49.8473133  80.4333481
 108.2172589  50.2272034  79.8830514 108.9865400  50.4568459  81.1665428
 104.2034020  40.9494479  88.3551559 103.9594952  41.7036540  87.8185834
 104.4793950  41.3279827  89.1898806 106.1572483  47.4933092  87.0328824
 106.3689378  48.1364852  86.3563205 106.1102231  46.6595408  86.5650754
 103.7598712  40.1050912  83.9365396 102.8983191  40.4032166  84.2282134
 103.7861146  40.3221311  83.0046429 100.5760281  48.6493103  80.3439202
 101.0398626  48.9280806  79.5543824 100.3117079  47.7476548  80.1612293
  97.4684362  48.1964585  83.2818965  98.0385719  48.6251853  82.6436450
  98.0592474  47.9147169  83.9803151  99.5129167  44.7716255  77.1528767
 100.2153210  45.2237299  77.6202693  99.1809795  44.1300074  77.7808660
  97.9609529  43.3628012  91.5279976  97.3308189  44.0444293  91.7615373
  97.8545616  43.2511094  90.5833115  93.2554501  43.0299808  82.4545901
  92.4653555  43.2857337  81.9786011  93.7465748  43.8448146  82.5597941
 107.2718311  50.3705047  85.2051181 108.0935754  49.9685235  84.9233863
 107.2680713  50.2673281  86.1567297  95.2069246  43.3944387  79.4129377
  94.4100410  43.5063082  79.9312873  94.9794839  43.7331040  78.5470268
 101.0374914  49.9189091  87.3611892 101.1019346  50.3809498  88.1970064
 100.3285838  49.2886455  87.4894202  91.5392204  43.2830299  84.8860891
  91.7900242  44.1677308  85.1518467  92.0751752  43.1034900  84.1135983
 115.3624304  46.7143796  81.5536153 114.6088012  46.1451194  81.3980157
 115.4971845  46.6806460  82.5006788 100.7522932  51.5857198  77.2290872
 100.6168606  52.4308734  77.6575720 101.2932744  51.7876476  76.4656806
  97.2390271  37.6648778  93.8905227  96.8457217  37.1114976  94.5652872
  98.0556412  37.9759356  94.2811745  94.2052329  49.1032636  77.8018797
  94.7176850  49.8975886  77.9524362  94.8575042  48.4058927  77.7352399
  96.0147214  52.2198392  79.8841551  96.1913842  53.1416357  79.6962534
  96.8104047  51.9056812  80.3135930 100.1558232  39.0806657  91.4825484
 100.8967946  39.6813810  91.4029947 100.3876155  38.3384295  90.9243527
  95.2999570  44.2663024  89.7603714  95.1853085  43.3648281  90.0610813
  94.4444088  44.5126721  89.4088530 102.3791408  52.2080765  91.3591214
 101.9355262  51.4217143  91.0412119 103.0408622  52.3959915  90.6935105
  97.1378529  53.7376566  85.8851893  97.6885954  53.6093630  85.1128887
  96.2990005  54.0371455  85.5346786 104.4772646  52.4883564  89.3872616
 104.4591121  53.3092446  88.8952885 105.3992566  52.3637640  89.6122757
 100.9345700  50.0027694  90.2296124 101.4674037  49.2415982  89.9995432
 100.4059781  49.7101346  90.9720278 104.1015395  35.1087760  85.7589766
 103.7579665  35.9989402  85.6828876 104.4694358  34.9189418  84.8959351
  92.1701246  47.4321290  78.5778368  93.0076468  47.8418299  78.3612076
  92.3479513  46.4920733  78.5478562 104.0665678  45.0996371  74.2662201
 103.5512301  45.8700976  74.5050588 103.7942986  44.4261507  74.8895262
 101.6512789  39.9446072  79.3247439 100.7954385  39.5552922  79.1453078
 102.0639741  40.0238033  78.4647225 103.1811936  37.4792415  83.7238999
 102.6776731  37.4422550  82.9106804 103.4742542  38.3885158  83.7835656
  99.4254821  37.5631145  82.7305181 100.2907818  37.3673953  82.3711070
  99.4932330  37.3341497  83.6574537 109.0399952  47.8528726  76.2015374
 108.2629395  47.5139885  75.7570536 109.7191433  47.8581349  75.5270339
 103.8551981  42.9723463  76.0921982 103.5502117  43.2869612  76.9432125
 104.8082423  43.0504883  76.1349315 102.2998413  49.1313686  77.7414936
 101.7719774  48.3966446  77.4288173 101.7985916  49.9088363  77.4954904
 107.2791259  47.3262707  82.8581982 106.6214933  48.0161968  82.9462111
 108.0831658  47.7159139  83.2015969  97.0317141  39.7933353  80.1021548
  97.6060892  39.5708534  79.3694740  97.6188123  39.8622047  80.8550149
 106.0896718  45.6807080  80.9085924 106.6028599  46.3137071  81.4107634
 106.7397942  45.0808275  80.5429284  97.3586728  41.8237814  74.1217433
  96.5224040  42.1612500  74.4426708  97.2191497  41.6886794  73.1844570
  99.3339808  36.6674602  78.8296617  98.6804221  36.3523619  78.2053232
  99.2920282  36.0450342  79.5556440 100.4451013  46.9493897  70.7449909
  99.5378075  46.7183150  70.9441058 100.9422045  46.1531516  70.9323891
 103.3519092  55.6591404  73.6646595 102.6780791  55.9623101  74.2731553
 103.7384914  56.4620484  73.3152052 102.5677549  43.1556535  83.1544265
 101.6500110  43.3771482  82.9965953 102.9837692  43.2302846  82.2955972
 103.3512596  44.5547951  78.2846945 104.0984415  45.0669348  77.9754067
 103.6204186  44.2332004  79.1451338 101.6239247  47.0506492  75.2673899
 100.7150466  46.7665524  75.3646369 101.6534330  47.4705570  74.4077206
 106.8558514  50.6613081  79.0365067 106.4020841  49.8203991  79.0930257
 106.2252481  51.2974479  79.3739847 105.7991434  41.5905067  80.2665734
 105.0614190  41.0782453  80.5975977 106.0518207  41.1505449  79.4549011
 105.2991453  52.4989578  79.9714885 105.5914428  53.0594635  79.2527250
 105.8090074  52.7918139  80.7268044 105.9003061  34.3681319  80.8607503
 106.2061938  33.5078683  80.5733418 106.6255666  34.9598939  80.6606497
  92.1927417  44.7712006  79.2489101  91.9951817  44.1781366  78.5240168
  91.6374081  44.4664216  79.9665040 100.1724141  44.6635112  81.3683694
 100.2272750  43.7108949  81.2926171  99.3615343  44.8194551  81.8524993
 101.3215334  48.5915235  72.6061978 100.8834764  47.8751094  72.1467615
 102.0625775  48.8191350  72.0447069  98.1116501  43.2812172  79.1274073
  97.2984366  43.5806342  79.5339265  98.6075495  42.8867861  79.8448556
 100.2625078  53.2769929  81.0608338 100.2201257  53.5030775  80.1316870
 101.1787777  53.0433303  81.2094139 103.7090712  43.7453996  87.9588967
 104.0640100  43.9725470  88.8183433 104.3562843  44.0772373  87.3366223
 109.4388449  46.8672432  78.6638296 109.3006348  47.0574028  77.7359485
 109.0824668  47.6291815  79.1206347  97.6030575  40.8530527  84.7435308
  98.2429955  40.7119287  84.0458272  96.7708106  40.5665041  84.3673910
 109.4657829  48.9348959  83.6749568 109.8994335  48.8424248  84.5232622
 110.1789409  48.9106460  83.0369584  98.3790879  50.1532958  80.8570301
  99.1731478  49.6583278  80.6552876  97.6682572  49.6250821  80.4938006
 103.1985724  52.5351053  85.2082668 103.2522746  53.1041990  85.9760384
 102.3300505  52.7052938  84.8436705  94.6873643  44.2976040  76.9330053
  93.7571231  44.2360495  77.1500016  94.7831115  43.7751992  76.1366695
  94.6059192  40.8230852  79.5208295  94.8666009  41.7376186  79.4117456
  95.4276364  40.3555295  79.6704908  96.0784117  42.2368610  86.6907120
  96.7507170  42.0285972  86.0419769  95.2513904  42.0390696  86.2512352
 110.3273378  48.9772660  86.2082453 110.5209268  49.8818470  86.4541728
 110.2273996  48.5180079  87.0421038 101.9809689  38.8630551  88.7072780
 101.3337604  39.5620500  88.6137257 102.7510704  39.2966694  89.0749029
 105.3888487  49.1279403  91.7823334 105.2373993  48.8989954  90.8653417
 105.3793166  50.0850004  91.7954679 102.1573823  46.7011315  86.7669600
 103.0865883  46.8522475  86.5938568 101.7364853  46.7895336  85.9118247
 100.9562155  50.7261980  84.5368138 100.8173241  50.3580764  85.4094076
 100.1676751  51.2409619  84.3652096 101.5510307  55.8271076  75.8793674
 101.7262063  55.3559120  76.6939297 100.8643095  56.4536843  76.1074935
 102.5067370  50.1043583  81.9256976 102.1717203  50.0644353  82.8214626
 102.0071316  49.4388298  81.4527386  96.4811614  45.5111213  87.4509557
  96.3431412  44.7791451  88.0521096  97.3916538  45.4220113  87.1693745
 105.4426562  47.4499617  72.1994035 104.8255733  46.7246445  72.1027088
 104.9743050  48.2108977  71.8561110  99.1093915  45.2231172  86.9393236
  99.8193533  44.5824364  86.8979855  99.0663223  45.4744067  87.8619417
 107.0980694  52.1598525  89.8599816 107.0393240  51.4757745  89.1930399
 107.5000212  52.9017515  89.4080442  97.8222849  42.2096390  88.7588876
  97.2860206  41.7587128  89.4110472  97.2339557  42.3442299  88.0159340
  96.1171392  58.9760439  82.6533535  96.3567991  59.6078963  83.3312553
  95.2740589  58.6248479  82.9398894  97.2325108  41.6685041  71.3215340
  96.3554574  41.5473842  70.9577586  97.7082861  40.8771119  71.0694228
 107.0998101  50.1238109  88.0913795 106.2124880  49.7864031  88.2140194
 107.6696652  49.3921140  88.3282561  88.7527248  46.4562201  81.4156847
  89.4398288  46.1423931  80.8277862  88.5975377  47.3603566  81.1424098
  93.5561970  41.3452397  85.8441870  93.4720159  40.7378067  85.1092280
  92.7344677  41.8361416  85.8451367 100.6299254  54.7839562  85.0575039
 100.5569426  55.5894533  85.5694343 100.1876647  54.9831527  84.2323060
 100.4189034  54.0211332  78.5677860  99.6356556  54.5633012  78.6616085
 101.1181779  54.5385311  78.9672101 103.7285684  39.8305961  81.2112065
 104.2254384  39.0775923  80.8913136 102.9572666  39.8670278  80.6455275
 111.5815441  45.5346327  82.8530357 111.5705318  46.4171042  82.4824290
 110.7132821  45.1817877  82.6584894 103.0897938  54.6826396  87.2133197
 103.8025910  55.3173860  87.1409099 102.5987966  54.7790262  86.3973199
 104.8115465  48.5877648  78.7850489 103.8771743  48.7079111  78.6155193
 104.9892133  47.6850115  78.5210499 100.3120653  41.9723344  80.9383750
  99.9418440  41.4194384  81.6264656 100.8079745  41.3681477  80.3858750
 108.1988016  44.4294968  79.3200523 108.6648468  45.2622959  79.2460826
 108.6495517  43.9639949  80.0245781  98.1409851  52.4320839  88.0338768
  98.8419311  53.0657322  88.1868162  97.6704966  52.7735571  87.2734407
 106.2664247  50.7738789  76.3186675 106.5424091  50.6595383  77.2280549
 105.3968746  50.3756274  76.2798848 106.1704679  36.7975555  83.3591424
 105.2567759  37.0279781  83.5273631 106.5997780  36.8813999  84.2105457
 105.9411137  44.9865446  85.8591318 105.2882588  45.2341354  85.2043771
 106.3191517  44.1729585  85.5253796 102.9018311  55.0225140  79.9619489
 103.0840706  54.2046796  80.4247241 103.7251297  55.2392832  79.5244379
 103.2360477  53.9493325  77.2234537 103.7648243  53.4385779  76.6104699
 103.4988696  53.6335855  78.0880070 101.9898710  45.7285258  92.3457355
 101.3139347  45.6279387  93.0159731 102.8126344  45.5724471  92.8093353
  93.7377569  51.9657194  84.9669871  94.3231006  51.2200882  85.0997775
  93.5402408  52.2761151  85.8506535  96.5916225  55.0008441  79.9832313
  95.9226600  55.4854569  79.4996353  96.4529094  55.2477662  80.8975692
  88.3295224  44.5362794  83.6874314  88.3679324  44.0026385  84.4811432
  87.8235517  44.0098000  83.0685291 100.7321493  57.0352185  86.5814971
 101.2839801  57.1983806  87.3464057 101.0727687  57.6256623  85.9094996
  95.7085986  39.3827335  87.1836856  95.7727313  40.2442166  86.7714254
  95.6453107  38.7701336  86.4509215  95.1838259  41.4550467  90.8309890
  95.8110298  41.0727545  91.4447415  94.3266178  41.2364669  91.1965583
 105.5832368  51.8613442  92.4363626 106.1272272  52.4743401  91.9418581
 105.0019212  52.4193021  92.9530639  91.9603802  43.2626896  76.7628245
  92.2557243  42.3537575  76.7095299  91.0591837  43.2414636  76.4409248
 103.8689880  54.9834161  83.5678654 103.7441020  54.1823900  83.0589599
 104.5268972  55.4780354  83.0792624  95.4898049  41.3382893  82.7455794
  94.7684634  41.9518861  82.6063267  96.2791304  41.8740658  82.6672440
 105.9324789  52.7843181  85.1958204 104.9855124  52.6648532  85.1236530
 106.2807562  51.8965679  85.2784465  98.2924362  38.6737320  89.0196446
  98.8158764  38.9199616  89.7822755  98.0736696  39.5057354  88.5999583
  93.6891643  40.9440994  76.8867570  93.3604349  40.0638373  76.7042676
  94.0431014  40.8888663  77.7743960 102.9371222  52.5795897  81.3962556
 102.7896185  51.6512604  81.5770126 103.7624716  52.6015988  80.9119631
  96.8033466  41.2313964  77.2543048  97.1429539  41.7599885  76.5321656
  97.2505587  41.5694370  78.0301615 106.5405344  53.4024456  82.4827429
 107.4651891  53.1967317  82.3451880 106.3720647  53.1540857  83.3916770
  99.4976907  39.6151015  86.7046116  99.1573728  38.8158828  87.1066796
  98.7915914  39.9152725  86.1322949 100.1493379  36.7000327  85.1573439
 100.9719448  36.2260805  85.0352329 100.3931443  37.4790811  85.6572125
  98.7901614  39.7288585  75.4536341  99.5109976  40.1069838  74.9500058
  98.1666918  40.4477462  75.5571319 102.9332736  40.4333734  76.3894673
 103.1496351  41.3158372  76.0883501 102.4526804  40.0419948  75.6600315
  97.6731958  43.3919448  82.9665418  97.5276539  43.7059751  83.8589699
  97.1957161  44.0104348  82.4136316  99.5328341  40.3821996  83.0146307
  99.5189910  39.4863089  82.6778605 100.2500769  40.3892659  83.6484593
 101.3854471  40.8159336  85.0599435 101.1272249  41.7376407  85.0583765
 100.8539512  40.4189770  85.7499899 106.3300660  53.9210123  77.8389520
 106.5037538  53.3556545  77.0863373 106.8229551  54.7211018  77.6569010
  92.1477620  45.9324792  85.9053079  91.6031088  46.7084600  86.0373353
  93.0256970  46.2795597  85.7472200  98.9365237  39.2636376  78.2833877
  99.0581148  38.3353022  78.4824765  98.6467279  39.2775062  77.3712193
 101.8056427  36.9491286  81.4200597 101.8278124  37.0130619  80.4652577
 102.2224486  36.1095795  81.6141103 112.1840051  46.6846546  79.4579820
 112.6271197  45.9353871  79.0598943 111.3066562  46.6756682  79.0753552
 107.3175833  53.2376887  74.9386418 108.0126737  53.8583580  75.1573733
 107.6598983  52.3872239  75.2138796  92.9343642  45.0594688  88.7983236
  92.1925378  45.2077324  89.3847866  92.6136386  45.3202954  87.9349985
 109.2167256  50.6876593  76.4673749 109.7418580  51.0263866  75.7423069
 109.1289608  49.7523608  76.2836884 100.8787305  54.6010667  88.5963626
 101.1874431  54.3559813  89.4686325 101.6762787  54.8057305  88.1082496
 100.9007917  56.7548576  80.8269002 100.4612907  56.2624955  81.5201859
 101.6516034  56.2121544  80.5861078  93.3800256  52.9460117  80.8293630
  94.2058275  52.6463889  80.4492274  93.0294308  52.1767739  81.2783419
  98.3481789  52.2986585  82.8991304  97.7261798  51.6357290  82.5993532
  99.0186656  52.3247717  82.2164952  91.5808861  50.8646444  81.7882564
  90.7440769  50.4368618  81.6066565  91.5532506  51.0578887  82.7253355
  98.4206316  40.7768373  92.4923810  98.4694472  41.6530496  92.1101580
  98.9628830  40.2345766  91.9195453 108.9061162  51.3209497  91.7724947
 108.1156706  51.3033635  91.2329447 108.6694516  51.8597790  92.5273984
 109.0259037  48.1701963  89.0857676 109.0757042  48.0051970  90.0273198
 108.9172960  47.3029222  88.6955556  97.9095296  50.8490509  76.3749765
  98.0583416  51.5325973  75.7216437  98.7161739  50.8295599  76.8899220
 106.3162799  44.1532891  90.4016982 107.2172662  44.0139356  90.1100980
 106.3910774  44.3187346  91.3415160 100.6505605  41.5299746  89.2470169
  99.7808914  41.8233312  88.9752757 100.8865085  42.1140191  89.9677432
 110.5277234  50.5898904  89.3299697 110.2362042  50.9528885  90.1663158
 109.9149365  49.8765913  89.1513029 111.7272916  48.1551784  81.8502267
 112.5619807  48.5941588  82.0139828 111.8632045  47.6790437  81.0310513
 108.7764422  45.7131519  87.7979755 109.2518544  45.9059165  86.9898607
 107.8529987  45.7690705  87.5523139  95.6647929  46.8755686  77.3810833
  95.4193971  45.9718016  77.5791044  95.8343843  46.8772837  76.4390311
 103.3544638  37.7479363  86.7635589 103.8726582  38.4840390  86.4382078
 102.9999771  38.0543356  87.5982348  94.9343576  42.6084044  74.8796995
  94.2412821  42.6828399  74.2237031  94.6895328  41.8444387  75.4018512
 103.6057233  34.1679645  82.2836486 103.8858986  33.5002834  82.9096912
 104.3907840  34.3608741  81.7711150 101.4090701  53.3438639  73.8461512
 100.8364668  53.9628826  73.3931984 101.9823495  53.8938001  74.3801434
 107.4766091  42.5897279  86.0308061 108.4283514  42.6895377  86.0520285
 107.3069541  41.7975548  86.5406145 105.4980470  39.6752862  86.2167462
 104.9030403  39.9557875  85.5213950 105.2130167  40.1646763  86.9884203
 104.6287961  53.6275789  74.9770094 105.5618634  53.5621351  75.1802970
 104.5411174  54.4632056  74.5184627 107.2575978  52.9441660  71.9374042
 107.1789609  52.6101523  72.8309800 108.0785644  53.4363427  71.9365514
 109.9554169  45.8103399  85.1450360 109.9230489  44.8719400  85.3310044
 110.5654792  45.8887436  84.4116185 101.7937500  44.6799452  71.1877564
 102.7396604  44.5505660  71.2565983 101.4151745  43.9414114  71.6646993
 110.1048657  42.6014442  85.1908644 109.5887706  41.8172899  85.0038572
 110.9888606  42.2733159  85.3555163 107.7659384  36.3455458  81.1504456
 107.5684205  36.0370546  82.0347788 108.3759090  37.0717097  81.2802386
 115.7730719  46.8719406  84.2856397 116.5034107  46.6104694  84.8464101
 115.1637664  46.1348128  84.3258465 113.8546016  45.0127268  84.8830848
 113.1279179  44.8783233  84.2747340 113.4393303  45.3204097  85.6887566
 101.6776192  48.7317198  92.6478221 102.5979202  48.9095797  92.8418268
 101.6425775  47.7873243  92.4957921  99.9780417  42.6049428  71.1232450
  99.0711872  42.3082541  71.1995163 100.2556398  42.3079246  70.2566736
  90.8958357  43.9255792  81.5731496  90.5761142  43.0721100  81.2805870
  90.3491785  44.1404370  82.3289463  94.6738265  46.6418233  85.2901003
  94.8924275  47.5735340  85.3089036  95.0864039  46.2826207  86.0755806
 101.5942483  37.1486318  77.2776691 100.7843211  36.8033403  77.6531937
 102.2826899  36.8393862  77.8664303 103.5233031  36.2264365  78.9000988
 104.0764069  36.6459818  79.5591011 103.7603117  35.3000113  78.9423944
  99.5466130  42.2151438  94.6803752  99.4462857  43.1645795  94.6115843
  99.3287672  41.8869677  93.8079822  98.7479201  39.4636363  71.2644429
  99.6098365  39.7891262  71.5240246  98.9329546  38.6767859  70.7517495
  90.7646617  47.5458703  83.5424618  90.0710089  47.1312656  83.0294572
  91.5119608  47.5879240  82.9458037 106.9011838  38.3364890  78.4079652
 106.3210507  38.9949694  78.0257704 106.6347771  37.5142234  77.9967069
 105.3515404  37.7369948  80.6100972 105.8515183  37.8486482  79.8015291
 105.9951012  37.4331000  81.2501781  99.4097400  45.6448577  93.4968813
  98.9264482  46.4448937  93.7032702  99.4958339  45.6556522  92.5436257
  92.6783360  47.4776957  81.4190633  92.6554048  47.5764644  80.4672516
  92.9883996  48.3242108  81.7407799  95.3370738  49.5353112  85.5337247
  96.2913991  49.5037054  85.4667179  95.1383261  49.0743736  86.3487473
  95.9270120  48.1054228  88.1008045  96.7463009  48.5998307  88.1242882
  96.2006927  47.1886196  88.0725612 105.6836716  40.4964980  77.4636000
 104.7962571  40.7814631  77.2456195 106.0990705  40.3358744  76.6163277
 109.0351252  40.5211501  81.1790339 109.8111642  41.0107954  81.4514956
 108.3099386  40.9469555  81.6362209 111.4723811  41.2339120  82.2364280
 112.0668301  40.9934856  81.5257588 111.5450394  40.5146251  82.8637816
  93.6920966  55.0772731  82.5507445  93.5575434  54.3173132  81.9845443
  93.2753029  55.8013631  82.0836234 104.8279929  50.2609655  71.5584020
 105.5315780  50.4659657  72.1741676 104.1042578  50.8286417  71.8233104
 105.6577740  46.0119516  77.6786290 105.6012941  46.4688068  76.8393923
 106.2106082  45.2510201  77.5009133 109.4682546  41.8009248  78.5036410
 109.2119480  41.4005884  79.3344618 108.8435414  42.5153042  78.3786549
 113.7794883  44.5405321  81.0107701 113.2194441  44.6098511  81.7839263
 113.1738387  44.3646306  80.2907197  96.8490092  55.9742048  82.7625888
  96.7322476  56.9187481  82.6604578  96.0282539  55.6715610  83.1511687
 106.7366627  50.6992184  73.6082480 107.5712231  50.2673383  73.4259955
 106.5750970  50.5274198  74.5359375 106.3912519  47.2024297  74.9738820
 106.3361323  47.0368569  74.0327264 105.7658574  47.9100330  75.1301009
  91.1805034  42.4392362  88.8000242  91.8263898  41.9291316  89.2887467
  90.9722185  43.1761043  89.3743667 103.7058426  49.5073209  94.2992382
 104.5749586  49.6813862  93.9379017 103.2265178  50.3267626  94.1768112
  99.7008644  36.7032406  74.5524138  99.6887314  37.6474246  74.7092409
 100.5932066  36.5202552  74.2583599  97.8744606  56.6270310  85.9781816
  98.7771853  56.6593921  86.2948311  97.6481976  55.6970761  85.9928152
  99.6298208  55.3801297  82.6391895  98.6793839  55.3803158  82.5256267
  99.9330695  54.6334031  82.1227929 103.5160764  33.2975183  78.8070075
 102.7493160  32.7433670  78.9526757 103.9271469  33.3697052  79.6684226
  95.5202525  39.5859979  92.8975256  96.3833987  39.2296784  93.1078581
  94.9467936  39.2473874  93.5850660 115.3650902  61.2161835  83.7037657
 116.0029312  61.0968583  83.0000997 115.2471745  62.1642679  83.7625609
 112.1740608  61.1689263  83.6399182 111.8359120  61.0530328  82.7519717
 113.0430376  60.7680428  83.6200188 108.0327424  63.0224740  79.6296073
 107.4692289  62.9314677  78.8612360 107.9179819  62.2024644  80.1098565
 112.6560391  62.3224115  89.5985387 112.6449032  61.9276913  88.7265891
 112.8181031  61.5890188  90.1919159 105.5791856  64.5175931  82.4680293
 106.3713148  64.1766756  82.0526592 105.8188506  64.6270906  83.3882446
 113.6126983  66.6895707  74.9410537 112.9614962  67.2749788  74.5544551
 114.4071345  67.2201902  75.0005575 107.5382610  63.7784845  75.3397672
 108.3113486  63.2313832  75.2010548 107.8908009  64.6429094  75.5512133
 109.3767652  65.1061227  88.5464571 109.0857518  66.0106858  88.4311237
 110.0124637  65.1477755  89.2608641 110.3023859  62.4838075  85.1365931
 110.8987431  62.2594098  84.4222894 110.3598831  61.7422821  85.7391379
 109.8748888  59.9377511  72.9716122 110.1274408  59.4159032  72.2099585
 108.9373447  59.7743656  73.0742805 114.9192170  58.9413289  80.7790865
 115.7055260  58.5232712  80.4281282 115.1830875  59.8459381  80.9472513
 115.0902248  64.3786139  75.4779522 114.4548081  64.4520766  76.1900426
 114.7599654  64.9679738  74.7998601 120.3200598  58.8788522  81.6823844
 121.0525769  58.3087739  81.9161673 119.5639953  58.4910123  82.1230349
 109.5945176  61.8405617  75.1740497 109.4781434  61.1650520  75.8421581
 109.7047436  61.3537991  74.3572650 111.9376717  61.3015764  78.8787186
 111.5734924  60.7746385  79.5900107 112.7943833  60.9114233  78.7053671
 117.8426018  52.5910096  86.1418452 117.5109343  53.4605507  85.9179667
 117.2471631  52.2746380  86.8212482 111.5782204  56.3305663  73.8748534
 111.7456607  57.1985900  74.2419006 111.3879373  56.4932945  72.9509824
 114.3357537  64.7922642  85.5414365 114.0358260  65.6947681  85.4330172
 113.9908597  64.5254826  86.3935518 107.7870019  61.2436439  81.5751069
 106.8620515  61.1112653  81.7828761 108.0354432  62.0230658  82.0721012
 117.7354681  57.3105183  83.2211802 116.8271559  57.2420591  82.9270563
 117.6842277  57.7877128  84.0493628 111.5571425  58.7863321  74.8595201
 111.4371050  59.2320372  75.6980682 110.8624013  59.1348639  74.3008739
 105.1478830  60.8869713  82.4094858 105.2771211  61.1404192  83.3234270
 104.4676281  61.4797421  82.0899513 109.3178317  71.5566963  78.5085333
 109.2402347  72.5074788  78.5873813 108.7139961  71.2112835  79.1660259
 111.8095547  58.7294828  91.1646699 111.0328881  59.2888748  91.1549564
 112.4486110  59.2151611  91.6861570 119.6016328  55.5121621  84.9989676
 118.9590708  55.8054154  84.3529471 119.0971256  55.3974541  85.8042873
 117.2556491  59.2584794  75.6875535 118.1674347  59.4912181  75.5123233
 116.7466138  59.8421838  75.1250614 110.0641919  61.5380282  90.7264666
 110.8056604  62.0765326  90.4499490 109.3578905  62.1646570  90.8836218
 115.5397259  63.6809422  89.3236828 115.9480615  63.2391833  88.5791460
 114.8174520  63.1062050  89.5771021 111.8928329  58.6182029  86.6970385
 112.7389524  59.0421442  86.8405034 111.8326967  57.9615653  87.3908948
 115.8626074  64.2410613  83.0789117 115.2334936  64.4056327  82.3765185
 115.4751736  64.6552222  83.8500081 119.7415305  65.1765050  80.4333481
 119.0566344  65.5563952  79.8830514 119.8259155  65.7860377  81.1665428
 115.0427774  56.2786397  88.3551559 114.7988706  57.0328458  87.8185834
 115.3187705  56.6571745  89.1898806 116.9966237  62.8225010  87.0328824
 117.2083132  63.4656769  86.3563205 116.9495985  61.9887326  86.5650754
 114.5992466  55.4342830  83.9365396 113.7376945  55.7324084  84.2282134
 114.6254901  55.6513229  83.0046429 111.4154035  63.9785021  80.3439202
 111.8792381  64.2572724  79.5543824 111.1510834  63.0768465  80.1612293
 108.3078116  63.5256502  83.2818965 108.8779474  63.9543771  82.6436450
 108.8986228  63.2439087  83.9803151 110.3522921  60.1008173  77.1528767
 111.0546965  60.5529217  77.6202693 110.0203550  59.4591992  77.7808660
 108.8003283  58.6919930  91.5279976 108.1701944  59.3736211  91.7615373
 108.6939371  58.5803011  90.5833115 104.0948255  58.3591726  82.4545901
 103.3047309  58.6149254  81.9786011 104.5859503  59.1740064  82.5597941
 118.1112065  65.6996965  85.2051181 118.9329509  65.2977152  84.9233863
 118.1074468  65.5965199  86.1567297 106.0463001  58.7236305  79.4129377
 105.2494164  58.8354999  79.9312873 105.8188593  59.0622957  78.5470268
 111.8768668  65.2481008  87.3611892 111.9413101  65.7101415  88.1970064
 111.1679592  64.6178373  87.4894202 102.3785958  58.6122216  84.8860891
 102.6293997  59.4969226  85.1518467 102.9145507  58.4326818  84.1135983
 126.2018058  62.0435713  81.5536153 125.4481766  61.4743111  81.3980157
 126.3365599  62.0098378  82.5006788 111.5916686  66.9149116  77.2290872
 111.4562361  67.7600651  77.6575720 112.1326499  67.1168393  76.4656806
 108.0784026  52.9940696  93.8905227 107.6850971  52.4406894  94.5652872
 108.8950166  53.3051274  94.2811745 105.0446084  64.4324554  77.8018797
 105.5570604  65.2267804  77.9524362 105.6968796  63.7350844  77.7352399
 106.8540968  67.5490310  79.8841551 107.0307597  68.4708275  79.6962534
 107.6497802  67.2348729  80.3135930 110.9951987  54.4098575  91.4825484
 111.7361700  55.0105728  91.4029947 111.2269910  53.6676212  90.9243527
 106.1393325  59.5954942  89.7603714 106.0246840  58.6940199  90.0610813
 105.2837842  59.8418639  89.4088530 113.2185162  67.5372682  91.3591214
 112.7749017  66.7509061  91.0412119 113.8802376  67.7251833  90.6935105
 107.9772284  69.0668484  85.8851893 108.5279709  68.9385547  85.1128887
 107.1383760  69.3663373  85.5346786 115.3166401  67.8175482  89.3872616
 115.2984876  68.6384363  88.8952885 116.2386321  67.6929557  89.6122757
 111.7739455  65.3319612  90.2296124 112.3067792  64.5707900  89.9995432
 111.2453536  65.0393263  90.9720278 114.9409150  50.4379678  85.7589766
 114.5973419  51.3281319  85.6828876 115.3088112  50.2481335  84.8959351
 103.0095000  62.7613208  78.5778368 103.8470222  63.1710216  78.3612076
 103.1873268  61.8212650  78.5478562 114.9059432  60.4288289  74.2662201
 114.3906056  61.1992893  74.5050588 114.6336741  59.7553425  74.8895262
 112.4906543  55.2737989  79.3247439 111.6348140  54.8844840  79.1453078
 112.9033495  55.3529950  78.4647225 114.0205690  52.8084333  83.7238999
 113.5170486  52.7714468  82.9106804 114.3136297  53.7177075  83.7835656
 110.2648576  52.8923062  82.7305181 111.1301573  52.6965871  82.3711070
 110.3326085  52.6633414  83.6574537 119.8793707  63.1820643  76.2015374
 119.1023149  62.8431803  75.7570536 120.5585188  63.1873267  75.5270339
 114.6945736  58.3015381  76.0921982 114.3895871  58.6161530  76.9432125
 115.6476178  58.3796801  76.1349315 113.1392167  64.4605604  77.7414936
 112.6113529  63.7258364  77.4288173 112.6379670  65.2380280  77.4954904
 118.1185013  62.6554625  82.8581982 117.4608688  63.3453886  82.9462111
 118.9225413  63.0451057  83.2015969 107.8710895  55.1225270  80.1021548
 108.4454647  54.9000452  79.3694740 108.4581877  55.1913965  80.8550149
 116.9290472  61.0098997  80.9085924 117.4422354  61.6428989  81.4107634
 117.5791696  60.4100193  80.5429284 108.1980482  57.1529731  74.1217433
 107.3617794  57.4904418  74.4426708 108.0585252  57.0178711  73.1844570
 110.1733563  51.9966519  78.8296617 109.5197975  51.6815536  78.2053232
 110.1314037  51.3742260  79.5556440 111.2844768  62.2785814  70.7449909
 110.3771829  62.0475068  70.9441058 111.7815800  61.4823434  70.9323891
 114.1912846  70.9883322  73.6646595 113.5174545  71.2915018  74.2731553
 114.5778668  71.7912402  73.3152052 113.4071303  58.4848453  83.1544265
 112.4893864  58.7063400  82.9965953 113.8231447  58.5594763  82.2955972
 114.1906351  59.8839869  78.2846945 114.9378170  60.3961266  77.9754067
 114.4597940  59.5623921  79.1451338 112.4633001  62.3798409  75.2673899
 111.5544220  62.0957442  75.3646369 112.4928085  62.7997488  74.4077206
 117.6952268  65.9904999  79.0365067 117.2414596  65.1495909  79.0930257
 117.0646235  66.6266397  79.3739847 116.6385188  56.9196985  80.2665734
 115.9007945  56.4074371  80.5975977 116.8911962  56.4797366  79.4549011
 116.1385208  67.8281495  79.9714885 116.4308182  68.3886553  79.2527250
 116.6483828  68.1210056  80.7268044 116.7396815  49.6973237  80.8607503
 117.0455692  48.8370600  80.5733418 117.4649420  50.2890857  80.6606497
 103.0321171  60.1003923  79.2489101 102.8345571  59.5073284  78.5240168
 102.4767835  59.7956134  79.9665040 111.0117895  59.9927030  81.3683694
 111.0666505  59.0400866  81.2926171 110.2009097  60.1486469  81.8524993
 112.1609089  63.9207153  72.6061978 111.7228519  63.2043012  72.1467615
 112.9019530  64.1483268  72.0447069 108.9510255  58.6104090  79.1274073
 108.1378121  58.9098260  79.5339265 109.4469249  58.2159778  79.8448556
 111.1018833  68.6061847  81.0608338 111.0595012  68.8322693  80.1316870
 112.0181532  68.3725221  81.2094139 114.5484467  59.0745914  87.9588967
 114.9033854  59.3017387  88.8183433 115.1956598  59.4064291  87.3366223
 120.2782204  62.1964350  78.6638296 120.1400102  62.3865946  77.7359485
 119.9218422  62.9583733  79.1206347 108.4424330  56.1822445  84.7435308
 109.0823709  56.0411204  84.0458272 107.6101860  55.8956959  84.3673910
 120.3051583  64.2640877  83.6749568 120.7388090  64.1716166  84.5232622
 121.0183164  64.2398377  83.0369584 109.2184634  65.4824876  80.8570301
 110.0125232  64.9875196  80.6552876 108.5076326  64.9542739  80.4938006
 114.0379478  67.8642971  85.2082668 114.0916500  68.4333907  85.9760384
 113.1694259  68.0344856  84.8436705 105.5267397  59.6267957  76.9330053
 104.5964985  59.5652413  77.1500016 105.6224869  59.1043910  76.1366695
 105.4452946  56.1522770  79.5208295 105.7059763  57.0668103  79.4117456
 106.2670119  55.6847213  79.6704908 106.9177872  57.5660527  86.6907120
 107.5900925  57.3577889  86.0419769 106.0907658  57.3682613  86.2512352
 121.1667133  64.3064578  86.2082453 121.3603023  65.2110388  86.4541728
 121.0667751  63.8471997  87.0421038 112.8203444  54.1922468  88.7072780
 112.1731359  54.8912418  88.6137257 113.5904459  54.6258612  89.0749029
 116.2282241  64.4571320  91.7823334 116.0767748  64.2281872  90.8653417
 116.2186921  65.4141922  91.7954679 112.9967578  62.0303233  86.7669600
 113.9259638  62.1814393  86.5938568 112.5758608  62.1187254  85.9118247
 111.7955910  66.0553898  84.5368138 111.6566995  65.6872682  85.4094076
 111.0070506  66.5701537  84.3652096 112.3904062  71.1562994  75.8793674
 112.5655817  70.6851037  76.6939297 111.7036850  71.7828760  76.1074935
 113.3461125  65.4335500  81.9256976 113.0110957  65.3936270  82.8214626
 112.8465070  64.7680216  81.4527386 107.3205369  60.8403130  87.4509557
 107.1825167  60.1083369  88.0521096 108.2310292  60.7512030  87.1693745
 116.2820316  62.7791535  72.1994035 115.6649487  62.0538363  72.1027088
 115.8136805  63.5400895  71.8561110 109.9487669  60.5523090  86.9393236
 110.6587288  59.9116282  86.8979855 109.9056978  60.8035984  87.8619417
 117.9374448  67.4890443  89.8599816 117.8786994  66.8049663  89.1930399
 118.3393966  68.2309433  89.4080442 108.6616603  57.5388307  88.7588876
 108.1253960  57.0879046  89.4110472 108.0733312  57.6734216  88.0159340
 106.9565147  74.3052357  82.6533535 107.1961745  74.9370881  83.3312553
 106.1134343  73.9540397  82.9398894 108.0718862  56.9976959  71.3215340
 107.1948329  56.8765760  70.9577586 108.5476615  56.2063037  71.0694228
 117.9391855  65.4530027  88.0913795 117.0518634  65.1155949  88.2140194
 118.5090406  64.7213058  88.3282561  99.5921002  61.7854119  81.4156847
 100.2792042  61.4715849  80.8277862  99.4369131  62.6895483  81.1424098
 104.3955725  56.6744315  85.8441870 104.3113913  56.0669985  85.1092280
 103.5738431  57.1653333  85.8451367 111.4693009  70.1131479  85.0575039
 111.3963180  70.9186451  85.5694343 111.0270402  70.3123445  84.2323060
 111.2582788  69.3503249  78.5677860 110.4750310  69.8924929  78.6616085
 111.9575534  69.8677229  78.9672101 114.5679439  55.1597879  81.2112065
 115.0648138  54.4067841  80.8913136 113.7966420  55.1962195  80.6455275
 122.4209196  60.8638244  82.8530357 122.4099072  61.7462960  82.4824290
 121.5526575  60.5109795  82.6584894 113.9291692  70.0118313  87.2133197
 114.6419664  70.6465778  87.1409099 113.4381721  70.1082179  86.3973199
 115.6509219  63.9169566  78.7850489 114.7165498  64.0371028  78.6155193
 115.8285888  63.0142033  78.5210499 111.1514407  57.3015262  80.9383750
 110.7812195  56.7486302  81.6264656 111.6473500  56.6973395  80.3858750
 119.0381771  59.7586885  79.3200523 119.5042223  60.5914877  79.2460826
 119.4889271  59.2931867  80.0245781 108.9803606  67.7612757  88.0338768
 109.6813065  68.3949240  88.1868162 108.5098721  68.1027488  87.2734407
 117.1058002  66.1030706  76.3186675 117.3817846  65.9887301  77.2280549
 116.2362500  65.7048191  76.2798848 117.0098433  52.1267472  83.3591424
 116.0961513  52.3571699  83.5273631 117.4391535  52.2105916  84.2105457
 116.7804892  60.3157364  85.8591318 116.1276342  60.5633272  85.2043771
 117.1585272  59.5021502  85.5253796 113.7412066  70.3517057  79.9619489
 113.9234460  69.5338713  80.4247241 114.5645052  70.5684750  79.5244379
 114.0754231  69.2785242  77.2234537 114.6041998  68.7677697  76.6104699
 114.3382451  68.9627773  78.0880070 112.8292465  61.0577175  92.3457355
 112.1533102  60.9571305  93.0159731 113.6520099  60.9016389  92.8093353
 104.5771324  67.2949112  84.9669871 105.1624761  66.5492800  85.0997775
 104.3796162  67.6053068  85.8506535 107.4309979  70.3300359  79.9832313
 106.7620354  70.8146487  79.4996353 107.2922849  70.5769580  80.8975692
  99.1688979  59.8654712  83.6874314  99.2073078  59.3318303  84.4811432
  98.6629271  59.3389917  83.0685291 111.5715248  72.3644103  86.5814971
 112.1233556  72.5275724  87.3464057 111.9121441  72.9548540  85.9094996
 106.5479741  54.7119252  87.1836856 106.6121067  55.5734083  86.7714254
 106.4846861  54.0993254  86.4509215 106.0232013  56.7842385  90.8309890
 106.6504052  56.4019462  91.4447415 105.1659932  56.5656587  91.1965583
 116.4226122  67.1905360  92.4363626 116.9666026  67.8035318  91.9418581
 115.8412967  67.7484939  92.9530639 102.7997556  58.5918814  76.7628245
 103.0950997  57.6829493  76.7095299 101.8985592  58.5706554  76.4409248
 114.7083635  70.3126078  83.5678654 114.5834774  69.5115818  83.0589599
 115.3662726  70.8072272  83.0792624 106.3291803  56.6674811  82.7455794
 105.6078389  57.2810778  82.6063267 107.1185059  57.2032576  82.6672440
 116.7718543  68.1135098  85.1958204 115.8248879  67.9940449  85.1236530
 117.1201316  67.2257596  85.2784465 109.1318117  54.0029237  89.0196446
 109.6552519  54.2491534  89.7822755 108.9130450  54.8349272  88.5999583
 104.5285398  56.2732912  76.8867570 104.1998104  55.3930291  76.7042676
 104.8824768  56.2180580  77.7743960 113.7764977  67.9087814  81.3962556
 113.6289939  66.9804522  81.5770126 114.6018470  67.9307905  80.9119631
 107.6427221  56.5605882  77.2543048 107.9823293  57.0891803  76.5321656
 108.0899341  56.8986288  78.0301615 117.3799098  68.7316373  82.4827429
 118.3045646  68.5259235  82.3451880 117.2114402  68.4832774  83.3916770
 110.3370662  54.9442932  86.7046116 109.9967482  54.1450745  87.1066796
 109.6309668  55.2444643  86.1322949 110.9887134  52.0292245  85.1573439
 111.8113203  51.5552723  85.0352329 111.2325197  52.8082728  85.6572125
 109.6295368  55.0580503  75.4536341 110.3503731  55.4361756  74.9500058
 109.0060672  55.7769380  75.5571319 113.7726491  55.7625652  76.3894673
 113.9890105  56.6450290  76.0883501 113.2920558  55.3711866  75.6600315
 108.5125712  58.7211365  82.9665418 108.3670293  59.0351668  83.8589699
 108.0350916  59.3396266  82.4136316 110.3722095  55.7113913  83.0146307
 110.3583664  54.8155007  82.6778605 111.0894523  55.7184577  83.6484593
 112.2248226  56.1451254  85.0599435 111.9666004  57.0668324  85.0583765
 111.6933266  55.7481688  85.7499899 117.1694415  69.2502041  77.8389520
 117.3431292  68.6848463  77.0863373 117.6623306  70.0502936  77.6569010
 102.9871375  61.2616710  85.9053079 102.4424843  62.0376518  86.0373353
 103.8650724  61.6087514  85.7472200 109.7758991  54.5928294  78.2833877
 109.8974902  53.6644940  78.4824765 109.4861034  54.6066980  77.3712193
 112.6450182  52.2783204  81.4200597 112.6671878  52.3422537  80.4652577
 113.0618241  51.4387713  81.6141103 123.0233806  62.0138464  79.4579820
 123.4664952  61.2645789  79.0598943 122.1460316  62.0048600  79.0753552
 118.1569587  68.5668805  74.9386418 118.8520492  69.1875498  75.1573733
 118.4992737  67.7164156  75.2138796 103.7737396  60.3886606  88.7983236
 103.0319132  60.5369241  89.3847866 103.4530141  60.6494872  87.9349985
 120.0561010  66.0168511  76.4673749 120.5812334  66.3555783  75.7423069
 119.9683363  65.0815526  76.2836884 111.7181059  69.9302584  88.5963626
 112.0268185  69.6851731  89.4686325 112.5156541  70.1349223  88.1082496
 111.7401671  72.0840494  80.8269002 111.3006661  71.5916873  81.5201859
 112.4909788  71.5413462  80.5861078 104.2194010  68.2752035  80.8293630
 105.0452030  67.9755807  80.4492274 103.8688062  67.5059657  81.2783419
 109.1875543  67.6278503  82.8991304 108.5655553  66.9649208  82.5993532
 109.8580410  67.6539635  82.2164952 102.4202615  66.1938361  81.7882564
 101.5834523  65.7660536  81.6066565 102.3926261  66.3870805  82.7253355
 109.2600071  56.1060291  92.4923810 109.3088226  56.9822414  92.1101580
 109.8022585  55.5637684  91.9195453 119.7454916  66.6501414  91.7724947
 118.9550460  66.6325553  91.2329447 119.5088271  67.1889708  92.5273984
 119.8652791  63.4993881  89.0857676 119.9150796  63.3343888  90.0273198
 119.7566715  62.6321140  88.6955556 108.7489050  66.1782426  76.3749765
 108.8977170  66.8617891  75.7216437 109.5555494  66.1587516  76.8899220
 117.1556554  59.4824809  90.4016982 118.0566417  59.3431273  90.1100980
 117.2304528  59.6479263  91.3415160 111.4899359  56.8591663  89.2470169
 110.6202669  57.1525229  88.9752757 111.7258840  57.4432108  89.9677432
 121.3670988  65.9190822  89.3299697 121.0755797  66.2820803  90.1663158
 120.7543120  65.2057830  89.1513029 122.5666671  63.4843702  81.8502267
 123.4013562  63.9233506  82.0139828 122.7025799  63.0082355  81.0310513
 119.6158177  61.0423437  87.7979755 120.0912298  61.2351083  86.9898607
 118.6923742  61.0982623  87.5523139 106.5041683  62.2047604  77.3810833
 106.2587725  61.3009934  77.5791044 106.6737598  62.2064754  76.4390311
 114.1938393  53.0771280  86.7635589 114.7120337  53.8132307  86.4382078
 113.8393526  53.3835274  87.5982348 105.7737331  57.9375962  74.8796995
 105.0806576  58.0120316  74.2237031 105.5289083  57.1736305  75.4018512
 114.4450987  49.4971563  82.2836486 114.7252741  48.8294752  82.9096912
 115.2301594  49.6900658  81.7711150 112.2484456  68.6730557  73.8461512
 111.6758423  69.2920744  73.3931984 112.8217249  69.2229918  74.3801434
 118.3159846  57.9189197  86.0308061 119.2677268  58.0187295  86.0520285
 118.1463296  57.1267465  86.5406145 116.3374225  55.0044780  86.2167462
 115.7424157  55.2849793  85.5213950 116.0523922  55.4938681  86.9884203
 115.4681715  68.9567707  74.9770094 116.4012389  68.8913269  75.1802970
 115.3804928  69.7923974  74.5184627 118.0969732  68.2733577  71.9374042
 118.0183364  67.9393441  72.8309800 118.9179399  68.7655345  71.9365514
 120.7947923  61.1395317  85.1450360 120.7624243  60.2011317  85.3310044
 121.4048547  61.2179353  84.4116185 112.6331254  60.0091370  71.1877564
 113.5790359  59.8797578  71.2565983 112.2545499  59.2706031  71.6646993
 120.9442412  57.9306360  85.1908644 120.4281460  57.1464817  85.0038572
 121.8282360  57.6025077  85.3555163 118.6053139  51.6747376  81.1504456
 118.4077960  51.3662464  82.0347788 119.2152844  52.4009014  81.2802386
 126.6124473  62.2011323  84.2856397 127.3427862  61.9396612  84.8464101
 126.0031419  61.4640045  84.3258465 124.6939770  60.3419186  84.8830848
 123.9672934  60.2075151  84.2747340 124.2787057  60.6496015  85.6887566
 112.5169947  64.0609116  92.6478221 113.4372956  64.2387715  92.8418268
 112.4819530  63.1165161  92.4957921 110.8174171  57.9341346  71.1232450
 109.9105627  57.6374459  71.1995163 111.0950152  57.6371164  70.2566736
 101.7352112  59.2547709  81.5731496 101.4154896  58.4013017  81.2805870
 101.1885540  59.4696287  82.3289463 105.5132019  61.9710150  85.2901003
 105.7318029  62.9027258  85.3089036 105.9257793  61.6118125  86.0755806
 112.4336237  52.4778236  77.2776691 111.6236965  52.1325321  77.6531937
 113.1220654  52.1685779  77.8664303 114.3626785  51.5556282  78.9000988
 114.9157824  51.9751736  79.5591011 114.5996872  50.6292031  78.9423944
 110.3859885  57.5443356  94.6803752 110.2856611  58.4937713  94.6115843
 110.1681427  57.2161595  93.8079822 109.5872956  54.7928281  71.2644429
 110.4492120  55.1183179  71.5240246 109.7723300  54.0059777  70.7517495
 101.6040372  62.8750621  83.5424618 100.9103843  62.4604574  83.0294572
 102.3513363  62.9171157  82.9458037 117.7405592  53.6656808  78.4079652
 117.1604261  54.3241612  78.0257704 117.4741525  52.8434152  77.9967069
 116.1909159  53.0661865  80.6100972 116.6908937  53.1778400  79.8015291
 116.8344767  52.7622918  81.2501781 110.2491155  60.9740495  93.4968813
 109.7658236  61.7740855  93.7032702 110.3352094  60.9848440  92.5436257
 103.5177114  62.8068875  81.4190633 103.4947802  62.9056562  80.4672516
 103.8277751  63.6534025  81.7407799 106.1764492  64.8645030  85.5337247
 107.1307746  64.8328972  85.4667179 105.9777016  64.4035653  86.3487473
 106.7663874  63.4346146  88.1008045 107.5856763  63.9290224  88.1242882
 107.0400682  62.5178114  88.0725612 116.5230470  55.8256898  77.4636000
 115.6356325  56.1106549  77.2456195 116.9384459  55.6650661  76.6163277
 119.8745007  55.8503419  81.1790339 120.6505397  56.3399871  81.4514956
 119.1493141  56.2761473  81.6362209 122.3117565  56.5631038  82.2364280
 122.9062056  56.3226774  81.5257588 122.3844149  55.8438169  82.8637816
 104.5314721  70.4064649  82.5507445 104.3969189  69.6465050  81.9845443
 104.1146783  71.1305549  82.0836234 115.6673684  65.5901573  71.5584020
 116.3709534  65.7951575  72.1741676 114.9436333  66.1578335  71.8233104
 116.4971494  61.3411434  77.6786290 116.4406696  61.7979985  76.8393923
 117.0499837  60.5802118  77.5009133 120.3076300  57.1301166  78.5036410
 120.0513234  56.7297801  79.3344618 119.6829168  57.8444960  78.3786549
 124.6188638  59.8697239  81.0107701 124.0588196  59.9390428  81.7839263
 124.0132141  59.6938224  80.2907197 107.6883847  71.3033966  82.7625888
 107.5716231  72.2479399  82.6604578 106.8676293  71.0007528  83.1511687
 117.5760381  66.0284102  73.6082480 118.4105985  65.5965300  73.4259955
 117.4144724  65.8566116  74.5359375 117.2306273  62.5316215  74.9738820
 117.1755077  62.3660487  74.0327264 116.6052329  63.2392248  75.1301009
 102.0198788  57.7684280  88.8000242 102.6657652  57.2583233  89.2887467
 101.8115940  58.5052961  89.3743667 114.5452181  64.8365127  94.2992382
 115.4143340  65.0105779  93.9379017 114.0658932  65.6559544  94.1768112
 110.5402399  52.0324324  74.5524138 110.5281069  52.9766164  74.7092409
 111.4325821  51.8494470  74.2583599 108.7138361  71.9562228  85.9781816
 109.6165608  71.9885838  86.2948311 108.4875731  71.0262679  85.9928152
 110.4691963  70.7093215  82.6391895 109.5187594  70.7095076  82.5256267
 110.7724449  69.9625949  82.1227929 114.3554518  48.6267101  78.8070075
 113.5886914  48.0725587  78.9526757 114.7665223  48.6988970  79.6684226
 106.3596279  54.9151897  92.8975256 107.2227741  54.5588701  93.1078581
 105.7861690  54.5765791  93.5850660 126.2044656  76.5453753  83.7037657
 126.8423066  76.4260500  83.0000997 126.0865499  77.4934597  83.7625609
 123.0134363  76.4981181  83.6399182 122.6752874  76.3822246  82.7519717
 123.8824131  76.0972346  83.6200188 118.8721178  78.3516657  79.6296073
 118.3086043  78.2606594  78.8612360 118.7573573  77.5316562  80.1098565
 123.4954146  77.6516033  89.5985387 123.4842786  77.2568831  88.7265891
 123.6574785  76.9182105  90.1919159 116.4185610  79.8467849  82.4680293
 117.2106902  79.5058674  82.0526592 116.6582260  79.9562824  83.3882446
 124.4520737  82.0187625  74.9410537 123.8008717  82.6041706  74.5544551
 125.2465100  82.5493820  75.0005575 118.3776364  79.1076762  75.3397672
 119.1507240  78.5605749  75.2010548 118.7301763  79.9721012  75.5512133
 120.2161407  80.4353145  88.5464571 119.9251273  81.3398775  88.4311237
 120.8518391  80.4769672  89.2608641 121.1417614  77.8129993  85.1365931
 121.7381186  77.5886015  84.4222894 121.1992585  77.0714739  85.7391379
 120.7142642  75.2669428  72.9716122 120.9668163  74.7450950  72.2099585
 119.7767201  75.1035574  73.0742805 125.7585925  74.2705207  80.7790865
 126.5449014  73.8524630  80.4281282 126.0224629  75.1751299  80.9472513
 125.9296002  79.7078057  75.4779522 125.2941835  79.7812684  76.1900426
 125.5993409  80.2971656  74.7998601 131.1594352  74.2080440  81.6823844
 131.8919524  73.6379657  81.9161673 130.4033708  73.8202040  82.1230349
 120.4338931  77.1697534  75.1740497 120.3175189  76.4942438  75.8421581
 120.5441191  76.6829908  74.3572650 122.7770472  76.6307681  78.8787186
 122.4128679  76.1038302  79.5900107 123.6337588  76.2406151  78.7053671
 128.6819772  67.9202014  86.1418452 128.3503097  68.7897425  85.9179667
 128.0865386  67.6038298  86.8212482 122.4175959  71.6597581  73.8748534
 122.5850361  72.5277818  74.2419006 122.2273128  71.8224863  72.9509824
 125.1751292  80.1214560  85.5414365 124.8752015  81.0239599  85.4330172
 124.8302351  79.8546743  86.3935518 118.6263773  76.5728357  81.5751069
 117.7014270  76.4404571  81.7828761 118.8748187  77.3522576  82.0721012
 128.5748436  72.6397100  83.2211802 127.6665313  72.5712509  82.9270563
 128.5236031  73.1169045  84.0493628 122.3965180  74.1155239  74.8595201
 122.2764805  74.5612289  75.6980682 121.7017768  74.4640556  74.3008739
 115.9872584  76.2161630  82.4094858 116.1164966  76.4696109  83.3234270
 115.3070036  76.8089338  82.0899513 120.1572072  86.8858880  78.5085333
 120.0796101  87.8366706  78.5873813 119.5533715  86.5404753  79.1660259
 122.6489301  74.0586746  91.1646699 121.8722636  74.6180666  91.1549564
 123.2879865  74.5443529  91.6861570 130.4410082  70.8413539  84.9989676
 129.7984462  71.1346072  84.3529471 129.9365011  70.7266459  85.8042873
 128.0950246  74.5876712  75.6875535 129.0068102  74.8204099  75.5123233
 127.5859893  75.1713756  75.1250614 120.9035674  76.8672199  90.7264666
 121.6450358  77.4057243  90.4499490 120.1972659  77.4938488  90.8836218
 126.3791013  79.0101340  89.3236828 126.7874369  78.5683750  88.5791460
 125.6568275  78.4353967  89.5771021 122.7322083  73.9473946  86.6970385
 123.5783279  74.3713360  86.8405034 122.6720721  73.2907571  87.3908948
 126.7019828  79.5702530  83.0789117 126.0728690  79.7348244  82.3765185
 126.3145490  79.9844140  83.8500081 130.5809060  80.5056968  80.4333481
 129.8960098  80.8855870  79.8830514 130.6652909  81.1152295  81.1665428
 125.8821529  71.6078315  88.3551559 125.6382461  72.3620375  87.8185834
 126.1581459  71.9863662  89.1898806 127.8359992  78.1516927  87.0328824
 128.0476887  78.7948687  86.3563205 127.7889740  77.3179244  86.5650754
 125.4386221  70.7634748  83.9365396 124.5770700  71.0616001  84.2282134
 125.4648655  70.9805147  83.0046429 122.2547790  79.3076938  80.3439202
 122.7186135  79.5864641  79.5543824 121.9904588  78.4060383  80.1612293
 119.1471871  78.8548420  83.2818965 119.7173228  79.2835688  82.6436450
 119.7379983  78.5731005  83.9803151 121.1916676  75.4300091  77.1528767
 121.8940719  75.8821134  77.6202693 120.8597304  74.7883910  77.7808660
 119.6397038  74.0211847  91.5279976 119.0095698  74.7028128  91.7615373
 119.5333125  73.9094929  90.5833115 114.9342010  73.6883643  82.4545901
 114.1441064  73.9441172  81.9786011 115.4253257  74.5031981  82.5597941
 128.9505819  81.0288883  85.2051181 129.7723263  80.6269070  84.9233863
 128.9468222  80.9257117  86.1567297 116.8856755  74.0528223  79.4129377
 116.0887919  74.1646917  79.9312873 116.6582348  74.3914875  78.5470268
 122.7162423  80.5772926  87.3611892 122.7806855  81.0393333  88.1970064
 122.0073347  79.9470291  87.4894202 113.2179713  73.9414134  84.8860891
 113.4687751  74.8261144  85.1518467 113.7539261  73.7618735  84.1135983
 137.0411813  77.3727631  81.5536153 136.2875521  76.8035029  81.3980157
 137.1759354  77.3390296  82.5006788 122.4310441  82.2441033  77.2290872
 122.2956115  83.0892569  77.6575720 122.9720253  82.4460311  76.4656806
 118.9177780  68.3232613  93.8905227 118.5244726  67.7698812  94.5652872
 119.7343921  68.6343192  94.2811745 115.8839838  79.7616471  77.8018797
 116.3964359  80.5559722  77.9524362 116.5362551  79.0642762  77.7352399
 117.6934723  82.8782228  79.8841551 117.8701351  83.8000192  79.6962534
 118.4891556  82.5640647  80.3135930 121.8345741  69.7390492  91.4825484
 122.5755455  70.3397645  91.4029947 122.0663664  68.9968130  90.9243527
 116.9787079  74.9246860  89.7603714 116.8640594  74.0232117  90.0610813
 116.1231597  75.1710556  89.4088530 124.0578917  82.8664600  91.3591214
 123.6142771  82.0800978  91.0412119 124.7196131  83.0543750  90.6935105
 118.8166038  84.3960401  85.8851893 119.3673463  84.2677465  85.1128887
 117.9777514  84.6955291  85.5346786 126.1560155  83.1467400  89.3872616
 126.1378630  83.9676281  88.8952885 127.0780075  83.0221475  89.6122757
 122.6133209  80.6611529  90.2296124 123.1461546  79.8999817  89.9995432
 122.0847290  80.3685181  90.9720278 125.7802904  65.7671595  85.7589766
 125.4367174  66.6573237  85.6828876 126.1481867  65.5773253  84.8959351
 113.8488755  78.0905126  78.5778368 114.6863977  78.5002134  78.3612076
 114.0267022  77.1504568  78.5478562 125.7453187  75.7580206  74.2662201
 125.2299810  76.5284811  74.5050588 125.4730495  75.0845343  74.8895262
 123.3300298  70.6029907  79.3247439 122.4741894  70.2136758  79.1453078
 123.7427250  70.6821868  78.4647225 124.8599445  68.1376250  83.7238999
 124.3564240  68.1006386  82.9106804 125.1530051  69.0468993  83.7835656
 121.1042330  68.2214980  82.7305181 121.9695327  68.0257789  82.3711070
 121.1719839  67.9925332  83.6574537 130.7187461  78.5112561  76.2015374
 129.9416904  78.1723721  75.7570536 131.3978942  78.5165184  75.5270339
 125.5339490  73.6307298  76.0921982 125.2289626  73.9453448  76.9432125
 126.4869932  73.7088718  76.1349315 123.9785922  79.7897522  77.7414936
 123.4507283  79.0550281  77.4288173 123.4773425  80.5672198  77.4954904
 128.9578768  77.9846542  82.8581982 128.3002442  78.6745804  82.9462111
 129.7619167  78.3742974  83.2015969 118.7104650  70.4517188  80.1021548
 119.2848401  70.2292370  79.3694740 119.2975632  70.5205883  80.8550149
 127.7684227  76.3390915  80.9085924 128.2816108  76.9720907  81.4107634
 128.4185451  75.7392110  80.5429284 121.0127317  67.3258437  78.8296617
 120.3591730  67.0107454  78.2053232 120.9707791  66.7034177  79.5556440
 125.0306601  86.3175239  73.6646595 124.3568300  86.6206936  74.2731553
 125.4172423  87.1204320  73.3152052 124.2465058  73.8140371  83.1544265
 123.3287619  74.0355318  82.9965953 124.6625201  73.8886681  82.2955972
 125.0300105  75.2131786  78.2846945 125.7771924  75.7253183  77.9754067
 125.2991695  74.8915839  79.1451338 123.3026756  77.7090327  75.2673899
 122.3937975  77.4249360  75.3646369 123.3321839  78.1289405  74.4077206
 128.5346023  81.3196916  79.0365067 128.0808350  80.4787826  79.0930257
 127.9039990  81.9558315  79.3739847 127.4778943  72.2488902  80.2665734
 126.7401699  71.7366289  80.5975977 127.7305716  71.8089284  79.4549011
 126.9778962  83.1573413  79.9714885 127.2701937  83.7178470  79.2527250
 127.4877583  83.4501974  80.7268044 127.5790570  65.0265154  80.8607503
 127.8849447  64.1662518  80.5733418 128.3043175  65.6182775  80.6606497
 113.8714926  75.4295841  79.2489101 113.6739326  74.8365202  78.5240168
 113.3161590  75.1248051  79.9665040 121.8511650  75.3218948  81.3683694
 121.9060259  74.3692784  81.2926171 121.0402852  75.4778387  81.8524993
 123.0002843  79.2499071  72.6061978 122.5622273  78.5334930  72.1467615
 123.7413284  79.4775185  72.0447069 119.7904009  73.9396007  79.1274073
 118.9771875  74.2390178  79.5339265 120.2863004  73.5451696  79.8448556
 121.9412587  83.9353764  81.0608338 121.8988766  84.1614611  80.1316870
 122.8575286  83.7017139  81.2094139 125.3878221  74.4037832  87.9588967
 125.7427609  74.6309305  88.8183433 126.0350352  74.7356209  87.3366223
 131.1175958  77.5256268  78.6638296 130.9793857  77.7157864  77.7359485
 130.7612177  78.2875650  79.1206347 119.2818084  71.5114363  84.7435308
 119.9217464  71.3703122  84.0458272 118.4495615  71.2248876  84.3673910
 131.1445338  79.5932795  83.6749568 131.5781844  79.5008084  84.5232622
 131.8576918  79.5690295  83.0369584 120.0578388  80.8116793  80.8570301
 120.8518987  80.3167113  80.6552876 119.3470081  80.2834656  80.4938006
 124.8773233  83.1934889  85.2082668 124.9310255  83.7625825  85.9760384
 124.0088014  83.3636774  84.8436705 116.2846701  71.4814688  79.5208295
 116.5453518  72.3960021  79.4117456 117.1063873  71.0139130  79.6704908
 117.7571626  72.8952445  86.6907120 118.4294679  72.6869807  86.0419769
 116.9301413  72.6974531  86.2512352 132.0060887  79.6356495  86.2082453
 132.1996777  80.5402306  86.4541728 131.9061505  79.1763914  87.0421038
 123.6597198  69.5214386  88.7072780 123.0125113  70.2204336  88.6137257
 124.4298213  69.9550530  89.0749029 127.0675996  79.7863238  91.7823334
 126.9161502  79.5573790  90.8653417 127.0580675  80.7433839  91.7954679
 123.8361332  77.3595151  86.7669600 124.7653392  77.5106310  86.5938568
 123.4152362  77.4479172  85.9118247 122.6349664  81.3845815  84.5368138
 122.4960750  81.0164600  85.4094076 121.8464260  81.8993455  84.3652096
 123.2297816  86.4854912  75.8793674 123.4049572  86.0142955  76.6939297
 122.5430604  87.1120678  76.1074935 124.1854879  80.7627418  81.9256976
 123.8504712  80.7228188  82.8214626 123.6858825  80.0972134  81.4527386
 118.1599123  76.1695048  87.4509557 118.0218921  75.4375287  88.0521096
 119.0704047  76.0803948  87.1693745 127.1214071  78.1083452  72.1994035
 126.5043242  77.3830280  72.1027088 126.6530559  78.8692813  71.8561110
 120.7881424  75.8815007  86.9393236 121.4981042  75.2408199  86.8979855
 120.7450732  76.1327902  87.8619417 128.7768203  82.8182361  89.8599816
 128.7180749  82.1341581  89.1930399 129.1787721  83.5601351  89.4080442
 119.5010358  72.8680225  88.7588876 118.9647715  72.4170964  89.4110472
 118.9127066  73.0026134  88.0159340 117.7958901  89.6344274  82.6533535
 118.0355500  90.2662799  83.3312553 116.9528098  89.2832314  82.9398894
 128.7785610  80.7821945  88.0913795 127.8912389  80.4447866  88.2140194
 129.3484161  80.0504976  88.3282561 110.4314757  77.1146036  81.4156847
 111.1185797  76.8007766  80.8277862 110.2762886  78.0187401  81.1424098
 115.2349479  72.0036233  85.8441870 115.1507668  71.3961902  85.1092280
 114.4132186  72.4945251  85.8451367 122.3086763  85.4423397  85.0575039
 122.2356935  86.2478368  85.5694343 121.8664156  85.6415363  84.2323060
 122.0976543  84.6795167  78.5677860 121.3144065  85.2216847  78.6616085
 122.7969288  85.1969147  78.9672101 125.4073193  70.4889796  81.2112065
 125.9041893  69.7359759  80.8913136 124.6360175  70.5254113  80.6455275
 133.2602950  76.1930162  82.8530357 133.2492827  77.0754877  82.4824290
 132.3920330  75.8401713  82.6584894 124.7685447  85.3410231  87.2133197
 125.4813419  85.9757696  87.1409099 124.2775475  85.4374097  86.3973199
 126.4902974  79.2461484  78.7850489 125.5559252  79.3662946  78.6155193
 126.6679642  78.3433950  78.5210499 121.9908162  72.6307179  80.9383750
 121.6205949  72.0778220  81.6264656 122.4867254  72.0265313  80.3858750
 129.8775525  75.0878803  79.3200523 130.3435977  75.9206794  79.2460826
 130.3283026  74.6223784  80.0245781 119.8197360  83.0904674  88.0338768
 120.5206820  83.7241157  88.1868162 119.3492475  83.4319406  87.2734407
 127.9451756  81.4322624  76.3186675 128.2211600  81.3179219  77.2280549
 127.0756255  81.0340109  76.2798848 127.8492188  67.4559390  83.3591424
 126.9355268  67.6863617  83.5273631 128.2785289  67.5397834  84.2105457
 127.6198646  75.6449282  85.8591318 126.9670097  75.8925189  85.2043771
 127.9979026  74.8313420  85.5253796 124.5805820  85.6808975  79.9619489
 124.7628215  84.8630631  80.4247241 125.4038806  85.8976667  79.5244379
 124.9147986  84.6077160  77.2234537 125.4435752  84.0969615  76.6104699
 125.1776205  84.2919690  78.0880070 123.6686219  76.3869093  92.3457355
 122.9926856  76.2863222  93.0159731 124.4913853  76.2308307  92.8093353
 115.4165078  82.6241029  84.9669871 116.0018515  81.8784717  85.0997775
 115.2189917  82.9344986  85.8506535 118.2703734  85.6592277  79.9832313
 117.6014109  86.1438404  79.4996353 118.1316603  85.9061497  80.8975692
 110.0082733  75.1946630  83.6874314 110.0466833  74.6610220  84.4811432
 109.5023026  74.6681835  83.0685291 122.4109002  87.6936020  86.5814971
 122.9627310  87.8567642  87.3464057 122.7515196  88.2840458  85.9094996
 117.3873495  70.0411170  87.1836856 117.4514822  70.9026001  86.7714254
 117.3240616  69.4285172  86.4509215 116.8625768  72.1134303  90.8309890
 117.4897807  71.7311380  91.4447415 116.0053687  71.8948505  91.1965583
 127.2619877  82.5197278  92.4363626 127.8059780  83.1327236  91.9418581
 126.6806721  83.0776856  92.9530639 113.6391311  73.9210732  76.7628245
 113.9344752  73.0121410  76.7095299 112.7379346  73.8998471  76.4409248
 125.5477389  85.6417996  83.5678654 125.4228529  84.8407736  83.0589599
 126.2056481  86.1364189  83.0792624 117.1685558  71.9966728  82.7455794
 116.4472143  72.6102696  82.6063267 117.9578813  72.5324493  82.6672440
 127.6112298  83.4427016  85.1958204 126.6642633  83.3232367  85.1236530
 127.9595071  82.5549514  85.2784465 119.9711871  69.3321155  89.0196446
 120.4946273  69.5783451  89.7822755 119.7524204  70.1641190  88.5999583
 115.3679152  71.6024829  76.8867570 115.0391858  70.7222208  76.7042676
 115.7218523  71.5472498  77.7743960 124.6158731  83.2379732  81.3962556
 124.4683694  82.3096440  81.5770126 125.4412225  83.2599823  80.9119631
 118.4820975  71.8897799  77.2543048 118.8217048  72.4183720  76.5321656
 118.9293096  72.2278205  78.0301615 128.2192853  84.0608291  82.4827429
 129.1439400  83.8551152  82.3451880 128.0508156  83.8124692  83.3916770
 121.1764416  70.2734850  86.7046116 120.8361237  69.4742663  87.1066796
 120.4703423  70.5736561  86.1322949 121.8280888  67.3584162  85.1573439
 122.6506957  66.8844641  85.0352329 122.0718952  68.1374646  85.6572125
 120.4689123  70.3872421  75.4536341 121.1897485  70.7653674  74.9500058
 119.8454427  71.1061298  75.5571319 124.6120245  71.0917570  76.3894673
 124.8283860  71.9742208  76.0883501 124.1314313  70.7003783  75.6600315
 119.3519467  74.0503283  82.9665418 119.2064048  74.3643586  83.8589699
 118.8744670  74.6688183  82.4136316 121.2115850  71.0405831  83.0146307
 121.1977418  70.1446924  82.6778605 121.9288278  71.0476495  83.6484593
 123.0641980  71.4743171  85.0599435 122.8059758  72.3960242  85.0583765
 122.5327021  71.0773606  85.7499899 128.0088169  84.5793958  77.8389520
 128.1825047  84.0140381  77.0863373 128.5017060  85.3794853  77.6569010
 113.8265129  76.5908627  85.9053079 113.2818597  77.3668435  86.0373353
 114.7044479  76.9379432  85.7472200 120.6152746  69.9220211  78.2833877
 120.7368657  68.9936857  78.4824765 120.3254788  69.9358897  77.3712193
 123.4843936  67.6075122  81.4200597 123.5065633  67.6714455  80.4652577
 123.9011995  66.7679630  81.6141103 133.8627560  77.3430381  79.4579820
 134.3058706  76.5937706  79.0598943 132.9854071  77.3340518  79.0753552
 128.9963342  83.8960723  74.9386418 129.6914246  84.5167415  75.1573733
 129.3386492  83.0456074  75.2138796 114.6131151  75.7178524  88.7983236
 113.8712887  75.8661159  89.3847866 114.2923895  75.9786789  87.9349985
 130.8954765  81.3460428  76.4673749 131.4206089  81.6847701  75.7423069
 130.8077117  80.4107444  76.2836884 122.5574814  85.2594502  88.5963626
 122.8661940  85.0143649  89.4686325 123.3550296  85.4641140  88.1082496
 122.5795426  87.4132412  80.8269002 122.1400416  86.9208790  81.5201859
 123.3303543  86.8705379  80.5861078 115.0587765  83.6043952  80.8293630
 115.8845784  83.3047724  80.4492274 114.7081817  82.8351575  81.2783419
 120.0269298  82.9570421  82.8991304 119.4049307  82.2941126  82.5993532
 120.6974165  82.9831553  82.2164952 113.2596370  81.5230279  81.7882564
 112.4228278  81.0952453  81.6066565 113.2320015  81.7162722  82.7253355
 120.0993825  71.4352209  92.4923810 120.1481981  72.3114331  92.1101580
 120.6416339  70.8929602  91.9195453 130.5848671  81.9793332  91.7724947
 129.7944215  81.9617471  91.2329447 130.3482025  82.5181626  92.5273984
 130.7046546  78.8285798  89.0857676 130.7544551  78.6635806  90.0273198
 130.5960469  77.9613057  88.6955556 119.5882805  81.5074344  76.3749765
 119.7370925  82.1909808  75.7216437 120.3949248  81.4879434  76.8899220
 127.9950308  74.8116726  90.4016982 128.8960171  74.6723191  90.1100980
 128.0698283  74.9771181  91.3415160 122.3293114  72.1883581  89.2470169
 121.4596423  72.4817147  88.9752757 122.5652594  72.7724026  89.9677432
 132.2064743  81.2482740  89.3299697 131.9149551  81.6112720  90.1663158
 131.5936874  80.5349748  89.1513029 133.4060425  78.8135620  81.8502267
 134.2407316  79.2525424  82.0139828 133.5419554  78.3374273  81.0310513
 130.4551931  76.3715354  87.7979755 130.9306053  76.5643001  86.9898607
 129.5317496  76.4274540  87.5523139 117.3435438  77.5339522  77.3810833
 117.0981480  76.6301852  77.5791044 117.5131352  77.5356672  76.4390311
 125.0332147  68.4063198  86.7635589 125.5514091  69.1424225  86.4382078
 124.6787280  68.7127191  87.5982348 125.2844742  64.8263481  82.2836486
 125.5646495  64.1586670  82.9096912 126.0695349  65.0192576  81.7711150
 123.0878210  84.0022474  73.8461512 122.5152177  84.6212662  73.3931984
 123.6611004  84.5521836  74.3801434 129.1553600  73.2481115  86.0308061
 130.1071023  73.3479212  86.0520285 128.9857050  72.4559383  86.5406145
 127.1767979  70.3336698  86.2167462 126.5817912  70.6141710  85.5213950
 126.8917676  70.8230599  86.9884203 126.3075470  84.2859625  74.9770094
 127.2406143  84.2205186  75.1802970 126.2198683  85.1215891  74.5184627
 128.9363487  83.6025495  71.9374042 128.8577118  83.2685359  72.8309800
 129.7573153  84.0947263  71.9365514 131.6341678  76.4687234  85.1450360
 131.6017998  75.5303235  85.3310044 132.2442301  76.5471271  84.4116185
 131.7836166  73.2598278  85.1908644 131.2675215  72.4756734  85.0038572
 132.6676115  72.9316994  85.3555163 129.4446893  67.0039293  81.1504456
 129.2471714  66.6954381  82.0347788 130.0546599  67.7300932  81.2802386
 135.5333525  75.6711104  84.8830848 134.8066688  75.5367069  84.2747340
 135.1180812  75.9787932  85.6887566 123.3563701  79.3901033  92.6478221
 124.2766711  79.5679632  92.8418268 123.3213284  78.4457079  92.4957921
 121.6567926  73.2633264  71.1232450 120.7499381  72.9666376  71.1995163
 121.9343907  72.9663082  70.2566736 112.5745866  74.5839627  81.5731496
 112.2548651  73.7304935  81.2805870 112.0279294  74.7988205  82.3289463
 116.3525774  77.3002068  85.2901003 116.5711784  78.2319176  85.3089036
 116.7651548  76.9410042  86.0755806 123.2729992  67.8070153  77.2776691
 122.4630720  67.4617238  77.6531937 123.9614408  67.4977697  77.8664303
 125.2020540  66.8848200  78.9000988 125.7551578  67.3043654  79.5591011
 125.4390626  65.9583948  78.9423944 121.2253639  72.8735274  94.6803752
 121.1250366  73.8229631  94.6115843 121.0075181  72.5453513  93.8079822
 120.4266710  70.1220199  71.2644429 121.2885874  70.4475097  71.5240246
 120.6117055  69.3351695  70.7517495 112.4434126  78.2042538  83.5424618
 111.7497598  77.7896491  83.0294572 113.1907117  78.2463075  82.9458037
 128.5799347  68.9948725  78.4079652 127.9998016  69.6533529  78.0257704
 128.3135280  68.1726070  77.9967069 127.0302913  68.3953783  80.6100972
 127.5302692  68.5070317  79.8015291 127.6738521  68.0914836  81.2501781
 121.0884909  76.3032413  93.4968813 120.6051991  77.1032773  93.7032702
 121.1745848  76.3140357  92.5436257 114.3570869  78.1360792  81.4190633
 114.3341557  78.2348480  80.4672516 114.6671505  78.9825943  81.7407799
 117.0158247  80.1936947  85.5337247 117.9701500  80.1620890  85.4667179
 116.8170770  79.7327571  86.3487473 117.6057629  78.7638063  88.1008045
 118.4250518  79.2582142  88.1242882 117.8794436  77.8470031  88.0725612
 127.3624225  71.1548816  77.4636000 126.4750080  71.4398466  77.2456195
 127.7778214  70.9942579  76.6163277 130.7138761  71.1795337  81.1790339
 131.4899151  71.6691789  81.4514956 129.9886895  71.6053391  81.6362209
 133.1511320  71.8922956  82.2364280 133.7455810  71.6518692  81.5257588
 133.2237903  71.1730086  82.8637816 115.3708475  85.7356567  82.5507445
 115.2362943  84.9756968  81.9845443 114.9540538  86.4597467  82.0836234
 126.5067438  80.9193490  71.5584020 127.2103289  81.1243493  72.1741676
 125.7830087  81.4870252  71.8233104 127.3365249  76.6703352  77.6786290
 127.2800450  77.1271903  76.8393923 127.8893591  75.9094036  77.5009133
 131.1470055  72.4593083  78.5036410 130.8906989  72.0589719  79.3344618
 130.5222923  73.1736877  78.3786549 135.4582392  75.1989157  81.0107701
 134.8981950  75.2682346  81.7839263 134.8525896  75.0230141  80.2907197
 118.5277601  86.6325884  82.7625888 118.4109985  87.5771316  82.6604578
 117.7070048  86.3299445  83.1511687 128.4154136  81.3576020  73.6082480
 129.2499740  80.9257218  73.4259955 128.2538479  81.1858033  74.5359375
 128.0700028  77.8608133  74.9738820 128.0148832  77.6952404  74.0327264
 127.4446083  78.5684166  75.1301009 112.8592543  73.0976197  88.8000242
 113.5051407  72.5875151  89.2887467 112.6509694  73.8344879  89.3743667
 125.3845935  80.1657045  94.2992382 126.2537095  80.3397697  93.9379017
 124.9052687  80.9851461  94.1768112 121.3796153  67.3616242  74.5524138
 121.3674823  68.3058082  74.7092409 122.2719575  67.1786387  74.2583599
 119.5532115  87.2854146  85.9781816 120.4559362  87.3177756  86.2948311
 119.3269485  86.3554597  85.9928152 121.3085717  86.0385132  82.6391895
 120.3581348  86.0386994  82.5256267 121.6118204  85.2917867  82.1227929
 125.1948273  63.9559018  78.8070075 124.4280669  63.4017505  78.9526757
 125.6058978  64.0280887  79.6684226 117.1990034  70.2443814  92.8975256
 118.0621496  69.8880619  93.1078581 116.6255445  69.9057709  93.5850660
 133.8528117  91.8273099  83.6399182 133.5146629  91.7114163  82.7519717
 134.7217885  91.4264264  83.6200188 129.7114933  93.6808575  79.6296073
 129.1479798  93.5898512  78.8612360 129.5967328  92.8608480  80.1098565
 134.3347900  92.9807950  89.5985387 134.3236541  92.5860749  88.7265891
 134.4968540  92.2474023  90.1919159 127.2579365  95.1759767  82.4680293
 128.0500657  94.8350591  82.0526592 127.4976015  95.2854742  83.3882446
 135.2914492  97.3479543  74.9410537 134.6402471  97.9333623  74.5544551
 136.0858854  97.8785738  75.0005575 129.2170119  94.4368680  75.3397672
 129.9900995  93.8897667  75.2010548 129.5695518  95.3012929  75.5512133
 131.0555161  95.7645062  88.5464571 130.7645027  96.6690693  88.4311237
 131.6912146  95.8061590  89.2608641 131.9811368  93.1421911  85.1365931
 132.5774940  92.9177933  84.4222894 132.0386340  92.4006656  85.7391379
 131.5536397  90.5961346  72.9716122 131.8061917  90.0742867  72.2099585
 130.6160956  90.4327492  73.0742805 136.5979679  89.5997124  80.7790865
 137.3842769  89.1816548  80.4281282 136.8618384  90.5043217  80.9472513
 136.7689757  95.0369975  75.4779522 136.1335590  95.1104601  76.1900426
 136.4387163  95.6263574  74.7998601 131.2732685  92.4989452  75.1740497
 131.1568943  91.8234355  75.8421581 131.3834945  92.0121826  74.3572650
 133.6164226  91.9599599  78.8787186 133.2522433  91.4330220  79.5900107
 134.4731342  91.5698068  78.7053671 133.2569713  86.9889499  73.8748534
 133.4244116  87.8569735  74.2419006 133.0666882  87.1516781  72.9509824
 136.0145046  95.4506478  85.5414365 135.7145769  96.3531517  85.4330172
 135.6696106  95.1838661  86.3935518 129.4657528  91.9020275  81.5751069
 128.5408024  91.7696489  81.7828761 129.7141941  92.6814494  82.0721012
 133.2358934  89.4447156  74.8595201 133.1158559  89.8904207  75.6980682
 132.5411522  89.7932474  74.3008739 126.8266339  91.5453548  82.4094858
 126.9558720  91.7988027  83.3234270 126.1463790  92.1381256  82.0899513
 130.9965826 102.2150798  78.5085333 130.9189856 103.1658623  78.5873813
 130.3927470 101.8696671  79.1660259 133.4883056  89.3878664  91.1646699
 132.7116390  89.9472584  91.1549564 134.1273619  89.8735447  91.6861570
 131.7429428  92.1964117  90.7264666 132.4844113  92.7349161  90.4499490
 131.0366414  92.8230406  90.8836218 137.2184768  94.3393257  89.3236828
 137.6268124  93.8975668  88.5791460 136.4962029  93.7645885  89.5771021
 133.5715838  89.2765864  86.6970385 134.4177033  89.7005278  86.8405034
 133.5114476  88.6199488  87.3908948 137.5413583  94.8994448  83.0789117
 136.9122445  95.0640162  82.3765185 137.1539245  95.3136058  83.8500081
 136.7215283  86.9370232  88.3551559 136.4776215  87.6912293  87.8185834
 136.9975214  87.3155580  89.1898806 136.2779975  86.0926666  83.9365396
 135.4164454  86.3907919  84.2282134 136.3042410  86.3097064  83.0046429
 133.0941544  94.6368856  80.3439202 133.5579890  94.9156559  79.5543824
 132.8298343  93.7352301  80.1612293 129.9865625  94.1840338  83.2818965
 130.5566983  94.6127606  82.6436450 130.5773737  93.9022922  83.9803151
 132.0310430  90.7592008  77.1528767 132.7334474  91.2113052  77.6202693
 131.6991059  90.1175827  77.7808660 130.4790792  89.3503765  91.5279976
 129.8489453  90.0320046  91.7615373 130.3726880  89.2386847  90.5833115
 125.7735764  89.0175561  82.4545901 124.9834818  89.2733090  81.9786011
 126.2647012  89.8323899  82.5597941 127.7250510  89.3820140  79.4129377
 126.9281673  89.4938835  79.9312873 127.4976102  89.7206793  78.5470268
 133.5556177  95.9064844  87.3611892 133.6200610  96.3685251  88.1970064
 132.8467101  95.2762208  87.4894202 124.0573467  89.2706052  84.8860891
 124.3081506  90.1553061  85.1518467 124.5933016  89.0910653  84.1135983
 133.2704195  97.5732951  77.2290872 133.1349870  98.4184487  77.6575720
 133.8114008  97.7752229  76.4656806 129.7571535  83.6524531  93.8905227
 129.3638480  83.0990729  94.5652872 130.5737675  83.9635109  94.2811745
 126.7233592  95.0908389  77.8018797 127.2358113  95.8851639  77.9524362
 127.3756305  94.3934680  77.7352399 128.5328477  98.2074145  79.8841551
 128.7095106  99.1292110  79.6962534 129.3285311  97.8932565  80.3135930
 132.6739496  85.0682410  91.4825484 133.4149209  85.6689563  91.4029947
 132.9057419  84.3260048  90.9243527 127.8180834  90.2538777  89.7603714
 127.7034349  89.3524035  90.0610813 126.9625351  90.5002474  89.4088530
 134.8972671  98.1956518  91.3591214 134.4536526  97.4092896  91.0412119
 135.5589885  98.3835668  90.6935105 129.6559793  99.7252319  85.8851893
 130.2067218  99.5969383  85.1128887 128.8171269 100.0247208  85.5346786
 133.4526964  95.9903447  90.2296124 133.9855300  95.2291735  89.9995432
 132.9241045  95.6977099  90.9720278 136.6196659  81.0963513  85.7589766
 136.2760928  81.9865155  85.6828876 136.9875621  80.9065171  84.8959351
 124.6882509  93.4197043  78.5778368 125.5257731  93.8294052  78.3612076
 124.8660777  92.4796486  78.5478562 136.5846941  91.0872124  74.2662201
 136.0693565  91.8576729  74.5050588 136.3124250  90.4137260  74.8895262
 134.1694052  85.9321825  79.3247439 133.3135649  85.5428675  79.1453078
 134.5821004  86.0113786  78.4647225 135.6993199  83.4668168  83.7238999
 135.1957995  83.4298303  82.9106804 135.9923806  84.3760911  83.7835656
 131.9436085  83.5506898  82.7305181 132.8089082  83.3549707  82.3711070
 132.0113594  83.3217250  83.6574537 136.3733245  88.9599216  76.0921982
 136.0683380  89.2745365  76.9432125 137.3263687  89.0380636  76.1349315
 134.8179676  95.1189439  77.7414936 134.2901038  94.3842199  77.4288173
 134.3167179  95.8964116  77.4954904 129.5498404  85.7809106  80.1021548
 130.1242156  85.5584287  79.3694740 130.1369386  85.8497800  80.8550149
 129.8767991  87.8113567  74.1217433 129.0405303  88.1488253  74.4426708
 129.7372761  87.6762547  73.1844570 131.8521072  82.6550355  78.8296617
 131.1985484  82.3399372  78.2053232 131.8101546  82.0326095  79.5556440
 132.9632277  92.9369650  70.7449909 132.0559338  92.7058903  70.9441058
 133.4603309  92.1407269  70.9323891 135.8700355 101.6467157  73.6646595
 135.1962054 101.9498854  74.2731553 136.2566177 102.4496237  73.3152052
 135.0858812  89.1432288  83.1544265 134.1681373  89.3647235  82.9965953
 135.5018956  89.2178599  82.2955972 135.8693860  90.5423704  78.2846945
 136.6165679  91.0545101  77.9754067 136.1385449  90.2207757  79.1451338
 134.1420510  93.0382245  75.2673899 133.2331729  92.7541277  75.3646369
 134.1715594  93.4581323  74.4077206 124.7108680  90.7587759  79.2489101
 124.5133080  90.1657119  78.5240168 124.1555344  90.4539969  79.9665040
 132.6905404  90.6510865  81.3683694 132.7454014  89.6984702  81.2926171
 131.8796606  90.8070304  81.8524993 133.8396598  94.5790988  72.6061978
 133.4016028  93.8626847  72.1467615 134.5807039  94.8067103  72.0447069
 130.6297764  89.2687925  79.1274073 129.8165630  89.5682095  79.5339265
 131.1256758  88.8743614  79.8448556 132.7806342  99.2645682  81.0608338
 132.7382521  99.4906528  80.1316870 133.6969041  99.0309056  81.2094139
 136.2271976  89.7329749  87.9588967 136.5821363  89.9601223  88.8183433
 136.8744107  90.0648126  87.3366223 130.1211839  86.8406280  84.7435308
 130.7611218  86.6995040  84.0458272 129.2889369  86.5540794  84.3673910
 130.8972143  96.1408711  80.8570301 131.6912741  95.6459031  80.6552876
 130.1863835  95.6126574  80.4938006 135.7166987  98.5226806  85.2082668
 135.7704009  99.0917743  85.9760384 134.8481768  98.6928691  84.8436705
 127.2054906  90.2851793  76.9330053 126.2752494  90.2236248  77.1500016
 127.3012378  89.7627745  76.1366695 127.1240455  86.8106605  79.5208295
 127.3847272  87.7251939  79.4117456 127.9457627  86.3431048  79.6704908
 128.5965380  88.2244363  86.6907120 129.2688434  88.0161725  86.0419769
 127.7695167  88.0266449  86.2512352 134.4990952  84.8506304  88.7072780
 133.8518868  85.5496253  88.6137257 135.2691968  85.2842447  89.0749029
 134.6755087  92.6887068  86.7669600 135.6047147  92.8398228  86.5938568
 134.2546117  92.7771089  85.9118247 133.4743419  96.7137733  84.5368138
 133.3354504  96.3456517  85.4094076 132.6858015  97.2285372  84.3652096
 134.0691571 101.8146829  75.8793674 134.2443326 101.3434873  76.6939297
 133.3824359 102.4412596  76.1074935 135.0248634  96.0919336  81.9256976
 134.6898466  96.0520106  82.8214626 134.5252579  95.4264051  81.4527386
 128.9992878  91.4986966  87.4509557 128.8612676  90.7667204  88.0521096
 129.9097801  91.4095866  87.1693745 131.6275178  91.2106925  86.9393236
 132.3374797  90.5700117  86.8979855 131.5844487  91.4619820  87.8619417
 130.3404112  88.1972143  88.7588876 129.8041469  87.7462881  89.4110472
 129.7520821  88.3318052  88.0159340 128.6352656 104.9636192  82.6533535
 128.8749254 105.5954716  83.3312553 127.7921852 104.6124232  82.9398894
 129.7506371  87.6560794  71.3215340 128.8735838  87.5349595  70.9577586
 130.2264124  86.8646873  71.0694228 121.2708511  92.4437954  81.4156847
 121.9579551  92.1299684  80.8277862 121.1156640  93.3479319  81.1424098
 126.0743234  87.3328151  85.8441870 125.9901422  86.7253820  85.1092280
 125.2525940  87.8237169  85.8451367 133.1480518 100.7715315  85.0575039
 133.0750689 101.5770286  85.5694343 132.7057911 100.9707280  84.2323060
 132.9370297 100.0087085  78.5677860 132.1537819 100.5508765  78.6616085
 133.6363043 100.5261064  78.9672101 136.2466947  85.8181714  81.2112065
 136.7435647  85.0651676  80.8913136 135.4753929  85.8546031  80.6455275
 135.6079201 100.6702149  87.2133197 136.3207173 101.3049613  87.1409099
 135.1169230 100.7666015  86.3973199 137.3296728  94.5753401  78.7850489
 136.3953007  94.6954864  78.6155193 137.5073397  93.6725868  78.5210499
 132.8301916  87.9599097  80.9383750 132.4599704  87.4070137  81.6264656
 133.3261009  87.3557231  80.3858750 130.6591115  98.4196592  88.0338768
 131.3600574  99.0533075  88.1868162 130.1886230  98.7611324  87.2734407
 135.4199575 101.0100893  79.9619489 135.6021969 100.1922549  80.4247241
 136.2432561 101.2268585  79.5244379 135.7541740  99.9369078  77.2234537
 136.2829507  99.4261532  76.6104699 136.0169960  99.6211608  78.0880070
 134.5079974  91.7161011  92.3457355 133.8320611  91.6155140  93.0159731
 135.3307608  91.5600224  92.8093353 126.2558833  97.9532947  84.9669871
 126.8412270  97.2076635  85.0997775 126.0583671  98.2636904  85.8506535
 129.1097488 100.9884194  79.9832313 128.4407863 101.4730322  79.4996353
 128.9710358 101.2353415  80.8975692 120.8476488  90.5238547  83.6874314
 120.8860587  89.9902138  84.4811432 120.3416780  89.9973753  83.0685291
 133.2502757 103.0227938  86.5814971 133.8021065 103.1859560  87.3464057
 133.5908950 103.6132376  85.9094996 128.2267250  85.3703088  87.1836856
 128.2908576  86.2317919  86.7714254 128.1634370  84.7577089  86.4509215
 127.7019522  87.4426220  90.8309890 128.3291561  87.0603298  91.4447415
 126.8447441  87.2240422  91.1965583 124.4785065  89.2502649  76.7628245
 124.7738506  88.3413328  76.7095299 123.5773101  89.2290389  76.4409248
 136.3871144 100.9709914  83.5678654 136.2622283 100.1699653  83.0589599
 137.0450235 101.4656107  83.0792624 128.0079312  87.3258646  82.7455794
 127.2865898  87.9394614  82.6063267 128.7972568  87.8616411  82.6672440
 130.8105626  84.6613073  89.0196446 131.3340028  84.9075369  89.7822755
 130.5917959  85.4933107  88.5999583 126.2072907  86.9316747  76.8867570
 125.8785613  86.0514126  76.7042676 126.5612277  86.8764416  77.7743960
 135.4552486  98.5671650  81.3962556 135.3077448  97.6388357  81.5770126
 136.2805979  98.5891741  80.9119631 129.3214730  87.2189717  77.2543048
 129.6610802  87.7475638  76.5321656 129.7686850  87.5570123  78.0301615
 132.0158171  85.6026768  86.7046116 131.6754991  84.8034581  87.1066796
 131.3097177  85.9028478  86.1322949 132.6674643  82.6876080  85.1573439
 133.4900712  82.2136558  85.0352329 132.9112706  83.4666564  85.6572125
 131.3082877  85.7164339  75.4536341 132.0291240  86.0945591  74.9500058
 130.6848181  86.4353215  75.5571319 135.4514000  86.4209487  76.3894673
 135.6677614  87.3034125  76.0883501 134.9708067  86.0295701  75.6600315
 130.1913221  89.3795201  82.9665418 130.0457802  89.6935504  83.8589699
 129.7138425  89.9980101  82.4136316 132.0509604  86.3697749  83.0146307
 132.0371173  85.4738842  82.6778605 132.7682032  86.3768412  83.6484593
 133.9035735  86.8035089  85.0599435 133.6453513  87.7252160  85.0583765
 133.3720775  86.4065523  85.7499899 124.6658883  91.9200545  85.9053079
 124.1212352  92.6960353  86.0373353 125.5438233  92.2671350  85.7472200
 131.4546500  85.2512129  78.2833877 131.5762411  84.3228775  78.4824765
 131.1648543  85.2650815  77.3712193 134.3237691  82.9367039  81.4200597
 134.3459387  83.0006372  80.4652577 134.7405750  82.0971548  81.6141103
 125.4524905  91.0470441  88.7983236 124.7106641  91.1953077  89.3847866
 125.1317650  91.3078707  87.9349985 133.3968568 100.5886420  88.5963626
 133.7055694 100.3435566  89.4686325 134.1944050 100.7933058  88.1082496
 133.4189180 102.7424329  80.8269002 132.9794170 102.2500708  81.5201859
 134.1697297 102.1997297  80.5861078 125.8981519  98.9335870  80.8293630
 126.7239539  98.6339642  80.4492274 125.5475571  98.1643493  81.2783419
 130.8663052  98.2862338  82.8991304 130.2443061  97.6233043  82.5993532
 131.5367919  98.3123470  82.2164952 124.0990124  96.8522197  81.7882564
 123.2622032  96.4244371  81.6066565 124.0713770  97.0454640  82.7253355
 130.9387580  86.7644126  92.4923810 130.9875735  87.6406249  92.1101580
 131.4810094  86.2221519  91.9195453 130.4276559  96.8366262  76.3749765
 130.5764679  97.5201726  75.7216437 131.2343003  96.8171352  76.8899220
 133.1686868  87.5175499  89.2470169 132.2990178  87.8109065  88.9752757
 133.4046348  88.1015944  89.9677432 128.1829192  92.8631439  77.3810833
 127.9375234  91.9593769  77.5791044 128.3525107  92.8648590  76.4390311
 135.8725902  83.7355116  86.7635589 136.3907846  84.4716143  86.4382078
 135.5181035  84.0419109  87.5982348 127.4524840  88.5959797  74.8796995
 126.7594085  88.6704152  74.2237031 127.2076592  87.8320141  75.4018512
 136.1238496  80.1555398  82.2836486 136.4040250  79.4878587  82.9096912
 136.9089103  80.3484494  81.7711150 133.9271965  99.3314392  73.8461512
 133.3545932  99.9504579  73.3931984 134.5004758  99.8813754  74.3801434
 134.3118763  90.6675205  71.1877564 135.2577868  90.5381413  71.2565983
 133.9333008  89.9289867  71.6646993 134.1957456  94.7192951  92.6478221
 135.1160465  94.8971550  92.8418268 134.1607039  93.7748996  92.4957921
 132.4961680  88.5925181  71.1232450 131.5893136  88.2958294  71.1995163
 132.7737661  88.2954999  70.2566736 123.4139621  89.9131545  81.5731496
 123.0942405  89.0596853  81.2805870 122.8673049  90.1280123  82.3289463
 127.1919528  92.6293986  85.2901003 127.4105538  93.5611093  85.3089036
 127.6045302  92.2701960  86.0755806 134.1123746  83.1362071  77.2776691
 133.3024474  82.7909156  77.6531937 134.8008163  82.8269615  77.8664303
 136.0414294  82.2140118  78.9000988 136.5945333  82.6335571  79.5591011
 136.2784381  81.2875866  78.9423944 132.0647394  88.2027191  94.6803752
 131.9644120  89.1521548  94.6115843 131.8468936  87.8745430  93.8079822
 131.2660465  85.4512116  71.2644429 132.1279629  85.7767015  71.5240246
 131.4510809  84.6643612  70.7517495 123.2827881  93.5334456  83.5424618
 122.5891352  93.1188409  83.0294572 124.0300872  93.5754993  82.9458037
 131.9278664  91.6324330  93.4968813 131.4445745  92.4324690  93.7032702
 132.0139603  91.6432275  92.5436257 125.1964623  93.4652710  81.4190633
 125.1735311  93.5640397  80.4672516 125.5065260  94.3117861  81.7407799
 127.8552001  95.5228865  85.5337247 128.8095255  95.4912807  85.4667179
 127.6564525  95.0619489  86.3487473 128.4451383  94.0929981  88.1008045
 129.2644272  94.5874060  88.1242882 128.7188191  93.1761949  88.0725612
 126.2102230 101.0648484  82.5507445 126.0756698 100.3048885  81.9845443
 125.7934292 101.7889384  82.0836234 129.3671356 101.9617801  82.7625888
 129.2503740 102.9063234  82.6604578 128.5463802 101.6591363  83.1511687
 123.6986297  88.4268115  88.8000242 124.3445161  87.9167069  89.2887467
 123.4903449  89.1636797  89.3743667 136.2239690  95.4948962  94.2992382
 137.0930849  95.6689615  93.9379017 135.7446441  96.3143379  94.1768112
 132.2189908  82.6908159  74.5524138 132.2068578  83.6349999  74.7092409
 133.1113330  82.5078305  74.2583599 130.3925870 102.6146063  85.9781816
 131.2953117 102.6469674  86.2948311 130.1663240 101.6846514  85.9928152
 132.1479472 101.3677050  82.6391895 131.1975103 101.3678912  82.5256267
 132.4511958 100.6209784  82.1227929 136.0342027  79.2850936  78.8070075
 135.2674423  78.7309423  78.9526757 136.4452732  79.3572805  79.6684226
 128.0383788  85.5735732  92.8975256 128.9015250  85.2172537  93.1078581
 127.4649199  85.2349627  93.5850660 136.6129519 104.3467479  82.4545901
 135.8228573 104.6025007  81.9786011 137.1040766 105.1615817  82.5597941
 134.8967222 104.5997969  84.8860891 135.1475260 105.4844979  85.1518467
 135.4326770 104.4202571  84.1135983 135.5276264 108.7488961  78.5778368
 136.3651486 109.1585969  78.3612076 135.7054531 107.8088403  78.5478562
 135.5502435 106.0879676  79.2489101 135.3526835 105.4949037  78.5240168
 134.9949099 105.7831887  79.9665040 132.1102266 107.7729872  81.4156847
 132.7973306 107.4591602  80.8277862 131.9550395 108.6771236  81.1424098
 136.9136988 102.6620068  85.8441870 136.8295177 102.0545738  85.1092280
 136.0919695 103.1529086  85.8451367 131.6870242 105.8530465  83.6874314
 131.7254342 105.3194056  84.4811432 131.1810535 105.3265670  83.0685291
 135.3178820 104.5794567  76.7628245 135.6132261 103.6705246  76.7095299
 134.4166855 104.5582307  76.4409248 137.0466661 102.2608665  76.8867570
 136.7179367 101.3806044  76.7042676 137.4006032 102.2056333  77.7743960
 135.5052638 107.2492463  85.9053079 134.9606106 108.0252271  86.0373353
 136.3831988 107.5963267  85.7472200 136.2918660 106.3762359  88.7983236
 135.5500396 106.5244994  89.3847866 135.9711404 106.6370625  87.9349985
 136.7375274 114.2627788  80.8293630 137.5633293 113.9631560  80.4492274
 136.3869326 113.4935410  81.2783419 134.9383879 112.1814114  81.7882564
 134.1015787 111.7536289  81.6066565 134.9107524 112.3746558  82.7253355
 134.2533375 105.2423462  81.5731496 133.9336159 104.3888771  81.2805870
 133.7066803 105.4572040  82.3289463 134.1221635 108.8626374  83.5424618
 133.4285107 108.4480327  83.0294572 134.8694626 108.9046910  82.9458037
 136.0358378 108.7944628  81.4190633 136.0129066 108.8932315  80.4672516
 136.3459014 109.6409778  81.7407799 137.0495984 116.3940402  82.5507445
 136.9150452 115.6340803  81.9845443 136.6328047 117.1181302  82.0836234
 134.5380052 103.7560033  88.8000242 135.1838916 103.2458987  89.2887467
 134.3297203 104.4928714  89.3743667  76.7997055   2.5753332  65.2330639
  76.7221085   3.5261157  65.3119120  76.1958699   2.2299205  65.8905565
  75.4591021   0.0854853  72.6097199  76.0098447  -0.0428083  71.8374193
  74.6202497   0.3849742  72.2592092  81.6731584   2.0069691  60.3891902
  80.9993283   2.3101388  60.9976860  82.0597406   2.8098771  60.0397359
  79.8722799   2.1749364  62.6038981  80.0474555   1.7037407  63.4184604
  79.1855587   2.8015130  62.8320242  74.4383885   5.3238726  69.3778841
  74.6780483   5.9557250  70.0557860  73.5953081   4.9726766  69.6644200
  78.9511747   1.1317849  71.7820345  78.8781918   1.9372820  72.2939650
  78.5089140   1.3309815  70.9568367  78.7401526   0.3689619  65.2923167
  77.9569048   0.9111299  65.3861391  79.4394271   0.8863598  65.6917408
  81.4110430   1.0304683  73.9378504  82.1238402   1.6652148  73.8654405
  80.9200459   1.1268549  73.1218506  72.0590062  -1.6864519  71.6915177
  72.6443498  -2.4320831  71.8243082  71.8614900  -1.3760562  72.5751841
  74.9128717   1.3486729  66.7077620  74.2439092   1.8332856  66.2241660
  74.7741587   1.5955949  67.6220998  79.0533985   3.3830472  73.3060278
  79.6052294   3.5462094  74.0709363  79.3940179   3.9734910  72.6340303
  79.1999797   0.9488954  75.3208932  79.5086923   0.7038101  76.1931632
  79.9975279   1.1535592  74.8327803  79.2220409   3.1026863  67.5514309
  78.7825399   2.6103242  68.2447166  79.9728526   2.5599831  67.3106384
  71.7012748  -0.7061596  67.5538937  72.5270768  -1.0057824  67.1737581
  71.3506800  -1.4753973  68.0028726  69.9021353  -2.7875269  68.5127871
  69.0653261  -3.2153095  68.3311872  69.8744998  -2.5942826  69.4498662
  72.0133459   1.4251019  69.2752751  71.8787927   0.6651420  68.7090750
  71.5965521   2.1491919  68.8081540  75.1702585   2.3220336  69.4871194
  75.0534969   3.2665768  69.3849884  74.3495031   2.0193897  69.8756993
  76.1957099   2.9748598  72.7027123  77.0984345   3.0072208  73.0193618
  75.9694469   2.0449049  72.7173458  77.9510701   1.7279584  69.3637201
  77.0006332   1.7281446  69.2501573  78.2543187   0.9812319  68.8473236
  93.6863394   7.5640123  70.4282964  94.3241804   7.4446870  69.7246304
  93.5684237   8.5120966  70.4870916  90.4953100   7.5167551  70.3644488
  90.1571612   7.4008615  69.4765023  91.3642869   7.1158716  70.3445494
  86.3539916   9.3703027  66.3541379  85.7904781   9.2792964  65.5857667
  86.2392311   8.5502931  66.8343872  90.9772883   8.6702402  76.3230694
  90.9661524   8.2755201  75.4511197  91.1393523   7.9368475  76.9164465
  83.9004348  10.8654219  69.1925600  84.6925640  10.5245043  68.7771899
  84.1400998  10.9749194  70.1127753  91.9339475  13.0373995  61.6655844
  91.2827455  13.6228075  61.2789858  92.7283838  13.5680190  61.7250882
  85.8595102  10.1263132  62.0642978  86.6325978   9.5792119  61.9255854
  86.2120501  10.9907381  62.2757440  87.6980145  11.4539514  75.2709878
  87.4070011  12.3585145  75.1556544  88.3337129  11.4956042  75.9853947
  88.6236351   8.8316363  71.8611237  89.2199924   8.6072385  71.1468200
  88.6811323   8.0901108  72.4636685  88.1961380   6.2855798  59.6961428
  88.4486901   5.7637319  58.9344891  87.2585939   6.1221943  59.7988112
  93.4114740  10.7264427  62.2024828  92.7760573  10.7999053  62.9145733
  93.0812146  11.3158025  61.5243908  87.9157669   8.1883904  61.8985803
  87.7993927   7.5128807  62.5666888  88.0259928   7.7016278  61.0817956
  90.2589210   7.6494051  65.6032493  89.8947417   7.1224672  66.3145414
  91.1156325   7.2592520  65.4298978  92.6570030  11.1400930  72.2659671
  92.3570753  12.0425968  72.1575479  92.3121089  10.8733113  73.1180824
  86.1082511   7.5914726  68.2996376  85.1833008   7.4590941  68.5074068
  86.3566924   8.3708946  68.7966318  89.8783917   5.1341608  61.5840508
  89.7583543   5.5798659  62.4225988  89.1836506   5.4826926  61.0254046
  83.4691322   7.2348000  69.1340165  83.5983703   7.4882479  70.0479577
  82.7888773   7.8275708  68.8144820  87.6390809  17.9045250  65.2330639
  87.5614839  18.8553075  65.3119120  87.0352453  17.5591122  65.8905565
  90.1308039   5.0773115  77.8892006  89.3541373   5.6367036  77.8794871
  90.7698602   5.5629898  78.4106876  88.3854412   7.8858569  77.4509973
  89.1269096   8.4243613  77.1744797  87.6791397   8.5124858  77.6081525
  93.8609751  10.0287709  76.0482135  94.2693107   9.5870120  75.3036767
  93.1387013   9.4540337  76.3016327  90.2140821   4.9660316  73.4215691
  91.0602016   5.3899730  73.5650340  90.1539459   4.3093940  74.1154255
  94.1838566  10.5888900  69.8034423  93.5547428  10.7534614  69.1010491
  93.7964228  11.0030509  70.5745387  98.0627798  11.5243338  67.1578787
  97.3778836  11.9042239  66.6075821  98.1471647  12.1338664  67.8910735
  95.3178729   9.1703297  73.7574131  95.5295625   9.8135057  73.0808512
  95.2708478   8.3365613  73.2896061  89.7366528  10.3263308  67.0684509
  90.2004873  10.6051011  66.2789131  89.4723326   9.4246753  66.8857599
  86.6290609   9.8734790  70.0064272  87.1991966  10.3022058  69.3681756
  87.2198721   9.5917374  70.7048457  88.6735414   6.4486460  63.8774074
  89.3759457   6.9007504  64.3448000  88.3416042   5.8070279  64.5053967
  87.1215775   5.0398217  78.2525283  86.4914436   5.7214498  78.4860680
  87.0151863   4.9281299  77.3078421  82.4160748   4.7070013  69.1791207
  81.6259802   4.9627542  68.7031318  82.9071995   5.5218351  69.2843248
  96.4324557  12.0475252  71.9296488  97.2542001  11.6455439  71.6479170
  96.4286960  11.9443486  72.8812604  84.3675493   5.0714592  66.1374684
  83.5706656   5.1833286  66.6558180  84.1401085   5.4101244  65.2715574
  90.1981161  11.5959295  74.0857199  90.2625593  12.0579703  74.9215370
  89.4892085  10.9656660  74.2139508  80.6998451   4.9600503  71.6106198
  80.9506489   5.8447513  71.8763774  81.2357999   4.7805105  70.8381290
  89.9129178  13.2627403  63.9536179  89.7774853  14.1078939  64.3821027
  90.4538991  13.4646681  63.1902113  83.3658576  10.7802841  64.5264104
  83.8783096  11.5746091  64.6769669  84.0181289  10.0829131  64.4597705
  85.1753460  13.8968597  66.6086857  85.3520089  14.8186562  66.4207841
  85.9710294  13.5827016  67.0381237  84.4605817   5.9433229  76.4849020
  84.3459332   5.0418486  76.7856119  83.6050335   6.1896926  76.1333837
  91.5397655  13.8850969  78.0836521  91.0961509  13.0987348  77.7657425
  92.2014868  14.0730120  77.4180412  86.2984776  15.4146771  72.6097199
  86.8492201  15.2863834  71.8374193  85.4596252  15.7141660  72.2592092
  93.6378893  14.1653769  76.1117922  93.6197368  14.9862650  75.6198191
  94.5598813  14.0407845  76.3368063  90.0951947  11.6797899  76.9541431
  90.6280284  10.9186187  76.7240739  89.5666028  11.3871551  77.6965585
  81.3307493   9.1091495  65.3023675  82.1682715   9.5188504  65.0857382
  81.5085760   8.1690937  65.2723868  93.2271925   6.7766576  60.9907507
  92.7118548   7.5471181  61.2295895  92.9549233   6.1031712  61.6140569
  98.2006199   9.5298931  62.9260681  97.4235642   9.1910090  62.4815843
  98.8797680   9.5351554  62.2515646  91.4604660  10.8083891  64.4660243
  90.9326021  10.0736651  64.1533480  90.9592162  11.5858568  64.2200211
  96.4397506   9.0032912  69.5827289  95.7821180   9.6932173  69.6707418
  97.2437905   9.3929344  69.9261275  95.2502965   7.3577285  67.6331231
  95.7634846   7.9907276  68.1352940  95.9004188   6.7578480  67.2674591
  86.5192974   3.5008019  60.8462739  85.6830287   3.8382705  61.1672014
  86.3797744   3.3656998  59.9089876  89.6057260   8.6264102  57.4695216
  88.6984322   8.3953355  57.6686365  90.1028292   7.8301721  57.6569197
  92.5125339  17.3361609  60.3891902  91.8387038  17.6393306  60.9976860
  92.8991161  18.1390689  60.0397359  91.7283795   4.8326740  69.8789571
  90.8106357   5.0541687  69.7211259  92.1443939   4.9073051  69.0201279
  92.5118843   6.2318156  65.0092251  93.2590662   6.7439553  64.6999374
  92.7810433   5.9102208  65.8696645  90.7845493   8.7276696  61.9919206
  89.8756713   8.4435729  62.0891675  90.8140577   9.1475775  61.1322513
  96.0164761  12.3383286  65.7610373  95.5627088  11.4974196  65.8175564
  95.3858727  12.9744684  66.0985153  94.4597700  14.1759783  66.6960191
  94.7520674  14.7364840  65.9772557  94.9696321  14.4688344  67.4513351
  81.3533664   6.4482211  65.9734408  81.1558064   5.8551571  65.2485475
  80.7980328   6.1434421  66.6910347  89.3330387   6.3405317  68.0929001
  89.3878997   5.3879153  68.0171478  88.5221589   6.4964756  68.5770300
  90.4821581  10.2685440  59.3307284  90.0441011   9.5521299  58.8712922
  91.2232022  10.4961555  58.7692376  87.2722747   4.9582377  65.8519380
  86.4590613   5.2576547  66.2584572  87.7681741   4.5638066  66.5693862
  89.4231325  14.9540134  67.7853645  89.3807504  15.1800980  66.8562177
  90.3394024  14.7203508  67.9339446  92.8696959   5.4224201  74.6834274
  93.2246347   5.6495674  75.5428740  93.5169090   5.7542578  74.0611529
  98.5994696   8.5442637  65.3883603  98.4612594   8.7344233  64.4604792
  98.2430915   9.3062020  65.8451654  98.6264076  10.6119164  70.3994874
  99.0600582  10.5194453  71.2477928  99.3395656  10.5876665  69.7614890
  87.5397126  11.8303163  67.5815607  88.3337724  11.3353483  67.3798182
  86.8288818  11.3021026  67.2183313  92.3591970  14.2121258  71.9327975
  92.4128993  14.7812195  72.7005691  91.4906752  14.3823143  71.5682012
  83.8479889   5.9746245  63.6575360  82.9177478   5.9130700  63.8745322
  83.9437361   5.4522197  62.8612001  83.7665438   2.5001057  66.2453602
  84.0272256   3.4146391  66.1362762  84.5882611   2.0325500  66.3950215
  85.2390364   3.9138815  73.4152426  85.9113417   3.7056177  72.7665075
  84.4120150   3.7160901  72.9757659  99.4879625  10.6542865  72.9327760
  99.6815515  11.5588675  73.1787035  99.3880243  10.1950284  73.7666345
  94.5494734  10.8049608  78.5068640  94.3980240  10.5760159  77.5898724
  94.5399413  11.7620209  78.5199985  91.3180070   8.3781520  73.4914907
  92.2472130   8.5292680  73.3183874  90.8971100   8.4665541  72.6363553
  90.1168402  12.4032185  71.2613444  89.9779488  12.0350969  72.1339383
  89.3282998  12.9179824  71.0897402  90.7116554  17.5041281  62.6038981
  90.8868310  17.0329324  63.4184604  90.0249342  18.1307047  62.8320242
  91.6673617  11.7813787  68.6502282  91.3323450  11.7414557  69.5459932
  91.1677563  11.1158503  68.1772692  85.6417861   7.1881417  74.1754863
  85.5037659   6.4561656  74.7766402  86.5522785   7.0990318  73.8939051
  94.6032809   9.1269822  58.9239342  93.9861979   8.4016650  58.8272395
  94.1349297   9.8879182  58.5806416  88.2700162   6.9001377  73.6638543
  88.9799780   6.2594569  73.6225161  88.2269470   7.1514272  74.5864724
  96.2586940  13.8368730  76.5845122  96.1999487  13.1527950  75.9175705
  96.6606459  14.5787720  76.1325748  86.9829096   3.8866595  75.4834183
  86.4466453   3.4357333  76.1355779  86.3945804   4.0212504  74.7404647
  85.2777639  20.6530644  69.3778841  85.5174237  21.2849168  70.0557860
  84.4346836  20.3018684  69.6644200  86.3931355   3.3455246  58.0460646
  85.5160821   3.2244047  57.6822893  86.8689108   2.5541324  57.7939535
  96.2604348  11.8008314  74.8159102  95.3731126  11.4634236  74.9385501
  96.8302899  11.0691345  75.0527867  77.9133495   8.1332406  68.1402153
  78.6004535   7.8194136  67.5523169  77.7581623   9.0373770  67.8669405
  82.7168217   3.0222602  72.5687177  82.6326406   2.4148272  71.8337587
  81.8950923   3.5131621  72.5696673  89.7905501  16.4609766  71.7820345
  89.7175673  17.2664738  72.2939650  89.3482894  16.6601732  70.9568367
  89.5795281  15.6981536  65.2923167  88.7962803  16.2403217  65.3861391
  90.2788026  16.2155516  65.6917408  92.2504185  16.3596600  73.9378504
  92.9632157  16.9944065  73.8654405  91.7594213  16.4560466  73.1218506
  93.9721711  10.2647853  65.5095795  93.0377990  10.3849316  65.3400500
  94.1498380   9.3620320  65.2455805  87.3016098  14.1091044  74.7584075
  88.0025558  14.7427527  74.9113469  86.8311213  14.4505775  73.9979714
  95.4270494  12.4508994  63.0431982  95.7030338  12.3365588  63.9525856
  94.5574993  12.0526479  63.0044155  95.1017384   6.6635651  72.5836625
  94.4488834   6.9111559  71.9289078  95.4797764   5.8499790  72.2499102
  92.0624558  16.6995345  66.6864795  92.2446952  15.8817000  67.1492548
  92.8857544  16.9163037  66.2489685  92.3966723  15.6263530  63.9479844
  92.9254490  15.1155984  63.3350006  92.6594943  15.3106060  64.8125377
  91.1504957   7.4055462  79.0702662  90.4745594   7.3049592  79.7405037
  91.9732591   7.2494676  79.5338659  82.8983816  13.6427399  71.6915177
  83.4837253  12.8971087  71.8243082  82.7008655  13.9531356  72.5751841
  85.7522471  16.6778646  66.7077620  85.0832847  17.1624774  66.2241660
  85.6135341  16.9247867  67.6220998  77.4901471   6.2132999  70.4119620
  77.5285570   5.6796590  71.2056739  76.9841764   5.6868205  69.7930598
  89.8927740  18.7122390  73.3060278  90.4446048  18.8754011  74.0709363
  90.2333933  19.3026828  72.6340303  84.3444506   3.1320672  77.5555197
  84.9716545   2.7497750  78.1692721  83.4872425   2.9134874  77.9210890
  94.7438614  13.5383647  79.1608932  95.2878518  14.1513606  78.6663887
  94.1625459  14.0963226  79.6775945  81.1210048   4.9397101  63.4873552
  81.4163490   4.0307780  63.4340606  80.2198084   4.9184841  63.1654554
  93.0296127  16.6604365  70.2923960  92.9047267  15.8594105  69.7834906
  93.6875218  17.1550559  69.8037930  84.6504295   3.0153098  69.4701100
  83.9290881   3.6289066  69.3308574  85.4397551   3.5510863  69.3917746
  95.0931036  14.4613386  71.9203510  94.1461371  14.3418737  71.8481837
  95.4413809  13.5735884  72.0029772  82.8497890   2.6211199  63.6112877
  82.5210596   1.7408578  63.4287983  83.2037261   2.5658868  64.4989266
  92.0977469  14.2566102  68.1207863  91.9502431  13.3282809  68.3015433
  92.9230962  14.2786192  67.6364938  85.9639713   2.9084169  63.9788355
  86.3035786   3.4370090  63.2566963  86.4111834   3.2464575  64.7546921
  95.7011591  15.0794660  69.2072735  96.6258138  14.8737522  69.0697186
  95.5326894  14.8311062  70.1162077  86.8338205   5.0689653  69.6910724
  86.6882785   5.3829956  70.5835006  86.3563408   5.6874553  69.1381623
  95.4906907  15.5980328  64.5634827  95.6643785  15.0326750  63.8108679
  95.9835798  16.3981223  64.3814317  81.3083867   7.6094997  72.6298386
  80.7637335   8.3854805  72.7618660  82.1863217   7.9565801  72.4717507
  96.4782079  14.9147092  61.6631725  97.1732984  15.5353785  61.8819040
  96.8205230  14.0642444  61.9384103  82.0949889   6.7364893  75.5228542
  81.3531625   6.8847529  76.1093173  81.7742633   6.9973159  74.6595292
  98.3773503  12.3646798  63.1919056  98.9024827  12.7034071  62.4668376
  98.2895855  11.4293813  63.0082190  90.0393551  16.2780871  75.3208932
  90.3480678  16.0330018  76.1931632  90.8369033  16.4827510  74.8327803
  90.0614163  18.4318781  67.5514309  89.6219154  17.9395160  68.2447166
  90.8122280  17.8891749  67.3106384  82.5406502  14.6230322  67.5538937
  83.3664522  14.3234094  67.1737581  82.1900554  13.8537944  68.0028726
  87.5088035  13.9756790  69.6236611  86.8868045  13.3127495  69.3238839
  88.1792902  14.0017922  68.9410258  80.7415107  12.5416648  68.5127871
  79.9047016  12.1138823  68.3311872  80.7138753  12.7349092  69.4498662
  98.0667409  12.9979701  78.4970254  97.2762952  12.9803840  77.9574753
  97.8300763  13.5367995  79.2519290  98.1865284   9.8472168  75.8102982
  98.2363289   9.6822175  76.7518505  98.0779207   8.9799427  75.4200863
  87.0701542  12.5260714  63.0995071  87.2189663  13.2096178  62.4461744
  87.8767986  12.5065804  63.6144527  99.6883481  12.2669109  76.0545004
  99.3968289  12.6299090  76.8908465  99.0755612  11.5536118  75.8758336
 100.8879163   9.8321989  68.5747574 101.7226054  10.2711793  68.7385134
 101.0238292   9.3560642  67.7555820  97.9370669   7.3901724  74.5225062
  98.4124790   7.5829370  73.7143913  97.0136234   7.4460910  74.2768445
  84.8254175   8.5525891  64.1056140  84.5800217   7.6488221  64.3036350
  84.9950090   8.5543042  63.1635618  84.0949823   4.2854249  61.6042302
  83.4019068   4.3598604  60.9482338  83.8501575   3.5214592  62.1263818
  90.5696948  15.0208844  60.5706819  89.9970915  15.6399031  60.1177290
  91.1429742  15.5708206  61.1046741  93.7894208  15.3045994  61.7015401
  94.7224881  15.2391556  61.9048276  93.7017421  16.1402261  61.2429934
  96.4182224  14.6211864  58.6619348  96.3395856  14.2871728  59.5555106
  97.2391891  15.1133632  58.6610821  90.9543746   6.3569657  57.9122871
  91.9002851   6.2275865  57.9811289  90.5757991   5.6184319  58.3892299
  90.8382439  10.4087403  79.3723528  91.7585448  10.5866002  79.5663575
  90.8032022   9.4643448  79.2203227  89.1386664   4.2819633  57.8477756
  88.2318119   3.9852746  57.9240470  89.4162645   3.9849451  56.9812043
  80.0564604   5.6025997  68.2976803  79.7367388   4.7491305  68.0051177
  79.5098032   5.8174575  69.0534770  83.8344512   8.3188438  72.0146309
  84.0530521   9.2505545  72.0334343  84.2470285   7.9596412  72.8001113
  88.7072377   3.8921643  81.4049058  88.6069104   4.8416000  81.3361149
  88.4893919   3.5639882  80.5325128  79.9252864   9.2228908  70.2669924
  79.2316335   8.8082861  69.7539879  80.6725855   9.2649445  69.6703343
  88.5703647   7.3218782  80.2214120  88.0870729   8.1219142  80.4278009
  88.6564586   7.3326727  79.2681564  81.8389606   9.1547162  68.1435939
  81.8160295   9.2534849  67.1917822  82.1490243  10.0012313  68.4653105
  84.4976984  11.2123317  72.2582554  85.4520238  11.1807259  72.1912485
  84.2989508  10.7513941  73.0732780  85.0876366   9.7824433  74.8253351
  85.9069255  10.2768512  74.8488189  85.3613174   8.8656401  74.7970919
  82.8527213  16.7542936  69.2752751  82.7181681  15.9943337  68.7090750
  82.4359275  17.4783836  68.8081540  93.9886176  11.9379860  58.2829327
  94.6922026  12.1429862  58.8986982  93.2648825  12.5056622  58.5478410
  94.8183986   7.6889721  64.4031597  94.7619188   8.1458273  63.5639229
  95.3712329   6.9280406  64.2254440  86.0096339  17.6512253  69.4871194
  85.8928723  18.5957686  69.3849884  85.1888785  17.3485815  69.8756993
  95.8972874  12.3762389  60.3327787  96.7318478  11.9443588  60.1505262
  95.7357216  12.2044403  61.2604681  95.5518766   8.8794502  61.6984126
  95.4967570   8.7138774  60.7572570  94.9264821   9.5870535  61.8546316
  80.3411281   4.1162567  75.5245548  80.9870144   3.6061521  76.0132774
  80.1328432   4.8531248  76.0988974  92.8664673  11.1843414  81.0237689
  93.7355833  11.3584067  80.6624324  92.3871424  12.0037831  80.9013418
  87.0350853  18.3040515  72.7027123  87.9378100  18.3364126  73.0193618
  86.8088223  17.3740966  72.7173458  88.7904455  17.0571502  69.3637201
  87.8400086  17.0573363  69.2501573  89.0936941  16.3104236  68.8473236
 104.5257149  22.8932040  70.4282964 105.1635559  22.7738788  69.7246304
 104.4077992  23.8412884  70.4870916 101.3346855  22.8459468  70.3644488
 100.9965366  22.7300533  69.4765023 102.2036623  22.4450633  70.3445494
  97.1933671  24.6994945  66.3541379  96.6298536  24.6084882  65.5857667
  97.0786066  23.8794849  66.8343872 101.8166638  23.9994320  76.3230694
 101.8055279  23.6047118  75.4511197 101.9787277  23.2660393  76.9164465
  94.7398103  26.1946136  69.1925600  95.5319394  25.8536961  68.7771899
  94.9794753  26.3041111  70.1127753 102.7733229  28.3665912  61.6655844
 102.1221209  28.9519993  61.2789858 103.5677592  28.8972107  61.7250882
  96.6988857  25.4555050  62.0642978  97.4719733  24.9084037  61.9255854
  97.0514255  26.3199299  62.2757440  98.5373899  26.7831432  75.2709878
  98.2463765  27.6877063  75.1556544  99.1730883  26.8247959  75.9853947
  99.4630106  24.1608280  71.8611237 100.0593678  23.9364303  71.1468200
  99.5205077  23.4193026  72.4636685  99.0355134  21.6147716  59.6961428
  99.2880655  21.0929237  58.9344891  98.0979693  21.4513861  59.7988112
 104.0798417  20.6183494  67.5036172 104.8661506  20.2002917  67.1526589
 104.3437121  21.5229586  67.6717820 104.2508495  26.0556344  62.2024828
 103.6154327  26.1290971  62.9145733 103.9205901  26.6449943  61.5243908
 109.4806844  20.5558727  68.4069150 110.2132016  19.9857944  68.6406980
 108.7246200  20.1680328  68.8475656  98.7551423  23.5175822  61.8985803
  98.6387681  22.8420725  62.5666888  98.8653683  23.0308196  61.0817956
 101.0982964  22.9785969  65.6032493 100.7341171  22.4516590  66.3145414
 101.9550080  22.5884438  65.4298978 107.0032265  14.2680301  72.8663759
 106.6715589  15.1375712  72.6424974 106.4077878  13.9516585  73.5457789
 100.7388451  18.0075868  60.5993841 100.9062853  18.8756105  60.9664312
 100.5485620  18.1703150  59.6755130 103.4963784  26.4692847  72.2659671
 103.1964507  27.3717886  72.1575479 103.1514844  26.2025031  73.1180824
  96.9476266  22.9206644  68.2996376  96.0226762  22.7882858  68.5074068
  97.1960679  23.7000863  68.7966318 106.8960928  18.9875388  69.9457109
 105.9877805  18.9190796  69.6515870 106.8448524  19.4647332  70.7738934
 100.7177672  20.4633526  61.5840508 100.5977297  20.9090577  62.4225988
 100.0230260  20.8118844  61.0254046  94.3085077  22.5639918  69.1340165
  94.4377458  22.8174397  70.0479577  93.6282528  23.1567626  68.8144820
  98.4784564  33.2337168  65.2330639  98.4008594  34.1844993  65.3119120
  97.8746208  32.8883040  65.8905565 100.9701794  20.4065033  77.8892006
 100.1935128  20.9658953  77.8794871 101.6092357  20.8921816  78.4106876
 108.7622574  17.1891826  71.7234983 108.1196955  17.4824359  71.0774777
 108.2577503  17.0744746  72.5288179 106.4162738  20.9354999  62.4120842
 107.3280594  21.1682386  62.2368540 105.9072385  21.5192043  61.8495921
  99.2248166  23.2150486  77.4509973  99.9662850  23.7535530  77.1744797
  98.5185152  23.8416775  77.6081525 104.7003506  25.3579627  76.0482135
 105.1086862  24.9162037  75.3036767 103.9780767  24.7832254  76.3016327
 101.0534576  20.2952234  73.4215691 101.8995771  20.7191647  73.5650340
 100.9933213  19.6385858  74.1154255 105.0232320  25.9180818  69.8034423
 104.3941183  26.0826532  69.1010491 104.6357982  26.3322427  70.5745387
 108.9021552  26.8535255  67.1578787 108.2172590  27.2334157  66.6075821
 108.9865402  27.4630582  67.8910735 104.2034021  17.9556602  75.0796865
 103.9594953  18.7098663  74.5431141 104.4793952  18.3341950  75.9144112
 106.1572484  24.4995214  73.7574131 106.3689379  25.1426974  73.0808512
 106.1102232  23.6657531  73.2896061 103.7598713  17.1113035  70.6610703
 102.8983192  17.4094289  70.9527440 103.7861147  17.3283434  69.7291735
 100.5760282  25.6555226  67.0684509 101.0398628  25.9342929  66.2789131
 100.3117080  24.7538670  66.8857599  97.4684363  25.2026707  70.0064272
  98.0385720  25.6313976  69.3681756  98.0592475  24.9209292  70.7048457
  99.5129168  21.7778378  63.8774074 100.2153212  22.2299422  64.3448000
  99.1809797  21.1362197  64.5053967  97.9609530  20.3690135  78.2525283
  97.3308190  21.0506415  78.4860680  97.8545618  20.2573216  77.3078421
  93.2554502  20.0361931  69.1791207  92.4653556  20.2919459  68.7031318
  93.7465750  20.8510269  69.2843248 107.2718312  27.3767170  71.9296488
 108.0935756  26.9747357  71.6479170 107.2680715  27.2735404  72.8812604
  95.2069248  20.4006510  66.1374684  94.4100411  20.5125204  66.6558180
  94.9794840  20.7393162  65.2715574 101.0374915  26.9251213  74.0857199
 101.1019348  27.3871620  74.9215370 100.3285839  26.2948578  74.2139508
  91.5392205  20.2892421  71.6106198  91.7900244  21.1739431  71.8763774
  92.0751754  20.1097023  70.8381290 115.3624305  23.7205918  68.2781460
 114.6088013  23.1513316  68.1225464 115.4971846  23.6868583  69.2252094
 100.7522933  28.5919321  63.9536179 100.6168608  29.4370856  64.3821027
 101.2932745  28.7938598  63.1902113  97.2390273  14.6710900  80.6150534
  96.8457218  14.1177099  81.2898178  98.0556413  14.9821479  81.0057052
  94.2052330  26.1094759  64.5264104  94.7176851  26.9038009  64.6769669
  94.8575043  25.4121049  64.4597705  96.0147215  29.2260515  66.6086857
  96.1913843  30.1478480  66.4207841  96.8104048  28.9118934  67.0381237
 100.1558234  16.0868780  78.2070791 100.8967947  16.6875933  78.1275253
 100.3876156  15.3446417  77.6488833  95.2999572  21.2725147  76.4849020
  95.1853087  20.3710404  76.7856119  94.4444089  21.5188844  76.1333837
 102.3791409  29.2142887  78.0836521 101.9355263  28.4279266  77.7657425
 103.0408623  29.4022038  77.4180412  97.1378530  30.7438689  72.6097199
  97.6885956  30.6155752  71.8374193  96.2990006  31.0433578  72.2592092
 104.4772647  29.4945687  76.1117922 104.4591123  30.3154568  75.6198191
 105.3992567  29.3699762  76.3368063 100.9345701  27.0089817  76.9541431
 101.4674038  26.2478105  76.7240739 100.4059783  26.7163468  77.6965585
 104.1015396  12.1149883  72.4835072 103.7579666  13.0051524  72.4074183
 104.4694359  11.9251540  71.6204657  92.1701247  24.4383413  65.3023675
  93.0076469  24.8480421  65.0857382  92.3479515  23.4982855  65.2723868
 104.0665679  22.1058494  60.9907507 103.5512303  22.8763098  61.2295895
 103.7942988  21.4323630  61.6140569 101.6512790  16.9508194  66.0492746
 100.7954387  16.5615045  65.8698385 102.0639742  17.0300155  65.1892531
 103.1811937  14.4854538  70.4484306 102.6776732  14.4484673  69.6352111
 103.4742544  15.3947280  70.5080962  99.4254823  14.5693267  69.4550487
 100.2907819  14.3736076  69.0956377  99.4932332  14.3403619  70.3819844
 109.0399953  24.8590848  62.9260681 108.2629396  24.5202008  62.4815843
 109.7191434  24.8643471  62.2515646 103.8551982  19.9785586  62.8167289
 103.5502118  20.2931735  63.6677432 104.8082424  20.0567006  62.8594622
 102.2998414  26.1375809  64.4660243 101.7719776  25.4028569  64.1533480
 101.7985917  26.9150485  64.2200211 107.2791260  24.3324830  69.5827289
 106.6214935  25.0224091  69.6707418 108.0831659  24.7221261  69.9261275
  97.0317142  16.7995475  66.8266854  97.6060894  16.5770657  66.0940047
  97.6188124  16.8684170  67.5795455 106.0896719  22.6869202  67.6331231
 106.6028601  23.3199194  68.1352940 106.7397943  22.0870398  67.2674591
  97.3586729  18.8299936  60.8462739  96.5224041  19.1674623  61.1672014
  97.2191499  18.6948916  59.9089876  99.3339810  13.6736724  65.5541924
  98.6804222  13.3585741  64.9298538  99.2920284  13.0512465  66.2801747
 100.4451014  23.9556019  57.4695216  99.5378076  23.7245273  57.6686365
 100.9422046  23.1593639  57.6569197 103.3519093  32.6653526  60.3891902
 102.6780792  32.9685223  60.9976860 103.7384915  33.4682607  60.0397359
 102.5677550  20.1618658  69.8789571 101.6500111  20.3833605  69.7211259
 102.9837693  20.2364968  69.0201279 103.3512598  21.5610073  65.0092251
 104.0984417  22.0731471  64.6999374 103.6204187  21.2394126  65.8696645
 101.6239248  24.0568614  61.9919206 100.7150467  23.7727647  62.0891675
 101.6534332  24.4767693  61.1322513 106.8558515  27.6675204  65.7610373
 106.4020842  26.8266114  65.8175564 106.2252482  28.3036602  66.0985153
 105.7991435  18.5967190  66.9911041 105.0614192  18.0844576  67.3221283
 106.0518208  18.1567571  66.1794318 105.2991454  29.5051700  66.6960191
 105.5914429  30.0656757  65.9772557 105.8090075  29.7980261  67.4513351
 105.9003062  11.3743442  67.5852810 106.2061939  10.5140805  67.2978725
 106.6255667  11.9661062  67.3851804  92.1927418  21.7774128  65.9734408
  91.9951818  21.1843489  65.2485475  91.6374082  21.4726338  66.6910347
 100.1724142  21.6697235  68.0929001 100.2272752  20.7171071  68.0171478
  99.3615344  21.8256674  68.5770300 101.3215336  25.5977358  59.3307284
 100.8834766  24.8813217  58.8712922 102.0625776  25.8253473  58.7692376
  98.1116502  20.2874295  65.8519380  97.2984367  20.5868465  66.2584572
  98.6075496  19.8929983  66.5693862 100.2625080  30.2832051  67.7853645
 100.2201258  30.5092898  66.8562177 101.1787779  30.0495426  67.9339446
 103.7090713  20.7516119  74.6834274 104.0640101  20.9787592  75.5428740
 104.3562845  21.0834496  74.0611529 109.4388450  23.8734555  65.3883603
 109.3006349  24.0636151  64.4604792 109.0824669  24.6353938  65.8451654
  97.6030577  17.8592650  71.4680615  98.2429956  17.7181409  70.7703578
  96.7708107  17.5727163  71.0919217 109.4657830  25.9411082  70.3994874
 109.8994337  25.8486371  71.2477928 110.1789411  25.9168582  69.7614890
  98.3790880  27.1595080  67.5815607  99.1731479  26.6645401  67.3798182
  97.6682573  26.6312944  67.2183313 103.1985725  29.5413176  71.9327975
 103.2522747  30.1104112  72.7005691 102.3300506  29.7115061  71.5682012
  94.6873644  21.3038162  63.6575360  93.7571232  21.2422618  63.8745322
  94.7831116  20.7814115  62.8612001  94.6059193  17.8292975  66.2453602
  94.8666010  18.7438308  66.1362762  95.4276365  17.3617418  66.3950215
  96.0784118  19.2430732  73.4152426  96.7507172  19.0348094  72.7665075
  95.2513905  19.0452818  72.9757659 110.3273380  25.9834783  72.9327760
 110.5209270  26.8880593  73.1787035 110.2273998  25.5242202  73.7666345
 101.9809690  15.8692673  75.4318087 101.3337605  16.5682623  75.3382564
 102.7510706  16.3028817  75.7994335 105.3888488  26.1341525  78.5068640
 105.2373995  25.9052077  77.5898724 105.3793168  27.0912127  78.5199985
 102.1573825  23.7073438  73.4914907 103.0865885  23.8584598  73.3183874
 101.7364855  23.7957459  72.6363553 100.9562156  27.7324102  71.2613444
 100.8173242  27.3642887  72.1339383 100.1676753  28.2471742  71.0897402
 101.5510308  32.8333199  62.6038981 101.7262064  32.3621242  63.4184604
 100.8643096  33.4598965  62.8320242 102.5067372  27.1105705  68.6502282
 102.1717204  27.0706475  69.5459932 102.0071317  26.4450421  68.1772692
  96.4811616  22.5173335  74.1754863  96.3431413  21.7853574  74.7766402
  97.3916539  22.4282235  73.8939051 105.4426563  24.4561739  58.9239342
 104.8255734  23.7308568  58.8272395 104.9743052  25.2171100  58.5806416
  99.1093916  22.2293294  73.6638543  99.8193535  21.5886487  73.6225161
  99.0663224  22.4806189  74.5864724 107.0980695  29.1660648  76.5845122
 107.0393241  28.4819868  75.9175705 107.5000213  29.9079638  76.1325748
  97.8222850  19.2158512  75.4834183  97.2860207  18.7649251  76.1355779
  97.2339559  19.3504421  74.7404647  96.1171394  35.9822562  69.3778841
  96.3567992  36.6141086  70.0557860  95.2740590  35.6310602  69.6644200
  97.2325109  18.6747164  58.0460646  96.3554575  18.5535965  57.6822893
  97.7082862  17.8833242  57.7939535 107.0998102  27.1300232  74.8159102
 106.2124881  26.7926154  74.9385501 107.6696653  26.3983263  75.0527867
  88.7527249  23.4624324  68.1402153  89.4398289  23.1486054  67.5523169
  88.5975378  24.3665688  67.8669405  93.5561971  18.3514520  72.5687177
  93.4720160  17.7440190  71.8337587  92.7344678  18.8423538  72.5696673
 100.6299256  31.7901684  71.7820345 100.5569427  32.5956656  72.2939650
 100.1876649  31.9893650  70.9568367 100.4189035  31.0273454  65.2923167
  99.6356557  31.5695134  65.3861391 101.1181780  31.5447434  65.6917408
 103.7285685  16.8368084  67.9357372 104.2254385  16.0838046  67.6158442
 102.9572667  16.8732400  67.3700581 111.5815443  22.5408449  69.5775664
 111.5705319  23.4233165  69.2069597 110.7132822  22.1880000  69.3830201
 103.0897939  31.6888518  73.9378504 103.8025911  32.3235983  73.8654405
 102.5987968  31.7852384  73.1218506 104.8115466  25.5939771  65.5095795
 103.8771745  25.7141233  65.3400500 104.9892134  24.6912238  65.2455805
 100.3120654  18.9785467  67.6629057  99.9418442  18.4256507  68.3509962
 100.8079746  18.3743600  67.1104057 108.1988017  21.4357090  66.0445830
 108.6648470  22.2685082  65.9706132 108.6495518  20.9702072  66.7491088
  98.1409853  29.4382962  74.7584075  98.8419312  30.0719445  74.9113469
  97.6704968  29.7797693  73.9979714 106.2664248  27.7800911  63.0431982
 106.5424092  27.6657506  63.9525856 105.3968747  27.3818396  63.0044155
 106.1704680  13.8037677  70.0836731 105.2567760  14.0341904  70.2518938
 106.5997782  13.8876121  70.9350763 105.9411139  21.9927569  72.5836625
 105.2882589  22.2403477  71.9289078 106.3191518  21.1791707  72.2499102
 102.9018312  32.0287262  66.6864795 103.0840707  31.2108918  67.1492548
 103.7251298  32.2454954  66.2489685 103.2360478  30.9555447  63.9479844
 103.7648244  30.4447902  63.3350006 103.4988698  30.6397978  64.8125377
 101.9898712  22.7347380  79.0702662 101.3139349  22.6341509  79.7405037
 102.8126345  22.5786594  79.5338659  93.7377571  28.9719317  71.6915177
  94.3231007  28.2263005  71.8243082  93.5402409  29.2823273  72.5751841
  96.5916226  32.0070564  66.7077620  95.9226601  32.4916692  66.2241660
  96.4529096  32.2539784  67.6220998  88.3295225  21.5424917  70.4119620
  88.3679325  21.0088508  71.2056739  87.8235518  21.0160122  69.7930598
 100.7321494  34.0414308  73.3060278 101.2839802  34.2045929  74.0709363
 101.0727688  34.6318745  72.6340303  95.7085988  16.3889457  73.9082163
  95.7727314  17.2504288  73.4959560  95.6453108  15.7763459  73.1754521
  95.1838260  18.4612590  77.5555197  95.8110299  18.0789667  78.1692721
  94.3266179  18.2426792  77.9210890 105.5832369  28.8675565  79.1608932
 106.1272273  29.4805523  78.6663887 105.0019214  29.4255143  79.6775945
  91.9603803  20.2689019  63.4873552  92.2557244  19.3599697  63.4340606
  91.0591839  20.2476758  63.1654554 103.8689882  31.9896283  70.2923960
 103.7441021  31.1886023  69.7834906 104.5268973  32.4842476  69.8037930
  95.4898050  18.3445016  69.4701100  94.7684636  18.9580983  69.3308574
  96.2791306  18.8802780  69.3917746 105.9324790  29.7905303  71.9203510
 104.9855126  29.6710654  71.8481837 106.2807563  28.9027801  72.0029772
  98.2924363  15.6799442  75.7441752  98.8158765  15.9261739  76.5068062
  98.0736697  16.5119477  75.3244890  93.6891645  17.9503117  63.6112877
  93.3604351  17.0700496  63.4287983  94.0431015  17.8950785  64.4989266
 102.9371223  29.5858019  68.1207863 102.7896186  28.6574727  68.3015433
 103.7624717  29.6078110  67.6364938  96.8033468  18.2376086  63.9788355
  97.1429540  18.7662008  63.2566963  97.2505588  18.5756493  64.7546921
 106.5405345  30.4086578  69.2072735 107.4651893  30.2029439  69.0697186
 106.3720649  30.1602979  70.1162077  99.4976909  16.6213137  73.4291423
  99.1573729  15.8220950  73.8312103  98.7915915  16.9214848  72.8568256
 100.1493380  13.7062450  71.8818746 100.9719450  13.2322928  71.7597636
 100.3931444  14.4852933  72.3817432  98.7901615  16.7350708  62.1781647
  99.5109977  17.1131961  61.6745364  98.1666919  17.4539585  62.2816625
 102.9332738  17.4395857  63.1139980 103.1496352  18.3220495  62.8128808
 102.4526805  17.0482070  62.3845622  97.6731959  20.3981570  69.6910724
  97.5276540  20.7121873  70.5835006  97.1957163  21.0166471  69.1381623
  99.5328342  17.3884118  69.7391614  99.5189911  16.4925212  69.4023912
 100.2500770  17.3954782  70.3729900 101.3854473  17.8221458  71.7844741
 101.1272251  18.7438529  71.7829072 100.8539513  17.4251893  72.4745205
 106.3300661  30.9272246  64.5634827 106.5037539  30.3618668  63.8108679
 106.8229553  31.7273140  64.3814317  92.1477621  22.9386915  72.6298386
  91.6031089  23.7146723  72.7618660  93.0256971  23.2857719  72.4717507
  98.9365238  16.2698499  65.0079184  99.0581149  15.3415145  65.2070072
  98.6467280  16.2837185  64.0957499 101.8056428  13.9553409  68.1445904
 101.8278125  14.0192742  67.1897883 102.2224487  13.1157918  68.3386410
 112.1840053  23.6908669  66.1825126 112.6271199  22.9415994  65.7844250
 111.3066563  23.6818805  65.7998858 107.3175834  30.2439010  61.6631725
 108.0126739  30.8645703  61.8819040 107.6598984  29.3934361  61.9384103
  92.9343643  22.0656811  75.5228542  92.1925379  22.2139446  76.1093173
  92.6136387  22.3265077  74.6595292 109.2167257  27.6938716  63.1919056
 109.7418581  28.0325988  62.4668376 109.1289610  26.7585731  63.0082190
 100.8787306  31.6072789  75.3208932 101.1874432  31.3621936  76.1931632
 101.6762788  31.8119428  74.8327803 100.9007918  33.7610699  67.5514309
 100.4612908  33.2687077  68.2447166 101.6516035  33.2183666  67.3106384
  93.3800257  29.9522240  67.5538937  94.2058277  29.6526012  67.1737581
  93.0294309  29.1829862  68.0028726  98.3481790  29.3048708  69.6236611
  97.7261799  28.6419413  69.3238839  99.0186657  29.3309840  68.9410258
  91.5808862  27.8708566  68.5127871  90.7440770  27.4430740  68.3311872
  91.5532507  28.0641009  69.4498662  98.4206317  17.7830496  79.2169117
  98.4694473  18.6592619  78.8346886  98.9628832  17.2407889  78.6440760
 108.9061163  28.3271619  78.4970254 108.1156707  28.3095758  77.9574753
 108.6694518  28.8659913  79.2519290 109.0259038  25.1764086  75.8102982
 109.0757043  25.0114093  76.7518505 108.9172962  24.3091345  75.4200863
  97.9095297  27.8552631  63.0995071  98.0583417  28.5388096  62.4461744
  98.7161740  27.8357721  63.6144527 106.3162801  21.1595014  77.1262289
 107.2172663  21.0201478  76.8346287 106.3910775  21.3249468  78.0660466
 100.6505606  18.5361868  75.9715475  99.7808915  18.8295434  75.6998064
 100.8865086  19.1202313  76.6922739 110.5277235  27.5961027  76.0545004
 110.2362043  27.9591008  76.8908465 109.9149366  26.8828035  75.8758336
 111.7272917  25.1613907  68.5747574 112.5619809  25.6003711  68.7385134
 111.8632046  24.6852560  67.7555820 108.7764423  22.7193642  74.5225062
 109.2518545  22.9121288  73.7143913 107.8529989  22.7752828  74.2768445
  95.6647930  23.8817809  64.1056140  95.4193972  22.9780139  64.3036350
  95.8343844  23.8834959  63.1635618 103.3544640  14.7541485  73.4880896
 103.8726584  15.4902512  73.1627384 102.9999773  15.0605479  74.3227655
  94.9343577  19.6146166  61.6042302  94.2412822  19.6890521  60.9482338
  94.6895329  18.8506510  62.1263818 103.6057234  11.1741768  69.0081792
 103.8858988  10.5064957  69.6342219 104.3907841  11.3670863  68.4956456
 101.4090702  30.3500762  60.5706819 100.8364670  30.9690949  60.1177290
 101.9823496  30.9000123  61.1046741 107.4766092  19.5959402  72.7553367
 108.4283515  19.6957499  72.7765591 107.3069543  18.8037670  73.2651452
 105.4980472  16.6814985  72.9412768 104.9030404  16.9619998  72.2459257
 105.2130168  17.1708886  73.7129509 104.6287962  30.6337912  61.7015401
 105.5618635  30.5683473  61.9048276 104.5411175  31.4694179  61.2429934
 107.2575979  29.9503782  58.6619348 107.1789610  29.6163646  59.5555106
 108.0785646  30.4425550  58.6610821 109.9554170  22.8165521  71.8695667
 109.9230490  21.8781522  72.0555351 110.5654794  22.8949558  71.1361492
 101.7937501  21.6861574  57.9122871 102.7396606  21.5567783  57.9811289
 101.4151746  20.9476236  58.3892299 110.1048659  19.6076565  71.9153950
 109.5887707  18.8235022  71.7283879 110.9888607  19.2795282  72.0800470
 107.7659385  13.3517580  67.8749763 107.5684207  13.0432669  68.7593095
 108.3759091  14.0779219  68.0047693 115.7730720  23.8781528  71.0101704
 116.5034108  23.6166816  71.5709407 115.1637665  23.1410250  71.0503772
 113.8546017  22.0189391  71.6076155 113.1279181  21.8845356  70.9992647
 113.4393304  22.3266219  72.4132873 101.6776193  25.7379321  79.3723528
 102.5979203  25.9157920  79.5663575 101.6425776  24.7935366  79.2203227
  99.9780418  19.6111551  57.8477756  99.0711873  19.3144664  57.9240470
 100.2556399  19.3141369  56.9812043  90.8958358  20.9317914  68.2976803
  90.5761143  20.0783222  68.0051177  90.3491787  21.1466492  69.0534770
  94.6738266  23.6480355  72.0146309  94.8924276  24.5797463  72.0334343
  95.0864040  23.2888330  72.8001113 101.5942484  14.1548441  64.0021998
 100.7843212  13.8095525  64.3777244 102.2826901  13.8455984  64.5909609
 103.5233032  13.2326487  65.6246294 104.0764071  13.6521941  66.2836317
 103.7603118  12.3062235  65.6669250  99.5466131  19.2213561  81.4049058
  99.4462858  20.1707918  81.3361149  99.3287673  18.8931800  80.5325128
  98.7479203  16.4698486  57.9889736  99.6098367  16.7953384  58.2485553
  98.9329547  15.6829982  57.4762801  90.7646618  24.5520826  70.2669924
  90.0710090  24.1374779  69.7539879  91.5119609  24.5941362  69.6703343
 106.9011839  15.3427012  65.1324959 106.3210508  16.0011817  64.7503011
 106.6347772  14.5204357  64.7212376 105.3515406  14.7432070  67.3346279
 105.8515184  14.8548605  66.5260598 105.9951013  14.4393123  67.9747087
  99.4097401  22.6510700  80.2214120  98.9264483  23.4511060  80.4278009
  99.4958340  22.6618645  79.2681564  92.6783361  24.4839079  68.1435939
  92.6554049  24.5826767  67.1917822  92.9883997  25.3304230  68.4653105
  95.3370739  26.5415235  72.2582554  96.2913992  26.5099177  72.1912485
  95.1383262  26.0805858  73.0732780  95.9270121  25.1116351  74.8253351
  96.7463010  25.6060429  74.8488189  96.2006929  24.1948319  74.7970919
 105.6836717  17.5027103  64.1881307 104.7962572  17.7876753  63.9701502
 106.0990706  17.3420866  63.3408584 109.0351253  17.5273624  67.9035646
 109.8111643  18.0170076  68.1760263 108.3099387  17.9531678  68.3607516
 111.4723812  18.2401243  68.9609587 112.0668303  17.9996979  68.2502895
 111.5450396  17.5208374  69.5883123  93.6920968  32.0834854  69.2752751
  93.5575436  31.3235255  68.7090750  93.2753030  32.8075754  68.8081540
 104.8279931  27.2671778  58.2829327 105.5315781  27.4721780  58.8986982
 104.1042579  27.8348539  58.5478410 105.6577741  23.0181639  64.4031597
 105.6012942  23.4750190  63.5639229 106.2106083  22.2572323  64.2254440
 109.4682547  18.8071371  65.2281716 109.2119481  18.4068006  66.0589924
 108.8435415  19.5215165  65.1031856 113.7794885  21.5467444  67.7353008
 113.2194443  21.6160633  68.5084570 113.1738388  21.3708429  67.0152504
  96.8490094  32.9804171  69.4871194  96.7322478  33.9249604  69.3849884
  96.0282540  32.6777733  69.8756993 106.7366628  27.7054307  60.3327787
 107.5712232  27.2735505  60.1505262 106.5750971  27.5336320  61.2604681
 106.3912520  24.2086420  61.6984126 106.3361324  24.0430691  60.7572570
 105.7658576  24.9162453  61.8546316  91.1805035  19.4454484  75.5245548
  91.8263899  18.9353438  76.0132774  90.9722186  20.1823166  76.0988974
 103.7058427  26.5135332  81.0237689 104.5749587  26.6875984  80.6624324
 103.2265179  27.3329749  80.9013418  99.7008646  13.7094529  61.2769445
  99.6887316  14.6536369  61.4337715 100.5932068  13.5264674  60.9828906
  97.8744608  33.6332433  72.7027123  98.7771854  33.6656043  73.0193618
  97.6481978  32.7032884  72.7173458  99.6298210  32.3863419  69.3637201
  98.6793841  32.3865281  69.2501573  99.9330696  31.6396154  68.8473236
 103.5160765  10.3037306  65.5315381 102.7493161   9.7495792  65.6772064
 103.9271470  10.3759174  66.3929533  95.5202526  16.5922102  79.6220563
  96.3833988  16.2358906  79.8323887  94.9467937  16.2535996  80.3095967
 115.3650903  38.2223958  70.4282964 116.0029313  38.1030705  69.7246304
 115.2471746  39.1704802  70.4870916 112.1740609  38.1751386  70.3644488
 111.8359121  38.0592451  69.4765023 113.0430378  37.7742551  70.3445494
 108.0327425  40.0286862  66.3541379 107.4692290  39.9376799  65.5857667
 107.9179820  39.2086767  66.8343872 112.6560392  39.3286238  76.3230694
 112.6449033  38.9339036  75.4511197 112.8181032  38.5952310  76.9164465
 105.5791857  41.5238054  69.1925600 106.3713149  41.1828879  68.7771899
 105.8188507  41.6333029  70.1127753 113.6126984  43.6957830  61.6655844
 112.9614964  44.2811910  61.2789858 114.4071347  44.2264025  61.7250882
 107.5382611  40.7846967  62.0642978 108.3113487  40.2375954  61.9255854
 107.8908010  41.6491217  62.2757440 109.3767654  42.1123349  75.2709878
 109.0857520  43.0168980  75.1556544 110.0124638  42.1539877  75.9853947
 110.3023860  39.4900198  71.8611237 110.8987433  39.2656220  71.1468200
 110.3598832  38.7484943  72.4636685 109.8748889  36.9439633  59.6961428
 110.1274410  36.4221155  58.9344891 108.9373448  36.7805779  59.7988112
 114.9192172  35.9475412  67.5036172 115.7055261  35.5294835  67.1526589
 115.1830876  36.8521504  67.6717820 115.0902249  41.3848262  62.2024828
 114.4548082  41.4582889  62.9145733 114.7599655  41.9741861  61.5243908
 120.3200599  35.8850645  68.4069150 121.0525771  35.3149862  68.6406980
 119.5639954  35.4972245  68.8475656 109.5945178  38.8467739  61.8985803
 109.4781436  38.1712643  62.5666888 109.7047437  38.3600113  61.0817956
 111.9376718  38.3077886  65.6032493 111.5734926  37.7808507  66.3145414
 112.7943834  37.9176355  65.4298978 117.8426019  29.5972219  72.8663759
 117.5109344  30.4667630  72.6424974 117.2471633  29.2808503  73.5457789
 111.5782205  33.3367786  60.5993841 111.7456608  34.2048023  60.9664312
 111.3879375  33.4995068  59.6755130 114.3357539  41.7984765  72.2659671
 114.0358262  42.7009804  72.1575479 113.9908598  41.5316948  73.1180824
 107.7870020  38.2498562  68.2996376 106.8620517  38.1174776  68.5074068
 108.0354433  39.0292781  68.7966318 117.7354682  34.3167305  69.9457109
 116.8271560  34.2482714  69.6515870 117.6842278  34.7939250  70.7738934
 111.5571426  35.7925444  61.5840508 111.4371052  36.2382494  62.4225988
 110.8624015  36.1410761  61.0254046 105.1478831  37.8931835  69.1340165
 105.2771212  38.1466314  70.0479577 104.4676282  38.4859543  68.8144820
 109.3178318  48.5629085  65.2330639 109.2402348  49.5136910  65.3119120
 108.7139962  48.2174958  65.8905565 111.8095548  35.7356951  77.8892006
 111.0328882  36.2950871  77.8794871 112.4486111  36.2213734  78.4106876
 119.6016329  32.5183744  71.7234983 118.9590709  32.8116277  71.0774777
 119.0971257  32.4036664  72.5288179 117.2556493  36.2646917  62.4120842
 118.1674349  36.4974304  62.2368540 116.7466140  36.8483961  61.8495921
 110.0641921  38.5442404  77.4509973 110.8056605  39.0827448  77.1744797
 109.3578906  39.1708693  77.6081525 115.5397260  40.6871545  76.0482135
 115.9480616  40.2453955  75.3036767 114.8174522  40.1124172  76.3016327
 111.8928330  35.6244151  73.4215691 112.7389525  36.0483565  73.5650340
 111.8326968  34.9677776  74.1154255 115.8626075  41.2472735  69.8034423
 115.2334937  41.4118449  69.1010491 115.4751737  41.6614345  70.5745387
 119.7415307  42.1827173  67.1578787 119.0566345  42.5626074  66.6075821
 119.8259156  42.7922500  67.8910735 115.0427776  33.2848520  75.0796865
 114.7988707  34.0390580  74.5431141 115.3187706  33.6633867  75.9144112
 116.9966238  39.8287132  73.7574131 117.2083134  40.4718892  73.0808512
 116.9495987  38.9949449  73.2896061 114.5992467  32.4404953  70.6610703
 113.7376946  32.7386206  70.9527440 114.6254902  32.6575352  69.7291735
 111.4154037  40.9847143  67.0684509 111.8792382  41.2634846  66.2789131
 111.1510835  40.0830588  66.8857599 108.3078118  40.5318625  70.0064272
 108.8779475  40.9605893  69.3681756 108.8986230  40.2501210  70.7048457
 110.3522923  37.1070296  63.8774074 111.0546966  37.5591339  64.3448000
 110.0203551  36.4654115  64.5053967 108.8003284  35.6982052  78.2525283
 108.1701945  36.3798333  78.4860680 108.6939372  35.5865134  77.3078421
 104.0948257  35.3653848  69.1791207 103.3047311  35.6211377  68.7031318
 104.5859504  36.1802186  69.2843248 118.1112066  42.7059088  71.9296488
 118.9329510  42.3039275  71.6479170 118.1074469  42.6027322  72.8812604
 106.0463002  35.7298428  66.1374684 105.2494165  35.8417122  66.6558180
 105.8188594  36.0685080  65.2715574 111.8768670  42.2543131  74.0857199
 111.9413102  42.7163538  74.9215370 111.1679594  41.6240496  74.2139508
 102.3785960  35.6184339  71.6106198 102.6293998  36.5031349  71.8763774
 102.9145508  35.4388940  70.8381290 126.2018059  39.0497836  68.2781460
 125.4481768  38.4805234  68.1225464 126.3365601  39.0160501  69.2252094
 111.5916687  43.9211238  63.9536179 111.4562362  44.7662774  64.3821027
 112.1326500  44.1230516  63.1902113 108.0784027  30.0002818  80.6150534
 107.6850973  29.4469017  81.2898178 108.8950167  30.3113397  81.0057052
 105.0446085  41.4386676  64.5264104 105.5570605  42.2329927  64.6769669
 105.6968798  40.7412967  64.4597705 106.8540969  44.5552433  66.6086857
 107.0307598  45.4770397  66.4207841 107.6497803  44.2410852  67.0381237
 110.9951988  31.4160697  78.2070791 111.7361701  32.0167850  78.1275253
 111.2269911  30.6738335  77.6488833 106.1393326  36.6017065  76.4849020
 106.0246841  35.7002322  76.7856119 105.2837844  36.8480761  76.1333837
 113.2185164  44.5434805  78.0836521 112.7749018  43.7571183  77.7657425
 113.8802377  44.7313955  77.4180412 107.9772285  46.0730606  72.6097199
 108.5279710  45.9447670  71.8374193 107.1383761  46.3725495  72.2592092
 115.3166402  44.8237605  76.1117922 115.2984877  45.6446486  75.6198191
 116.2386322  44.6991680  76.3368063 111.7739456  42.3381734  76.9541431
 112.3067793  41.5770022  76.7240739 111.2453537  42.0455386  77.6965585
 114.9409151  27.4441800  72.4835072 114.5973420  28.3343442  72.4074183
 115.3088114  27.2543458  71.6204657 103.0095002  39.7675331  65.3023675
 103.8470224  40.1772339  65.0857382 103.1873269  38.8274773  65.2723868
 114.9059434  37.4350411  60.9907507 114.3906057  38.2055016  61.2295895
 114.6336742  36.7615547  61.6140569 112.4906545  32.2800112  66.0492746
 111.6348141  31.8906962  65.8698385 112.9033496  32.3592073  65.1892531
 114.0205691  29.8146455  70.4484306 113.5170487  29.7776591  69.6352111
 114.3136298  30.7239198  70.5080962 110.2648577  29.8985185  69.4550487
 111.1301574  29.7027994  69.0956377 110.3326086  29.6695537  70.3819844
 119.8793708  40.1882766  62.9260681 119.1023151  39.8493925  62.4815843
 120.5585189  40.1935389  62.2515646 114.6945737  35.3077503  62.8167289
 114.3895872  35.6223653  63.6677432 115.6476179  35.3858923  62.8594622
 113.1392169  41.4667727  64.4660243 112.6113530  40.7320486  64.1533480
 112.6379671  42.2442403  64.2200211 118.1185015  39.6616747  69.5827289
 117.4608689  40.3516009  69.6707418 118.9225414  40.0513179  69.9261275
 107.8710896  32.1287393  66.8266854 108.4454648  31.9062574  66.0940047
 108.4581879  32.1976088  67.5795455 116.9290473  38.0161120  67.6331231
 117.4422355  38.6491112  68.1352940 117.5791697  37.4162315  67.2674591
 108.1980483  34.1591854  60.8462739 107.3617796  34.4966541  61.1672014
 108.0585253  34.0240834  59.9089876 110.1733564  29.0028642  65.5541924
 109.5197976  28.6877659  64.9298538 110.1314038  28.3804382  66.2801747
 111.2844769  39.2847937  57.4695216 110.3771831  39.0537190  57.6686365
 111.7815801  38.4885556  57.6569197 114.1912848  47.9945444  60.3891902
 113.5174546  48.2977141  60.9976860 114.5778670  48.7974525  60.0397359
 113.4071304  35.4910575  69.8789571 112.4893866  35.7125522  69.7211259
 113.8231448  35.5656886  69.0201279 114.1906352  36.8901991  65.0092251
 114.9378171  37.4023388  64.6999374 114.4597942  36.5686044  65.8696645
 112.4633002  39.3860532  61.9919206 111.5544222  39.1019565  62.0891675
 112.4928086  39.8059610  61.1322513 117.6952270  42.9967121  65.7610373
 117.2414597  42.1558031  65.8175564 117.0646236  43.6328520  66.0985153
 116.6385189  33.9259107  66.9911041 115.9007946  33.4136494  67.3221283
 116.8911963  33.4859489  66.1794318 116.1385209  44.8343618  66.6960191
 116.4308183  45.3948675  65.9772557 116.6483830  45.1272179  67.4513351
 116.7396817  26.7035359  67.5852810 117.0455693  25.8432723  67.2978725
 117.4649421  27.2952980  67.3851804 103.0321173  37.1066046  65.9734408
 102.8345572  36.5135407  65.2485475 102.4767837  36.8018256  66.6910347
 111.0117896  36.9989152  68.0929001 111.0666506  36.0462989  68.0171478
 110.2009098  37.1548592  68.5770300 112.1609090  40.9269276  59.3307284
 111.7228520  40.2105134  58.8712922 112.9019531  41.1545390  58.7692376
 108.9510256  35.6166212  65.8519380 108.1378122  35.9160383  66.2584572
 109.4469250  35.2221901  66.5693862 111.1018834  45.6123969  67.7853645
 111.0595013  45.8384815  66.8562177 112.0181533  45.3787344  67.9339446
 114.5484468  36.0808037  74.6834274 114.9033856  36.3079510  75.5428740
 115.1956599  36.4126413  74.0611529 120.2782205  39.2026473  65.3883603
 120.1400103  39.3928069  64.4604792 119.9218424  39.9645855  65.8451654
 108.4424331  33.1884568  71.4680615 109.0823710  33.0473327  70.7703578
 107.6101862  32.9019081  71.0919217 120.3051584  41.2703000  70.3994874
 120.7388091  41.1778289  71.2477928 121.0183165  41.2460500  69.7614890
 109.2184635  42.4886998  67.5815607 110.0125233  41.9937318  67.3798182
 108.5076327  41.9604861  67.2183313 114.0379479  44.8705094  71.9327975
 114.0916502  45.4396030  72.7005691 113.1694261  45.0406979  71.5682012
 105.5267398  36.6330080  63.6575360 104.5964986  36.5714535  63.8745322
 105.6224870  36.1106033  62.8612001 105.4452947  33.1584893  66.2453602
 105.7059765  34.0730226  66.1362762 106.2670120  32.6909335  66.3950215
 106.9177873  34.5722650  73.4152426 107.5900926  34.3640012  72.7665075
 106.0907659  34.3744736  72.9757659 121.1667134  41.3126700  72.9327760
 121.3603024  42.2172511  73.1787035 121.0667752  40.8534119  73.7666345
 112.8203445  31.1984591  75.4318087 112.1731360  31.8974540  75.3382564
 113.5904460  31.6320735  75.7994335 116.2282243  41.4633443  78.5068640
 116.0767749  41.2343995  77.5898724 116.2186922  42.4204044  78.5199985
 112.9967579  39.0365356  73.4914907 113.9259639  39.1876515  73.3183874
 112.5758609  39.1249376  72.6363553 111.7955911  43.0616020  71.2613444
 111.6566997  42.6934805  72.1339383 111.0070507  43.5763660  71.0897402
 112.3904063  48.1625117  62.6038981 112.5655819  47.6913160  63.4184604
 111.7036851  48.7890883  62.8320242 113.3461126  42.4397623  68.6502282
 113.0110959  42.3998393  69.5459932 112.8465072  41.7742339  68.1772692
 107.3205370  37.8465253  74.1754863 107.1825168  37.1145492  74.7766402
 108.2310293  37.7574153  73.8939051 116.2820318  39.7853657  58.9239342
 115.6649488  39.0600485  58.8272395 115.8136806  40.5463017  58.5806416
 109.9487671  37.5585212  73.6638543 110.6587289  36.9178404  73.6225161
 109.9056979  37.8098107  74.5864724 117.9374449  44.4952566  76.5845122
 117.8786996  43.8111786  75.9175705 118.3393968  45.2371556  76.1325748
 108.6616605  34.5450430  75.4834183 108.1253962  34.0941169  76.1355779
 108.0733313  34.6796339  74.7404647 106.9565148  51.3114479  69.3778841
 107.1961746  51.9433004  70.0557860 106.1134345  50.9602519  69.6644200
 108.0718864  34.0039081  58.0460646 107.1948330  33.8827882  57.6822893
 108.5476617  33.2125160  57.7939535 117.9391857  42.4592149  74.8159102
 117.0518635  42.1218071  74.9385501 118.5090408  41.7275181  75.0527867
  99.5921004  38.7916241  68.1402153 100.2792044  38.4777971  67.5523169
  99.4369132  39.6957606  67.8669405 104.3955726  33.6806438  72.5687177
 104.3113915  33.0732107  71.8337587 103.5738432  34.1715456  72.5696673
 111.4693010  47.1193602  71.7820345 111.3963182  47.9248573  72.2939650
 111.0270403  47.3185568  70.9568367 111.2582790  46.3565372  65.2923167
 110.4750312  46.8987052  65.3861391 111.9575535  46.8739351  65.6917408
 114.5679440  32.1660001  67.9357372 115.0648139  31.4129964  67.6158442
 113.7966421  32.2024318  67.3700581 122.4209197  37.8700367  69.5775664
 122.4099073  38.7525082  69.2069597 121.5526577  37.5171918  69.3830201
 113.9291694  47.0180436  73.9378504 114.6419666  47.6527901  73.8654405
 113.4381722  47.1144302  73.1218506 115.6509220  40.9231689  65.5095795
 114.7165499  41.0433151  65.3400500 115.8285889  40.0204155  65.2455805
 111.1514409  34.3077384  67.6629057 110.7812196  33.7548425  68.3509962
 111.6473501  33.7035518  67.1104057 119.0381772  36.7649008  66.0445830
 119.5042224  37.5976999  65.9706132 119.4889272  36.2993989  66.7491088
 108.9803607  44.7674879  74.7584075 109.6813067  45.4011362  74.9113469
 108.5098722  45.1089611  73.9979714 117.1058003  43.1092829  63.0431982
 117.3817847  42.9949424  63.9525856 116.2362502  42.7110314  63.0044155
 117.0098435  29.1329595  70.0836731 116.0961514  29.3633822  70.2518938
 117.4391536  29.2168039  70.9350763 116.7804893  37.3219487  72.5836625
 116.1276343  37.5695394  71.9289078 117.1585273  36.5083625  72.2499102
 113.7412067  47.3579180  66.6864795 113.9234461  46.5400836  67.1492548
 114.5645053  47.5746872  66.2489685 114.0754232  46.2847365  63.9479844
 114.6041999  45.7739820  63.3350006 114.3382452  45.9689895  64.8125377
 112.8292466  38.0639298  79.0702662 112.1533103  37.9633427  79.7405037
 113.6520100  37.9078512  79.5338659 104.5771325  44.3011234  71.6915177
 105.1624762  43.5554922  71.8243082 104.3796164  44.6115191  72.5751841
 107.4309980  47.3362482  66.7077620 106.7620356  47.8208609  66.2241660
 107.2922850  47.5831702  67.6220998  99.1688980  36.8716835  70.4119620
  99.2073079  36.3380425  71.2056739  98.6629273  36.3452040  69.7930598
 111.5715249  49.3706225  73.3060278 112.1233557  49.5337847  74.0709363
 111.9121442  49.9610663  72.6340303 106.5479742  31.7181375  73.9082163
 106.6121069  32.5796206  73.4959560 106.4846862  31.1055377  73.1754521
 106.0232015  33.7904508  77.5555197 106.6504054  33.4081585  78.1692721
 105.1659934  33.5718710  77.9210890 116.4226123  44.1967483  79.1608932
 116.9666027  44.8097441  78.6663887 115.8412968  44.7547061  79.6775945
 102.7997557  35.5980937  63.4873552 103.0950999  34.6891615  63.4340606
 101.8985593  35.5768676  63.1654554 114.7083636  47.3188201  70.2923960
 114.5834776  46.5177941  69.7834906 115.3662727  47.8134394  69.8037930
 106.3291804  33.6736933  69.4701100 105.6078390  34.2872901  69.3308574
 107.1185060  34.2094698  69.3917746 116.7718545  45.1197221  71.9203510
 115.8248880  45.0002572  71.8481837 117.1201318  44.2319719  72.0029772
 109.1318118  31.0091360  75.7441752 109.6552520  31.2553656  76.5068062
 108.9130451  31.8411395  75.3244890 104.5285399  33.2795034  63.6112877
 104.1998105  32.3992413  63.4287983 104.8824770  33.2242703  64.4989266
 113.7764978  44.9149937  68.1207863 113.6289940  43.9866644  68.3015433
 114.6018471  44.9370028  67.6364938 107.6427222  33.5668004  63.9788355
 107.9823295  34.0953925  63.2566963 108.0899343  33.9048410  64.7546921
 117.3799100  45.7378496  69.2072735 118.3045647  45.5321357  69.0697186
 117.2114403  45.4894897  70.1162077 110.3370663  31.9505055  73.4291423
 109.9967483  31.1512868  73.8312103 109.6309669  32.2506766  72.8568256
 110.9887135  29.0354367  71.8818746 111.8113204  28.5614846  71.7597636
 111.2325198  29.8144851  72.3817432 109.6295369  32.0642626  62.1781647
 110.3503732  32.4423879  61.6745364 109.0060673  32.7831503  62.2816625
 113.7726492  32.7687775  63.1139980 113.9890107  33.6512413  62.8128808
 113.2920559  32.3773988  62.3845622 108.5125714  35.7273488  69.6910724
 108.3670294  36.0413791  70.5835006 108.0350917  36.3458388  69.1381623
 110.3722096  32.7176036  69.7391614 110.3583665  31.8217129  69.4023912
 111.0894525  32.7246700  70.3729900 112.2248227  33.1513376  71.7844741
 111.9666005  34.0730447  71.7829072 111.6933268  32.7543811  72.4745205
 117.1694416  46.2564163  64.5634827 117.3431293  45.6910586  63.8108679
 117.6623307  47.0565058  64.3814317 102.9871376  38.2678832  72.6298386
 102.4424844  39.0438640  72.7618660 103.8650726  38.6149637  72.4717507
 109.7758992  31.5990416  65.0079184 109.8974904  30.6707062  65.2070072
 109.4861035  31.6129102  64.0957499 112.6450183  29.2845327  68.1445904
 112.6671880  29.3484660  67.1897883 113.0618242  28.4449835  68.3386410
 123.0233807  39.0200586  66.1825126 123.4664953  38.2707911  65.7844250
 122.1460317  39.0110723  65.7998858 118.1569588  45.5730928  61.6631725
 118.8520493  46.1937620  61.8819040 118.4992739  44.7226279  61.9384103
 103.7737398  37.3948729  75.5228542 103.0319134  37.5431364  76.1093173
 103.4530142  37.6556994  74.6595292 120.0561012  43.0230633  63.1919056
 120.5812336  43.3617906  62.4668376 119.9683364  42.0877649  63.0082190
 111.7181060  46.9364707  75.3208932 112.0268187  46.6913854  76.1931632
 112.5156542  47.1411345  74.8327803 111.7401672  49.0902616  67.5514309
 111.3006663  48.5978995  68.2447166 112.4909789  48.5475584  67.3106384
 104.2194011  45.2814157  67.5538937 105.0452031  44.9817929  67.1737581
 103.8688063  44.5121780  68.0028726 109.1875544  44.6340626  69.6236611
 108.5655554  43.9711331  69.3238839 109.8580411  44.6601757  68.9410258
 102.4202616  43.2000484  68.5127871 101.5834525  42.7722658  68.3311872
 102.3926262  43.3932927  69.4498662 109.2600072  33.1122414  79.2169117
 109.3088227  33.9884536  78.8346886 109.8022586  32.5699807  78.6440760
 119.7454918  43.6563537  78.4970254 118.9550461  43.6387676  77.9574753
 119.5088272  44.1951831  79.2519290 119.8652793  40.5056003  75.8102982
 119.9150798  40.3406011  76.7518505 119.7566716  39.6383262  75.4200863
 108.7489051  43.1844549  63.0995071 108.8977172  43.8680013  62.4461744
 109.5555495  43.1649639  63.6144527 117.1556555  36.4886931  77.1262289
 118.0566418  36.3493396  76.8346287 117.2304530  36.6541386  78.0660466
 111.4899360  33.8653786  75.9715475 110.6202670  34.1587352  75.6998064
 111.7258841  34.4494231  76.6922739 121.3670990  42.9252945  76.0545004
 121.0755798  43.2882925  76.8908465 120.7543121  42.2119953  75.8758336
 122.5666672  40.4905825  68.5747574 123.4013563  40.9295629  68.7385134
 122.7025801  40.0144478  67.7555820 119.6158178  38.0485559  74.5225062
 120.0912299  38.2413206  73.7143913 118.6923743  38.1044745  74.2768445
 106.5041684  39.2109727  64.1056140 106.2587726  38.3072057  64.3036350
 106.6737599  39.2126877  63.1635618 114.1938394  30.0833403  73.4880896
 114.7120338  30.8194430  73.1627384 113.8393527  30.3897396  74.3227655
 105.7737332  34.9438084  61.6042302 105.0806577  35.0182439  60.9482338
 105.5289084  34.1798428  62.1263818 114.4450988  26.5033685  69.0081792
 114.7252742  25.8356875  69.6342219 115.2301595  26.6962781  68.4956456
 112.2484457  45.6792679  60.5706819 111.6758424  46.2982866  60.1177290
 112.8217251  46.2292041  61.1046741 118.3159847  34.9251319  72.7553367
 119.2677270  35.0249417  72.7765591 118.1463297  34.1329588  73.2651452
 116.3374226  32.0106903  72.9412768 115.7424158  32.2911915  72.2459257
 116.0523923  32.5000804  73.7129509 115.4681717  45.9629829  61.7015401
 116.4012390  45.8975391  61.9048276 115.3804930  46.7986096  61.2429934
 118.0969733  45.2795700  58.6619348 118.0183365  44.9455563  59.5555106
 118.9179400  45.7717468  58.6610821 120.7947925  38.1457439  71.8695667
 120.7624245  37.2073440  72.0555351 121.4048548  38.2241476  71.1361492
 112.6331255  37.0153492  57.9122871 113.5790360  36.8859700  57.9811289
 112.2545500  36.2768154  58.3892299 120.9442413  34.9368483  71.9153950
 120.4281462  34.1526939  71.7283879 121.8282362  34.6087199  72.0800470
 118.6053140  28.6809498  67.8749763 118.4077961  28.3724586  68.7593095
 119.2152846  29.4071137  68.0047693 126.6124474  39.2073446  71.0101704
 127.3427863  38.9458734  71.5709407 126.0031420  38.4702168  71.0503772
 124.6939772  37.3481309  71.6076155 123.9672935  37.2137273  70.9992647
 124.2787058  37.6558137  72.4132873 112.5169948  41.0671238  79.3723528
 113.4372957  41.2449837  79.5663575 112.4819531  40.1227284  79.2203227
 110.8174173  34.9403468  57.8477756 109.9105628  34.6436581  57.9240470
 111.0950154  34.6433287  56.9812043 101.7352113  36.2609832  68.2976803
 101.4154897  35.4075140  68.0051177 101.1885541  36.4758410  69.0534770
 105.5132020  38.9772273  72.0146309 105.7318030  39.9089381  72.0334343
 105.9257794  38.6180247  72.8001113 112.4336238  29.4840358  64.0021998
 111.6236967  29.1387443  64.3777244 113.1220655  29.1747902  64.5909609
 114.3626787  28.5618405  65.6246294 114.9157825  28.9813858  66.2836317
 114.5996873  27.6354153  65.6669250 110.3859886  34.5505479  81.4049058
 110.2856613  35.4999836  81.3361149 110.1681428  34.2223718  80.5325128
 109.5872957  31.7990404  57.9889736 110.4492121  32.1245302  58.2485553
 109.7723301  31.0121900  57.4762801 101.6040373  39.8812743  70.2669924
 100.9103844  39.4666696  69.7539879 102.3513364  39.9233280  69.6703343
 117.7405594  30.6718930  65.1324959 117.1604263  31.3303734  64.7503011
 117.4741526  29.8496275  64.7212376 116.1909160  30.0723988  67.3346279
 116.6908938  30.1840522  66.5260598 116.8344768  29.7685041  67.9747087
 110.2491156  37.9802617  80.2214120 109.7658238  38.7802978  80.4278009
 110.3352095  37.9910562  79.2681564 103.5177115  39.8130997  68.1435939
 103.4947804  39.9118684  67.1917822 103.8277752  40.6596148  68.4653105
 106.1764493  41.8707152  72.2582554 107.1307747  41.8391095  72.1912485
 105.9777017  41.4097776  73.0732780 106.7663875  40.4408268  74.8253351
 107.5856764  40.9352347  74.8488189 107.0400683  39.5240236  74.7970919
 116.5230472  32.8319021  64.1881307 115.6356327  33.1168671  63.9701502
 116.9384461  32.6712784  63.3408584 119.8745008  32.8565542  67.9035646
 120.6505398  33.3461994  68.1760263 119.1493142  33.2823596  68.3607516
 122.3117566  33.5693161  68.9609587 122.9062057  33.3288897  68.2502895
 122.3844150  32.8500291  69.5883123 104.5314722  47.4126772  69.2752751
 104.3969190  46.6527173  68.7090750 104.1146784  48.1367672  68.8081540
 115.6673685  42.5963695  58.2829327 116.3709535  42.8013698  58.8986982
 114.9436334  43.1640457  58.5478410 116.4971495  38.3473556  64.4031597
 116.4406697  38.8042108  63.5639229 117.0499838  37.5864241  64.2254440
 120.3076301  34.1363288  65.2281716 120.0513236  33.7359924  66.0589924
 119.6829169  34.8507082  65.1031856 124.6188639  36.8759362  67.7353008
 124.0588197  36.9452551  68.5084570 124.0132143  36.7000346  67.0152504
 107.6883848  48.3096089  69.4871194 107.5716232  49.2541521  69.3849884
 106.8676294  48.0069650  69.8756993 117.5760383  43.0346224  60.3327787
 118.4105986  42.6027423  60.1505262 117.4144725  42.8628238  61.2604681
 117.2306275  39.5378338  61.6984126 117.1755079  39.3722609  60.7572570
 116.6052330  40.2454371  61.8546316 102.0198790  34.7746402  75.5245548
 102.6657653  34.2645356  76.0132774 101.8115941  35.5115084  76.0988974
 114.5452182  41.8427250  81.0237689 115.4143342  42.0167902  80.6624324
 114.0658933  42.6621666  80.9013418 110.5402400  29.0386447  61.2769445
 110.5281070  29.9828287  61.4337715 111.4325822  28.8556592  60.9828906
 108.7138362  48.9624351  72.7027123 109.6165609  48.9947961  73.0193618
 108.4875732  48.0324802  72.7173458 110.4691964  47.7155337  69.3637201
 109.5187595  47.7157199  69.2501573 110.7724450  46.9688072  68.8473236
 114.3554520  25.6329223  65.5315381 113.5886915  25.0787710  65.6772064
 114.7665225  25.7051092  66.3929533 106.3596281  31.9214019  79.6220563
 107.2227742  31.5650824  79.8323887 105.7861691  31.5827914  80.3095967
 126.2044658  53.5515876  70.4282964 126.8423068  53.4322623  69.7246304
 126.0865501  54.4996719  70.4870916 123.0134364  53.5043304  70.3644488
 122.6752875  53.3884368  69.4765023 123.8824132  53.1034469  70.3445494
 118.8721180  55.3578780  66.3541379 118.3086045  55.2668717  65.5857667
 118.7573575  54.5378685  66.8343872 123.4954147  54.6578155  76.3230694
 123.4842788  54.2630954  75.4511197 123.6574786  53.9244228  76.9164465
 116.4185612  56.8529972  69.1925600 117.2106903  56.5120796  68.7771899
 116.6582262  56.9624947  70.1127753 124.4520738  59.0249748  61.6655844
 123.8008718  59.6103828  61.2789858 125.2465101  59.5555943  61.7250882
 118.3776365  56.1138885  62.0642978 119.1507241  55.5667872  61.9255854
 118.7301764  56.9783134  62.2757440 120.2161408  57.4415267  75.2709878
 119.9251274  58.3460898  75.1556544 120.8518392  57.4831795  75.9853947
 121.1417615  54.8192116  71.8611237 121.7381187  54.5948138  71.1468200
 121.1992586  54.0776861  72.4636685 120.7142643  52.2731551  59.6961428
 120.9668164  51.7513072  58.9344891 119.7767202  52.1097696  59.7988112
 125.7585926  51.2767329  67.5036172 126.5449015  50.8586753  67.1526589
 126.0224630  52.1813422  67.6717820 125.9296003  56.7140180  62.2024828
 125.2941836  56.7874806  62.9145733 125.5993410  57.3033779  61.5243908
 131.1594353  51.2142563  68.4069150 131.8919525  50.6441779  68.6406980
 130.4033709  50.8264163  68.8475656 120.4338932  54.1759657  61.8985803
 120.3175190  53.5004560  62.5666888 120.5441192  53.6892031  61.0817956
 122.7770473  53.6369804  65.6032493 122.4128680  53.1100425  66.3145414
 123.6337589  53.2468273  65.4298978 128.6819774  44.9264137  72.8663759
 128.3503098  45.7959548  72.6424974 128.0865387  44.6100421  73.5457789
 122.4175960  48.6659704  60.5993841 122.5850362  49.5339940  60.9664312
 122.2273129  48.8286985  59.6755130 125.1751293  57.1276683  72.2659671
 124.8752016  58.0301721  72.1575479 124.8302353  56.8608866  73.1180824
 118.6263775  53.5790480  68.2996376 117.7014271  53.4466694  68.5074068
 118.8748188  54.3584699  68.7966318 128.5748437  49.6459223  69.9457109
 127.6665314  49.5774631  69.6515870 128.5236033  50.1231168  70.7738934
 122.3965181  51.1217361  61.5840508 122.2764806  51.5674412  62.4225988
 121.7017769  51.4702679  61.0254046 115.9872586  53.2223753  69.1340165
 116.1164967  53.4758232  70.0479577 115.3070037  53.8151461  68.8144820
 120.1572073  63.8921003  65.2330639 120.0796103  64.8428828  65.3119120
 119.5533717  63.5466876  65.8905565 122.6489303  51.0648868  77.8892006
 121.8722637  51.6242789  77.8794871 123.2879866  51.5505651  78.4106876
 130.4410083  47.8475661  71.7234983 129.7984464  48.1408194  71.0774777
 129.9365012  47.7328582  72.5288179 128.0950247  51.5938834  62.4120842
 129.0068103  51.8266221  62.2368540 127.5859894  52.1775879  61.8495921
 120.9035675  53.8734322  77.4509973 121.6450359  54.4119366  77.1744797
 120.1972660  54.5000611  77.6081525 126.3791015  56.0163462  76.0482135
 126.7874371  55.5745873  75.3036767 125.6568276  55.4416090  76.3016327
 122.7322085  50.9536069  73.4215691 123.5783280  51.3775483  73.5650340
 122.6720722  50.2969693  74.1154255 126.7019829  56.5764653  69.8034423
 126.0728692  56.7410367  69.1010491 126.3145491  56.9906262  70.5745387
 130.5809061  57.5119091  67.1578787 129.8960099  57.8917992  66.6075821
 130.6652911  58.1214417  67.8910735 125.8821530  48.6140437  75.0796865
 125.6382462  49.3682498  74.5431141 126.1581461  48.9925785  75.9144112
 127.8359993  55.1579050  73.7574131 128.0476888  55.8010810  73.0808512
 127.7889741  54.3241366  73.2896061 125.4386222  47.7696870  70.6610703
 124.5770701  48.0678124  70.9527440 125.4648656  47.9867269  69.7291735
 122.2547791  56.3139061  67.0684509 122.7186137  56.5926764  66.2789131
 121.9904589  55.4122506  66.8857599 119.1471872  55.8610543  70.0064272
 119.7173229  56.2897811  69.3681756 119.7379984  55.5793127  70.7048457
 121.1916677  52.4362213  63.8774074 121.8940721  52.8883257  64.3448000
 120.8597306  51.7946032  64.5053967 119.6397039  51.0273970  78.2525283
 119.0095699  51.7090251  78.4860680 119.5333127  50.9157052  77.3078421
 114.9342011  50.6945766  69.1791207 114.1441065  50.9503295  68.7031318
 115.4253259  51.5094104  69.2843248 128.9505821  58.0351005  71.9296488
 129.7723264  57.6331192  71.6479170 128.9468224  57.9319239  72.8812604
 116.8856757  51.0590345  66.1374684 116.0887920  51.1709040  66.6558180
 116.6582349  51.3976997  65.2715574 122.7162424  57.5835048  74.0857199
 122.7806857  58.0455456  74.9215370 122.0073348  56.9532413  74.2139508
 113.2179714  50.9476256  71.6106198 113.4687753  51.8323266  71.8763774
 113.7539263  50.7680858  70.8381290 137.0411814  54.3789754  68.2781460
 136.2875522  53.8097152  68.1225464 137.1759355  54.3452418  69.2252094
 122.4310442  59.2503156  63.9536179 122.2956117  60.0954692  64.3821027
 122.9720254  59.4522434  63.1902113 118.9177781  45.3294736  80.6150534
 118.5244727  44.7760934  81.2898178 119.7343922  45.6405314  81.0057052
 115.8839839  56.7678594  64.5264104 116.3964360  57.5621844  64.6769669
 116.5362552  56.0704884  64.4597705 117.6934724  59.8844350  66.6086857
 117.8701352  60.8062315  66.4207841 118.4891557  59.5702770  67.0381237
 121.8345742  46.7452615  78.2070791 122.5755456  47.3459768  78.1275253
 122.0663665  46.0030253  77.6488833 116.9787080  51.9308982  76.4849020
 116.8640596  51.0294239  76.7856119 116.1231598  52.1772679  76.1333837
 124.0578918  59.8726722  78.0836521 123.6142772  59.0863101  77.7657425
 124.7196132  60.0605873  77.4180412 118.8166039  61.4022524  72.6097199
 119.3673465  61.2739587  71.8374193 117.9777515  61.7017413  72.2592092
 126.1560156  60.1529522  76.1117922 126.1378632  60.9738403  75.6198191
 127.0780076  60.0283598  76.3368063 122.6133210  57.6673652  76.9541431
 123.1461547  56.9061940  76.7240739 122.0847292  57.3747304  77.6965585
 125.7802905  42.7733718  72.4835072 125.4367175  43.6635360  72.4074183
 126.1481868  42.5835376  71.6204657 113.8488756  55.0967248  65.3023675
 114.6863978  55.5064257  65.0857382 114.0267024  54.1566690  65.2723868
 125.7453188  52.7642329  60.9907507 125.2299812  53.5346934  61.2295895
 125.4730497  52.0907465  61.6140569 123.3300299  47.6092030  66.0492746
 122.4741896  47.2198880  65.8698385 123.7427251  47.6883991  65.1892531
 124.8599446  45.1438373  70.4484306 124.3564241  45.1068508  69.6352111
 125.1530053  46.0531116  70.5080962 121.1042332  45.2277103  69.4550487
 121.9695328  45.0319911  69.0956377 121.1719841  44.9987455  70.3819844
 130.7187462  55.5174684  62.9260681 129.9416905  55.1785843  62.4815843
 131.3978943  55.5227307  62.2515646 125.5339491  50.6369421  62.8167289
 125.2289627  50.9515570  63.6677432 126.4869933  50.7150841  62.8594622
 123.9785923  56.7959644  64.4660243 123.4507285  56.0612404  64.1533480
 123.4773426  57.5734321  64.2200211 128.9578769  54.9908665  69.5827289
 128.3002444  55.6807926  69.6707418 129.7619168  55.3805097  69.9261275
 118.7104651  47.4579311  66.8266854 119.2848403  47.2354492  66.0940047
 119.2975633  47.5268005  67.5795455 127.7684228  53.3453038  67.6331231
 128.2816110  53.9783029  68.1352940 128.4185452  52.7454233  67.2674591
 119.0374238  49.4883772  60.8462739 118.2011550  49.8258458  61.1672014
 118.8979008  49.3532751  59.9089876 121.0127318  44.3320560  65.5541924
 120.3591731  44.0169577  64.9298538 120.9707793  43.7096300  66.2801747
 122.1238523  54.6139855  57.4695216 121.2165585  54.3829108  57.6686365
 122.6209555  53.8177474  57.6569197 125.0306602  63.3237362  60.3891902
 124.3568301  63.6269059  60.9976860 125.4172424  64.1266442  60.0397359
 124.2465059  50.8202493  69.8789571 123.3287620  51.0417440  69.7211259
 124.6625202  50.8948804  69.0201279 125.0300107  52.2193909  65.0092251
 125.7771926  52.7315306  64.6999374 125.2991696  51.8977962  65.8696645
 123.3026757  54.7152450  61.9919206 122.3937976  54.4311482  62.0891675
 123.3321841  55.1351528  61.1322513 128.5346024  58.3259039  65.7610373
 128.0808351  57.4849949  65.8175564 127.9039991  58.9620437  66.0985153
 127.4778944  49.2551025  66.9911041 126.7401701  48.7428411  67.3221283
 127.7305717  48.8151407  66.1794318 126.9778963  60.1635536  66.6960191
 127.2701938  60.7240593  65.9772557 127.4877584  60.4564097  67.4513351
 127.5790571  42.0327277  67.5852810 127.8849448  41.1724640  67.2978725
 128.3043176  42.6244897  67.3851804 113.8714927  52.4357964  65.9734408
 113.6739327  51.8427324  65.2485475 113.3161591  52.1310174  66.6910347
 121.8511651  52.3281070  68.0929001 121.9060261  51.3754907  68.0171478
 121.0402853  52.4840509  68.5770300 123.0002845  56.2561193  59.3307284
 122.5622275  55.5397052  58.8712922 123.7413285  56.4837308  58.7692376
 119.7904011  50.9458130  65.8519380 118.9771876  51.2452300  66.2584572
 120.2863005  50.5513819  66.5693862 121.9412589  60.9415887  67.7853645
 121.8988767  61.1676733  66.8562177 122.8575287  60.7079261  67.9339446
 125.3878222  51.4099954  74.6834274 125.7427610  51.6371427  75.5428740
 126.0350354  51.7418331  74.0611529 131.1175959  54.5318390  65.3883603
 130.9793858  54.7219986  64.4604792 130.7612178  55.2937773  65.8451654
 119.2818086  48.5176485  71.4680615 119.9217465  48.3765244  70.7703578
 118.4495616  48.2310999  71.0919217 131.1445339  56.5994917  70.3994874
 131.5781846  56.5070206  71.2477928 131.8576920  56.5752418  69.7614890
 120.0578389  57.8178916  67.5815607 120.8518988  57.3229236  67.3798182
 119.3470082  57.2896779  67.2183313 124.8773234  60.1997011  71.9327975
 124.9310256  60.7687948  72.7005691 124.0088015  60.3698896  71.5682012
 116.3661153  51.9621998  63.6575360 115.4358741  51.9006453  63.8745322
 116.4618625  51.4397950  62.8612001 116.2846702  48.4876810  66.2453602
 116.5453519  49.4022144  66.1362762 117.1063874  48.0201253  66.3950215
 117.7571627  49.9014568  73.4152426 118.4294681  49.6931930  72.7665075
 116.9301414  49.7036654  72.9757659 132.0060889  56.6418618  72.9327760
 132.1996779  57.5464428  73.1787035 131.9061507  56.1826037  73.7666345
 123.6597199  46.5276508  75.4318087 123.0125114  47.2266458  75.3382564
 124.4298215  46.9612652  75.7994335 127.0675997  56.7925361  78.5068640
 126.9161504  56.5635912  77.5898724 127.0580677  57.7495962  78.5199985
 123.8361334  54.3657273  73.4914907 124.7653394  54.5168433  73.3183874
 123.4152364  54.4541294  72.6363553 122.6349665  58.3907938  71.2613444
 122.4960751  58.0226722  72.1339383 121.8464262  58.9055577  71.0897402
 123.2297817  63.4917034  62.6038981 123.4049573  63.0205077  63.4184604
 122.5430605  64.1182800  62.8320242 124.1854881  57.7689540  68.6502282
 123.8504713  57.7290310  69.5459932 123.6858826  57.1034256  68.1772692
 118.1599125  53.1757171  74.1754863 118.0218922  52.4437409  74.7766402
 119.0704048  53.0866071  73.8939051 127.1214072  55.1145575  58.9239342
 126.5043243  54.3892403  58.8272395 126.6530561  55.8754935  58.5806416
 120.7881425  52.8877130  73.6638543 121.4981044  52.2470322  73.6225161
 120.7450733  53.1390025  74.5864724 128.7768204  59.8244483  76.5845122
 128.7180750  59.1403703  75.9175705 129.1787722  60.5663473  76.1325748
 119.5010359  49.8742348  75.4834183 118.9647716  49.4233086  76.1355779
 118.9127068  50.0088257  74.7404647 117.7958903  66.6406397  69.3778841
 118.0355501  67.2724921  70.0557860 116.9528099  66.2894437  69.6644200
 118.9112618  49.3330999  58.0460646 118.0342084  49.2119800  57.6822893
 119.3870371  48.5417077  57.7939535 128.7785611  57.7884067  74.8159102
 127.8912390  57.4509989  74.9385501 129.3484162  57.0567098  75.0527867
 110.4314758  54.1208159  68.1402153 111.1185798  53.8069889  67.5523169
 110.2762887  55.0249524  67.8669405 115.2349480  49.0098355  72.5687177
 115.1507669  48.4024025  71.8337587 114.4132187  49.5007374  72.5696673
 122.3086765  62.4485519  71.7820345 122.2356936  63.2540491  72.2939650
 121.8664158  62.6477485  70.9568367 122.0976544  61.6857289  65.2923167
 121.3144066  62.2278970  65.3861391 122.7969289  62.2031269  65.6917408
 125.4073194  47.4951919  67.9357372 125.9041894  46.7421881  67.6158442
 124.6360176  47.5316236  67.3700581 133.2602952  53.1992284  69.5775664
 133.2492828  54.0817000  69.2069597 132.3920331  52.8463835  69.3830201
 124.7685448  62.3472353  73.9378504 125.4813420  62.9819818  73.8654405
 124.2775477  62.4436219  73.1218506 126.4902975  56.2523606  65.5095795
 125.5559254  56.3725069  65.3400500 126.6679643  55.3496073  65.2455805
 121.9908163  49.6369302  67.6629057 121.6205951  49.0840342  68.3509962
 122.4867255  49.0327435  67.1104057 129.8775526  52.0940925  66.0445830
 130.3435979  52.9268917  65.9706132 130.3283027  51.6285907  66.7491088
 119.8197362  60.0966797  74.7584075 120.5206821  60.7303280  74.9113469
 119.3492477  60.4381529  73.9979714 127.9451757  58.4384747  63.0431982
 128.2211601  58.3241341  63.9525856 127.0756256  58.0402232  63.0044155
 127.8492189  44.4621512  70.0836731 126.9355269  44.6925739  70.2518938
 128.2785291  44.5459957  70.9350763 127.6198648  52.6511404  72.5836625
 126.9670098  52.8987312  71.9289078 127.9979027  51.8375543  72.2499102
 124.5805821  62.6871098  66.6864795 124.7628216  61.8692754  67.1492548
 125.4038807  62.9038790  66.2489685 124.9147987  61.6139283  63.9479844
 125.4435753  61.1031737  63.3350006 125.1776207  61.2981813  64.8125377
 123.6686221  53.3931215  79.0702662 122.9926858  53.2925345  79.7405037
 124.4913854  53.2370429  79.5338659 115.4165080  59.6303152  71.6915177
 116.0018516  58.8846840  71.8243082 115.2189918  59.9407109  72.5751841
 118.2703735  62.6654399  66.7077620 117.6014110  63.1500527  66.2241660
 118.1316605  62.9123620  67.6220998 110.0082734  52.2008752  70.4119620
 110.0466834  51.6672343  71.2056739 109.5023027  51.6743958  69.7930598
 122.4109003  64.6998143  73.3060278 122.9627311  64.8629764  74.0709363
 122.7515197  65.2902581  72.6340303 117.3873497  47.0473293  73.9082163
 117.4514823  47.9088124  73.4959560 117.3240617  46.4347294  73.1754521
 116.8625769  49.1196425  77.5555197 117.4897808  48.7373503  78.1692721
 116.0053688  48.9010627  77.9210890 127.2619878  59.5259400  79.1608932
 127.8059782  60.1389359  78.6663887 126.6806723  60.0838979  79.6775945
 113.6391312  50.9272854  63.4873552 113.9344753  50.0183533  63.4340606
 112.7379348  50.9060594  63.1654554 125.5477391  62.6480118  70.2923960
 125.4228530  61.8469858  69.7834906 126.2056482  63.1426312  69.8037930
 117.1685559  49.0028851  69.4701100 116.4472145  49.6164819  69.3308574
 117.9578815  49.5386616  69.3917746 127.6112299  60.4489139  71.9203510
 126.6642635  60.3294490  71.8481837 127.9595072  59.5611637  72.0029772
 119.9711872  46.3383277  75.7441752 120.4946274  46.5845574  76.5068062
 119.7524206  47.1703312  75.3244890 115.3679154  48.6086952  63.6112877
 115.0391860  47.7284331  63.4287983 115.7218524  48.5534621  64.4989266
 124.6158732  60.2441855  68.1207863 124.4683695  59.3158562  68.3015433
 125.4412226  60.2661945  67.6364938 118.4820977  48.8959922  63.9788355
 118.8217049  49.4245843  63.2566963 118.9293097  49.2340328  64.7546921
 128.2192854  61.0670413  69.2072735 129.1439402  60.8613275  69.0697186
 128.0508158  60.8186815  70.1162077 121.1764418  47.2796973  73.4291423
 120.8361238  46.4804786  73.8312103 120.4703424  47.5798683  72.8568256
 121.8280889  44.3646285  71.8818746 122.6506959  43.8906763  71.7597636
 122.0718953  45.1436769  72.3817432 120.4689124  47.3934543  62.1781647
 121.1897486  47.7715796  61.6745364 119.8454428  48.1123420  62.2816625
 124.6120247  48.0979692  63.1139980 124.8283861  48.9804330  62.8128808
 124.1314314  47.7065906  62.3845622 119.3519468  51.0565406  69.6910724
 119.2064049  51.3705709  70.5835006 118.8744672  51.6750306  69.1381623
 121.2115851  48.0467954  69.7391614 121.1977420  47.1509047  69.4023912
 121.9288279  48.0538617  70.3729900 123.0641982  48.4805294  71.7844741
 122.8059760  49.4022364  71.7829072 122.5327022  48.0835728  72.4745205
 128.0088170  61.5856081  64.5634827 128.1825048  61.0202503  63.8108679
 128.5017062  62.3856976  64.3814317 113.8265130  53.5970750  72.6298386
 113.2818598  54.3730558  72.7618660 114.7044480  53.9441554  72.4717507
 120.6152747  46.9282334  65.0079184 120.7368658  45.9998980  65.2070072
 120.3254789  46.9421020  64.0957499 123.4843937  44.6137244  68.1445904
 123.5065634  44.6776577  67.1897883 123.9011996  43.7741753  68.3386410
 133.8627562  54.3492504  66.1825126 134.3058708  53.5999829  65.7844250
 132.9854072  54.3402640  65.7998858 128.9963343  60.9022845  61.6631725
 129.6914248  61.5229538  61.8819040 129.3386493  60.0518197  61.9384103
 114.6131152  52.7240646  75.5228542 113.8712888  52.8723282  76.1093173
 114.2923896  52.9848912  74.6595292 130.8954766  58.3522551  63.1919056
 131.4206090  58.6909824  62.4668376 130.8077119  57.4169566  63.0082190
 122.5574815  62.2656625  75.3208932 122.8661941  62.0205771  76.1931632
 123.3550297  62.4703263  74.8327803 115.0587766  60.6106075  67.5538937
 115.8845786  60.3109847  67.1737581 114.7081818  59.8413697  68.0028726
 120.0269299  59.9632543  69.6236611 119.4049308  59.3003248  69.3238839
 120.6974166  59.9893675  68.9410258 113.2596371  58.5292401  68.5127871
 112.4228279  58.1014576  68.3311872 113.2320016  58.7224845  69.4498662
 120.0993826  48.4414331  79.2169117 120.1481982  49.3176454  78.8346886
 120.6416341  47.8991724  78.6440760 130.5848672  58.9855455  78.4970254
 129.7944216  58.9679593  77.9574753 130.3482027  59.5243748  79.2519290
 130.7046547  55.8347921  75.8102982 130.7544552  55.6697928  76.7518505
 130.5960471  54.9675180  75.4200863 119.5882806  58.5136467  63.0995071
 119.7370926  59.1971931  62.4461744 120.3949249  58.4941557  63.6144527
 127.9950310  51.8178849  77.1262289 128.8960172  51.6785314  76.8346287
 128.0698284  51.9833304  78.0660466 122.3293115  49.1945704  75.9715475
 121.4596424  49.4879270  75.6998064 122.5652595  49.7786149  76.6922739
 132.2064744  58.2544862  76.0545004 131.9149552  58.6174843  76.8908465
 131.5936875  57.5411871  75.8758336 133.4060426  55.8197742  68.5747574
 134.2407318  56.2587546  68.7385134 133.5419555  55.3436395  67.7555820
 130.4551932  53.3777477  74.5225062 130.9306054  53.5705123  73.7143913
 129.5317498  53.4336663  74.2768445 117.3435439  54.5401644  64.1056140
 117.0981481  53.6363974  64.3036350 117.5131353  54.5418795  63.1635618
 125.0332149  45.4125321  73.4880896 125.5514093  46.1486348  73.1627384
 124.6787282  45.7189314  74.3227655 116.6131086  50.2730002  61.6042302
 115.9200331  50.3474357  60.9482338 116.3682838  49.5090345  62.1263818
 125.2844743  41.8325603  69.0081792 125.5646497  41.1648792  69.6342219
 126.0695350  42.0254699  68.4956456 123.0878211  61.0084597  60.5706819
 122.5152178  61.6274784  60.1177290 123.6611005  61.5583959  61.1046741
 129.1553601  50.2543237  72.7553367 130.1071024  50.3541335  72.7765591
 128.9857052  49.4621506  73.2651452 127.1767981  47.3398820  72.9412768
 126.5817913  47.6203833  72.2459257 126.8917677  47.8292721  73.7129509
 126.3075471  61.2921747  61.7015401 127.2406144  61.2267309  61.9048276
 126.2198684  62.1278014  61.2429934 128.9363488  60.6087617  58.6619348
 128.8577119  60.2747481  59.5555106 129.7573155  61.1009385  58.6610821
 131.6341679  53.4749357  71.8695667 131.6017999  52.5365358  72.0555351
 132.2442303  53.5533394  71.1361492 123.4725010  52.3445410  57.9122871
 124.4184115  52.2151618  57.9811289 123.0939255  51.6060072  58.3892299
 131.7836168  50.2660400  71.9153950 131.2675216  49.4818857  71.7283879
 132.6676116  49.9379117  72.0800470 129.4446894  44.0101416  67.8749763
 129.2471716  43.7016504  68.7593095 130.0546600  44.7363055  68.0047693
 135.5333526  52.6773226  71.6076155 134.8066690  52.5429191  70.9992647
 135.1180813  52.9850055  72.4132873 123.3563702  56.3963156  79.3723528
 124.2766712  56.5741755  79.5663575 123.3213285  55.4519201  79.2203227
 121.6567927  50.2695386  57.8477756 120.7499382  49.9728499  57.9240470
 121.9343908  49.9725204  56.9812043 112.5745867  51.5901750  68.2976803
 112.2548652  50.7367058  68.0051177 112.0279296  51.8050328  69.0534770
 116.3525775  54.3064191  72.0146309 116.5711785  55.2381298  72.0334343
 116.7651549  53.9472165  72.8001113 123.2729993  44.8132276  64.0021998
 122.4630721  44.4679361  64.3777244 123.9614410  44.5039820  64.5909609
 125.2020541  43.8910323  65.6246294 125.7551580  44.3105776  66.2836317
 125.4390627  42.9646071  65.6669250 121.2253640  49.8797396  81.4049058
 121.1250367  50.8291753  81.3361149 121.0075182  49.5515635  80.5325128
 120.4266712  47.1282321  57.9889736 121.2885876  47.4537220  58.2485553
 120.6117056  46.3413817  57.4762801 112.4434127  55.2104661  70.2669924
 111.7497599  54.7958614  69.7539879 113.1907118  55.2525198  69.6703343
 128.5799348  46.0010848  65.1324959 127.9998017  46.6595652  64.7503011
 128.3135281  45.1788192  64.7212376 127.0302915  45.4015906  67.3346279
 127.5302693  45.5132440  66.5260598 127.6738522  45.0976958  67.9747087
 121.0884910  53.3094535  80.2214120 120.6051992  54.1094895  80.4278009
 121.1745849  53.3202480  79.2681564 114.3570870  55.1422915  68.1435939
 114.3341558  55.2410602  67.1917822 114.6671506  55.9888066  68.4653105
 117.0158248  57.1999070  72.2582554 117.9701501  57.1683012  72.1912485
 116.8170771  56.7389694  73.0732780 117.6057630  55.7700186  74.8253351
 118.4250519  56.2644265  74.8488189 117.8794438  54.8532154  74.7970919
 127.3624226  48.1610938  64.1881307 126.4750081  48.4460589  63.9701502
 127.7778215  48.0004702  63.3408584 130.7138762  48.1857459  67.9035646
 131.4899152  48.6753912  68.1760263 129.9886896  48.6115513  68.3607516
 133.1511321  48.8985078  68.9609587 133.7455812  48.6580814  68.2502895
 133.2237905  48.1792209  69.5883123 115.3708477  62.7418689  69.2752751
 115.2362945  61.9819090  68.7090750 114.9540539  63.4659589  68.8081540
 126.5067440  57.9255613  58.2829327 127.2103290  58.1305615  58.8986982
 125.7830088  58.4932375  58.5478410 127.3365250  53.6765474  64.4031597
 127.2800451  54.1334026  63.5639229 127.8893592  52.9156159  64.2254440
 131.1470056  49.4655206  65.2281716 130.8906990  49.0651842  66.0589924
 130.5222924  50.1799000  65.1031856 135.4582394  52.2051279  67.7353008
 134.8981952  52.2744469  68.5084570 134.8525897  52.0292264  67.0152504
 118.5277602  63.6388006  69.4871194 118.4109987  64.5833439  69.3849884
 117.7070049  63.3361568  69.8756993 128.4154137  58.3638142  60.3327787
 129.2499741  57.9319341  60.1505262 128.2538480  58.1920156  61.2604681
 128.0700029  54.8670255  61.6984126 128.0148833  54.7014527  60.7572570
 127.4446084  55.5746288  61.8546316 112.8592544  50.1038320  75.5245548
 113.5051408  49.5937274  76.0132774 112.6509695  50.8407001  76.0988974
 125.3845936  57.1719167  81.0237689 126.2537096  57.3459820  80.6624324
 124.9052688  57.9913584  80.9013418 121.3796155  44.3678364  61.2769445
 121.3674825  45.3120204  61.4337715 122.2719577  44.1848510  60.9828906
 119.5532117  64.2916268  72.7027123 120.4559363  64.3239879  73.0193618
 119.3269487  63.3616719  72.7173458 121.3085719  63.0447255  69.3637201
 120.3581350  63.0449116  69.2501573 121.6118205  62.2979989  68.8473236
 125.1948274  40.9621141  65.5315381 124.4280670  40.4079628  65.6772064
 125.6058979  41.0343010  66.3929533 117.1990035  47.2505937  79.6220563
 118.0621497  46.8942742  79.8323887 116.6255446  46.9119832  80.3095967
 133.8528118  68.8335221  70.3644488 133.5146630  68.7176286  69.4765023
 134.7217887  68.4326386  70.3445494 129.7114934  70.6870698  66.3541379
 129.1479799  70.5960635  65.5857667 129.5967329  69.8670602  66.8343872
 134.3347901  69.9870073  76.3230694 134.3236542  69.5922871  75.4511197
 134.4968541  69.2536146  76.9164465 127.2579366  72.1821889  69.1925600
 128.0500658  71.8412714  68.7771899 127.4976016  72.2916864  70.1127753
 135.2914493  74.3541665  61.6655844 134.6402473  74.9395746  61.2789858
 136.0858856  74.8847860  61.7250882 129.2170120  71.4430803  62.0642978
 129.9900996  70.8959790  61.9255854 129.5695519  72.3075052  62.2757440
 131.0555163  72.7707185  75.2709878 130.7645029  73.6752816  75.1556544
 131.6912147  72.8123712  75.9853947 131.9811369  70.1484033  71.8611237
 132.5774942  69.9240056  71.1468200 132.0386341  69.4068779  72.4636685
 131.5536398  67.6023469  59.6961428 131.8061918  67.0804990  58.9344891
 130.6160957  67.4389614  59.7988112 136.5979681  66.6059247  67.5036172
 137.3842770  66.1878670  67.1526589 136.8618385  67.5105339  67.6717820
 136.7689758  72.0432097  62.2024828 136.1335591  72.1166724  62.9145733
 136.4387164  72.6325696  61.5243908 131.2732687  69.5051575  61.8985803
 131.1568945  68.8296478  62.5666888 131.3834946  69.0183949  61.0817956
 133.6164227  68.9661722  65.6032493 133.2522435  68.4392343  66.3145414
 134.4731343  68.5760191  65.4298978 133.2569714  63.9951621  60.5993841
 133.4244117  64.8631858  60.9664312 133.0666884  64.1578903  59.6755130
 136.0145048  72.4568600  72.2659671 135.7145771  73.3593639  72.1575479
 135.6696107  72.1900784  73.1180824 129.4657529  68.9082397  68.2996376
 128.5408026  68.7758611  68.5074068 129.7141942  69.6876616  68.7966318
 133.2358935  66.4509279  61.5840508 133.1158561  66.8966330  62.4225988
 132.5411524  66.7994597  61.0254046 126.8266340  68.5515671  69.1340165
 126.9558721  68.8050150  70.0479577 126.1463791  69.1443379  68.8144820
 130.9965827  79.2212921  65.2330639 130.9189857  80.1720746  65.3119120
 130.3927471  78.8758793  65.8905565 133.4883057  66.3940786  77.8892006
 132.7116391  66.9534706  77.8794871 134.1273620  66.8797569  78.4106876
 131.7429430  69.2026239  77.4509973 132.4844114  69.7411283  77.1744797
 131.0366415  69.8292528  77.6081525 137.2184769  71.3455380  76.0482135
 137.6268125  70.9037790  75.3036767 136.4962031  70.7708007  76.3016327
 133.5715839  66.2827987  73.4215691 134.4177034  66.7067400  73.5650340
 133.5114477  65.6261611  74.1154255 137.5413584  71.9056571  69.8034423
 136.9122446  72.0702285  69.1010491 137.1539246  72.3198180  70.5745387
 136.7215285  63.9432355  75.0796865 136.4776216  64.6974416  74.5431141
 136.9975215  64.3217703  75.9144112 136.2779976  63.0988788  70.6610703
 135.4164455  63.3970042  70.9527440 136.3042411  63.3159187  69.7291735
 133.0941546  71.6430979  67.0684509 133.5579891  71.9218682  66.2789131
 132.8298344  70.7414423  66.8857599 129.9865627  71.1902460  70.0064272
 130.5566984  71.6189729  69.3681756 130.5773739  70.9085045  70.7048457
 132.0310432  67.7654131  63.8774074 132.7334475  68.2175175  64.3448000
 131.6991060  67.1237950  64.5053967 130.4790793  66.3565888  78.2525283
 129.8489454  67.0382169  78.4860680 130.3726881  66.2448969  77.3078421
 125.7735766  66.0237684  69.1791207 124.9834820  66.2795212  68.7031318
 126.2647013  66.8386022  69.2843248 127.7250511  66.3882263  66.1374684
 126.9281674  66.5000957  66.6558180 127.4976103  66.7268915  65.2715574
 133.5556179  72.9126966  74.0857199 133.6200611  73.3747373  74.9215370
 132.8467103  72.2824331  74.2139508 124.0573469  66.2768174  71.6106198
 124.3081507  67.1615184  71.8763774 124.5933017  66.0972776  70.8381290
 133.2704196  74.5795074  63.9536179 133.1349871  75.4246609  64.3821027
 133.8114009  74.7814351  63.1902113 129.7571536  60.6586654  80.6150534
 129.3638482  60.1052852  81.2898178 130.5737676  60.9697232  81.0057052
 128.5328478  75.2136268  66.6086857 128.7095107  76.1354233  66.4207841
 129.3285312  74.8994687  67.0381237 132.6739497  62.0744533  78.2070791
 133.4149210  62.6751686  78.1275253 132.9057420  61.3322170  77.6488833
 127.8180835  67.2600900  76.4849020 127.7034350  66.3586157  76.7856119
 126.9625353  67.5064597  76.1333837 134.8972673  75.2018640  78.0836521
 134.4536527  74.4155019  77.7657425 135.5589886  75.3897791  77.4180412
 129.6559794  76.7314442  72.6097199 130.2067219  76.6031505  71.8374193
 128.8171270  77.0309331  72.2592092 133.4526965  72.9965570  76.9541431
 133.9855302  72.2353858  76.7240739 132.9241046  72.7039221  77.6965585
 136.6196660  58.1025636  72.4835072 136.2760929  58.9927277  72.4074183
 136.9875623  57.9127293  71.6204657 136.5846943  68.0934247  60.9907507
 136.0693566  68.8638851  61.2295895 136.3124251  67.4199383  61.6140569
 134.1694054  62.9383947  66.0492746 133.3135650  62.5490798  65.8698385
 134.5821005  63.0175908  65.1892531 135.6993200  60.4730291  70.4484306
 135.1957996  60.4360426  69.6352111 135.9923807  61.3823033  70.5080962
 131.9436086  60.5569020  69.4550487 132.8089083  60.3611829  69.0956377
 132.0113595  60.3279372  70.3819844 136.3733246  65.9661339  62.8167289
 136.0683381  66.2807488  63.6677432 137.3263688  66.0442759  62.8594622
 134.8179678  72.1251562  64.4660243 134.2901039  71.3904322  64.1533480
 134.3167180  72.9026238  64.2200211 129.5498405  62.7871228  66.8266854
 130.1242157  62.5646410  66.0940047 130.1369388  62.8559923  67.5795455
 129.8767992  64.8175689  60.8462739 129.0405305  65.1550376  61.1672014
 129.7372762  64.6824669  59.9089876 131.8521073  59.6612477  65.5541924
 131.1985485  59.3461494  64.9298538 131.8101547  59.0388218  66.2801747
 132.9632278  69.9431772  57.4695216 132.0559340  69.7121026  57.6686365
 133.4603310  69.1469392  57.6569197 135.8700357  78.6529280  60.3891902
 135.1962055  78.9560976  60.9976860 136.2566179  79.4558360  60.0397359
 135.0858813  66.1494411  69.8789571 134.1681375  66.3709358  69.7211259
 135.5018957  66.2240721  69.0201279 135.8693861  67.5485826  65.0092251
 136.6165680  68.0607224  64.6999374 136.1385451  67.2269879  65.8696645
 134.1420511  70.0444367  61.9919206 133.2331731  69.7603400  62.0891675
 134.1715595  70.4643446  61.1322513 132.6905405  67.6572988  68.0929001
 132.7454015  66.7046824  68.0171478 131.8796607  67.8132427  68.5770300
 133.8396599  71.5853111  59.3307284 133.4016029  70.8688970  58.8712922
 134.5807040  71.8129226  58.7692376 130.6297765  66.2750048  65.8519380
 129.8165631  66.5744218  66.2584572 131.1256759  65.8805736  66.5693862
 132.7806343  76.2707804  67.7853645 132.7382522  76.4968651  66.8562177
 133.6969042  76.0371179  67.9339446 136.2271977  66.7391872  74.6834274
 136.5821365  66.9663345  75.5428740 136.8744108  67.0710249  74.0611529
 130.1211840  63.8468403  71.4680615 130.7611219  63.7057162  70.7703578
 129.2889371  63.5602916  71.0919217 130.8972144  73.1470833  67.5815607
 131.6912742  72.6521154  67.3798182 130.1863836  72.6188697  67.2183313
 135.7166988  75.5288929  71.9327975 135.7704011  76.0979865  72.7005691
 134.8481770  75.6990814  71.5682012 127.1240456  63.8168728  66.2453602
 127.3847274  64.7314061  66.1362762 127.9457629  63.3493171  66.3950215
 128.5965382  65.2306485  73.4152426 129.2688435  65.0223847  72.7665075
 127.7695168  65.0328571  72.9757659 134.4990954  61.8568426  75.4318087
 133.8518869  62.5558376  75.3382564 135.2691969  62.2904570  75.7994335
 134.6755088  69.6949191  73.4914907 135.6047148  69.8460351  73.3183874
 134.2546118  69.7833212  72.6363553 133.4743420  73.7199855  71.2613444
 133.3354506  73.3518640  72.1339383 132.6858016  74.2347495  71.0897402
 134.0691572  78.8208952  62.6038981 134.2443328  78.3496995  63.4184604
 133.3824360  79.4474718  62.8320242 135.0248635  73.0981458  68.6502282
 134.6898468  73.0582228  69.5459932 134.5252581  72.4326174  68.1772692
 128.9992879  68.5049088  74.1754863 128.8612677  67.7729327  74.7766402
 129.9097802  68.4157988  73.8939051 131.6275180  68.2169048  73.6638543
 132.3374798  67.5762240  73.6225161 131.5844488  68.4681942  74.5864724
 130.3404114  65.2034265  75.4834183 129.8041471  64.7525004  76.1355779
 129.7520822  65.3380174  74.7404647 128.6352657  81.9698315  69.3778841
 128.8749255  82.6016839  70.0557860 127.7921854  81.6186355  69.6644200
 129.7506373  64.6622917  58.0460646 128.8735839  64.5411718  57.6822893
 130.2264126  63.8708995  57.7939535 121.2708513  69.4500077  68.1402153
 121.9579553  69.1361807  67.5523169 121.1156641  70.3541441  67.8669405
 126.0743235  64.3390273  72.5687177 125.9901424  63.7315943  71.8337587
 125.2525941  64.8299291  72.5696673 133.1480519  77.7777437  71.7820345
 133.0750690  78.5832409  72.2939650 132.7057912  77.9769403  70.9568367
 132.9370299  77.0149207  65.2923167 132.1537821  77.5570887  65.3861391
 133.6363044  77.5323187  65.6917408 136.2466949  62.8243837  67.9357372
 136.7435648  62.0713799  67.6158442 135.4753930  62.8608153  67.3700581
 135.6079203  77.6764271  73.9378504 136.3207175  78.3111736  73.8654405
 135.1169231  77.7728137  73.1218506 137.3296729  71.5815524  65.5095795
 136.3953008  71.7016986  65.3400500 137.5073398  70.6787991  65.2455805
 132.8301917  64.9661220  67.6629057 132.4599705  64.4132260  68.3509962
 133.3261010  64.3619353  67.1104057 130.6591116  75.4258715  74.7584075
 131.3600576  76.0595198  74.9113469 130.1886231  75.7673446  73.9979714
 135.4199576  78.0163015  66.6864795 135.6021970  77.1984671  67.1492548
 136.2432562  78.2330708  66.2489685 135.7541741  76.9431200  63.9479844
 136.2829508  76.4323655  63.3350006 136.0169961  76.6273731  64.8125377
 134.5079975  68.7223133  79.0702662 133.8320612  68.6217262  79.7405037
 135.3307609  68.5662347  79.5338659 120.8476489  67.5300670  70.4119620
 120.8860588  66.9964261  71.2056739 120.3416782  67.0035875  69.7930598
 133.2502758  80.0290061  73.3060278 133.8021066  80.1921682  74.0709363
 133.5908951  80.6194498  72.6340303 128.2267251  62.3765210  73.9082163
 128.2908578  63.2380041  73.4959560 128.1634371  61.7639212  73.1754521
 127.7019524  64.4488343  77.5555197 128.3291563  64.0665420  78.1692721
 126.8447443  64.2302545  77.9210890 136.3871145  77.9772036  70.2923960
 136.2622285  77.1761776  69.7834906 137.0450236  78.4718229  69.8037930
 128.0079313  64.3320769  69.4701100 127.2865899  64.9456736  69.3308574
 128.7972569  64.8678533  69.3917746 130.8105627  61.6675195  75.7441752
 131.3340029  61.9137492  76.5068062 130.5917960  62.4995230  75.3244890
 126.2072908  63.9378870  63.6112877 125.8785614  63.0576249  63.4287983
 126.5612279  63.8826538  64.4989266 135.4552487  75.5733772  68.1207863
 135.3077449  74.6450480  68.3015433 136.2805980  75.5953863  67.6364938
 129.3214731  64.2251840  63.9788355 129.6610804  64.7537761  63.2566963
 129.7686852  64.5632246  64.7546921 132.0158172  62.6088890  73.4291423
 131.6754992  61.8096703  73.8312103 131.3097178  62.9090601  72.8568256
 132.6674644  59.6938203  71.8818746 133.4900713  59.2198681  71.7597636
 132.9112707  60.4728686  72.3817432 131.3082878  62.7226461  62.1781647
 132.0291241  63.1007714  61.6745364 130.6848182  63.4415338  62.2816625
 135.4514001  63.4271610  63.1139980 135.6677616  64.3096248  62.8128808
 134.9708068  63.0357823  62.3845622 130.1913223  66.3857323  69.6910724
 130.0457803  66.6997626  70.5835006 129.7138426  67.0042224  69.1381623
 132.0509605  63.3759871  69.7391614 132.0371174  62.4800965  69.4023912
 132.7682034  63.3830535  70.3729900 133.9035736  63.8097211  71.7844741
 133.6453514  64.7314282  71.7829072 133.3720777  63.4127646  72.4745205
 124.6658885  68.9262668  72.6298386 124.1212353  69.7022476  72.7618660
 125.5438235  69.2733472  72.4717507 131.4546501  62.2574252  65.0079184
 131.5762413  61.3290898  65.2070072 131.1648544  62.2712938  64.0957499
 134.3237692  59.9429162  68.1445904 134.3459389  60.0068495  67.1897883
 134.7405751  59.1033671  68.3386410 125.4524907  68.0532564  75.5228542
 124.7106643  68.2015199  76.1093173 125.1317651  68.3140830  74.6595292
 133.3968569  77.5948542  75.3208932 133.7055696  77.3497689  76.1931632
 134.1944051  77.7995181  74.8327803 133.4189181  79.7486452  67.5514309
 132.9794172  79.2562831  68.2447166 134.1697298  79.2059419  67.3106384
 130.8663053  75.2924461  69.6236611 130.2443063  74.6295166  69.3238839
 131.5367920  75.3185593  68.9410258 130.9387581  63.7706249  79.2169117
 130.9875736  64.6468372  78.8346886 131.4810095  63.2283642  78.6440760
 130.4276560  73.8428384  63.0995071 130.5764681  74.5263849  62.4461744
 131.2343004  73.8233474  63.6144527 133.1686869  64.5237621  75.9715475
 132.2990179  64.8171187  75.6998064 133.4046350  65.1078066  76.6922739
 128.1829193  69.8693562  64.1056140 127.9375235  68.9655892  64.3036350
 128.3525108  69.8710712  63.1635618 135.8725903  60.7417238  73.4880896
 136.3907847  61.4778265  73.1627384 135.5181036  61.0481232  74.3227655
 127.4524841  65.6021919  61.6042302 126.7594086  65.6766274  60.9482338
 127.2076593  64.8382263  62.1263818 136.1238497  57.1617521  69.0081792
 136.4040251  56.4940710  69.6342219 136.9089104  57.3546616  68.4956456
 133.9271966  76.3376515  60.5706819 133.3545933  76.9566702  60.1177290
 134.5004760  76.8875876  61.1046741 134.3118764  67.6737327  57.9122871
 135.2577869  67.5443536  57.9811289 133.9333009  66.9351989  58.3892299
 134.1957457  71.7255074  79.3723528 135.1160466  71.9033673  79.5663575
 134.1607040  70.7811119  79.2203227 132.4961682  65.5987304  57.8477756
 131.5893137  65.3020417  57.9240470 132.7737663  65.3017122  56.9812043
 127.1919529  69.6356108  72.0146309 127.4105539  70.5673216  72.0334343
 127.6045303  69.2764083  72.8001113 134.1123747  60.1424194  64.0021998
 133.3024476  59.7971279  64.3777244 134.8008164  59.8331737  64.5909609
 136.0414296  59.2202240  65.6246294 136.5945334  59.6397694  66.2836317
 136.2784382  58.2937988  65.6669250 132.0647395  65.2089314  81.4049058
 131.9644122  66.1583671  81.3361149 131.8468937  64.8807553  80.5325128
 131.2660466  62.4574239  57.9889736 132.1279630  62.7829137  58.2485553
 131.4510810  61.6705735  57.4762801 123.2827882  70.5396579  70.2669924
 122.5891353  70.1250532  69.7539879 124.0300873  70.5817115  69.6703343
 131.9278665  68.6386453  80.2214120 131.4445747  69.4386813  80.4278009
 132.0139604  68.6494398  79.2681564 125.1964624  70.4714833  68.1435939
 125.1735313  70.5702520  67.1917822 125.5065261  71.3179983  68.4653105
 127.8552002  72.5290988  72.2582554 128.8095256  72.4974930  72.1912485
 127.6564526  72.0681611  73.0732780 128.4451384  71.0992104  74.8253351
 129.2644273  71.5936182  74.8488189 128.7188192  70.1824072  74.7970919
 129.3671357  78.9679924  69.4871194 129.2503741  79.9125357  69.3849884
 128.5463803  78.6653486  69.8756993 123.6986299  65.4330237  75.5245548
 124.3445162  64.9229191  76.0132774 123.4903450  66.1698919  76.0988974
 136.2239691  72.5011085  81.0237689 137.0930851  72.6751737  80.6624324
 135.7446442  73.3205502  80.9013418 132.2189909  59.6970282  61.2769445
 132.2068579  60.6412122  61.4337715 133.1113331  59.5140427  60.9828906
 130.3925871  79.6208186  72.7027123 131.2953118  79.6531796  73.0193618
 130.1663241  78.6908637  72.7173458 132.1479473  78.3739172  69.3637201
 131.1975104  78.3741034  69.2501573 132.4511959  77.6271907  68.8473236
 136.0342029  56.2913059  65.5315381 135.2674424  55.7371545  65.6772064
 136.4452734  56.3634927  66.3929533 128.0383790  62.5797855  79.6220563
 128.9015251  62.2234659  79.8323887 127.4649200  62.2411749  80.3095967
 136.6129520  81.3529601  69.1791207 135.8228574  81.6087130  68.7031318
 137.1040768  82.1677939  69.2843248 134.8967223  81.6060092  71.6106198
 135.1475262  82.4907102  71.8763774 135.4326772  81.4264693  70.8381290
 135.5276265  85.7551084  65.3023675 136.3651487  86.1648092  65.0857382
 135.7054533  84.8150526  65.2723868 135.5502436  83.0941799  65.9734408
 135.3526836  82.5011160  65.2485475 134.9949100  82.7894009  66.6910347
 132.1102267  84.7791994  68.1402153 132.7973307  84.4653724  67.5523169
 131.9550396  85.6833359  67.8669405 136.9136989  79.6682191  72.5687177
 136.8295178  79.0607860  71.8337587 136.0919696  80.1591209  72.5696673
 131.6870243  82.8592588  70.4119620 131.7254343  82.3256178  71.2056739
 131.1810536  82.3327793  69.7930598 135.3178821  81.5856690  63.4873552
 135.6132262  80.6767368  63.4340606 134.4166857  81.5644429  63.1654554
 137.0466663  79.2670787  63.6112877 136.7179369  78.3868166  63.4287983
 137.4006033  79.2118456  64.4989266 135.5052639  84.2554585  72.6298386
 134.9606107  85.0314393  72.7618660 136.3831989  84.6025390  72.4717507
 136.2918661  83.3824482  75.5228542 135.5500397  83.5307117  76.1093173
 135.9711405  83.6432747  74.6595292 136.7375275  91.2689910  67.5538937
 137.5633295  90.9693682  67.1737581 136.3869327  90.4997533  68.0028726
 134.9383880  89.1876237  68.5127871 134.1015788  88.7598411  68.3311872
 134.9107525  89.3808680  69.4498662 134.2533376  82.2485585  68.2976803
 133.9336161  81.3950893  68.0051177 133.7066805  82.4634163  69.0534770
 134.1221636  85.8688496  70.2669924 133.4285108  85.4542449  69.7539879
 134.8694627  85.9109033  69.6703343 136.0358379  85.8006750  68.1435939
 136.0129067  85.8994437  67.1917822 136.3459015  86.6471901  68.4653105
 137.0495986  93.4002525  69.2752751 136.9150454  92.6402926  68.7090750
 136.6328048  94.1243425  68.8081540 134.5380053  80.7622155  75.5245548
 135.1838917  80.2521109  76.0132774 134.3297204  81.4990837  76.0988974
  98.4784565  10.2399290  51.9575946  98.4008595  11.1907115  52.0364426
  97.8746209   9.8945163  52.6150872  97.1378532   7.7500811  59.3342506
  97.6885957   7.6217875  58.5619500  96.2990008   8.0495700  58.9837399
 103.3519095   9.6715649  47.1137208 102.6780793   9.9747346  47.7222166
 103.7384916  10.4744729  46.7642666 101.5510310   9.8395322  49.3284288
 101.7262065   9.3683365  50.1429910 100.8643098  10.4661088  49.5565548
  96.1171395  12.9884684  56.1024148  96.3567993  13.6203208  56.7803166
  95.2740591  12.6372724  56.3889507 100.6299257   8.7963807  58.5065652
 100.5569428   9.6018778  59.0184956 100.1876650   8.9955773  57.6813673
 100.4189036   8.0335577  52.0168473  99.6356558   8.5757257  52.1106698
 101.1181782   8.5509556  52.4162715 103.0897940   8.6950641  60.6623810
 103.8025913   9.3298106  60.5899712 102.5987969   8.7914507  59.8463812
  93.7377572   5.9781439  58.4160484  94.3231009   5.2325127  58.5488388
  93.5402410   6.2885396  59.2997148  96.5916227   9.0132687  53.4322926
  95.9226602   9.4978814  52.9486966  96.4529097   9.2601907  54.3466305
 100.7321496  11.0476430  60.0305585 101.2839804  11.2108052  60.7954670
 101.0727689  11.6380868  59.3585610 100.8787307   8.6134912  62.0454239
 101.1874433   8.3684059  62.9176939 101.6762789   8.8181550  61.5573109
 100.9007919  10.7672821  54.2759616 100.4612909  10.2749200  54.9692472
 101.6516036  10.2245789  54.0351691  93.3800258   6.9584362  54.2784244
  94.2058278   6.6588134  53.8982887  93.0294310   6.1891985  54.7274032
  91.5808863   4.8770689  55.2373177  90.7440771   4.4492863  55.0557179
  91.5532509   5.0703132  56.1743968  93.6920969   9.0896977  55.9998058
  93.5575437   8.3297377  55.4336056  93.2753031   9.8137876  55.5326847
  96.8490095   9.9866294  56.2116501  96.7322479  10.9311726  56.1095191
  96.0282541   9.6839855  56.6002300  97.8744609  10.6394556  59.4272429
  98.7771856  10.6718166  59.7438924  97.6481979   9.7095006  59.4418765
  99.6298211   9.3925542  56.0882508  98.6793842   9.3927404  55.9746880
  99.9330697   8.6458277  55.5718542 115.3650904  15.2286080  57.1528270
 116.0029314  15.1092828  56.4491610 115.2471747  16.1766924  57.2116222
 112.1740611  15.1813509  57.0889795 111.8359122  15.0654573  56.2010330
 113.0430379  14.7804674  57.0690801 108.0327426  17.0348985  53.0786686
 107.4692292  16.9438922  52.3102974 107.9179821  16.2148889  53.5589178
 112.6560394  16.3348360  63.0476000 112.6449034  15.9401159  62.1756504
 112.8181033  15.6014433  63.6409772 105.5791858  18.5300177  55.9170906
 106.3713150  18.1891001  55.5017206 105.8188508  18.6395152  56.8373060
 113.6126985  20.7019953  48.3901151 112.9614965  21.2874033  48.0035165
 114.4071348  21.2326148  48.4496188 107.5382612  17.7909090  48.7888285
 108.3113488  17.2438077  48.6501161 107.8908011  18.6553339  49.0002746
 109.3767655  19.1185472  61.9955184 109.0857521  20.0231103  61.8801851
 110.0124639  19.1602000  62.7099254 110.3023862  16.4962321  58.5856544
 110.8987434  16.2718343  57.8713507 110.3598833  15.7547066  59.1881992
 109.8748890  13.9501756  46.4206735 110.1274411  13.4283277  45.6590198
 108.9373449  13.7867901  46.5233419 115.0902250  18.3910385  48.9270135
 114.4548083  18.4645011  49.6391040 114.7599657  18.9803983  48.2489214
 109.5945179  15.8529862  48.6231110 109.4781437  15.1774765  49.2912194
 109.7047439  15.3662236  47.8063263 111.9376720  15.3140009  52.3277799
 111.5734927  14.7870630  53.0390721 112.7943836  14.9238478  52.1544285
 114.3357540  18.8046888  58.9904978 114.0358263  19.7071926  58.8820785
 113.9908599  18.5379071  59.8426131 107.7870021  15.2560684  55.0241683
 106.8620518  15.1236899  55.2319374 108.0354435  16.0354904  55.5211625
 111.5571428  12.7987566  48.3085815 111.4371053  13.2444617  49.1471295
 110.8624016  13.1472884  47.7499353 105.1478832  14.8993958  55.8585472
 105.2771214  15.1528437  56.7724883 104.4676284  15.4921666  55.5390127
 109.3178320  25.5691208  51.9575946 109.2402349  26.5199033  52.0364426
 108.7139963  25.2237080  52.6150872 111.8095549  12.7419073  64.6137313
 111.0328884  13.3012994  64.6040177 112.4486113  13.2275856  65.1352183
 110.0641922  15.5504527  64.1755280 110.8056606  16.0889571  63.8990103
 109.3578907  16.1770815  64.3326831 115.5397261  17.6933667  62.7727441
 115.9480617  17.2516078  62.0282074 114.8174523  17.1186295  63.0261634
 111.8928331  12.6306274  60.1460998 112.7389527  13.0545688  60.2895647
 111.8326969  11.9739898  60.8399561 115.8626076  18.2534858  56.5279730
 115.2334939  18.4180572  55.8255798 115.4751738  18.6676467  57.2990694
 119.7415308  19.1889296  53.8824094 119.0566346  19.5688197  53.3321127
 119.8259157  19.7984622  54.6156042 116.9966240  16.8349255  60.4819437
 117.2083135  17.4781015  59.8053818 116.9495988  16.0011571  60.0141367
 111.4154038  17.9909266  53.7929815 111.8792383  18.2696969  53.0034438
 111.1510836  17.0892710  53.6102906 108.3078119  17.5380747  56.7309578
 108.8779476  17.9668016  56.0927063 108.8986231  17.2563332  57.4293764
 110.3522924  14.1132418  50.6019380 111.0546967  14.5653462  51.0693307
 110.0203552  13.4716237  51.2299273 108.8003286  12.7044175  64.9770590
 108.1701946  13.3860456  65.2105987 108.6939373  12.5927257  64.0323728
 104.0948258  12.3715971  55.9036514 103.3047312  12.6273499  55.4276624
 104.5859505  13.1864309  56.0088554 118.1112068  19.7121210  58.6541795
 118.9329511  19.3101397  58.3724476 118.1074470  19.6089444  59.6057910
 106.0463003  12.7360550  52.8619991 105.2494167  12.8479244  53.3803486
 105.8188596  13.0747202  51.9960881 111.8768671  19.2605253  60.8102505
 111.9413103  19.7225661  61.6460677 111.1679595  18.6302618  60.9384815
 102.3785961  12.6246461  58.3351505 102.6293999  13.5093471  58.6009081
 102.9145509  12.4451063  57.5626596 111.5916689  20.9273361  50.6781486
 111.4562363  21.7724897  51.1066333 112.1326501  21.1292639  49.9147419
 105.0446086  18.4448799  51.2509411 105.5570607  19.2392049  51.4014975
 105.6968799  17.7475089  51.1843012 106.8540971  21.5614555  53.3332164
 107.0307599  22.4832520  53.1453148 107.6497804  21.2472974  53.7626544
 106.1393327  13.6079187  63.2094327 106.0246842  12.7064444  63.5101426
 105.2837845  13.8542884  62.8579144 113.2185165  21.5496927  64.8081828
 112.7749019  20.7633306  64.4902732 113.8802379  21.7376078  64.1425718
 107.9772286  23.0792729  59.3342506 108.5279711  22.9509792  58.5619500
 107.1383762  23.3787618  58.9837399 115.3166403  21.8299727  62.8363229
 115.2984878  22.6508608  62.3443498 116.2386323  21.7053803  63.0613370
 111.7739457  19.3443857  63.6786737 112.3067794  18.5832145  63.4486045
 111.2453538  19.0517509  64.4210892 103.0095003  16.7737453  52.0268981
 103.8470225  17.1834462  51.8102689 103.1873270  15.8336895  51.9969175
 114.9059435  14.4412534  47.7152814 114.3906058  15.2117139  47.9541202
 114.6336743  13.7677670  48.3385876 119.8793709  17.1944889  49.6505988
 119.1023152  16.8556048  49.2061150 120.5585190  17.1997512  48.9760953
 113.1392170  18.4729849  51.1905549 112.6113532  17.7382609  50.8778787
 112.6379673  19.2504526  50.9445518 118.1185016  16.6678870  56.3072596
 117.4608690  17.3578131  56.3952724 118.9225415  17.0575302  56.6506582
 116.9290475  15.0223242  54.3576537 117.4422356  15.6553234  54.8598247
 117.5791699  14.4224438  53.9919897 108.1980485  11.1653977  47.5708046
 107.3617797  11.5028663  47.8917321 108.0585254  11.0302956  46.6335183
 111.2844770  16.2910060  44.1940522 110.3771832  16.0599313  44.3931671
 111.7815802  15.4947679  44.3814504 114.1912849  25.0007567  47.1137208
 113.5174548  25.3039264  47.7222166 114.5778671  25.8036647  46.7642666
 113.4071306  12.4972698  56.6034878 112.4893867  12.7187645  56.4456566
 113.8231449  12.5719009  55.7446585 114.1906353  13.8964114  51.7337558
 114.9378172  14.4085511  51.4244680 114.4597943  13.5748166  52.5941952
 112.4633004  16.3922654  48.7164512 111.5544223  16.1081687  48.8136982
 112.4928087  16.8121733  47.8567819 117.6952271  20.0029244  52.4855680
 117.2414598  19.1620154  52.5420870 117.0646238  20.6390642  52.8230460
 116.1385210  21.8405741  53.4205498 116.4308185  22.4010798  52.7017864
 116.6483831  22.1334302  54.1758657 103.0321174  14.1128169  52.6979715
 102.8345574  13.5197529  51.9730781 102.4767838  13.8080379  53.4155653
 111.0117898  14.0051275  54.8174308 111.0666507  13.0525111  54.7416784
 110.2009100  14.1610714  55.3015606 112.1609091  17.9331398  46.0552591
 111.7228521  17.2167257  45.5958228 112.9019532  18.1607513  45.4937682
 108.9510258  12.6228335  52.5764687 108.1378123  12.9222505  52.9829879
 109.4469252  12.2284024  53.2939169 111.1018835  22.6186092  54.5098951
 111.0595014  22.8446938  53.5807483 112.0181534  22.3849466  54.6584752
 114.5484469  13.0870159  61.4079580 114.9033857  13.3141632  62.2674046
 115.1956600  13.4188536  60.7856836 120.2782206  16.2088595  52.1128910
 120.1400105  16.3990191  51.1850099 119.9218425  16.9707978  52.5696961
 120.3051586  18.2765122  57.1240181 120.7388092  18.1840411  57.9723235
 121.0183166  18.2522623  56.4860197 109.2184636  19.4949121  54.3060914
 110.0125235  18.9999441  54.1043489 108.5076329  18.9666984  53.9428620
 114.0379481  21.8767216  58.6573282 114.0916503  22.4458153  59.4250998
 113.1694262  22.0469101  58.2927319 105.5267400  13.6392202  50.3820667
 104.5964988  13.5776658  50.5990629 105.6224872  13.1168155  49.5857308
 105.4452949  10.1647015  52.9698908 105.7059766  11.0792349  52.8608069
 106.2670121   9.6971458  53.1195521 106.9177874  11.5784772  60.1397733
 107.5900927  11.3702135  59.4910382 106.0907661  11.3806858  59.7002965
 121.1667135  18.3188823  59.6573066 121.3603025  19.2234633  59.9032341
 121.0667753  17.8596242  60.4911651 116.2282244  18.4695566  65.2313947
 116.0767750  18.2406117  64.3144031 116.2186923  19.4266167  65.2445292
 112.9967580  16.0427478  60.2160213 113.9259640  16.1938638  60.0429181
 112.5758610  16.1311499  59.3608860 111.7955912  20.0678143  57.9858751
 111.6566998  19.6996927  58.8584689 111.0070508  20.5825782  57.8142709
 112.3904064  25.1687239  49.3284288 112.5655820  24.6975282  50.1429910
 111.7036852  25.7953005  49.5565548 113.3461127  19.4459745  55.3747589
 113.0110960  19.4060515  56.2705239 112.8465073  18.7804461  54.9017999
 107.3205371  14.8527375  60.9000170 107.1825169  14.1207614  61.5011709
 108.2310295  14.7636276  60.6184358 116.2820319  16.7915780  45.6484649
 115.6649490  16.0662608  45.5517701 115.8136807  17.5525140  45.3051723
 109.9487672  14.5647335  60.3883850 110.6587290  13.9240527  60.3470468
 109.9056980  14.8160230  61.3110030 117.9374451  21.5014688  63.3090429
 117.8786997  20.8173908  62.6421012 118.3393969  22.2433678  62.8571055
 108.6616606  11.5512553  62.2079489 108.1253963  11.1003291  62.8601086
 108.0733314  11.6858461  61.4649954 106.9565149  28.3176602  56.1024148
 107.1961748  28.9495126  56.7803166 106.1134346  27.9664642  56.3889507
 108.0718865  11.0101204  44.7705953 107.1948331  10.8890005  44.4068199
 108.5476618  10.2187282  44.5184841 117.9391858  19.4654272  61.5404409
 117.0518637  19.1280194  61.6630807 118.5090409  18.7337303  61.7773174
  99.5921005  15.7978364  54.8647460 100.2792045  15.4840094  54.2768475
  99.4369134  16.7019728  54.5914711 104.3955727  10.6868560  59.2932484
 104.3113916  10.0794230  58.5582894 103.5738434  11.1777579  59.2941980
 111.4693011  24.1255724  58.5065652 111.3963183  24.9310696  59.0184956
 111.0270404  24.3247690  57.6813673 111.2582791  23.3627494  52.0168473
 110.4750313  23.9049175  52.1106698 111.9575536  23.8801474  52.4162715
 113.9291695  24.0242558  60.6623810 114.6419667  24.6590023  60.5899712
 113.4381723  24.1206424  59.8463812 115.6509222  17.9293811  52.2341102
 114.7165500  18.0495274  52.0645806 115.8285890  17.0266278  51.9701112
 108.9803608  21.7737002  61.4829381 109.6813068  22.4073485  61.6358775
 108.5098723  22.1151733  60.7225021 117.1058004  20.1154952  49.7677288
 117.3817848  20.0011546  50.6771162 116.2362503  19.7172437  49.7289461
 116.7804894  14.3281609  59.3081932 116.1276345  14.5757517  58.6534384
 117.1585274  13.5145748  58.9744409 113.7412068  24.3641303  53.4110102
 113.9234463  23.5462958  53.8737854 114.5645054  24.5808995  52.9734992
 114.0754234  23.2909488  50.6725150 114.6042000  22.7801942  50.0595313
 114.3382453  22.9752018  51.5370683 112.8292467  15.0701420  65.7947969
 112.1533104  14.9695550  66.4650344 113.6520101  14.9140634  66.2583966
 104.5771326  21.3073357  58.4160484 105.1624763  20.5617045  58.5488388
 104.3796165  21.6177314  59.2997148 107.4309982  24.3424604  53.4322926
 106.7620357  24.8270732  52.9486966 107.2922851  24.5893825  54.3466305
  99.1688981  13.8778957  57.1364927  99.2073081  13.3442548  57.9302045
  98.6629274  13.3514163  56.5175904 111.5715250  26.3768348  60.0305585
 112.1233558  26.5399969  60.7954670 111.9121444  26.9672786  59.3585610
 106.0232016  10.7966630  64.2800504 106.6504055  10.4143708  64.8938028
 105.1659935  10.5780832  64.6456196 116.4226125  21.2029605  65.8854239
 116.9666029  21.8159564  65.3909194 115.8412969  21.7609184  66.4021252
 102.7997559  12.6043059  50.2118858 103.0951000  11.6953738  50.1585912
 101.8985594  12.5830799  49.8899861 114.7083637  24.3250323  57.0169267
 114.5834777  23.5240063  56.5080212 115.3662729  24.8196517  56.5283237
 106.3291806  10.6799056  56.1946407 105.6078391  11.2935024  56.0553880
 107.1185061  11.2156821  56.1163053 116.7718546  22.1259343  58.6448817
 115.8248881  22.0064695  58.5727144 117.1201319  21.2381841  58.7275078
 104.5285400  10.2857157  50.3358184 104.1998106   9.4054536  50.1533290
 104.8824771  10.2304826  51.2234573 113.7764979  21.9212060  54.8453169
 113.6289942  20.9928767  55.0260739 114.6018473  21.9432150  54.3610244
 107.6427223  10.5730127  50.7033661 107.9823296  11.1016048  49.9812270
 108.0899344  10.9110533  51.4792228 117.3799101  22.7440618  55.9318042
 118.3045648  22.5383480  55.7942493 117.2114404  22.4957020  56.8407383
 108.5125715  12.7335611  56.4156031 108.3670296  13.0475914  57.3080313
 108.0350918  13.3520511  55.8626930 117.1694417  23.2626286  51.2880133
 117.3431295  22.6972708  50.5353986 117.6623308  24.0627181  51.1059623
 102.9871377  15.2740955  59.3543692 102.4424845  16.0500763  59.4863967
 103.8650727  15.6211759  59.1962814 118.1569590  22.5793050  48.3877032
 118.8520494  23.1999743  48.6064346 118.4992740  21.7288401  48.6629410
 103.7737399  14.4010851  62.2473849 103.0319135  14.5493487  62.8338479
 103.4530143  14.6619117  61.3840598 120.0561013  20.0292756  49.9164362
 120.5812337  20.3680029  49.1913682 119.9683365  19.0939771  49.7327497
 111.7181062  23.9426829  62.0454239 112.0268188  23.6975976  62.9176939
 112.5156544  24.1473468  61.5573109 111.7401674  26.0964739  54.2759616
 111.3006664  25.6041118  54.9692472 112.4909791  25.5537707  54.0351691
 104.2194013  22.2876280  54.2784244 105.0452032  21.9880052  53.8982887
 103.8688065  21.5183902  54.7274032 109.1875546  21.6402748  56.3481917
 108.5655555  20.9773453  56.0484145 109.8580413  21.6663880  55.6655565
 102.4202618  20.2062606  55.2373177 101.5834526  19.7784781  55.0557179
 102.3926263  20.3995050  56.1743968 119.7454919  20.6625659  65.2215560
 118.9550463  20.6449798  64.6820060 119.5088273  21.2013953  65.9764597
 119.8652794  17.5118126  62.5348289 119.9150799  17.3468133  63.4763812
 119.7566717  16.6445385  62.1446170 108.7489053  20.1906672  49.8240378
 108.8977173  20.8742136  49.1707051 109.5555496  20.1711762  50.3389834
 121.3670991  19.9315067  62.7790310 121.0755799  20.2945048  63.6153771
 120.7543122  19.2182076  62.6003643 122.5666673  17.4967947  55.2992881
 123.4013564  17.9357751  55.4630441 122.7025802  17.0206600  54.4801126
 119.6158179  15.0547682  61.2470368 120.0912301  15.2475328  60.4389220
 118.6923744  15.1106868  61.0013752 106.5041686  16.2171849  50.8301447
 106.2587728  15.3134179  51.0281657 106.6737600  16.2189000  49.8880925
 105.7737333  11.9500207  48.3287608 105.0806578  12.0244562  47.6727644
 105.5289085  11.1860550  48.8509125 112.2484458  22.6854802  47.2952125
 111.6758425  23.3044989  46.8422597 112.8217252  23.2354164  47.8292047
 115.4681718  22.9691952  48.4260708 116.4012391  22.9037514  48.6293583
 115.3804931  23.8048219  47.9675240 118.0969735  22.2857822  45.3864655
 118.0183366  21.9517686  46.2800413 118.9179401  22.7779590  45.3856127
 112.6331257  14.0215615  44.6368178 113.5790361  13.8921823  44.7056596
 112.2545502  13.2830277  45.1137606 112.5169949  18.0733361  66.0968835
 113.4372959  18.2511960  66.2908881 112.4819532  17.1289406  65.9448534
 110.8174174  11.9465591  44.5723063 109.9105629  11.6498704  44.6485777
 111.0950155  11.6495409  43.7057349 101.7352114  13.2671954  55.0222109
 101.4154899  12.4137263  54.7296483 101.1885542  13.4820533  55.7780077
 105.5132022  15.9834395  58.7391616 105.7318032  16.9151503  58.7579650
 105.9257796  15.6242370  59.5246420 110.3859887  11.5567601  68.1294365
 110.2856614  12.5061958  68.0606456 110.1681429  11.2285840  67.2570435
 101.6040374  16.8874866  56.9915231 100.9103846  16.4728819  56.4785185
 102.3513365  16.9295402  56.3948650 110.2491157  14.9864740  66.9459426
 109.7658239  15.7865100  67.1523315 110.3352096  14.9972685  65.9926870
 103.5177117  16.8193120  54.8681246 103.4947805  16.9180807  53.9163129
 103.8277753  17.6658271  55.1898412 106.1764495  18.8769275  58.9827860
 107.1307748  18.8453217  58.9157792 105.9777018  18.4159899  59.7978086
 106.7663877  17.4470391  61.5498658 107.5856766  17.9414470  61.5733495
 107.0400684  16.5302359  61.5216225 104.5314723  24.4188894  55.9998058
 104.3969191  23.6589295  55.4336056 104.1146786  25.1429794  55.5326847
 115.6673686  19.6025818  45.0074633 116.3709537  19.8075820  45.6232289
 114.9436335  20.1702580  45.2723717 116.4971497  15.3535679  51.1276904
 116.4406698  15.8104231  50.2884536 117.0499839  14.5926364  50.9499746
 107.6883849  25.3158211  56.2116501 107.5716233  26.2603644  56.1095191
 106.8676296  25.0131773  56.6002300 117.5760384  20.0408347  47.0573093
 118.4105988  19.6089545  46.8750568 117.4144727  19.8690361  47.9849988
 117.2306276  16.5440460  48.4229433 117.1755080  16.3784732  47.4817877
 116.6052331  17.2516493  48.5791622 102.0198791  11.7808525  62.2490855
 102.6657655  11.2707479  62.7378080 101.8115942  12.5177206  62.8234280
 114.5452183  18.8489372  67.7482996 115.4143343  19.0230024  67.3869630
 114.0658935  19.6683789  67.6258725 108.7138363  25.9686473  59.4272429
 109.6165610  26.0010083  59.7438924 108.4875733  25.0386924  59.4418765
 110.4691965  24.7217460  56.0882508 109.5187596  24.7219321  55.9746880
 110.7724452  23.9750194  55.5718542 126.2044659  30.5577998  57.1528270
 126.8423069  30.4384745  56.4491610 126.0865502  31.5058842  57.2116222
 123.0134365  30.5105426  57.0889795 122.6752877  30.3946491  56.2010330
 123.8824133  30.1096591  57.0690801 118.8721181  32.3640903  53.0786686
 118.3086046  32.2730840  52.3102974 118.7573576  31.5440807  53.5589178
 123.4954148  31.6640278  63.0476000 123.4842789  31.2693076  62.1756504
 123.6574788  30.9306351  63.6409772 116.4185613  33.8592094  55.9170906
 117.2106905  33.5182919  55.5017206 116.6582263  33.9687069  56.8373060
 124.4520740  36.0311870  48.3901151 123.8008719  36.6165951  48.0035165
 125.2465102  36.5618065  48.4496188 118.3776367  33.1201008  48.7888285
 119.1507243  32.5729995  48.6501161 118.7301766  33.9845257  49.0002746
 120.2161409  34.4477390  61.9955184 119.9251275  35.3523021  61.8801851
 120.8518394  34.4893917  62.7099254 121.1417616  31.8254238  58.5856544
 121.7381188  31.6010261  57.8713507 121.1992588  31.0838984  59.1881992
 120.7142645  29.2793674  46.4206735 120.9668165  28.7575195  45.6590198
 119.7767204  29.1159819  46.5233419 125.7585927  28.2829452  54.2281478
 126.5449017  27.8648875  53.8771895 126.0224632  29.1875544  54.3963127
 125.9296005  33.7202302  48.9270135 125.2941838  33.7936929  49.6391040
 125.5993411  34.3095901  48.2489214 131.1594355  28.2204685  55.1314457
 131.8919526  27.6503902  55.3652286 130.4033710  27.8326286  55.5720962
 120.4338933  31.1821780  48.6231110 120.3175191  30.5066683  49.2912194
 120.5441193  30.6954154  47.8063263 122.7770474  30.6431927  52.3277799
 122.4128681  30.1162548  53.0390721 123.6337590  30.2530396  52.1544285
 128.6819775  21.9326259  59.5909065 128.3503100  22.8021670  59.3670280
 128.0865388  21.6162543  60.2703096 122.4175961  25.6721826  47.3239148
 122.5850364  26.5402063  47.6909619 122.2273130  25.8349108  46.4000437
 125.1751294  34.1338805  58.9904978 124.8752017  35.0363844  58.8820785
 124.8302354  33.8670988  59.8426131 118.6263776  30.5852602  55.0241683
 117.7014272  30.4528816  55.2319374 118.8748189  31.3646821  55.5211625
 128.5748438  26.6521345  56.6702415 127.6665316  26.5836754  56.3761176
 128.5236034  27.1293290  57.4984241 122.3965182  28.1279484  48.3085815
 122.2764807  28.5736535  49.1471295 121.7017770  28.4764802  47.7499353
 115.9872587  30.2285876  55.8585472 116.1164968  30.4820355  56.7724883
 115.3070038  30.8213584  55.5390127 120.1572074  40.8983126  51.9575946
 120.0796104  41.8490951  52.0364426 119.5533718  40.5528998  52.6150872
 122.6489304  28.0710991  64.6137313 121.8722638  28.6304911  64.6040177
 123.2879867  28.5567774  65.1352183 130.4410085  24.8537784  58.4480289
 129.7984465  25.1470317  57.8020084 129.9365013  24.7390704  59.2533486
 128.0950248  28.6000957  49.1366149 129.0068104  28.8328344  48.9613846
 127.5859895  29.1838001  48.5741227 120.9035676  30.8796444  64.1755280
 121.6450361  31.4181488  63.8990103 120.1972662  31.5062733  64.3326831
 126.3791016  33.0225585  62.7727441 126.7874372  32.5807995  62.0282074
 125.6568277  32.4478212  63.0261634 122.7322086  27.9598192  60.1460998
 123.5783281  28.3837605  60.2895647 122.6720724  27.3031816  60.8399561
 126.7019831  33.5826776  56.5279730 126.0728693  33.7472490  55.8255798
 126.3145493  33.9968385  57.2990694 130.5809062  34.5181213  53.8824094
 129.8960101  34.8980115  53.3321127 130.6652912  35.1276540  54.6156042
 125.8821531  25.6202560  61.8042172 125.6382463  26.3744621  61.2676447
 126.1581462  25.9987908  62.6389419 127.8359994  32.1641172  60.4819437
 128.0476889  32.8072932  59.8053818 127.7889742  31.3303489  60.0141367
 125.4386223  24.7758993  57.3856009 124.5770702  25.0740247  57.6772747
 125.4648658  24.9929392  56.4537042 122.2547792  33.3201184  53.7929815
 122.7186138  33.5988887  53.0034438 121.9904591  32.4184628  53.6102906
 119.1471874  32.8672665  56.7309578 119.7173231  33.2959934  56.0927063
 119.7379985  32.5855250  57.4293764 121.1916678  29.4424336  50.6019380
 121.8940722  29.8945380  51.0693307 120.8597307  28.8008155  51.2299273
 119.6397040  28.0336093  64.9770590 119.0095701  28.7152373  65.2105987
 119.5333128  27.9219174  64.0323728 114.9342012  27.7007889  55.9036514
 114.1441066  27.9565417  55.4276624 115.4253260  28.5156226  56.0088554
 128.9505822  35.0413128  58.6541795 129.7723266  34.6393315  58.3724476
 128.9468225  34.9381362  59.6057910 116.8856758  28.0652468  52.8619991
 116.0887921  28.1771162  53.3803486 116.6582350  28.4039120  51.9960881
 122.7162425  34.5897171  60.8102505 122.7806858  35.0517578  61.6460677
 122.0073349  33.9594536  60.9384815 113.2179715  27.9538379  58.3351505
 113.4687754  28.8385389  58.6009081 113.7539264  27.7742981  57.5626596
 137.0411815  31.3851876  55.0026766 136.2875523  30.8159274  54.8470771
 137.1759356  31.3514541  55.9497401 122.4310443  36.2565279  50.6781486
 122.2956118  37.1016814  51.1066333 122.9720256  36.4584556  49.9147419
 118.9177783  22.3356858  67.3395841 118.5244728  21.7823057  68.0143485
 119.7343923  22.6467437  67.7302358 115.8839841  33.7740717  51.2509411
 116.3964361  34.5683967  51.4014975 116.5362553  33.0767007  51.1843012
 117.6934725  36.8906473  53.3332164 117.8701354  37.8124438  53.1453148
 118.4891559  36.5764892  53.7626544 121.8345744  23.7514738  64.9316097
 122.5755457  24.3521891  64.8520560 122.0663667  23.0092375  64.3734140
 116.9787082  28.9371105  63.2094327 116.8640597  28.0356362  63.5101426
 116.1231600  29.1834802  62.8579144 124.0578919  36.8788845  64.8081828
 123.6142774  36.0925224  64.4902732 124.7196133  37.0667996  64.1425718
 118.8166041  38.4084647  59.3342506 119.3673466  38.2801710  58.5619500
 117.9777517  38.7079536  58.9837399 126.1560158  37.1591645  62.8363229
 126.1378633  37.9800526  62.3443498 127.0780078  37.0345720  63.0613370
 122.6133212  34.6735775  63.6786737 123.1461549  33.9124063  63.4486045
 122.0847293  34.3809426  64.4210892 125.7802907  19.7795840  59.2080379
 125.4367176  20.6697482  59.1319490 126.1481869  19.5897498  58.3449964
 113.8488757  32.1029371  52.0268981 114.6863979  32.5126379  51.8102689
 114.0267025  31.1628813  51.9969175 125.7453189  29.7704452  47.7152814
 125.2299813  30.5409056  47.9541202 125.4730498  29.0969588  48.3385876
 123.3300300  24.6154152  52.7738052 122.4741897  24.2261003  52.5943691
 123.7427252  24.6946113  51.9137838 124.8599447  22.1500496  57.1729612
 124.3564243  22.1130631  56.3597418 125.1530054  23.0593238  57.2326269
 121.1042333  22.2339225  56.1795794 121.9695330  22.0382034  55.8201683
 121.1719842  22.0049577  57.1065151 130.7187464  32.5236806  49.6505988
 129.9416906  32.1847966  49.2061150 131.3978945  32.5289429  48.9760953
 125.5339493  27.6431544  49.5412595 125.2289628  27.9577693  50.3922738
 126.4869935  27.7212964  49.5839928 123.9785924  33.8021767  51.1905549
 123.4507286  33.0674527  50.8778787 123.4773427  34.5796443  50.9445518
 128.9578770  31.9970787  56.3072596 128.3002445  32.6870049  56.3952724
 129.7619170  32.3867219  56.6506582 118.7104652  24.4641433  53.5512161
 119.2848404  24.2416615  52.8185354 119.2975634  24.5330128  54.3040762
 127.7684229  30.3515160  54.3576537 128.2816111  30.9845152  54.8598247
 128.4185453  29.7516356  53.9919897 119.0374239  26.4945894  47.5708046
 118.2011551  26.8320581  47.8917321 118.8979009  26.3594874  46.6335183
 121.0127320  21.3382682  52.2787230 120.3591732  21.0231699  51.6543845
 120.9707794  20.7158423  53.0047053 122.1238525  31.6201977  44.1940522
 121.2165586  31.3891231  44.3931671 122.6209557  30.8239597  44.3814504
 125.0306603  40.3299484  47.1137208 124.3568302  40.6331181  47.7222166
 125.4172425  41.1328565  46.7642666 124.2465060  27.8264616  56.6034878
 123.3287621  28.0479563  56.4456566 124.6625204  27.9010926  55.7446585
 125.0300108  29.2256031  51.7337558 125.7771927  29.7377429  51.4244680
 125.2991697  28.9040084  52.5941952 123.3026758  31.7214572  48.7164512
 122.3937977  31.4373605  48.8136982 123.3321842  32.1413651  47.8567819
 128.5346025  35.3321162  52.4855680 128.0808353  34.4912071  52.5420870
 127.9039992  35.9682560  52.8230460 127.4778945  26.2613148  53.7156347
 126.7401702  25.7490534  54.0466590 127.7305719  25.8213529  52.9039624
 126.9778965  37.1697658  53.4205498 127.2701939  37.7302715  52.7017864
 127.4877585  37.4626219  54.1758657 127.5790572  19.0389400  54.3098117
 127.8849449  18.1786763  54.0224032 128.3043177  19.6307020  54.1097111
 113.8714928  29.4420086  52.6979715 113.6739328  28.8489447  51.9730781
 113.3161592  29.1372296  53.4155653 121.8511652  29.3343193  54.8174308
 121.9060262  28.3817029  54.7416784 121.0402854  29.4902632  55.3015606
 123.0002846  33.2623316  46.0552591 122.5622276  32.5459175  45.5958228
 123.7413287  33.4899431  45.4937682 119.7904012  27.9520252  52.5764687
 118.9771878  28.2514423  52.9829879 120.2863006  27.5575941  53.2939169
 121.9412590  37.9478009  54.5098951 121.8988769  38.1738856  53.5807483
 122.8575289  37.7141384  54.6584752 125.3878224  28.4162077  61.4079580
 125.7427611  28.6433550  62.2674046 126.0350355  28.7480454  60.7856836
 131.1175961  31.5380513  52.1128910 130.9793859  31.7282109  51.1850099
 130.7612179  32.2999896  52.5696961 119.2818087  25.5238608  58.1925922
 119.9217466  25.3827367  57.4948885 118.4495617  25.2373121  57.8164524
 131.1445340  33.6057040  57.1240181 131.5781847  33.5132329  57.9723235
 131.8576921  33.5814540  56.4860197 120.0578391  34.8241038  54.3060914
 120.8518989  34.3291359  54.1043489 119.3470083  34.2958902  53.9428620
 124.8773235  37.2059134  58.6573282 124.9310257  37.7750070  59.4250998
 124.0088017  37.3761019  58.2927319 116.3661154  28.9684120  50.3820667
 115.4358742  28.9068576  50.5990629 116.4618626  28.4460073  49.5857308
 116.2846703  25.4938933  52.9698908 116.5453520  26.4084266  52.8608069
 117.1063876  25.0263376  53.1195521 117.7571629  26.9076690  60.1397733
 118.4294682  26.6994052  59.4910382 116.9301415  26.7098776  59.7002965
 132.0060890  33.6480740  59.6573066 132.1996780  34.5526551  59.9032341
 131.9061508  33.1888160  60.4911651 123.6597201  23.5338631  62.1563394
 123.0125116  24.2328581  62.0627870 124.4298216  23.9674775  62.5239642
 127.0675998  33.7987483  65.2313947 126.9161505  33.5698035  64.3144031
 127.0580678  34.7558085  65.2445292 123.8361335  31.3719396  60.2160213
 124.7653395  31.5230556  60.0429181 123.4152365  31.4603417  59.3608860
 122.6349667  35.3970060  57.9858751 122.4960752  35.0288845  58.8584689
 121.8464263  35.9117700  57.8142709 123.2297819  40.4979157  49.3284288
 123.4049574  40.0267200  50.1429910 122.5430607  41.1244923  49.5565548
 124.1854882  34.7751663  55.3747589 123.8504714  34.7352433  56.2705239
 123.6858827  34.1096379  54.9017999 118.1599126  30.1819293  60.9000170
 118.0218924  29.4499532  61.5011709 119.0704049  30.0928193  60.6184358
 127.1214073  32.1207697  45.6484649 126.5043244  31.3954526  45.5517701
 126.6530562  32.8817058  45.3051723 120.7881426  29.8939252  60.3883850
 121.4981045  29.2532445  60.3470468 120.7450735  30.1452147  61.3110030
 128.7768205  36.8306606  63.3090429 128.7180751  36.1465826  62.6421012
 129.1787723  37.5725596  62.8571055 119.5010360  26.8804470  62.2079489
 118.9647717  26.4295209  62.8601086 118.9127069  27.0150379  61.4649954
 117.7958904  43.6468520  56.1024148 118.0355502  44.2787044  56.7803166
 116.9528100  43.2956560  56.3889507 118.9112619  26.3393122  44.7705953
 118.0342086  26.2181923  44.4068199 119.3870372  25.5479200  44.5184841
 128.7785612  34.7946190  61.5404409 127.8912391  34.4572112  61.6630807
 129.3484163  34.0629221  61.7773174 110.4314759  31.1270281  54.8647460
 111.1185799  30.8132011  54.2768475 110.2762888  32.0311646  54.5914711
 115.2349482  26.0160478  59.2932484 115.1507670  25.4086148  58.5582894
 114.4132188  26.5069496  59.2941980 122.3086766  39.4547642  58.5065652
 122.2356937  40.2602614  59.0184956 121.8664159  39.6539608  57.6813673
 122.0976545  38.6919412  52.0168473 121.3144067  39.2341092  52.1106698
 122.7969291  39.2093392  52.4162715 125.4073196  24.5014042  54.6602679
 125.9041895  23.7484004  54.3403749 124.6360177  24.5378358  54.0945888
 133.2602953  30.2054407  56.3020970 133.2492829  31.0879123  55.9314903
 132.3920332  29.8525958  56.1075507 124.7685449  39.3534476  60.6623810
 125.4813422  39.9881941  60.5899712 124.2775478  39.4498342  59.8463812
 126.4902976  33.2585729  52.2341102 125.5559255  33.3787191  52.0645806
 126.6679645  32.3558196  51.9701112 121.9908164  26.6431425  54.3874363
 121.6205952  26.0902465  55.0755269 122.4867257  26.0389558  53.8349363
 129.8775528  29.1003048  52.7691136 130.3435980  29.9331040  52.6951439
 130.3283028  28.6348030  53.4736395 119.8197363  37.1028920  61.4829381
 120.5206822  37.7365403  61.6358775 119.3492478  37.4443651  60.7225021
 127.9451759  35.4446869  49.7677288 128.2211603  35.3303464  50.6771162
 127.0756257  35.0464354  49.7289461 127.8492190  21.4683635  56.8082038
 126.9355270  21.6987862  56.9764245 128.2785292  21.5522079  57.6596070
 127.6198649  29.6573527  59.3081932 126.9670099  29.9049434  58.6534384
 127.9979029  28.8437665  58.9744409 124.5805823  39.6933220  53.4110102
 124.7628217  38.8754876  53.8737854 125.4038809  39.9100912  52.9734992
 124.9147988  38.6201405  50.6725150 125.4435755  38.1093860  50.0595313
 125.1776208  38.3043936  51.5370683 123.6686222  30.3993338  65.7947969
 122.9926859  30.2987467  66.4650344 124.4913856  30.2432552  66.2583966
 115.4165081  36.6365275  58.4160484 116.0018518  35.8908963  58.5488388
 115.2189919  36.9469231  59.2997148 118.2703736  39.6716522  53.4322926
 117.6014111  40.1562650  52.9486966 118.1316606  39.9185742  54.3466305
 110.0082736  29.2070875  57.1364927 110.0466835  28.6734466  57.9302045
 109.5023028  28.6806080  56.5175904 122.4109005  41.7060266  60.0305585
 122.9627313  41.8691887  60.7954670 122.7515198  42.2964703  59.3585610
 117.3873498  24.0535415  60.6327469 117.4514824  24.9150246  60.2204867
 117.3240618  23.4409417  59.8999828 116.8625770  26.1258548  64.2800504
 117.4897809  25.7435625  64.8938028 116.0053689  25.9072750  64.6456196
 127.2619879  36.5321523  65.8854239 127.8059783  37.1451481  65.3909194
 126.6806724  37.0901101  66.4021252 113.6391313  27.9334977  50.2118858
 113.9344754  27.0245655  50.1585912 112.7379349  27.9122716  49.8899861
 125.5477392  39.6542241  57.0169267 125.4228531  38.8531981  56.5080212
 126.2056483  40.1488434  56.5283237 117.1685560  26.0090974  56.1946407
 116.4472146  26.6226941  56.0553880 117.9578816  26.5448738  56.1163053
 127.6112300  37.4551261  58.6448817 126.6642636  37.3356612  58.5727144
 127.9595073  36.5673759  58.7275078 119.9711874  23.3445400  62.4687059
 120.4946276  23.5907697  63.2313368 119.7524207  24.1765435  62.0490196
 115.3679155  25.6149075  50.3358184 115.0391861  24.7346454  50.1533290
 115.7218525  25.5596743  51.2234573 124.6158734  37.2503977  54.8453169
 124.4683696  36.3220685  55.0260739 125.4412227  37.2724068  54.3610244
 118.4820978  25.9022044  50.7033661 118.8217050  26.4307966  49.9812270
 118.9293098  26.2402451  51.4792228 128.2192855  38.0732536  55.9318042
 129.1439403  37.8675397  55.7942493 128.0508159  37.8248937  56.8407383
 121.1764419  24.2859095  60.1536729 120.8361239  23.4866908  60.5557409
 120.4703425  24.5860806  59.5813563 121.8280891  21.3708408  58.6064052
 122.6506960  20.8968886  58.4842943 122.0718954  22.1498891  59.1062739
 120.4689125  24.3996666  48.9026954 121.1897488  24.7777919  48.3990671
 119.8454429  25.1185543  49.0061932 124.6120248  25.1041815  49.8385286
 124.8283862  25.9866453  49.5374115 124.1314315  24.7128028  49.1090928
 119.3519469  28.0627528  56.4156031 119.2064050  28.3767831  57.3080313
 118.8744673  28.6812429  55.8626930 121.2115852  25.0530076  56.4636921
 121.1977421  24.1571170  56.1269219 121.9288280  25.0600740  57.0975207
 123.0641983  25.4867416  58.5090048 122.8059761  26.4084487  58.5074378
 122.5327023  25.0897851  59.1990512 128.0088172  38.5918204  51.2880133
 128.1825049  38.0264626  50.5353986 128.5017063  39.3919098  51.1059623
 113.8265132  30.6032873  59.3543692 113.2818600  31.3792681  59.4863967
 114.7044481  30.9503677  59.1962814 120.6152748  23.9344456  51.7324491
 120.7368659  23.0061103  51.9315378 120.3254791  23.9483142  50.8202806
 123.4843939  21.6199367  54.8691211 123.5065635  21.6838700  53.9143190
 123.9011998  20.7803876  55.0631717 133.8627563  31.3554626  52.9070433
 134.3058709  30.6061952  52.5089556 132.9854073  31.3464763  52.5244165
 128.9963344  37.9084968  48.3877032 129.6914249  38.5291661  48.6064346
 129.3386494  37.0580319  48.6629410 114.6131153  29.7302769  62.2473849
 113.8712889  29.8785404  62.8338479 114.2923898  29.9911034  61.3840598
 130.8954767  35.3584673  49.9164362 131.4206091  35.6971946  49.1913682
 130.8077120  34.4231689  49.7327497 122.5574816  39.2718747  62.0454239
 122.8661942  39.0267894  62.9176939 123.3550298  39.4765386  61.5573109
 122.5795428  41.4256657  54.2759616 122.1400418  40.9333035  54.9692472
 123.3303545  40.8829624  54.0351691 115.0587767  37.6168198  54.2784244
 115.8845787  37.3171969  53.8982887 114.7081819  36.8475820  54.7274032
 120.0269300  36.9694666  56.3481917 119.4049310  36.3065371  56.0484145
 120.6974167  36.9955798  55.6655565 113.2596372  35.5354524  55.2373177
 112.4228280  35.1076698  55.0557179 113.2320018  35.7286967  56.1743968
 120.0993828  25.4476454  65.9414423 120.1481983  26.3238577  65.5592193
 120.6416342  24.9053847  65.3686067 130.5848673  35.9917577  65.2215560
 129.7944217  35.9741716  64.6820060 130.3482028  36.5305871  65.9764597
 130.7046548  32.8410043  62.5348289 130.7544553  32.6760051  63.4763812
 130.5960472  31.9737303  62.1446170 119.5882807  35.5198589  49.8240378
 119.7370927  36.2034054  49.1707051 120.3949251  35.5003679  50.3389834
 127.9950311  28.8240972  63.8507596 128.8960174  28.6847436  63.5591593
 128.0698285  28.9895426  64.7905773 122.3293116  26.2007826  62.6960782
 121.4596426  26.4941392  62.4243370 122.5652597  26.7848271  63.4168046
 132.2064745  35.2606985  62.7790310 131.9149554  35.6236966  63.6153771
 131.5936877  34.5473993  62.6003643 133.4060428  32.8259865  55.2992881
 134.2407319  33.2649669  55.4630441 133.5419556  32.3498518  54.4801126
 130.4551934  30.3839600  61.2470368 130.9306055  30.5767246  60.4389220
 129.5317499  30.4398785  61.0013752 117.3435440  31.5463767  50.8301447
 117.0981482  30.6426097  51.0281657 117.5131355  31.5480917  49.8880925
 125.0332150  22.4187443  60.2126202 125.5514094  23.1548470  59.8872691
 124.6787283  22.7251436  61.0472961 116.6131088  27.2792124  48.3287608
 115.9200333  27.3536479  47.6727644 116.3682840  26.5152468  48.8509125
 125.2844744  18.8387726  55.7327099 125.5646498  18.1710915  56.3587525
 126.0695351  19.0316821  55.2201763 123.0878213  38.0146720  47.2952125
 122.5152180  38.6336907  46.8422597 123.6611006  38.5646081  47.8292047
 129.1553603  27.2605360  59.4798674 130.1071025  27.3603457  59.5010898
 128.9857053  26.4683628  59.9896758 127.1767982  24.3460943  59.6658075
 126.5817914  24.6265956  58.9704564 126.8917679  24.8354844  60.4374816
 126.3075472  38.2983870  48.4260708 127.2406146  38.2329431  48.6293583
 126.2198685  39.1340137  47.9675240 128.9363489  37.6149740  45.3864655
 128.8577121  37.2809604  46.2800413 129.7573156  38.1071508  45.3856127
 131.6341680  30.4811479  58.5940974 131.6018000  29.5427480  58.7800658
 132.2442304  30.5595516  57.8606799 123.4725011  29.3507532  44.6368178
 124.4184116  29.2213740  44.7056596 123.0939256  28.6122194  45.1137606
 131.7836169  27.2722523  58.6399257 131.2675217  26.4880979  58.4529186
 132.6676117  26.9441239  58.8045776 129.4446896  21.0163538  54.5995070
 129.2471717  20.7078627  55.4838402 130.0546601  21.7425177  54.7292999
 135.5333527  29.6835349  58.3321462 134.8066691  29.5491314  57.7237953
 135.1180814  29.9912177  59.1378180 123.3563704  33.4025278  66.0968835
 124.2766713  33.5803878  66.2908881 123.3213287  32.4581324  65.9448534
 121.6567928  27.2757509  44.5723063 120.7499384  26.9790621  44.6485777
 121.9343909  26.9787327  43.7057349 112.5745869  28.5963872  55.0222109
 112.2548653  27.7429180  54.7296483 112.0279297  28.8112450  55.7780077
 116.3525776  31.3126313  58.7391616 116.5711786  32.2443421  58.7579650
 116.7651550  30.9534288  59.5246420 123.2729994  21.8194398  50.7267304
 122.4630722  21.4741483  51.1022550 123.9614411  21.5101942  51.3154916
 125.2020542  20.8972445  52.3491601 125.7551581  21.3167899  53.0081624
 125.4390629  19.9708193  52.3914557 121.2253642  26.8859519  68.1294365
 121.1250368  27.8353876  68.0606456 121.0075184  26.5577758  67.2570435
 120.4266713  24.1344444  44.7135042 121.2885877  24.4599342  44.9730860
 120.6117057  23.3475940  44.2008108 112.4434129  32.2166784  56.9915231
 111.7497600  31.8020736  56.4785185 113.1907120  32.2587320  56.3948650
 128.5799349  23.0072970  51.8570265 127.9998018  23.6657774  51.4748318
 128.3135282  22.1850315  51.4457683 127.0302916  22.4078028  54.0591585
 127.5302694  22.5194563  53.2505904 127.6738524  22.1039081  54.6992394
 121.0884912  30.3156658  66.9459426 120.6051993  31.1157018  67.1523315
 121.1745851  30.3264603  65.9926870 114.3570871  32.1485037  54.8681246
 114.3341559  32.2472725  53.9163129 114.6671508  32.9950188  55.1898412
 117.0158249  34.2061192  58.9827860 117.9701503  34.1745135  58.9157792
 116.8170773  33.7451816  59.7978086 117.6057631  32.7762309  61.5498658
 118.4250520  33.2706387  61.5733495 117.8794439  31.8594277  61.5216225
 127.3624227  25.1673061  50.9126613 126.4750082  25.4522711  50.6946808
 127.7778217  25.0066824  50.0653890 130.7138764  25.1919582  54.6280953
 131.4899154  25.6816034  54.9005569 129.9886898  25.6177636  55.0852822
 133.1511322  25.9047201  55.6854893 133.7455813  25.6642937  54.9748202
 133.2237906  25.1854332  56.3128430 115.3708478  39.7480812  55.9998058
 115.2362946  38.9881213  55.4336056 114.9540540  40.4721712  55.5326847
 126.5067441  34.9317735  45.0074633 127.2103291  35.1367738  45.6232289
 125.7830090  35.4994497  45.2723717 127.3365251  30.6827597  51.1276904
 127.2800453  31.1396148  50.2884536 127.8893594  29.9218281  50.9499746
 131.1470057  26.4717329  51.9527023 130.8906991  26.0713964  52.7835231
 130.5222925  27.1861123  51.8277162 135.4582395  29.2113402  54.4598314
 134.8981953  29.2806591  55.2329877 134.8525898  29.0354386  53.7397811
 118.5277604  40.6450129  56.2116501 118.4109988  41.5895561  56.1095191
 117.7070050  40.3423691  56.6002300 128.4154138  35.3700265  47.0573093
 129.2499742  34.9381463  46.8750568 128.2538481  35.1982278  47.9849988
 128.0700030  31.8732378  48.4229433 128.0148834  31.7076649  47.4817877
 127.4446086  32.5808411  48.5791622 112.8592545  27.1100442  62.2490855
 113.5051409  26.5999396  62.7378080 112.6509697  27.8469124  62.8234280
 125.3845938  34.1781290  67.7482996 126.2537097  34.3521942  67.3869630
 124.9052689  34.9975707  67.6258725 121.3796156  21.3740487  48.0014751
 121.3674826  22.3182327  48.1583022 122.2719578  21.1910632  47.7074212
 119.5532118  41.2978391  59.4272429 120.4559365  41.3302001  59.7438924
 119.3269488  40.3678842  59.4418765 121.3085720  40.0509377  56.0882508
 120.3581351  40.0511239  55.9746880 121.6118206  39.3042112  55.5718542
 125.1948275  17.9683264  52.2560688 124.4280671  17.4141750  52.4017370
 125.6058980  18.0405132  53.1174840 117.1990036  24.2568059  66.3465869
 118.0621498  23.9004864  66.5569194 116.6255447  23.9181954  67.0341273
 133.8528120  45.8397344  57.0889795 133.5146631  45.7238409  56.2010330
 134.7217888  45.4388509  57.0690801 129.7114935  47.6932820  53.0786686
 129.1479801  47.6022757  52.3102974 129.5967330  46.8732725  53.5589178
 134.3347903  46.9932196  63.0476000 134.3236543  46.5984994  62.1756504
 134.4968542  46.2598268  63.6409772 127.2579367  49.1884012  55.9170906
 128.0500659  48.8474837  55.5017206 127.4976017  49.2978987  56.8373060
 135.2914494  51.3603788  48.3901151 134.6402474  51.9457868  48.0035165
 136.0858857  51.8909983  48.4496188 129.2170121  48.4492925  48.7888285
 129.9900997  47.9021912  48.6501161 129.5695520  49.3137174  49.0002746
 131.0555164  49.7769307  61.9955184 130.7645030  50.6814938  61.8801851
 131.6912148  49.8185835  62.7099254 131.9811371  47.1546156  58.5856544
 132.5774943  46.9302178  57.8713507 132.0386342  46.4130901  59.1881992
 131.5536399  44.6085591  46.4206735 131.8061920  44.0867113  45.6590198
 130.6160958  44.4451737  46.5233419 136.5979682  43.6121370  54.2281478
 137.3842771  43.1940793  53.8771895 136.8618386  44.5167462  54.3963127
 136.7689759  49.0494220  48.9270135 136.1335592  49.1228846  49.6391040
 136.4387166  49.6387819  48.2489214 131.2732688  46.5113697  48.6231110
 131.1568946  45.8358601  49.2912194 131.3834948  46.0246071  47.8063263
 133.6164229  45.9723844  52.3277799 133.2522436  45.4454465  53.0390721
 134.4731345  45.5822313  52.1544285 133.2569716  41.0013744  47.3239148
 133.4244118  41.8693980  47.6909619 133.0666885  41.1641026  46.4000437
 136.0145049  49.4630723  58.9904978 135.7145772  50.3655762  58.8820785
 135.6696108  49.1962906  59.8426131 129.4657530  45.9144520  55.0241683
 128.5408027  45.7820734  55.2319374 129.7141944  46.6938739  55.5211625
 133.2358937  43.4571402  48.3085815 133.1158562  43.9028452  49.1471295
 132.5411525  43.8056719  47.7499353 126.8266341  45.5577793  55.8585472
 126.9558723  45.8112272  56.7724883 126.1463793  46.1505501  55.5390127
 130.9965829  56.2275043  51.9575946 130.9189858  57.1782868  52.0364426
 130.3927472  55.8820916  52.6150872 133.4883058  43.4002909  64.6137313
 132.7116393  43.9596829  64.6040177 134.1273622  43.8859692  65.1352183
 131.7429431  46.2088362  64.1755280 132.4844115  46.7473406  63.8990103
 131.0366416  46.8354651  64.3326831 137.2184770  48.3517503  62.7727441
 137.6268126  47.9099913  62.0282074 136.4962032  47.7770130  63.0261634
 133.5715840  43.2890109  60.1460998 134.4177036  43.7129523  60.2895647
 133.5114478  42.6323734  60.8399561 137.5413585  48.9118693  56.5279730
 136.9122447  49.0764407  55.8255798 137.1539247  49.3260303  57.2990694
 136.7215286  40.9494478  61.8042172 136.4776218  41.7036538  61.2676447
 136.9975216  41.3279825  62.6389419 136.2779978  40.1050911  57.3856009
 135.4164457  40.4032164  57.6772747 136.3042412  40.3221310  56.4537042
 133.0941547  48.6493101  53.7929815 133.5579892  48.9280804  53.0034438
 132.8298345  47.7476546  53.6102906 129.9865628  48.1964583  56.7309578
 130.5566985  48.6251851  56.0927063 130.5773740  47.9147168  57.4293764
 132.0310433  44.7716254  50.6019380 132.7334476  45.2237297  51.0693307
 131.6991061  44.1300072  51.2299273 130.4790795  43.3628010  64.9770590
 129.8489455  44.0444291  65.2105987 130.3726882  43.2511092  64.0323728
 125.7735767  43.0299806  55.9036514 124.9834821  43.2857335  55.4276624
 126.2647014  43.8448144  56.0088554 127.7250512  43.3944386  52.8619991
 126.9281676  43.5063080  53.3803486 127.4976105  43.7331038  51.9960881
 133.5556180  49.9189089  60.8102505 133.6200612  50.3809496  61.6460677
 132.8467104  49.2886454  60.9384815 124.0573470  43.2830297  58.3351505
 124.3081508  44.1677307  58.6009081 124.5933018  43.1034898  57.5626596
 133.2704198  51.5857196  50.6781486 133.1349872  52.4308732  51.1066333
 133.8114010  51.7876474  49.9147419 129.7571537  37.6648776  67.3395841
 129.3638483  37.1114975  68.0143485 130.5737678  37.9759355  67.7302358
 126.7233595  49.1032634  51.2509411 127.2358116  49.8975885  51.4014975
 127.3756308  48.4058925  51.1843012 128.5328480  52.2198391  53.3332164
 128.7095108  53.1416355  53.1453148 129.3285313  51.9056810  53.7626544
 132.6739498  39.0806655  64.9316097 133.4149212  39.6813808  64.8520560
 132.9057421  38.3384293  64.3734140 127.8180836  44.2663022  63.2094327
 127.7034351  43.3648280  63.5101426 126.9625354  44.5126719  62.8579144
 134.8972674  52.2080763  64.8081828 134.4536528  51.4217141  64.4902732
 135.5589888  52.3959913  64.1425718 129.6559795  53.7376564  59.3342506
 130.2067220  53.6093628  58.5619500 128.8171271  54.0371453  58.9837399
 133.4526966  50.0027692  63.6786737 133.9855303  49.2415980  63.4486045
 132.9241047  49.7101344  64.4210892 136.6196661  35.1087758  59.2080379
 136.2760931  35.9989400  59.1319490 136.9875624  34.9189416  58.3449964
 124.6882512  47.4321289  52.0268981 125.5257734  47.8418297  51.8102689
 124.8660779  46.4920731  51.9969175 136.5846944  45.0996369  47.7152814
 136.0693567  45.8700974  47.9541202 136.3124252  44.4261505  48.3385876
 134.1694055  39.9446070  52.7738052 133.3135651  39.5552920  52.5943691
 134.5821007  40.0238031  51.9137838 135.6993202  37.4792413  57.1729612
 135.1957997  37.4422548  56.3597418 135.9923808  38.3885156  57.2326269
 131.9436087  37.5631143  56.1795794 132.8089084  37.3673952  55.8201683
 132.0113596  37.3341495  57.1065151 136.3733247  42.9723461  49.5412595
 136.0683383  43.2869611  50.3922738 137.3263689  43.0504881  49.5839928
 134.8179679  49.1313685  51.1905549 134.2901040  48.3966444  50.8778787
 134.3167182  49.9088361  50.9445518 129.5498407  39.7933351  53.5512161
 130.1242158  39.5708532  52.8185354 130.1369389  39.8622045  54.3040762
 129.8767994  41.8237812  47.5708046 129.0405306  42.1612499  47.8917321
 129.7372763  41.6886792  46.6335183 131.8521074  36.6674600  52.2787230
 131.1985487  36.3523617  51.6543845 131.8101548  36.0450340  53.0047053
 132.9632279  46.9493895  44.1940522 132.0559341  46.7183148  44.3931671
 133.4603311  46.1531514  44.3814504 135.8700358  55.6591402  47.1137208
 135.1962057  55.9623099  47.7222166 136.2566180  56.4620482  46.7642666
 135.0858815  43.1556533  56.6034878 134.1681376  43.3771480  56.4456566
 135.5018958  43.2302844  55.7446585 135.8693862  44.5547949  51.7337558
 136.6165681  45.0669346  51.4244680 136.1385452  44.2332002  52.5941952
 134.1420513  47.0506490  48.7164512 133.2331732  46.7665523  48.8136982
 134.1715596  47.4705568  47.8567819 124.7108683  44.7712004  52.6979715
 124.5133083  44.1781365  51.9730781 124.1555347  44.4664214  53.4155653
 132.6905407  44.6635110  54.8174308 132.7454016  43.7108947  54.7416784
 131.8796609  44.8194549  55.3015606 133.8396600  48.5915233  46.0552591
 133.4016030  47.8751092  45.5958228 134.5807041  48.8191348  45.4937682
 130.6297766  43.2812170  52.5764687 129.8165632  43.5806341  52.9829879
 131.1256761  42.8867859  53.2939169 132.7806344  53.2769927  54.5098951
 132.7382523  53.5030773  53.5807483 133.6969043  53.0433302  54.6584752
 136.2271978  43.7453995  61.4079580 136.5821366  43.9725468  62.2674046
 136.8744109  44.0772371  60.7856836 130.1211841  40.8530526  58.1925922
 130.7611221  40.7119285  57.4948885 129.2889372  40.5665039  57.8164524
 130.8972145  50.1532956  54.3060914 131.6912744  49.6583276  54.1043489
 130.1863838  49.6250819  53.9428620 135.7166990  52.5351052  58.6573282
 135.7704012  53.1041988  59.4250998 134.8481771  52.7052937  58.2927319
 127.2054909  44.2976038  50.3820667 126.2752497  44.2360493  50.5990629
 127.3012381  43.7751991  49.5857308 127.1240458  40.8230851  52.9698908
 127.3847275  41.7376184  52.8608069 127.9457630  40.3555293  53.1195521
 128.5965383  42.2368608  60.1397733 129.2688436  42.0285970  59.4910382
 127.7695170  42.0390694  59.7002965 134.4990955  38.8630549  62.1563394
 133.8518870  39.5620498  62.0627870 135.2691970  39.2966693  62.5239642
 134.6755089  46.7011314  60.2160213 135.6047149  46.8522473  60.0429181
 134.2546119  46.7895334  59.3608860 133.4743421  50.7261978  57.9858751
 133.3354507  50.3580762  58.8584689 132.6858017  51.2409617  57.8142709
 134.0691573  55.8271075  49.3284288 134.2443329  55.3559118  50.1429910
 133.3824361  56.4536841  49.5565548 135.0248636  50.1043581  55.3747589
 134.6898469  50.0644351  56.2705239 134.5252582  49.4388297  54.9017999
 128.9992880  45.5111211  60.9000170 128.8612678  44.7791450  61.5011709
 129.9097804  45.4220111  60.6184358 131.6275181  45.2231170  60.3883850
 132.3374799  44.5824362  60.3470468 131.5844489  45.4744065  61.3110030
 130.3404115  42.2096388  62.2079489 129.8041472  41.7587126  62.8601086
 129.7520823  42.3442297  61.4649954 128.6352658  58.9760437  56.1024148
 128.8749257  59.6078961  56.7803166 127.7921855  58.6248477  56.3889507
 129.7506374  41.6685039  44.7705953 128.8735840  41.5473840  44.4068199
 130.2264127  40.8771118  44.5184841 121.2708514  46.4562199  54.8647460
 121.9579554  46.1423929  54.2768475 121.1156643  47.3603564  54.5914711
 126.0743236  41.3452396  59.2932484 125.9901425  40.7378065  58.5582894
 125.2525943  41.8361414  59.2941980 133.1480520  54.7839560  58.5065652
 133.0750692  55.5894531  59.0184956 132.7057913  54.9831526  57.6813673
 132.9370300  54.0211330  52.0168473 132.1537822  54.5633010  52.1106698
 133.6363045  54.5385309  52.4162715 136.2466950  39.8305959  54.6602679
 136.7435650  39.0775922  54.3403749 135.4753932  39.8670276  54.0945888
 135.6079204  54.6826394  60.6623810 136.3207176  55.3173859  60.5899712
 135.1169232  54.7790260  59.8463812 137.3296731  48.5877646  52.2341102
 136.3953009  48.7079109  52.0645806 137.5073399  47.6850113  51.9701112
 132.8301919  41.9723342  54.3874363 132.4599706  41.4194383  55.0755269
 133.3261011  41.3681476  53.8349363 130.6591117  52.4320837  61.4829381
 131.3600577  53.0657320  61.6358775 130.1886232  52.7735569  60.7225021
 135.4199577  55.0225138  53.4110102 135.6021972  54.2046794  53.8737854
 136.2432563  55.2392830  52.9734992 135.7541743  53.9493323  50.6725150
 136.2829509  53.4385778  50.0595313 136.0169962  53.6335853  51.5370683
 134.5079976  45.7285256  65.7947969 133.8320613  45.6279385  66.4650344
 135.3307610  45.5724469  66.2583966 126.2558835  51.9657192  58.4160484
 126.8412272  51.2200880  58.5488388 126.0583674  52.2761149  59.2997148
 129.1097491  55.0008440  53.4322926 128.4407866  55.4854567  52.9486966
 128.9710360  55.2477660  54.3466305 120.8476490  44.5362792  57.1364927
 120.8860590  44.0026383  57.9302045 120.3416783  44.0097998  56.5175904
 133.2502759  57.0352183  60.0305585 133.8021067  57.1983805  60.7954670
 133.5908953  57.6256621  59.3585610 128.2267252  39.3827333  60.6327469
 128.2908579  40.2442164  60.2204867 128.1634373  38.7701335  59.8999828
 127.7019525  41.4550466  64.2800504 128.3291564  41.0727543  64.8938028
 126.8447444  41.2364667  64.6456196 124.4785068  43.2626895  50.2118858
 124.7738509  42.3537573  50.1585912 123.5773103  43.2414634  49.8899861
 136.3871146  54.9834159  57.0169267 136.2622286  54.1823899  56.5080212
 137.0450238  55.4780352  56.5283237 128.0079315  41.3382891  56.1946407
 127.2865900  41.9518859  56.0553880 128.7972570  41.8740656  56.1163053
 130.8105628  38.6737318  62.4687059 131.3340030  38.9199614  63.2313368
 130.5917961  39.5057353  62.0490196 126.2072909  40.9440992  50.3358184
 125.8785615  40.0638371  50.1533290 126.5612280  40.8888661  51.2234573
 135.4552488  52.5795895  54.8453169 135.3077451  51.6512602  55.0260739
 136.2805982  52.6015986  54.3610244 129.3214732  41.2313962  50.7033661
 129.6610805  41.7599883  49.9812270 129.7686853  41.5694368  51.4792228
 132.0158173  39.6151013  60.1536729 131.6754994  38.8158826  60.5557409
 131.3097180  39.9152724  59.5813563 132.6674645  36.7000325  58.6064052
 133.4900714  36.2260803  58.4842943 132.9112709  37.4790809  59.1062739
 131.3082880  39.7288584  48.9026954 132.0291242  40.1069836  48.3990671
 130.6848184  40.4477461  49.0061932 135.4514002  40.4333733  49.8385286
 135.6677617  41.3158371  49.5374115 134.9708070  40.0419946  49.1090928
 130.1913224  43.3919446  56.4156031 130.0457805  43.7059749  57.3080313
 129.7138427  44.0104346  55.8626930 132.0509607  40.3821994  56.4636921
 132.0371175  39.4863087  56.1269219 132.7682035  40.3892658  57.0975207
 133.9035737  40.8159334  58.5090048 133.6453515  41.7376405  58.5074378
 133.3720778  40.4189769  59.1990512 124.6658886  45.9324790  59.3543692
 124.1212354  46.7084598  59.4863967 125.5438236  46.2795595  59.1962814
 131.4546503  39.2636374  51.7324491 131.5762414  38.3353020  51.9315378
 131.1648545  39.2775060  50.8202806 134.3237693  36.9491285  54.8691211
 134.3459390  37.0130618  53.9143190 134.7405752  36.1095793  55.0631717
 125.4524908  45.0594687  62.2473849 124.7106644  45.2077322  62.8338479
 125.1317652  45.3202952  61.3840598 133.3968571  54.6010665  62.0454239
 133.7055697  54.3559812  62.9176939 134.1944053  54.8057303  61.5573109
 133.4189183  56.7548574  54.2759616 132.9794173  56.2624953  54.9692472
 134.1697300  56.2121542  54.0351691 125.8981522  52.9460115  54.2784244
 126.7239541  52.6463887  53.8982887 125.5475574  52.1767738  54.7274032
 130.8663055  52.2986584  56.3481917 130.2443064  51.6357289  56.0484145
 131.5367922  52.3247715  55.6655565 124.0990127  50.8646442  55.2373177
 123.2622035  50.4368616  55.0557179 124.0713772  51.0578885  56.1743968
 130.9387582  40.7768372  65.9414423 130.9875738  41.6530494  65.5592193
 131.4810096  40.2345765  65.3686067 130.4276562  50.8490507  49.8240378
 130.5764682  51.5325971  49.1707051 131.2343005  50.8295597  50.3389834
 133.1686871  41.5299744  62.6960782 132.2990180  41.8233310  62.4243370
 133.4046351  42.1140189  63.4168046 128.1829195  46.8755684  50.8301447
 127.9375237  45.9718014  51.0281657 128.3525109  46.8772835  49.8880925
 135.8725904  37.7479361  60.2126202 136.3907848  38.4840388  59.8872691
 135.5181037  38.0543354  61.0472961 127.4524842  42.6084042  48.3287608
 126.7594087  42.6828397  47.6727644 127.2076594  41.8444386  48.8509125
 136.1238499  34.1679643  55.7327099 136.4040252  33.5002832  56.3587525
 136.9089106  34.3608739  55.2201763 133.9271967  53.3438637  47.2952125
 133.3545934  53.9628824  46.8422597 134.5004761  53.8937999  47.8292047
 134.3118766  44.6799450  44.6368178 135.2577870  44.5505658  44.7056596
 133.9333011  43.9414112  45.1137606 134.1957458  48.7317196  66.0968835
 135.1160468  48.9095795  66.2908881 134.1607041  47.7873242  65.9448534
 132.4961683  42.6049426  44.5723063 131.5893138  42.3082539  44.6485777
 132.7737664  42.3079245  43.7057349 123.4139623  43.9255790  55.0222109
 123.0942408  43.0721098  54.7296483 122.8673051  44.1404368  55.7780077
 127.1919531  46.6418231  58.7391616 127.4105541  47.5735339  58.7579650
 127.6045305  46.2826205  59.5246420 134.1123749  37.1486316  50.7267304
 133.3024477  36.8033401  51.1022550 134.8008165  36.8393860  51.3154916
 136.0414297  36.2264363  52.3491601 136.5945335  36.6459816  53.0081624
 136.2784383  35.3000111  52.3914557 132.0647396  42.2151437  68.1294365
 131.9644123  43.1645794  68.0606456 131.8468938  41.8869676  67.2570435
 131.2660467  39.4636362  44.7135042 132.1279631  39.7891260  44.9730860
 131.4510812  38.6767858  44.2008108 123.2827883  47.5458701  56.9915231
 122.5891355  47.1312654  56.4785185 124.0300874  47.5879238  56.3948650
 131.9278666  45.6448575  66.9459426 131.4445748  46.4448936  67.1523315
 132.0139605  45.6556520  65.9926870 125.1964626  47.4776955  54.8681246
 125.1735314  47.5764642  53.9163129 125.5065262  48.3242106  55.1898412
 127.8552004  49.5353110  58.9827860 128.8095257  49.5037052  58.9157792
 127.6564527  49.0743734  59.7978086 128.4451386  48.1054226  61.5498658
 129.2644275  48.5998305  61.5733495 128.7188193  47.1886194  61.5216225
 126.2102232  55.0772730  55.9998058 126.0756700  54.3173131  55.4336056
 125.7934295  55.8013629  55.5326847 129.3671358  55.9742047  56.2116501
 129.2503742  56.9187479  56.1095191 128.5463805  55.6715608  56.6002300
 123.6986300  42.4392360  62.2490855 124.3445164  41.9291314  62.7378080
 123.4903451  43.1761042  62.8234280 136.2239692  49.5073208  67.7482996
 137.0930852  49.6813860  67.3869630 135.7446444  50.3267624  67.6258725
 132.2189910  36.7032405  48.0014751 132.2068580  37.6474245  48.1583022
 133.1113332  36.5202550  47.7074212 130.3925872  56.6270309  59.4272429
 131.2953119  56.6593919  59.7438924 130.1663242  55.6970759  59.4418765
 132.1479474  55.3801295  56.0882508 131.1975105  55.3803157  55.9746880
 132.4511961  54.6334030  55.5718542 136.0342030  33.2975181  52.2560688
 135.2674426  32.7433668  52.4017370 136.4452735  33.3697050  53.1174840
 128.0383791  39.5859977  66.3465869 128.9015253  39.2296782  66.5569194
 127.4649202  39.2473872  67.0341273 136.6129521  58.3591724  55.9036514
 135.8228575  58.6149253  55.4276624 137.1040769  59.1740062  56.0088554
 134.8967224  58.6122214  58.3351505 135.1475263  59.4969224  58.6009081
 135.4326773  58.4326816  57.5626596 135.5276266  62.7613206  52.0268981
 136.3651488  63.1710215  51.8102689 135.7054534  61.8212648  51.9969175
 135.5502437  60.1003922  52.6979715 135.3526837  59.5073282  51.9730781
 134.9949101  59.7956132  53.4155653 132.1102268  61.7854117  54.8647460
 132.7973308  61.4715847  54.2768475 131.9550397  62.6895481  54.5914711
 136.9136991  56.6744313  59.2932484 136.8295179  56.0669983  58.5582894
 136.0919697  57.1653332  59.2941980 131.6870245  59.8654710  57.1364927
 131.7254344  59.3318301  57.9302045 131.1810537  59.3389916  56.5175904
 135.3178822  58.5918812  50.2118858 135.6132263  57.6829491  50.1585912
 134.4166858  58.5706552  49.8899861 137.0466664  56.2732910  50.3358184
 136.7179370  55.3930289  50.1533290 137.4006034  56.2180579  51.2234573
 135.5052640  61.2616708  59.3543692 134.9606109  62.0376516  59.4863967
 136.3831990  61.6087512  59.1962814 136.2918662  60.3886604  62.2473849
 135.5500398  60.5369240  62.8338479 135.9711407  60.6494870  61.3840598
 136.7375276  68.2752033  54.2784244 137.5633296  67.9755805  53.8982887
 136.3869328  67.5059655  54.7274032 134.9383881  66.1938359  55.2373177
 134.1015789  65.7660534  55.0557179 134.9107527  66.3870803  56.1743968
 134.2533378  59.2547708  55.0222109 133.9336162  58.4013016  54.7296483
 133.7066806  59.4696286  55.7780077 134.1221638  62.8750619  56.9915231
 133.4285109  62.4604572  56.4785185 134.8694629  62.9171156  56.3948650
 136.0358380  62.8068873  54.8681246 136.0129068  62.9056560  53.9163129
 136.3459017  63.6534024  55.1898412 137.0495987  70.4064647  55.9998058
 136.9150455  69.6465048  55.4336056 136.6328049  71.1305547  55.5326847
 134.5380054  57.7684278  62.2490855 135.1838918  57.2583232  62.7378080
 134.3297206  58.5052959  62.8234280 120.1572075  17.9045248  38.6821252
 120.0796105  18.8553073  38.7609733 119.5533719  17.5591121  39.3396179
 118.8166042  15.4146769  46.0587813 119.3673467  15.2863833  45.2864807
 117.9777518  15.7141658  45.7082706 125.0306605  17.3361607  33.8382515
 124.3568304  17.6393304  34.4467473 125.4172427  18.1390687  33.4887972
 123.2297820  17.5041279  36.0529594 123.4049576  17.0329323  36.8675217
 122.5430608  18.1307046  36.2810855 117.7958905  20.6530642  42.8269454
 118.0355503  21.2849166  43.5048473 116.9528102  20.3018682  43.1134814
 122.3086767  16.4609765  45.2310958 122.2356939  17.2664736  45.7430263
 121.8664160  16.6601730  44.4058980 122.0976547  15.6981535  38.7413780
 121.3144069  16.2403215  38.8352004 122.7969292  16.2155514  39.1408021
 124.7685451  16.3596599  47.3869117 125.4813423  16.9944064  47.3145019
 124.2775479  16.4560465  46.5709119 115.4165082  13.6427397  45.1405791
 116.0018519  12.8971085  45.2733695 115.2189921  13.9531354  46.0242454
 118.2703737  16.6778645  40.1568233 117.6014113  17.1624772  39.6732273
 118.1316607  16.9247865  41.0711612 122.4109006  18.7122388  46.7550891
 122.9627314  18.8754010  47.5199977 122.7515199  19.3026826  46.0830916
 122.5574817  16.2780870  48.7699546 122.8661944  16.0330016  49.6422245
 123.3550299  16.4827508  48.2818416 122.5795429  18.4318779  41.0004922
 122.1400420  17.9395158  41.6937779 123.3303546  17.8891747  40.7596997
 115.0587768  14.6230320  41.0029550 115.8845788  14.3234092  40.6228194
 114.7081820  13.8537943  41.4519339 113.2596373  12.5416647  41.9618484
 112.4228282  12.1138821  41.7802485 113.2320019  12.7349090  42.8989275
 115.3708479  16.7542935  42.7243365 115.2362947  15.9943335  42.1581363
 114.9540541  17.4783834  42.2572154 118.5277605  17.6512252  42.9361807
 118.4109989  18.5957684  42.8340498 117.7070051  17.3485813  43.3247607
 119.5532119  18.3040513  46.1517736 120.4559366  18.3364124  46.4684231
 119.3269489  17.3740964  46.1664072 121.3085721  17.0571500  42.8127814
 120.3581352  17.0573362  42.6992187 121.6118207  16.3104235  42.2963849
 133.8528121  22.8459467  43.8135102 133.5146632  22.7300531  42.9255636
 134.7217889  22.4450632  43.7936108 129.7114937  24.6994943  39.8031992
 129.1479802  24.6084880  39.0348280 129.5967332  23.8794847  40.2834485
 134.3347904  23.9994318  49.7721307 134.3236545  23.6047117  48.9001811
 134.4968543  23.2660391  50.3655079 127.2579369  26.1946135  42.6416213
 128.0500660  25.8536959  42.2262512 127.4976019  26.3041110  43.5618366
 135.2914495  28.3665911  35.1146457 134.6402475  28.9519991  34.7280471
 136.0858858  28.8972106  35.1741495 129.2170122  25.4555048  35.5133592
 129.9900998  24.9084035  35.3746468 129.5695521  26.3199297  35.7248053
 131.0555165  26.7831430  48.7200491 130.7645031  27.6877061  48.6047157
 131.6912149  26.8247958  49.4344561 131.9811372  24.1608279  45.3101851
 132.5774944  23.9364301  44.5958814 132.0386343  23.4193024  45.9127299
 131.2732689  23.5175820  35.3476417 131.1568947  22.8420723  36.0157501
 131.3834949  23.0308194  34.5308570 133.6164230  22.9785967  39.0523106
 133.2522437  22.4516588  39.7636027 134.4731346  22.5884436  38.8789591
 136.0145050  26.4692846  45.7150285 135.7145773  27.3717884  45.6066092
 135.6696110  26.2025029  46.5671438 129.4657532  22.9206642  41.7486989
 128.5408028  22.7882856  41.9564681 129.7141945  23.7000862  42.2456932
 126.8266343  22.5639916  42.5830778 126.9558724  22.8174395  43.4970190
 126.1463794  23.1567624  42.2635433 130.9965830  33.2337166  38.6821252
 130.9189860  34.1844991  38.7609733 130.3927474  32.8883038  39.3396179
 133.4883060  20.4065031  51.3382619 132.7116394  20.9658951  51.3285484
 134.1273623  20.8921814  51.8597489 131.7429432  23.2150485  50.9000586
 132.4844116  23.7535529  50.6235410 131.0366417  23.8416773  51.0572138
 137.2184772  25.3579625  49.4972748 137.6268128  24.9162036  48.7527380
 136.4962033  24.7832253  49.7506941 133.5715842  20.2952232  46.8706305
 134.4177037  20.7191645  47.0140954 133.5114479  19.6385856  47.5644868
 137.5413586  25.9180816  43.2525037 136.9122449  26.0826530  42.5501105
 137.1539248  26.3322425  44.0236001 133.0941548  25.6555224  40.5175122
 133.5579894  25.9342927  39.7279744 132.8298346  24.7538668  40.3348212
 129.9865629  25.2026705  43.4554885 130.5566986  25.6313974  42.8172370
 130.5773741  24.9209290  44.1539071 132.0310434  21.7778376  37.3264687
 132.7334478  22.2299420  37.7938613 131.6991063  21.1362195  37.9544580
 130.4790796  20.3690133  51.7015896 129.8489456  21.0506414  51.9351293
 130.3726884  20.2573214  50.7569035 125.7735768  20.0361929  42.6281821
 124.9834822  20.2919457  42.1521931 126.2647016  20.8510267  42.7333861
 127.7250514  20.4006508  39.5865297 126.9281677  20.5125202  40.1048793
 127.4976106  20.7393160  38.7206188 133.5556181  26.9251211  47.5347812
 133.6200614  27.3871619  48.3705984 132.8467105  26.2948576  47.6630122
 124.0573471  20.2892419  45.0596811 124.3081510  21.1739429  45.3254387
 124.5933020  20.1097021  44.2871903 133.2704199  28.5919319  37.4026792
 133.1349874  29.4370855  37.8311640 133.8114011  28.7938597  36.6392726
 126.7233596  26.1094757  37.9754717 127.2358117  26.9038007  38.1260282
 127.3756309  25.4121047  37.9088319 128.5328481  29.2260513  40.0577470
 128.7095109  30.1478478  39.8698454 129.3285314  28.9118932  40.4871850
 127.8180837  21.2725145  49.9339634 127.7034353  20.3710402  50.2346733
 126.9625355  21.5188842  49.5824450 134.8972675  29.2142885  51.5327134
 134.4536529  28.4279264  51.2148039 135.5589889  29.4022036  50.8671025
 129.6559796  30.7438687  46.0587813 130.2067222  30.6155750  45.2864807
 128.8171272  31.0433576  45.7082706 133.4526967  27.0089815  50.4032044
 133.9855304  26.2478103  50.1731352 132.9241049  26.7163467  51.1456198
 124.6882513  24.4383411  38.7514288 125.5257735  24.8480420  38.5347996
 124.8660781  23.4982853  38.7214482 134.8179680  26.1375807  37.9150856
 134.2901042  25.4028567  37.6024093 134.3167183  26.9150484  37.6690824
 135.8700359  32.6653525  33.8382515 135.1962058  32.9685221  34.4467473
 136.2566181  33.4682605  33.4887972 135.0858816  20.1618656  43.3280184
 134.1681377  20.3833603  43.1701873 135.5018959  20.2364966  42.4691892
 124.7108684  21.7774127  39.4225021 124.5133084  21.1843487  38.6976088
 124.1555348  21.4726337  40.1400960 132.6905408  21.6697233  41.5419614
 132.7454018  20.7171069  41.4662091 131.8796610  21.8256672  42.0260913
 130.6297768  20.2874293  39.3009993 129.8165633  20.5868463  39.7075185
 131.1256762  19.8929982  40.0184475 132.7806346  30.2832050  41.2344258
 132.7382524  30.5092896  40.3052790 133.6969044  30.0495424  41.3830059
 136.2271979  20.7516117  48.1324887 136.5821367  20.9787590  48.9919353
 136.8744111  21.0834494  47.5102142 130.8972146  27.1595079  41.0306221
 131.6912745  26.6645399  40.8288796 130.1863839  26.6312942  40.6673926
 135.7166991  29.5413174  45.3818588 135.7704013  30.1104111  46.1496304
 134.8481772  29.7115059  45.0172625 127.2054910  21.3038160  37.1065973
 126.2752498  21.2422616  37.3235935 127.3012382  20.7814113  36.3102615
 127.1240459  17.8292973  39.6944215 127.3847276  18.7438306  39.5853375
 127.9457631  17.3617416  39.8440828 128.5965384  19.2430730  46.8643040
 129.2688438  19.0348093  46.2155688 127.7695171  19.0452816  46.4248272
 134.6755091  23.7073436  46.9405520 135.6047151  23.8584596  46.7674487
 134.2546121  23.7957457  46.0854167 133.4743422  27.7324101  44.7104058
 133.3354508  27.3642885  45.5829996 132.6858019  28.2471740  44.5388016
 134.0691574  32.8333197  36.0529594 134.2443330  32.3621240  36.8675217
 133.3824362  33.4598963  36.2810855 135.0248638  27.1105703  42.0992896
 134.6898470  27.0706473  42.9950545 134.5252583  26.4450419  41.6263306
 128.9992882  22.5173333  47.6245477 128.8612679  21.7853572  48.2257016
 129.9097805  22.4282233  47.3429664 131.6275182  22.2293293  47.1129156
 132.3374801  21.5886485  47.0715775 131.5844490  22.4806188  48.0355337
 130.3404116  19.2158511  48.9324796 129.8041473  18.7649249  49.5846392
 129.7520825  19.3504419  48.1895260 128.6352660  35.9822560  42.8269454
 128.8749258  36.6141084  43.5048473 127.7921856  35.6310600  43.1134814
 121.2708515  23.4624322  41.5892767 121.9579555  23.1486052  41.0013782
 121.1156644  24.3665686  41.3160018 126.0743237  18.3514518  46.0177790
 125.9901426  17.7440188  45.2828200 125.2525944  18.8423537  46.0187287
 133.1480522  31.7901682  45.2310958 133.0750693  32.5956654  45.7430263
 132.7057915  31.9893648  44.4058980 132.9370301  31.0273452  38.7413780
 132.1537823  31.5695133  38.8352004 133.6363046  31.5447432  39.1408021
 135.6079205  31.6888516  47.3869117 136.3207177  32.3235981  47.3145019
 135.1169234  31.7852382  46.5709119 137.3296732  25.5939769  38.9586409
 136.3953011  25.7141232  38.7891113 137.5073400  24.6912236  38.6946419
 130.6591119  29.4382960  48.2074688 131.3600578  30.0719443  48.3604082
 130.1886234  29.7797691  47.4470327 135.4199578  32.0287260  40.1355409
 135.6021973  31.2108916  40.5983161 136.2432564  32.2454953  39.6980299
 135.7541744  30.9555446  37.3970457 136.2829510  30.4447900  36.7840619
 136.0169964  30.6397976  38.2615990 134.5079978  22.7347378  52.5193275
 133.8320615  22.6341508  53.1895651 135.3307611  22.5786592  52.9829273
 126.2558837  28.9719315  45.1405791 126.8412273  28.2263003  45.2733695
 126.0583675  29.2823272  46.0242454 129.1097492  32.0070562  40.1568233
 128.4407867  32.4916690  39.6732273 128.9710362  32.2539783  41.0711612
 120.8476491  21.5424915  43.8610234 120.8860591  21.0088506  44.6547352
 120.3416784  21.0160121  43.2421211 133.2502760  34.0414306  46.7550891
 133.8021068  34.2045927  47.5199977 133.5908954  34.6318744  46.0830916
 127.7019526  18.4612588  51.0045810 128.3291565  18.0789665  51.6183335
 126.8447445  18.2426790  51.3701503 124.4785069  20.2689017  36.9364165
 124.7738510  19.3599696  36.8831219 123.5773105  20.2476757  36.6145167
 136.3871148  31.9896281  43.7414574 136.2622287  31.1886021  43.2325519
 137.0450239  32.4842475  43.2528543 128.0079316  18.3445014  42.9191714
 127.2865902  18.9580982  42.7799187 128.7972572  18.8802779  42.8408360
 126.2072911  17.9503115  37.0603490 125.8785617  17.0700494  36.8778596
 126.5612281  17.8950784  37.9479880 135.4552489  29.5858018  41.5698476
 135.3077452  28.6574725  41.7506046 136.2805983  29.6078108  41.0855551
 129.3214734  18.2376085  37.4278968 129.6610806  18.7662006  36.7057576
 129.7686854  18.5756491  38.2037535 130.1913225  20.3981568  43.1401338
 130.0457806  20.7121872  44.0325619 129.7138429  21.0166469  42.5872236
 124.6658887  22.9386913  46.0788999 124.1212355  23.7146721  46.2109273
 125.5438237  23.2857717  45.9208120 125.4524909  22.0656809  48.9719156
 124.7106645  22.2139445  49.5583786 125.1317653  22.3265075  48.1085905
 133.3968572  31.6072787  48.7699546 133.7055698  31.3621934  49.6422245
 134.1944054  31.8119426  48.2818416 133.4189184  33.7610697  41.0004922
 132.9794174  33.2687076  41.6937779 134.1697301  33.2183665  40.7596997
 125.8981523  29.9522238  41.0029550 126.7239543  29.6526010  40.6228194
 125.5475575  29.1829860  41.4519339 130.8663056  29.3048706  43.0727224
 130.2443065  28.6419411  42.7729452 131.5367923  29.3309838  42.3900872
 124.0990128  27.8708564  41.9618484 123.2622036  27.4430739  41.7802485
 124.0713773  28.0641008  42.8989275 130.4276563  27.8552629  36.5485684
 130.5764683  28.5388094  35.8952357 131.2343006  27.8357720  37.0635140
 128.1829196  23.8817807  37.5546753 127.9375238  22.9780137  37.7526964
 128.3525110  23.8834958  36.6126231 127.4524843  19.6146165  35.0532915
 126.7594088  19.6890520  34.3972951 127.2076595  18.8506508  35.5754432
 133.9271968  30.3500760  34.0197432 133.3545935  30.9690947  33.5667904
 134.5004762  30.9000122  34.5537354 134.1957459  25.7379319  52.8214141
 135.1160469  25.9157918  53.0154188 134.1607042  24.7935364  52.6693841
 123.4139624  20.9317912  41.7467416 123.0942409  20.0783221  41.4541790
 122.8673053  21.1466491  42.5025383 127.1919532  23.6480353  45.4636923
 127.4105542  24.5797461  45.4824956 127.6045306  23.2888328  46.2491726
 132.0647397  19.2213559  54.8539671 131.9644124  20.1707916  54.7851763
 131.8468939  18.8931798  53.9815742 123.2827884  24.5520824  43.7160538
 122.5891356  24.1374777  43.2030492 124.0300875  24.5941360  43.1193957
 131.9278667  22.6510698  53.6704733 131.4445749  23.4511058  53.8768622
 132.0139606  22.6618643  52.7172177 125.1964627  24.4839078  41.5926552
 125.1735315  24.5826765  40.6408436 125.5065263  25.3304229  41.9143719
 127.8552005  26.5415233  45.7073167 128.8095258  26.5099175  45.6403098
 127.6564528  26.0805856  46.5223393 128.4451387  25.1116349  48.2743965
 129.2644276  25.6060427  48.2978802 128.7188195  24.1948317  48.2461532
 126.2102234  32.0834852  42.7243365 126.0756702  31.3235253  42.1581363
 125.7934296  32.8075752  42.2572154 129.3671360  32.9804169  42.9361807
 129.2503744  33.9249602  42.8340498 128.5463806  32.6777731  43.3247607
 123.6986301  19.4454483  48.9736162 124.3445165  18.9353437  49.4623387
 123.4903452  20.1823164  49.5479587 136.2239693  26.5135330  54.4728302
 137.0930853  26.6875982  54.1114937 135.7446445  27.3329747  54.3504032
 130.3925874  33.6332431  46.1517736 131.2953120  33.6656041  46.4684231
 130.1663244  32.7032882  46.1664072 132.1479476  32.3863418  42.8127814
 131.1975107  32.3865279  42.6992187 132.4511962  31.6396152  42.2963849
 136.6129523  35.3653847  42.6281821 135.8228577  35.6211375  42.1521931
 137.1040770  36.1802184  42.7333861 134.8967226  35.6184337  45.0596811
 135.1475264  36.5031347  45.3254387 135.4326774  35.4388939  44.2871903
 135.5276268  39.7675329  38.7514288 136.3651490  40.1772337  38.5347996
 135.7054535  38.8274771  38.7214482 135.5502439  37.1066044  39.4225021
 135.3526838  36.5135405  38.6976088 134.9949103  36.8018254  40.1400960
 132.1102270  38.7916239  41.5892767 132.7973310  38.4777969  41.0013782
 131.9550398  39.6957604  41.3160018 136.9136992  33.6806436  46.0177790
 136.8295181  33.0732106  45.2828200 136.0919698  34.1715454  46.0187287
 131.6870246  36.8716833  43.8610234 131.7254345  36.3380423  44.6547352
 131.1810539  36.3452038  43.2421211 135.3178823  35.5980935  36.9364165
 135.6132265  34.6891613  36.8831219 134.4166859  35.5768674  36.6145167
 137.0466665  33.2795033  37.0603490 136.7179371  32.3992412  36.8778596
 137.4006036  33.2242701  37.9479880 135.5052642  38.2678831  46.0788999
 134.9606110  39.0438639  46.2109273 136.3831992  38.6149635  45.9208120
 136.2918664  37.3948727  48.9719156 135.5500400  37.5431362  49.5583786
 135.9711408  37.6556992  48.1085905 136.7375277  45.2814156  41.0029550
 137.5633297  44.9817927  40.6228194 136.3869329  44.5121778  41.4519339
 134.9383882  43.2000482  41.9618484 134.1015791  42.7722656  41.7802485
 134.9107528  43.3932925  42.8989275 134.2533379  36.2609830  41.7467416
 133.9336163  35.4075138  41.4541790 133.7066807  36.4758408  42.5025383
 134.1221639  39.8812742  43.7160538 133.4285110  39.4666694  43.2030492
 134.8694630  39.9233278  43.1193957 136.0358381  39.8130995  41.5926552
 136.0129070  39.9118683  40.6408436 136.3459018  40.6596146  41.9143719
 137.0495988  47.4126770  42.7243365 136.9150456  46.6527171  42.1581363
 136.6328050  48.1367670  42.2572154 134.5380056  34.7746400  48.9736162
 135.1838919  34.2645354  49.4623387 134.3297207  35.5115082  49.5479587
  16.0583187  66.6895711 128.0429308  15.4071167  67.2749791 127.6563322
  16.8527550  67.2201906 128.1024345  22.3249911  63.1820647 129.3034145
  21.5479354  62.8431806 128.8589307  23.0041392  63.1873270 128.6289110
  13.7300972  62.2785818 123.8468679  12.8228034  62.0475071 124.0459828
  14.2272004  61.4823437 124.0342661  16.6369051  70.9883325 126.7665366
  15.9630750  71.2915022 127.3750323  17.0234873  71.7912405 126.4170823
  14.6065293  63.9207156 125.7080748  14.1684723  63.2043015 125.2486385
  15.3475734  64.1483271 125.1465839  14.8360266  71.1562998 128.9812445
  15.0112022  70.6851041 129.7958067  14.1493054  71.7828764 129.2093705
  18.7276521  62.7791538 125.3012806  18.1105692  62.0538366 125.2045858
  18.2593009  63.5400898 124.9579880  19.5514206  66.1030710 129.4205445
  19.8274050  65.9887305 130.3299319  18.6818705  65.7048195 129.3817618
  16.5210436  69.2785246 130.3253307  17.0498202  68.7677701 129.7123470
  16.7838655  68.9627776 131.1898841  19.6150619  69.2502044 130.9408290
  19.7887497  68.6848467 130.1882143  20.1079511  70.0502939 130.7587780
  20.6025792  68.5668809 128.0405189  21.2976696  69.1875501 128.2592503
  20.9448942  67.7164160 128.3157567  22.5017215  66.0168514 129.5692520
  23.0268539  66.3555787 128.8441840  22.4139567  65.0815529 129.3855654
  14.6940660  68.6730560 126.9480282  14.1214627  69.2920747 126.4950754
  15.2673454  69.2229922 127.4820204  17.9137920  68.9567710 128.0788865
  18.8468593  68.8913272 128.2821740  17.8261133  69.7923977 127.6203397
  20.5425937  68.2733581 125.0392812  20.4639568  67.9393444 125.9328570
  21.3635603  68.7655349 125.0384285  15.0787459  60.0091373 124.2896335
  16.0246563  59.8797581 124.3584753  14.7001704  59.2706035 124.7665763
  18.1129888  65.5901576 124.6602791  18.8165739  65.7951579 125.2760446
  17.3892537  66.1578338 124.9251874  20.0216586  66.0284105 126.7101251
  20.8562190  65.5965304 126.5278725  19.8600929  65.8566119 127.6378145
  19.6762478  62.5316219 128.0757590  19.6211282  62.3660490 127.1346034
  19.0508533  63.2392252 128.2319780  28.6500861  76.5453756 136.8056427
  29.2879271  76.4260504 136.1019767  28.5321704  77.4934600 136.8644379
  25.4590567  76.4981185 136.7417952  25.1209079  76.3822249 135.8538487
  26.3280335  76.0972350 136.7218958  21.3177383  78.3516661 132.7314843
  20.7542248  78.2606598 131.9631131  21.2029778  77.5316565 133.2117335
  26.8976942  82.0187629 128.0429308  26.2464921  82.6041709 127.6563322
  27.6921304  82.5493824 128.1024345  20.8232569  79.1076766 128.4416442
  21.5963445  78.5605753 128.3029318  21.1757968  79.9721015 128.6530904
  23.5873818  77.8129997 138.2384701  24.1837390  77.5886019 137.5241664
  23.6448790  77.0714742 138.8410149  23.1598847  75.2669432 126.0734892
  23.4124367  74.7450953 125.3118355  22.2223406  75.1035577 126.1761576
  28.2042129  74.2705210 133.8809635  28.9905219  73.8524634 133.5300052
  28.4680834  75.1751303 134.0491284  28.3752207  79.7078061 128.5798292
  27.7398040  79.7812687 129.2919197  28.0449613  80.2971659 127.9017371
  33.6050557  74.2080444 134.7842614  34.3375729  73.6379660 135.0180443
  32.8489912  73.8202044 135.2249119  22.8795135  77.1697538 128.2759267
  22.7631393  76.4942441 128.9440351  22.9897395  76.6829912 127.4591420
  25.2226676  76.6307685 131.9805956  24.8584884  76.1038306 132.6918878
  26.0793792  76.2406154 131.8072442  24.8632163  71.6597585 126.9767305
  25.0306566  72.5277821 127.3437776  24.6729332  71.8224866 126.0528594
  27.6207496  80.1214564 138.6433135  27.3208220  81.0239602 138.5348942
  27.2758556  79.8546747 139.4954288  21.0719978  76.5728360 134.6769840
  20.1470474  76.4404575 134.8847531  21.3204391  77.3522580 135.1739782
  31.0204640  72.6397104 136.3230573  30.1121518  72.5712512 136.0289333
  30.9692236  73.1169049 137.1512398  24.8421384  74.1155242 127.9613972
  24.7221009  74.5612293 128.7999452  24.1473973  74.4640560 127.4027510
  22.6028276  86.8858884 131.6104103  22.5252306  87.8366709 131.6892583
  21.9989920  86.5404756 132.2679029  32.8866287  70.8413542 138.1008446
  32.2440667  71.1346075 137.4548241  32.3821215  70.7266463 138.9061643
  30.5406450  74.5876715 128.7894306  31.4524306  74.8204102 128.6142003
  30.0316097  75.1713760 128.2269384  29.1476033  79.5702534 136.1807887
  28.5184895  79.7348248 135.4783955  28.7601695  79.9844143 136.9518851
  33.0265265  80.5056972 133.5352251  32.3416303  80.8855873 132.9849284
  33.1109114  81.1152298 134.2684199  30.2816196  78.1516931 140.1347594
  30.4933091  78.7948691 139.4581976  30.2345944  77.3179247 139.6669525
  24.7003994  79.3076942 133.4457972  25.1642340  79.5864645 132.6562595
  24.4360793  78.4060387 133.2631063  21.5928076  78.8548423 136.3837736
  22.1629433  79.2835692 135.7455220  22.1836187  78.5731008 137.0821921
  23.6372881  75.4300094 130.2547537  24.3396924  75.8821138 130.7221464
  23.3053509  74.7883913 130.8827431  31.3962024  81.0288886 138.3069952
  32.2179468  80.6269073 138.0252633  31.3924427  80.9257120 139.2586068
  19.3312960  74.0528226 132.5148148  18.5344123  74.1646920 133.0331643
  19.1038552  74.3914878 131.6489038  39.4868017  77.3727635 134.6554923
  38.7331725  76.8035033 134.4998928  39.6215558  77.3390299 135.6025558
  24.8766645  82.2441037 130.3309643  24.7412320  83.0892573 130.7594490
  25.4176458  82.4460315 129.5675576  18.3296043  79.7616475 130.9037568
  18.8420563  80.5559725 131.0543132  18.9818755  79.0642765 130.8371169
  16.2944959  78.0905129 131.6797138  17.1320181  78.5002138 131.4630846
  16.4723227  77.1504571 131.6497332  28.1909391  75.7580210 127.3680971
  27.6756015  76.5284815 127.6069359  27.9186700  75.0845346 127.9914033
  25.7756502  70.6029911 132.4266210  24.9198099  70.2136761 132.2471848
  26.1883454  70.6821872 131.5665995  33.1643666  78.5112565 129.3034145
  32.3873108  78.1723724 128.8589307  33.8435147  78.5165188 128.6289110
  27.9795695  73.6307302 129.1940752  27.6745830  73.9453451 130.0450896
  28.9326137  73.7088722 129.2368085  26.4242126  79.7897525 130.8433706
  25.8963488  79.0550285 130.5306944  25.9229629  80.5672202 130.5973675
  31.4034972  77.9846546 135.9600753  30.7458647  78.6745807 136.0480881
  32.2075372  78.3742978 136.3034739  21.1560854  70.4517192 133.2040318
  21.7304606  70.2292373 132.4713511  21.7431837  70.5205886 133.9568919
  30.2140431  76.3390919 134.0104694  30.7272313  76.9720910 134.5126404
  30.8641655  75.7392114 133.6448054  21.4830441  72.4821653 127.2236203
  20.6467753  72.8196339 127.5445478  21.3435211  72.3470632 126.2863340
  23.4583522  67.3258441 131.9315387  22.8047934  67.0107458 131.3072002
  23.4163996  66.7034181 132.6575210  24.5694727  77.6077736 123.8468679
  23.6621788  77.3766989 124.0459828  25.0665759  76.8115355 124.0342661
  27.4762806  86.3175243 126.7665366  26.8024504  86.6206940 127.3750323
  27.8628627  87.1204323 126.4170823  26.6921262  73.8140374 136.2563035
  25.7743824  74.0355321 136.0984723  27.1081406  73.8886685 135.3974742
  27.4756310  75.2131790 131.3865715  28.2228129  75.7253187 131.0772837
  27.7447899  74.8915842 132.2470109  25.7482960  77.7090330 128.3692669
  24.8394179  77.4249363 128.4665139  25.7778044  78.1289409 127.5095976
  30.9802227  81.3196920 132.1383837  30.5264555  80.4787830 132.1949028
  30.3496194  81.9558318 132.4758617  29.9235147  72.2488906 133.3684504
  29.1857904  71.7366292 133.6994747  30.1761921  71.8089288 132.5567781
  29.4235167  83.1573417 133.0733655  29.7158141  83.7178474 132.3546021
  29.9333787  83.4501978 133.8286814  30.0246774  65.0265158 133.9626274
  30.3305651  64.1662521 133.6752189  30.7499379  65.6182778 133.7625268
  16.3171130  75.4295845 132.3507872  16.1195530  74.8365205 131.6258938
  15.7617794  75.1248055 133.0683810  24.2967854  75.3218951 134.4702465
  24.3516464  74.3692787 134.3944941  23.4859056  75.4778390 134.9543763
  25.4459048  79.2499074 125.7080748  25.0078478  78.5334933 125.2486385
  26.1869489  79.4775189 125.1465839  22.2360214  73.9396011 132.2292844
  21.4228080  74.2390181 132.6358036  22.7319208  73.5451700 132.9467326
  24.3868792  83.9353768 134.1627108  24.3444971  84.1614614 133.2335640
  25.3031491  83.7017142 134.3112910  33.5632163  77.5256271 131.7657067
  33.4250061  77.7157867 130.8378256  33.2068381  78.2875654 132.2225118
  33.5901542  79.5932798 136.7768338  34.0238049  79.5008087 137.6251392
  34.3033123  79.5690299 136.1388354  22.5034593  80.8116797 133.9589071
  23.2975191  80.3167117 133.7571646  21.7926285  80.2834660 133.5956777
  18.8117356  74.9559879 130.0348824  17.8814944  74.8944334 130.2518786
  18.9074828  74.4335831 129.2385465  18.7302905  71.4814691 132.6227065
  18.9909723  72.3960025 132.5136226  19.5520078  71.0139134 132.7723678
  34.4517092  79.6356499 139.3101224  34.6452982  80.5402309 139.5560498
  34.3517710  79.1763918 140.1439809  26.2817537  77.3595154 139.8688371
  27.2109597  77.5106314 139.6957338  25.8608567  77.4479175 139.0137017
  25.6754021  86.4854915 128.9812445  25.8505776  86.0142958 129.7958067
  24.9886809  87.1120681 129.2093705  26.6311084  80.7627421 135.0275746
  26.2960916  80.7228191 135.9233396  26.1315030  80.0972137 134.5546156
  29.5670275  78.1083456 125.3012806  28.9499446  77.3830284 125.2045858
  29.0986764  78.8692816 124.9579880  21.3568821  72.3268880 124.4234110
  20.4798288  72.2057681 124.0596357  21.8326574  71.5354958 124.1712999
  31.2241814  80.7821948 141.1932566  30.3368593  80.4447870 141.3158965
  31.7940365  80.0504979 141.4301331  24.5432747  84.6795170 131.6696630
  23.7600269  85.2216851 131.7634855  25.2425493  85.1969150 132.0690872
  27.8529398  70.4889800 134.3130836  28.3498097  69.7359762 133.9931906
  27.0816379  70.5254117 133.7474045  35.7059155  76.1930165 135.9549127
  35.6949031  77.0754881 135.5843060  34.8376534  75.8401716 135.7603664
  28.9359178  79.2461487 131.8869259  28.0015457  79.3662950 131.7173964
  29.1135847  78.3433954 131.6229269  24.4364366  72.6307183 134.0402520
  24.0662154  72.0778223 134.7283426  24.9323459  72.0265316 133.4877520
  32.3231730  75.0878806 132.4219293  32.7892182  75.9206798 132.3479596
  32.7739230  74.6223788 133.1264552  30.3907961  81.4322628 129.4205445
  30.6667805  81.3179222 130.3299319  29.5212459  81.0340113 129.3817618
  30.0654851  75.6449285 138.9610089  29.4126301  75.8925193 138.3062541
  30.4435231  74.8313424 138.6272566  27.0262025  85.6808979 133.0638259
  27.2084419  84.8630634 133.5266011  27.8495011  85.8976671 132.6263149
  27.3604190  84.6077164 130.3253307  27.8891957  84.0969618 129.7123470
  27.6232410  84.2919694 131.1898841  16.0847515  73.9210735 129.8647016
  16.3800956  73.0121414 129.8114069  15.1835551  73.8998475 129.5428018
  27.9933594  85.6417999 136.6697424  27.8684733  84.8407739 136.1608369
  28.6512685  86.1364193 136.1811394  30.0568502  83.4427019 138.2976974
  29.1098838  83.3232371 138.2255301  30.4051276  82.5549518 138.3803235
  17.8135357  71.6024833 129.9886341  17.4848063  70.7222212 129.8061447
  18.1674728  71.5472502 130.8762730  27.0614936  83.2379736 134.4981326
  26.9139898  82.3096443 134.6788896  27.8868429  83.2599826 134.0138401
  20.9277180  71.8897803 130.3561818  21.2673252  72.4183724 129.6340427
  21.3749300  72.2278209 131.1320385  30.6649058  84.0608294 135.5846199
  31.5895605  83.8551156 135.4470650  30.4964361  83.8124696 136.4935541
  22.9145327  70.3872424 128.5555111  23.6353690  70.7653677 128.0518828
  22.2910631  71.1061301 128.6590089  27.0576450  71.0917573 129.4913444
  27.2740064  71.9742211 129.1902272  26.5770517  70.7003787 128.7619085
  30.4544374  84.5793962 130.9408290  30.6281251  84.0140384 130.1882143
  30.9473265  85.3794857 130.7587780  23.0608950  69.9220215 131.3852648
  23.1824861  68.9936861 131.5843535  22.7710993  69.9358901 130.4730963
  36.3083765  77.3430385 132.5598590  36.7514911  76.5937710 132.1617713
  35.4310275  77.3340521 132.1772322  31.4419546  83.8960726 128.0405189
  32.1370451  84.5167419 128.2592503  31.7842696  83.0456078 128.3157567
  33.3410969  81.3460432 129.5692520  33.8662293  81.6847705 128.8441840
  33.2533322  80.4107447 129.3855654  33.1502750  78.8285802 142.1876446
  33.2000755  78.6635809 143.1291969  33.0416674  77.9613061 141.7974327
  22.0339009  81.5074348 129.4768535  22.1827130  82.1909812 128.8235208
  22.8405453  81.4879438 129.9917991  34.6520947  81.2482743 142.4318468
  34.3605756  81.6112724 143.2681929  34.0393079  80.5349752 142.2531800
  35.8516630  78.8135623 134.9521038  36.6863521  79.2525427 135.1158598
  35.9875758  78.3374276 134.1329284  32.9008136  76.3715358 140.8998526
  33.3762257  76.5643004 140.0917377  31.9773701  76.4274544 140.6541909
  19.7891642  77.5339525 130.4829604  19.5437684  76.6301855 130.6809814
  19.9587557  77.5356676 129.5409082  19.0587290  73.2667883 127.9815765
  18.3656535  73.3412238 127.3255801  18.8139042  72.5028226 128.5037282
  25.5334415  84.0022478 126.9480282  24.9608382  84.6212665 126.4950754
  26.1067208  84.5521840 127.4820204  31.6009805  73.2481118 139.1326831
  32.5527227  73.3479216 139.1539055  31.4313255  72.4559387 139.6424916
  28.7531674  84.2859628 128.0788865  29.6862348  84.2205190 128.2821740
  28.6654887  85.1215895 127.6203397  31.3819691  83.6025498 125.0392812
  31.3033323  83.2685362 125.9328570  32.2029358  84.0947266 125.0384285
  34.0797882  76.4687238 138.2469131  34.0474202  75.5303238 138.4328815
  34.6898506  76.5471274 137.5134956  25.9181213  75.3383291 124.2896335
  26.8640318  75.2089499 124.3584753  25.5395458  74.5997953 124.7665763
  34.2292371  73.2598281 138.2927414  33.7131419  72.4756738 138.1057343
  35.1132319  72.9316998 138.4573933  31.8903098  67.0039297 134.2523227
  31.6927919  66.6954385 135.1366559  32.5002803  67.7300936 134.3821157
  39.8974432  77.5303245 137.3875168  40.6277821  77.2688533 137.9482871
  39.2881378  76.7931967 137.4277236  37.9789729  75.6711107 137.9849619
  37.2522893  75.5367072 137.3766110  37.5637016  75.9787936 138.7906337
  24.1024130  73.2633267 124.2251220  23.1955586  72.9666380 124.3013934
  24.3800111  72.9663085 123.3585506  25.7186196  67.8070157 130.3795461
  24.9086924  67.4617242 130.7550707  26.4070613  67.4977701 130.9683073
  27.6476744  66.8848204 132.0019758  28.2007783  67.3043657 132.6609781
  27.8846831  65.9583952 132.0442714  22.8722915  70.1220202 124.3663199
  23.7342079  70.4475101 124.6259017  23.0573259  69.3351698 123.8536265
  31.0255551  68.9948729 131.5098422  30.4454221  69.6533533 131.1276475
  30.7591484  68.1726073 131.0985840  29.4759118  68.3953787 133.7119743
  29.9758896  68.5070321 132.9034061  30.1194726  68.0914839 134.3520551
  29.8080429  71.1548819 130.5654771  28.9206284  71.4398470 130.3474965
  30.2234419  70.9942583 129.7182047  33.1594966  71.1795340 134.2809110
  33.9355356  71.6691793 134.5533727  32.4343100  71.6053394 134.7380979
  35.5967524  71.8922959 135.3383050  36.1912015  71.6518695 134.6276359
  35.6694108  71.1730090 135.9656587  28.9523643  80.9193494 124.6602791
  29.6559493  81.1243496 125.2760446  28.2286292  81.4870256 124.9251874
  29.7821453  76.6703355 130.7805061  29.7256655  77.1271907 129.9412693
  30.3349796  75.9094040 130.6027903  33.5926259  72.4593087 131.6055180
  33.3363193  72.0589723 132.4363388  32.9679127  73.1736881 131.4805319
  37.9038597  75.1989160 134.1126472  37.3438155  75.2682350 134.8858034
  37.2982100  75.0230145 133.3925968  30.8610340  81.3576023 126.7101251
  31.6955944  80.9257222 126.5278725  30.6994683  81.1858037 127.6378145
  30.5156233  77.8608136 128.0757590  30.4605036  77.6952408 127.1346034
  29.8902288  78.5684169 128.2319780  23.8252358  67.3616245 127.6542908
  23.8131028  68.3058085 127.8111179  24.7175780  67.1786391 127.3602369
  27.6404477  63.9559022 131.9088845  26.8736873  63.4017509 132.0545527
  28.0515182  64.0280891 132.7702997  39.4894615  91.8745674 136.8056427
  40.1273025  91.7552422 136.1019767  39.3715458  92.8226518 136.8644379
  36.2984322  91.8273102 136.7417952  35.9602833  91.7114167 135.8538487
  37.1674090  91.4264267 136.7218958  32.1571137  93.6808579 132.7314843
  31.5936003  93.5898516 131.9631131  32.0423532  92.8608483 133.2117335
  37.7370696  97.3479546 128.0429308  37.0858676  97.9333627 127.6563322
  38.5315059  97.8785741 128.1024345  31.6626323  94.4368684 128.4416442
  32.4357199  93.8897671 128.3029318  32.0151722  95.3012933 128.6530904
  34.4267573  93.1421914 138.2384701  35.0231145  92.9177937 137.5241664
  34.4842544  92.4006660 138.8410149  33.9992601  90.5961350 126.0734892
  34.2518122  90.0742871 125.3118355  33.0617160  90.4327495 126.1761576
  39.0435884  89.5997128 133.8809635  39.8298973  89.1816551 133.5300052
  39.3074588  90.5043220 134.0491284  39.2145961  95.0369978 128.5798292
  38.5791794  95.1104605 129.2919197  38.8843368  95.6263577 127.9017371
  44.4444311  89.5372361 134.7842614  45.1769483  88.9671578 135.0180443
  43.6883667  89.1493962 135.2249119  33.7188890  92.4989456 128.2759267
  33.6025148  91.8234359 128.9440351  33.8291150  92.0121830 127.4591420
  36.0620431  91.9599603 131.9805956  35.6978638  91.4330224 132.6918878
  36.9187547  91.5698072 131.8072442  41.9669731  83.2493935 139.2437222
  41.6353056  84.1189346 139.0198437  41.3715345  82.9330219 139.9231253
  35.7025918  86.9889502 126.9767305  35.8700320  87.8569739 127.3437776
  35.5123087  87.1516784 126.0528594  38.4601251  95.4506481 138.6433135
  38.1601974  96.3531520 138.5348942  38.1152310  95.1838665 139.4954288
  31.9113732  91.9020278 134.6769840  30.9864229  91.7696492 134.8847531
  32.1598146  92.6814497 135.1739782  41.8598395  87.9689022 136.3230573
  40.9515272  87.9004430 136.0289333  41.8085991  88.4460966 137.1512398
  35.6815139  89.4447160 127.9613972  35.5614764  89.8904211 128.7999452
  34.9867727  89.7932478 127.4027510  33.4422031 102.2150802 131.6104103
  33.3646060 103.1658627 131.6892583  32.8383674 101.8696674 132.2679029
  43.7260041  86.1705460 138.1008446  43.0834421  86.4637993 137.4548241
  43.2214970  86.0558380 138.9061643  41.3800205  89.9168633 128.7894306
  42.2918061  90.1496020 128.6142003  40.8709852  90.5005677 128.2269384
  36.0172042  89.2765868 139.7989155  36.8633238  89.7005281 139.9423804
  35.9570680  88.6199492 140.4927718  39.9869787  94.8994452 136.1807887
  39.3578650  95.0640166 135.4783955  39.5995449  95.3136061 136.9518851
  43.8659019  95.8348889 133.5352251  43.1810057  96.2147791 132.9849284
  43.9502868  96.4444216 134.2684199  39.1671488  86.9370236 141.4570329
  38.9232420  87.6912297 140.9204605  39.4431418  87.3155584 142.2917576
  41.1209951  93.4808848 140.1347594  41.3326846  94.1240608 139.4581976
  41.0739699  92.6471165 139.6669525  38.7236180  86.0926669 137.0384167
  37.8620659  86.3907923 137.3300904  38.7498614  86.3097068 136.1065199
  35.5397749  94.6368860 133.4457972  36.0036095  94.9156563 132.6562595
  35.2754547  93.7352304 133.2631063  32.4321830  94.1840341 136.3837736
  33.0023187  94.6127610 135.7455220  33.0229942  93.9022926 137.0821921
  34.4766635  90.7592012 130.2547537  35.1790678  91.2113056 130.7221464
  34.1447264  90.1175831 130.8827431  28.2191969  89.0175565 135.5564671
  27.4291023  89.2733093 135.0804782  28.7103216  89.8323903 135.6616712
  42.2355779  96.3580804 138.3069952  43.0573222  95.9560991 138.0252633
  42.2318181  96.2549038 139.2586068  30.1706714  89.3820144 132.5148148
  29.3737878  89.4938838 133.0331643  29.9432307  89.7206796 131.6489038
  50.3261772  92.7019552 134.6554923  49.5725480  92.1326950 134.4998928
  50.4609313  92.6682217 135.6025558  35.7160400  97.5732955 130.3309643
  35.5806074  98.4184490 130.7594490  36.2570212  97.7752232 129.5675576
  29.1689797  95.0908393 130.9037568  29.6814318  95.8851643 131.0543132
  29.8212510  94.3934683 130.8371169  39.0652863  81.0963517 138.8608536
  38.7217133  81.9865158 138.7847647  39.4331826  80.9065174 137.9978121
  27.1338714  93.4197047 131.6797138  27.9713936  93.8294055 131.4630846
  27.3116982  92.4796489 131.6497332  39.0303146  91.0872128 127.3680971
  38.5149769  91.8576732 127.6069359  38.7580454  90.4137264 127.9914033
  36.6150257  85.9321828 132.4266210  35.7591853  85.5428679 132.2471848
  37.0277209  86.0113789 131.5665995  38.1449404  83.4668172 136.8257769
  37.6414199  83.4298307 136.0125575  38.4380010  84.3760914 136.8854426
  34.3892289  83.5506901 135.8323951  35.2545286  83.3549710 135.4729841
  34.4569798  83.3217253 136.7593308  44.0037420  93.8404482 129.3034145
  43.2266863  93.5015642 128.8589307  44.6828901  93.8457105 128.6289110
  38.8189449  88.9599220 129.1940752  38.5139585  89.2745369 130.0450896
  39.7719891  89.0380640 129.2368085  37.2635881  95.1189443 130.8433706
  36.7357243  94.3842203 130.5306944  36.7623384  95.8964119 130.5973675
  42.2428727  93.3138464 135.9600753  41.5852401  94.0037725 136.0480881
  43.0469126  93.7034895 136.3034739  31.9954609  85.7809109 133.2040318
  32.5698360  85.5584291 132.4713511  32.5825591  85.8497804 133.9568919
  41.0534186  91.6682836 134.0104694  41.5666068  92.3012828 134.5126404
  41.7035410  91.0684032 133.6448054  32.3224196  87.8113570 127.2236203
  31.4861508  88.1488257 127.5445478  32.1828965  87.6762550 126.2863340
  34.2977276  82.6550358 131.9315387  33.6441689  82.3399375 131.3072002
  34.2557750  82.0326099 132.6575210  35.4088481  92.9369653 123.8468679
  34.5015543  92.7058907 124.0459828  35.9059513  92.1407273 124.0342661
  38.3156560 101.6467160 126.7665366  37.6418259 101.9498857 127.3750323
  38.7022382 102.4496241 126.4170823  37.5315017  89.1432292 136.2563035
  36.6137578  89.3647239 136.0984723  37.9475160  89.2178602 135.3974742
  38.3150064  90.5423707 131.3865715  39.0621883  91.0545105 131.0772837
  38.5841654  90.2207760 132.2470109  36.5876715  93.0382248 128.3692669
  35.6787934  92.7541281 128.4665139  36.6171798  93.4581327 127.5095976
  41.8195982  96.6488838 132.1383837  41.3658309  95.8079748 132.1949028
  41.1889949  97.2850236 132.4758617  40.7628902  87.5780824 133.3684504
  40.0251658  87.0658210 133.6994747  41.0155675  87.1381205 132.5567781
  40.2628921  98.4865334 133.0733655  40.5551896  99.0470391 132.3546021
  40.7727542  98.7793895 133.8286814  40.8640529  80.3557076 133.9626274
  41.1699406  79.4954439 133.6752189  41.5893134  80.9474696 133.7625268
  27.1564885  90.7587762 132.3507872  26.9589285  90.1657123 131.6258938
  26.6011549  90.4539972 133.0683810  35.1361609  90.6510869 134.4702465
  35.1910218  89.6984705 134.3944941  34.3252811  90.8070308 134.9543763
  36.2852802  94.5790992 125.7080748  35.8472232  93.8626851 125.2486385
  37.0263243  94.8067107 125.1465839  33.0753969  89.2687928 132.2292844
  32.2621834  89.5682099 132.6358036  33.5712963  88.8743617 132.9467326
  35.2262546  99.2645685 134.1627108  35.1838725  99.4906532 133.2335640
  36.1425245  99.0309060 134.3112910  38.6728180  89.7329753 141.0607738
  39.0277568  89.9601226 141.9202203  39.3200311  90.0648130 140.4384993
  44.4025917  92.8548189 131.7657067  44.2643816  93.0449785 130.8378256
  44.0462136  93.6167572 132.2225118  32.5668043  86.8406284 137.8454079
  33.2067423  86.6995043 137.1477042  31.7345574  86.5540797 137.4692681
  44.4295297  94.9224716 136.7768338  44.8631803  94.8300005 137.6251392
  45.1426877  94.8982216 136.1388354  33.3428347  96.1408714 133.9589071
  34.1368946  95.6459035 133.7571646  32.6320040  95.6126578 133.5956777
  29.6511111  90.2851796 130.0348824  28.7208699  90.2236252 130.2518786
  29.7468583  89.7627749 129.2385465  29.5696660  86.8106609 132.6227065
  29.8303477  87.7251942 132.5136226  30.3913832  86.3431052 132.7723678
  45.2910846  94.9648417 139.3101224  45.4846736  95.8694227 139.5560498
  45.1911464  94.5055836 140.1439809  36.9447157  84.8506307 141.8091551
  36.2975072  85.5496257 141.7156027  37.7148172  85.2842451 142.1767799
  37.1211291  92.6887072 139.8688371  38.0503351  92.8398232 139.6957338
  36.7002321  92.7771093 139.0137017  36.5147775 101.8146833 128.9812445
  36.6899531 101.3434876 129.7958067  35.8280563 102.4412599 129.2093705
  37.4704838  96.0919339 135.0275746  37.1354671  96.0520109 135.9233396
  36.9708784  95.4264055 134.5546156  40.4064030  93.4375373 125.3012806
  39.7893201  92.7122202 125.2045858  39.9380518  94.1984734 124.9579880
  32.1962576  87.6560798 124.4234110  31.3192042  87.5349599 124.0596357
  32.6720329  86.8646876 124.1712999  42.0635569  96.1113866 141.1932566
  41.1762348  95.7739788 141.3158965  42.6334120  95.3796897 141.4301331
  35.3826502 100.0087088 131.6696630  34.5994024 100.5508768 131.7634855
  36.0819247 100.5261068 132.0690872  38.6923152  85.8181718 134.3130836
  39.1891852  85.0651680 133.9931906  37.9210134  85.8546034 133.7474045
  46.5452909  91.5222083 135.9549127  46.5342786  92.4046799 135.5843060
  45.6770289  91.1693634 135.7603664  39.7752933  94.5753405 131.8869259
  38.8409211  94.6954867 131.7173964  39.9529601  93.6725872 131.6229269
  35.2758121  87.9599101 134.0402520  34.9055908  87.4070141 134.7283426
  35.7717213  87.3557234 133.4877520  43.1625484  90.4170724 132.4219293
  43.6285936  91.2498716 132.3479596  43.6132985  89.9515706 133.1264552
  41.2301715  96.7614545 129.4205445  41.5061559  96.6471140 130.3299319
  40.3606214  96.3632030 129.3817618  41.1342147  82.7851311 136.4610195
  40.2205227  83.0155538 136.6292402  41.5635248  82.8689755 137.3124227
  40.9048605  90.9741203 138.9610089  40.2520056  91.2217110 138.3062541
  41.2828985  90.1605341 138.6272566  37.8655779 101.0100896 133.0638259
  38.0478174 100.1922552 133.5266011  38.6888765 101.2268588 132.6263149
  38.1997945  99.9369081 130.3253307  38.7285711  99.4261536 129.7123470
  38.4626164  99.6211612 131.1898841  30.6723454  85.3703091 140.2855626
  30.7364781  86.2317922 139.8733024  30.6090575  84.7577093 139.5527985
  26.9241270  89.2502653 129.8647016  27.2194711  88.3413331 129.8114069
  26.0229306  89.2290392 129.5428018  38.8327349 100.9709917 136.6697424
  38.7078488 100.1699657 136.1608369  39.4906440 101.4656110 136.1811394
  30.4535517  87.3258650 135.8474564  29.7322102  87.9394617 135.7082037
  31.2428773  87.8616414 135.7691210  40.8962257  98.7718937 138.2976974
  39.9492592  98.6524288 138.2255301  41.2445030  97.8841435 138.3803235
  33.2561830  84.6613076 142.1215216  33.7796232  84.9075373 142.8841525
  33.0374164  85.4933111 141.7018353  28.6529111  86.9316751 129.9886341
  28.3241817  86.0514130 129.8061447  29.0068482  86.8764419 130.8762730
  37.9008690  98.5671653 134.4981326  37.7533653  97.6388361 134.6788896
  38.7262184  98.5891744 134.0138401  31.7670934  87.2189720 130.3561818
  32.1067007  87.7475642 129.6340427  32.2143055  87.5570127 131.1320385
  41.5042812  99.3900212 135.5846199  42.4289360  99.1843073 135.4470650
  41.3358115  99.1416613 136.4935541  34.4614375  85.6026771 139.8064886
  34.1211196  84.8034584 140.2085566  33.7553382  85.9028482 139.2341720
  35.1130847  82.6876084 138.2592209  35.9356916  82.2136562 138.1371100
  35.3568911  83.4666567 138.7590896  33.7539082  85.7164342 128.5555111
  34.4747444  86.0945595 128.0518828  33.1304386  86.4353219 128.6590089
  37.8970205  86.4209491 129.4913444  38.1133819  87.3034129 129.1902272
  37.4164272  86.0295704 128.7619085  32.6369426  89.3795204 136.0684188
  32.4914007  89.6935507 136.9608470  32.1594630  89.9980105 135.5155087
  34.4965809  86.3697752 136.1165078  34.4827378  85.4738846 135.7797376
  35.2138237  86.3768416 136.7503364  36.3491939  86.8035092 138.1618205
  36.0909717  87.7252163 138.1602536  35.8176980  86.4065527 138.8518669
  41.2938128  99.9085880 130.9408290  41.4675006  99.3432302 130.1882143
  41.7867019 100.7086774 130.7587780  33.9002705  85.2512133 131.3852648
  34.0218616  84.3228779 131.5843535  33.6104747  85.2650818 130.4730963
  36.7693895  82.9367043 134.5219368  36.7915592  83.0006376 133.5671347
  37.1861954  82.0971552 134.7159874  47.1477519  92.6722303 132.5598590
  47.5908665  91.9229628 132.1617713  46.2704030  92.6632439 132.1772322
  42.2813301  99.2252644 128.0405189  42.9764205  99.8459337 128.2592503
  42.6236451  98.3747995 128.3157567  44.1804724  96.6752350 129.5692520
  44.7056048  97.0139622 128.8441840  44.0927076  95.7399365 129.3855654
  43.9896505  94.1577720 142.1876446  44.0394510  93.9927727 143.1291969
  43.8810428  93.2904979 141.7974327  32.8732764  96.8366265 129.4768535
  33.0220884  97.5201730 128.8235208  33.6799207  96.8171355 129.9917991
  41.2800267  90.1408648 143.5035753  42.1810130  90.0015112 143.2119751
  41.3548242  90.3063102 144.4433930  45.4914702  96.5774661 142.4318468
  45.1999510  96.9404642 143.2681929  44.8786833  95.8641669 142.2531800
  46.6910384  94.1427541 134.9521038  47.5257275  94.5817345 135.1158598
  46.8269513  93.6666194 134.1329284  43.7401890  91.7007276 140.8998526
  44.2156012  91.8934922 140.0917377  42.8167455  91.7566461 140.6541909
  30.6285397  92.8631443 130.4829604  30.3831439  91.9593773 130.6809814
  30.7981311  92.8648593 129.5409082  38.3182107  83.7355119 139.8654359
  38.8364050  84.4716146 139.5400848  37.9637239  84.0419113 140.7001119
  29.8981044  88.5959800 127.9815765  29.2050289  88.6704155 127.3255801
  29.6532796  87.8320144 128.5037282  38.5694701  80.1555402 135.3855256
  38.8496454  79.4878591 136.0115683  39.3545308  80.3484497 134.8729920
  36.3728169  99.3314396 126.9480282  35.8002136  99.9504583 126.4950754
  36.9460963  99.8813757 127.4820204  42.4403559  88.5773036 139.1326831
  43.3920982  88.6771133 139.1539055  42.2707009  87.7851304 139.6424916
  40.4617939  85.6628619 139.3186232  39.8667871  85.9433632 138.6232721
  40.1767635  86.1522520 140.0902973  39.5925429  99.6151546 128.0788865
  40.5256102  99.5497107 128.2821740  39.5048642 100.4507813 127.6203397
  42.2213446  98.9317416 125.0392812  42.1427077  98.5977280 125.9328570
  43.0423112  99.4239184 125.0384285  44.9191637  91.7979155 138.2469131
  44.8867957  90.8595156 138.4328815  45.5292260  91.8763192 137.5134956
  36.7574968  90.6675208 124.2896335  37.7034072  90.5381417 124.3584753
  36.3789213  89.9289870 124.7665763  45.0686125  88.5890199 138.2927414
  44.5525174  87.8048656 138.1057343  45.9526074  88.2608915 138.4573933
  42.7296852  82.3331214 134.2523227  42.5321673  82.0246303 135.1366559
  43.3396558  83.0592853 134.3821157  50.7368187  92.8595162 137.3875168
  51.4671575  92.5980450 137.9482871  50.1275132  92.1223884 137.4277236
  48.8183484  91.0003025 137.9849619  48.0916647  90.8658990 137.3766110
  48.4030771  91.3079853 138.7906337  34.9417885  88.5925185 124.2251220
  34.0349340  88.2958298 124.3013934  35.2193866  88.2955003 123.3585506
  36.5579951  83.1362075 130.3795461  35.7480679  82.7909159 130.7550707
  37.2464367  82.8269618 130.9683073  38.4870499  82.2140121 132.0019758
  39.0401537  82.6335575 132.6609781  38.7240585  81.2875869 132.0442714
  33.7116669  85.4512120 124.3663199  34.5735833  85.7767018 124.6259017
  33.8967014  84.6643616 123.8536265  41.8649306  84.3240646 131.5098422
  41.2847975  84.9825451 131.1276475  41.5985239  83.5017991 131.0985840
  40.3152872  83.7245704 133.7119743  40.8152651  83.8362239 132.9034061
  40.9588480  83.4206757 134.3520551  40.6474184  86.4840737 130.5654771
  39.7600039  86.7690387 130.3474965  41.0628173  86.3234500 129.7182047
  43.9988720  86.5087258 134.2809110  44.7749110  86.9983710 134.5533727
  43.2736854  86.9345312 134.7380979  46.4361279  87.2214877 135.3383050
  47.0305770  86.9810613 134.6276359  46.5087862  86.5022008 135.9656587
  39.7917397  96.2485412 124.6602791  40.4953248  96.4535414 125.2760446
  39.0680046  96.8162173 124.9251874  40.6215208  91.9995273 130.7805061
  40.5650409  92.4563824 129.9412693  41.1743550  91.2385957 130.6027903
  44.4320014  87.7885005 131.6055180  44.1756948  87.3881640 132.4363388
  43.8072882  88.5028799 131.4805319  48.7432351  90.5281078 134.1126472
  48.1831909  90.5974267 134.8858034  48.1375855  90.3522063 133.3925968
  41.7004095  96.6867941 126.7101251  42.5349699  96.2549139 126.5278725
  41.5388438  96.5149954 127.6378145  41.3549987  93.1900054 128.0757590
  41.2998791  93.0244325 127.1346034  40.7296042  93.8976087 128.2319780
  34.6646112  82.6908163 127.6542908  34.6524782  83.6350003 127.8111179
  35.5569534  82.5078308 127.3602369  38.4798232  79.2850940 131.9088845
  37.7130628  78.7309426 132.0545527  38.8908937  79.3572808 132.7702997
  50.3288370 107.2037592 136.8056427  50.9666780 107.0844339 136.1019767
  50.2109213 108.1518436 136.8644379  47.1378076 107.1565020 136.7417952
  46.7996588 107.0406085 135.8538487  48.0067844 106.7556185 136.7218958
  42.9964892 109.0100496 132.7314843  42.4329757 108.9190433 131.9631131
  42.8817287 108.1900401 133.2117335  48.5764451 112.6771464 128.0429308
  47.9252430 113.2625544 127.6563322  49.3708813 113.2077659 128.1024345
  42.5020078 109.7660601 128.4416442  43.2750954 109.2189588 128.3029318
  42.8545477 110.6304851 128.6530904  45.2661327 108.4713832 138.2384701
  45.8624899 108.2469854 137.5241664  45.3236299 107.7298577 138.8410149
  44.8386356 105.9253267 126.0734892  45.0911876 105.4034789 125.3118355
  43.9010915 105.7619413 126.1761576  49.8829638 104.9289046 133.8809635
  50.6692728 104.5108469 133.5300052  50.1468343 105.8335138 134.0491284
  50.0539716 110.3661896 128.5798292  49.4185549 110.4396523 129.2919197
  49.7237122 110.9555495 127.9017371  55.2838066 104.8664279 134.7842614
  56.0163237 104.2963496 135.0180443  54.5277421 104.4785879 135.2249119
  44.5582644 107.8281373 128.2759267  44.4418902 107.1526277 128.9440351
  44.6684904 107.3413747 127.4591420  46.9014185 107.2891520 131.9805956
  46.5372392 106.7622141 132.6918878  47.7581301 106.8989989 131.8072442
  52.8063486  98.5785853 139.2437222  52.4746811  99.4481264 139.0198437
  52.2109099  98.2622137 139.9231253  46.5419672 102.3181420 126.9767305
  46.7094075 103.1861656 127.3437776  46.3516841 102.4808702 126.0528594
  42.7507487 107.2312196 134.6769840  41.8257983 107.0988410 134.8847531
  42.9991900 108.0106415 135.1739782  52.6992149 103.2980939 136.3230573
  51.7909027 103.2296348 136.0289333  52.6479745 103.7752884 137.1512398
  46.5208893 104.7739078 127.9613972  46.4008518 105.2196128 128.7999452
  45.8261481 105.1224395 127.4027510  44.2815785 117.5442719 131.6104103
  44.2039815 118.4950544 131.6892583  43.6777429 117.1988592 132.2679029
  54.5653796 101.4997378 138.1008446  53.9228176 101.7929911 137.4548241
  54.0608724 101.3850298 138.9061643  52.2193959 105.2460551 128.7894306
  53.1311815 105.4787938 128.6142003  51.7103606 105.8297595 128.2269384
  46.8565797 104.6057785 139.7989155  47.7026992 105.0297199 139.9423804
  46.7964435 103.9491410 140.4927718  49.5629934 101.4218587 137.0384167
  48.7014413 101.7199840 137.3300904  49.5892369 101.6388986 136.1065199
  46.3791503 109.9660777 133.4457972  46.8429849 110.2448480 132.6562595
  46.1148302 109.0644222 133.2631063  43.2715585 109.5132259 136.3837736
  43.8416942 109.9419527 135.7455220  43.8623696 109.2314844 137.0821921
  45.3160390 106.0883930 130.2547537  46.0184433 106.5404973 130.7221464
  44.9841018 105.4467749 130.8827431  39.0585723 104.3467482 135.5564671
  38.2684777 104.6025011 135.0804782  39.5496971 105.1615820 135.6616712
  41.0100469 104.7112062 132.5148148  40.2131632 104.8230756 133.0331643
  40.7826061 105.0498714 131.6489038  46.5554154 112.9024872 130.3309643
  46.4199829 113.7476408 130.7594490  47.0963967 113.1044150 129.5675576
  40.0083552 110.4200310 130.9037568  40.5208072 111.2143561 131.0543132
  40.6606264 109.7226601 130.8371169  49.9046618  96.4255434 138.8608536
  49.5610887  97.3157076 138.7847647  50.2725580  96.2357092 137.9978121
  37.9732468 108.7488965 131.6797138  38.8107690 109.1585973 131.4630846
  38.1510736 107.8088407 131.6497332  49.8696900 106.4164045 127.3680971
  49.3543524 107.1868650 127.6069359  49.5974209 105.7429181 127.9914033
  47.4544011 101.2613746 132.4266210  46.5985608 100.8720596 132.2471848
  47.8670963 101.3405707 131.5665995  48.9843158  98.7960089 136.8257769
  48.4807954  98.7590224 136.0125575  49.2773765  99.7052832 136.8854426
  45.2286044  98.8798819 135.8323951  46.0939041  98.6841628 135.4729841
  45.2963553  98.6509171 136.7593308  54.8431175 109.1696400 129.3034145
  54.0660617 108.8307559 128.8589307  55.5222656 109.1749023 128.6289110
  49.6583204 104.2891137 129.1940752  49.3533339 104.6037287 130.0450896
  50.6113646 104.3672557 129.2368085  48.1029635 110.4481361 130.8433706
  47.5750997 109.7134120 130.5306944  47.6017138 111.2256037 130.5973675
  42.8348363 101.1101027 133.2040318  43.4092115 100.8876208 132.4713511
  43.4219345 101.1789721 133.9568919  51.8927940 106.9974754 134.0104694
  52.4059822 107.6304746 134.5126404  52.5429164 106.3975949 133.6448054
  43.1617950 103.1405488 127.2236203  42.3255262 103.4780175 127.5445478
  43.0222720 103.0054468 126.2863340  45.1371031  97.9842276 131.9315387
  44.4835443  97.6691293 131.3072002  45.0951505  97.3618016 132.6575210
  46.2482236 108.2661571 123.8468679  45.3409297 108.0350824 124.0459828
  46.7453268 107.4699190 124.0342661  49.1550315 116.9759078 126.7665366
  48.4812013 117.2790775 127.3750323  49.5416136 117.7788158 126.4170823
  48.3708771 104.4724209 136.2563035  47.4531332 104.6939156 136.0984723
  48.7868915 104.5470520 135.3974742  49.1543819 105.8715625 131.3865715
  49.9015638 106.3837022 131.0772837  49.4235408 105.5499678 132.2470109
  47.4270469 108.3674166 128.3692669  46.5181688 108.0833199 128.4665139
  47.4565553 108.7873244 127.5095976  52.6589736 111.9780755 132.1383837
  52.2052064 111.1371665 132.1949028  52.0283703 112.6142154 132.4758617
  51.6022656 102.9072741 133.3684504  50.8645413 102.3950128 133.6994747
  51.8549430 102.4673123 132.5567781  51.1022676 113.8157252 133.0733655
  51.3945650 114.3762309 132.3546021  51.6121296 114.1085813 133.8286814
  51.7034283  95.6848993 133.9626274  52.0093160  94.8246357 133.6752189
  52.4286888  96.2766614 133.7625268  37.9958639 106.0879680 132.3507872
  37.7983039 105.4949041 131.6258938  37.4405303 105.7831890 133.0683810
  45.9755363 105.9802786 134.4702465  46.0303973 105.0276623 134.3944941
  45.1646565 106.1362226 134.9543763  47.1246557 109.9082910 125.7080748
  46.6865987 109.1918768 125.2486385  47.8656998 110.1359024 125.1465839
  43.9147723 104.5979846 132.2292844  43.1015589 104.8974017 132.6358036
  44.4106717 104.2035535 132.9467326  46.0656301 114.5937603 134.1627108
  46.0232480 114.8198449 133.2335640  46.9819000 114.3600978 134.3112910
  55.2419672 108.1840107 131.7657067  55.1037570 108.3741703 130.8378256
  54.8855890 108.9459489 132.2225118  43.4061798 102.1698202 137.8454079
  44.0461177 102.0286961 137.1477042  42.5739328 101.8832715 137.4692681
  44.1822102 111.4700632 133.9589071  44.9762700 110.9750952 133.7571646
  43.4713794 110.9418495 133.5956777  40.4904865 105.6143714 130.0348824
  39.5602453 105.5528169 130.2518786  40.5862337 105.0919667 129.2385465
  40.4090414 102.1398527 132.6227065  40.6697232 103.0543860 132.5136226
  41.2307587 101.6722969 132.7723678  47.7840912 100.1798225 141.8091551
  47.1368827 100.8788174 141.7156027  48.5541927 100.6134369 142.1767799
  47.3541530 117.1438751 128.9812445  47.5293285 116.6726794 129.7958067
  46.6674318 117.7704517 129.2093705  48.3098593 111.4211257 135.0275746
  47.9748425 111.3812027 135.9233396  47.8102539 110.7555973 134.5546156
  51.2457784 108.7667291 125.3012806  50.6286955 108.0414119 125.2045858
  50.7774273 109.5276651 124.9579880  43.0356330 102.9852715 124.4234110
  42.1585797 102.8641516 124.0596357  43.5114083 102.1938794 124.1712999
  46.2220256 115.3379006 131.6696630  45.4387778 115.8800686 131.7634855
  46.9213002 115.8552985 132.0690872  49.5316907 101.1473635 134.3130836
  50.0285606 100.3943598 133.9931906  48.7603888 101.1837952 133.7474045
  50.6146687 109.9045322 131.8869259  49.6802966 110.0246785 131.7173964
  50.7923356 109.0017789 131.6229269  46.1151875 103.2891018 134.0402520
  45.7449663 102.7362059 134.7283426  46.6110968 102.6849152 133.4877520
  54.0019239 105.7462642 132.4219293  54.4679691 106.5790633 132.3479596
  54.4526739 105.2807623 133.1264552  52.0695470 112.0906463 129.4205445
  52.3455314 111.9763058 130.3299319  51.1999968 111.6923948 129.3817618
  51.9735901  98.1143229 136.4610195  51.0598981  98.3447456 136.6292402
  52.4029003  98.1981673 137.3124227  48.7049534 116.3392814 133.0638259
  48.8871928 115.5214470 133.5266011  49.5282520 116.5560506 132.6263149
  49.0391699 115.2660999 130.3253307  49.5679466 114.7553454 129.7123470
  49.3019919 114.9503529 131.1898841  41.5117209 100.6995009 140.2855626
  41.5758535 101.5609840 139.8733024  41.4484329 100.0869011 139.5527985
  37.7635024 104.5794571 129.8647016  38.0588465 103.6705249 129.8114069
  36.8623060 104.5582310 129.5428018  41.2929271 102.6550567 135.8474564
  40.5715857 103.2686535 135.7082037  42.0822527 103.1908332 135.7691210
  44.0955585  99.9904994 142.1215216  44.6189987 100.2367290 142.8841525
  43.8767918 100.8225029 141.7018353  39.4922866 102.2608668 129.9886341
  39.1635572 101.3806047 129.8061447  39.8462237 102.2056337 130.8762730
  48.7402445 113.8963571 134.4981326  48.5927407 112.9680278 134.6788896
  49.5655938 113.9183662 134.0138401  42.6064689 102.5481638 130.3561818
  42.9460761 103.0767559 129.6340427  43.0536809 102.8862044 131.1320385
  45.3008130 100.9318689 139.8064886  44.9604950 100.1326502 140.2085566
  44.5947136 101.2320400 139.2341720  45.9524602  98.0168001 138.2592209
  46.7750671  97.5428479 138.1371100  46.1962665  98.7958485 138.7590896
  44.5932836 101.0456260 128.5555111  45.3141199 101.4237513 128.0518828
  43.9698140 101.7645137 128.6590089  48.7363959 101.7501409 129.4913444
  48.9527573 102.6326047 129.1902272  48.2558026 101.3587622 128.7619085
  43.4763180 104.7087122 136.0684188  43.3307761 105.0227425 136.9608470
  42.9988384 105.3272022 135.5155087  45.3359563 101.6989670 136.1165078
  45.3221132 100.8030763 135.7797376  46.0531991 101.7060334 136.7503364
  47.1885694 102.1327010 138.1618205  46.9303472 103.0544081 138.1602536
  46.6570734 101.7357445 138.8518669  52.1331883 115.2377797 130.9408290
  52.3068760 114.6724220 130.1882143  52.6260774 116.0378692 130.7587780
  44.7396459 100.5804050 131.3852648  44.8612370  99.6520696 131.5843535
  44.4498502 100.5942736 130.4730963  47.6087650  98.2658961 134.5219368
  47.6309346  98.3298294 133.5671347  48.0255709  97.4263469 134.7159874
  57.9871274 108.0014220 132.5598590  58.4302420 107.2521545 132.1617713
  57.1097784 107.9924357 132.1772322  53.1207055 114.5544562 128.0405189
  53.8157960 115.1751254 128.2592503  53.4630205 113.7039913 128.3157567
  55.0198478 112.0044267 129.5692520  55.5449802 112.3431540 128.8441840
  54.9320831 111.0691283 129.3855654  43.7126518 112.1658183 129.4768535
  43.8614639 112.8493647 128.8235208  44.5192962 112.1463273 129.9917991
  41.4679151 108.1923361 130.4829604  41.2225193 107.2885691 130.6809814
  41.6375066 108.1940511 129.5409082  49.1575861  99.0647037 139.8654359
  49.6757805  99.8008064 139.5400848  48.8030994  99.3711030 140.7001119
  40.7374799 103.9251718 127.9815765  40.0444044 103.9996073 127.3255801
  40.4926551 103.1612062 128.5037282  49.4088455  95.4847319 135.3855256
  49.6890209  94.8170509 136.0115683  50.1939062  95.6776415 134.8729920
  47.2121924 114.6606313 126.9480282  46.6395891 115.2796500 126.4950754
  47.7854717 115.2105675 127.4820204  51.3011693 100.9920537 139.3186232
  50.7061625 101.2725549 138.6232721  51.0161390 101.4814438 140.0902973
  50.4319183 114.9443463 128.0788865  51.3649857 114.8789025 128.2821740
  50.3442396 115.7799730 127.6203397  53.0607200 114.2609334 125.0392812
  52.9820832 113.9269197 125.9328570  53.8816867 114.7531102 125.0384285
  47.5968722 105.9967126 124.2896335  48.5427827 105.8673334 124.3584753
  47.2182967 105.2581788 124.7665763  53.5690607  97.6623132 134.2523227
  53.3715428  97.3538220 135.1366559  54.1790312  98.3884771 134.3821157
  45.7811639 103.9217102 124.2251220  44.8743095 103.6250215 124.3013934
  46.0587620 103.6246921 123.3585506  47.3973705  98.4653992 130.3795461
  46.5874433  98.1201077 130.7550707  48.0858122  98.1561536 130.9683073
  49.3264253  97.5432039 132.0019758  49.8795292  97.9627492 132.6609781
  49.5634340  96.6167787 132.0442714  44.5510424 100.7804038 124.3663199
  45.4129588 101.1058936 124.6259017  44.7360768  99.9935534 123.8536265
  52.7043060  99.6532564 131.5098422  52.1241729 100.3117368 131.1276475
  52.4378993  98.8309909 131.0985840  51.1546627  99.0537622 133.7119743
  51.6546405  99.1654156 132.9034061  51.7982235  98.7498675 134.3520551
  51.4867938 101.8132655 130.5654771  50.5993793 102.0982305 130.3474965
  51.9021928 101.6526418 129.7182047  54.8382475 101.8379176 134.2809110
  55.6142865 102.3275628 134.5533727  54.1130609 102.2637230 134.7380979
  57.2755033 102.5506795 135.3383050  57.8699524 102.3102531 134.6276359
  57.3481617 101.8313925 135.9656587  50.6311152 111.5777329 124.6602791
  51.3347002 111.7827332 125.2760446  49.9073801 112.1454091 124.9251874
  51.4608962 107.3287190 130.7805061  51.4044164 107.7855742 129.9412693
  52.0137305 106.5677875 130.6027903  55.2713768 103.1176922 131.6055180
  55.0150702 102.7173558 132.4363388  54.6466636 103.8320716 131.4805319
  59.5826106 105.8572996 134.1126472  59.0225664 105.9266185 134.8858034
  58.9769609 105.6813980 133.3925968  52.5397849 112.0159858 126.7101251
  53.3743453 111.5841057 126.5278725  52.3782192 111.8441872 127.6378145
  52.1943742 108.5191972 128.0757590  52.1392545 108.3536243 127.1346034
  51.5689797 109.2268005 128.2319780  45.5039867  98.0200081 127.6542908
  45.4918537  98.9641921 127.8111179  46.3963289  97.8370226 127.3602369
  49.3191986  94.6142857 131.9088845  48.5524382  94.0601344 132.0545527
  49.7302691  94.6864726 132.7702997  55.6780110 121.2545185 126.0734892
  55.9305631 120.7326706 125.3118355  54.7404669 121.0911330 126.1761576
  57.3813427 117.6473338 126.9767305  57.5487829 118.5153574 127.3437776
  57.1910596 117.8100619 126.0528594  54.0011705 118.4697406 127.2236203
  53.1649017 118.8072092 127.5445478  53.8616474 118.3346385 126.2863340
  55.9764785 113.3134194 131.9315387  55.3229198 112.9983211 131.3072002
  55.9345259 112.6909934 132.6575210  57.0875990 123.5953489 123.8468679
  56.1803052 123.3642742 124.0459828  57.5847022 122.7991108 124.0342661
  51.3298620 120.9435632 130.0348824  50.3996208 120.8820087 130.2518786
  51.4256092 120.4211584 129.2385465  53.8750085 118.3144633 124.4234110
  52.9979551 118.1933434 124.0596357  54.3507838 117.5230711 124.1712999
  48.6028779 119.9086488 129.8647016  48.8982220 118.9997167 129.8114069
  47.7016814 119.8874228 129.5428018  50.3316620 117.5900586 129.9886341
  50.0029326 116.7097965 129.8061447  50.6855991 117.5348255 130.8762730
  55.4326591 116.3748177 128.5555111  56.1534953 116.7529430 128.0518828
  54.8091895 117.0937054 128.6590089  55.5790214 115.9095968 131.3852648
  55.7006125 114.9812614 131.5843535  55.2892256 115.9234654 130.4730963
  51.5768553 119.2543636 127.9815765  50.8837798 119.3287991 127.3255801
  51.3320305 118.4903979 128.5037282  58.4362477 121.3259044 124.2896335
  59.3821581 121.1965252 124.3584753  58.0576722 120.5873706 124.7665763
  56.6205394 119.2509020 124.2251220  55.7136849 118.9542133 124.3013934
  56.8981375 118.9538838 123.3585506  58.2367460 113.7945910 130.3795461
  57.4268188 113.4492995 130.7550707  58.9251876 113.4853454 130.9683073
  55.3904178 116.1095955 124.3663199  56.2523342 116.4350854 124.6259017
  55.5754523 115.3227451 123.8536265  56.3433621 113.3491998 127.6542908
  56.3312291 114.2933838 127.8111179  57.2357043 113.1662144 127.3602369
  60.1585741 109.9434775 131.9088845  59.3918137 109.3893262 132.0545527
  60.5696446 110.0156644 132.7702997  16.0583188  43.6957834 114.7674615
  15.4071168  44.2811914 114.3808628  16.8527551  44.2264029 114.8269652
  22.3249912  40.1882770 116.0279451  21.5479355  39.8493929 115.5834613
  23.0041393  40.1935393 115.3534416  13.7300973  39.2847941 110.5713986
  12.8228035  39.0537194 110.7705135  14.2272005  38.4885560 110.7587968
  16.6369052  47.9945448 113.4910672  15.9630751  48.2977144 114.0995630
  17.0234874  48.7974528 113.1416129  14.6065295  40.9269279 112.4326055
  14.1684725  40.2105138 111.9731692  15.3475736  41.1545394 111.8711146
  14.8360267  48.1625120 115.7057751  15.0112023  47.6913163 116.5203374
  14.1493055  48.7890886 115.9339012  18.7276522  39.7853661 112.0258112
  18.1105693  39.0600489 111.9291165  18.2593011  40.5463021 111.6825187
  19.5514207  43.1092833 116.1450752  19.8274051  42.9949427 117.0544626
  18.6818706  42.7110317 116.1062925  16.5210437  46.2847369 117.0498614
  17.0498203  45.7739823 116.4368776  16.7838657  45.9689899 117.9144147
  19.6150621  46.2564167 117.6653597  19.7887498  45.6910589 116.9127450
  20.1079512  47.0565062 117.4833087  20.6025793  45.5730931 114.7650495
  21.2976698  46.1937624 114.9837810  20.9448943  44.7226282 115.0402873
  22.5017216  43.0230637 116.2937826  23.0268540  43.3617910 115.5687146
  22.4139569  42.0877652 116.1100961  14.6940661  45.6792683 113.6725589
  14.1214629  46.2982870 113.2196061  15.2673455  46.2292045 114.2065511
  17.9137921  45.9629833 114.8034171  18.8468594  45.8975395 115.0067047
  17.8261134  46.7986100 114.3448704  20.5425938  45.2795703 111.7638119
  20.4639569  44.9455567 112.6573877  21.3635605  45.7717471 111.7629591
  15.0787460  37.0153496 111.0141641  16.0246565  36.8859704 111.0830060
  14.7001705  36.2768158 111.4911070  18.1129890  42.5963699 111.3848097
  18.8165740  42.8013701 112.0005753  17.3892538  43.1640461 111.6497181
  20.0216587  43.0346228 113.4346557  20.8562191  42.6027426 113.2524032
  19.8600930  42.8628242 114.3623452  19.6762479  39.5378341 114.8002897
  19.6211283  39.3722613 113.8591341  19.0508535  40.2454374 114.9565086
  28.6500862  53.5515879 123.5301734  29.2879272  53.4322626 122.8265074
  28.5321705  54.4996723 123.5889686  25.4590568  53.5043307 123.4663259
  25.1209080  53.3884372 122.5783794  26.3280337  53.1034472 123.4464265
  21.3177384  55.3578784 119.4560150  20.7542249  55.2668721 118.6876437
  21.2029779  54.5378688 119.9362642  18.8641816  56.8529975 122.2944370
  19.6563108  56.5120800 121.8790669  19.1038466  56.9624950 123.2146523
  26.8976943  59.0249751 114.7674615  26.2464923  59.6103832 114.3808628
  27.6921306  59.5555946 114.8269652  20.8232570  56.1138888 115.1661749
  21.5963446  55.5667876 115.0274625  21.1757969  56.9783138 115.3776210
  23.5873819  54.8192119 124.9630008  24.1837392  54.5948142 124.2486971
  23.6448791  54.0776865 125.5655456  23.1598848  52.2731555 112.7980199
  23.4124369  51.7513076 112.0363662  22.2223407  52.1097700 112.9006882
  28.2042131  51.2767333 120.6054942  28.9905220  50.8586756 120.2545359
  28.4680835  52.1813425 120.7736590  28.3752208  56.7140183 115.3043599
  27.7398041  56.7874810 116.0164503  28.0449614  57.3033782 114.6262678
  33.6050558  51.2142566 121.5087921  34.3375730  50.6441783 121.7425750
  32.8489914  50.8264167 121.9494426  22.8795137  54.1759661 115.0004574
  22.7631395  53.5004564 115.6685658  22.9897397  53.6892034 114.1836727
  25.2226678  53.6369808 118.7051263  24.8584885  53.1100429 119.4164184
  26.0793793  53.2468277 118.5317748  24.8632165  48.6659707 113.7012611
  25.0306567  49.5339944 114.0683083  24.6729334  48.8286989 112.7773901
  27.6207498  57.1276686 125.3678442  27.3208221  58.0301725 125.2594249
  27.2758557  56.8608869 126.2199595  21.0719979  53.5790483 121.4015146
  20.1470476  53.4466697 121.6092838  21.3204392  54.3584702 121.8985089
  31.0204641  49.6459226 123.0475879  30.1121519  49.5774635 122.7534640
  30.9692237  50.1231171 123.8757705  24.8421385  51.1217365 114.6859278
  24.7221011  51.5674416 115.5244759  24.1473974  51.4702683 114.1272816
  18.4328790  53.2223757 122.2358935  18.5621171  53.4758236 123.1498347
  17.7526242  53.8151465 121.9163590  22.6028278  63.8921007 118.3349410
  22.5252307  64.8428832 118.4137890  21.9989921  63.5466879 118.9924336
  32.8866288  47.8475665 124.8253753  32.2440668  48.1408198 124.1793548
  32.3821216  47.7328585 125.6306950  30.5406452  51.5938838 115.5139612
  31.4524308  51.8266225 115.3387310  30.0316099  52.1775882 114.9514691
  29.1476034  56.5764656 122.9053194  28.5184896  56.7410371 122.2029262
  28.7601696  56.9906266 123.6764158  33.0265266  57.5119094 120.2597558
  32.3416304  57.8917996 119.7094591  33.1109115  58.1214421 120.9929505
  30.2816197  55.1579053 126.8592901  30.4933093  55.8010813 126.1827282
  30.2345946  54.3241370 126.3914831  24.7003996  56.3139065 120.1703279
  25.1642341  56.5926768 119.3807901  24.4360794  55.4122509 119.9876370
  21.5928077  55.8610546 123.1083042  22.1629434  56.2897814 122.4700527
  22.1836189  55.5793131 123.8067228  23.6372882  52.4362217 116.9792844
  24.3396925  52.8883261 117.4466770  23.3053510  51.7946036 117.6072737
  31.3962025  58.0351009 125.0315258  32.2179469  57.6331196 124.7497940
  31.3924428  57.9319243 125.9831374  19.3312961  51.0590349 119.2393454
  18.5344124  51.1709043 119.7576950  19.1038553  51.3977001 118.3734345
  25.1618629  57.5835052 127.1875969  25.2263061  58.0455459 128.0234141
  24.4529553  56.9532417 127.3158279  39.4868018  54.3789757 121.3800230
  38.7331727  53.8097155 121.2244234  39.6215560  54.3452422 122.3270865
  24.8766646  59.2503160 117.0554949  24.7412321  60.0954695 117.4839797
  25.4176459  59.4522437 116.2920883  18.3296044  56.7678598 117.6282874
  18.8420564  57.5621848 117.7788439  18.9818757  56.0704888 117.5616476
  20.1390929  59.8844354 119.7105628  20.3157557  60.8062319 119.5226611
  20.9347762  59.5702773 120.1400007  21.2622244  61.4022528 125.7115970
  21.8129669  61.2739591 124.9392964  20.4233720  61.7017417 125.3610863
  28.6016361  60.1529526 129.2136693  28.5834836  60.9738407 128.7216962
  29.5236281  60.0283601 129.4386834  16.2944961  55.0967252 118.4042445
  17.1320183  55.5064260 118.1876153  16.4723228  54.1566694 118.3742639
  28.1909393  52.7642333 114.0926278  27.6756016  53.5346937 114.3314665
  27.9186701  52.0907469 114.7159339  25.7756504  47.6092033 119.1511516
  24.9198100  47.2198884 118.9717155  26.1883456  47.6883994 118.2911302
  33.1643667  55.5174687 116.0279451  32.3873110  55.1785847 115.5834613
  33.8435148  55.5227310 115.3534416  27.9795696  50.6369425 115.9186059
  27.6745831  50.9515574 116.7696202  28.9326138  50.7150845 115.9613392
  26.4242128  56.7959648 117.5679013  25.8963489  56.0612408 117.2552250
  25.9229630  57.5734324 117.3218981  31.4034974  54.9908668 122.6846059
  30.7458648  55.6807930 122.7726188  32.2075373  55.3805100 123.0280046
  21.1560855  47.4579314 119.9285625  21.7304607  47.2354496 119.1958817
  21.7431838  47.5268009 120.6814226  30.2140433  53.3453041 120.7350001
  30.7272314  53.9783033 121.2371711  30.8641656  52.7454237 120.3693361
  21.4830442  49.4883775 113.9481510  20.6467755  49.8258462 114.2690785
  21.3435212  49.3532755 113.0108647  23.4583523  44.3320563 118.6560694
  22.8047935  44.0169580 118.0317309  23.4163997  43.7096304 119.3820517
  24.5694728  54.6139858 110.5713986  23.6621790  54.3829112 110.7705135
  25.0665760  53.8177477 110.7587968  27.4762807  63.3237365 113.4910672
  26.8024506  63.6269062 114.0995630  27.8628629  64.1266446 113.1416129
  26.6921263  50.8202497 122.9808342  25.7743825  51.0417444 122.8230030
  27.1081407  50.8948807 122.1220049  27.4756311  52.2193912 118.1111022
  28.2228130  52.7315310 117.8018144  27.7447901  51.8977965 118.9715415
  25.7482961  54.7152453 115.0937976  24.8394181  54.4311486 115.1910446
  25.7778045  55.1351532 114.2341283  30.9802229  58.3259043 118.8629144
  30.5264556  57.4849952 118.9194334  30.3496195  58.9620441 119.2003924
  29.9235148  49.2551029 120.0929811  29.1857905  48.7428415 120.4240054
  30.1761922  48.8151410 119.2813088  29.4235168  60.1635539 119.7978962
  29.7158142  60.7240596 119.0791327  29.9333789  60.4564100 120.5532121
  30.0246776  42.0327281 120.6871580  30.3305652  41.1724644 120.3997495
  30.7499380  42.6244901 120.4870574  16.3171132  52.4357967 119.0753178
  16.1195532  51.8427328 118.3504245  15.7617796  52.1310177 119.7929117
  24.2967855  52.3281074 121.1947771  24.3516465  51.3754910 121.1190248
  23.4859057  52.4840513 121.6789070  25.4459049  56.2561197 112.4326055
  25.0078479  55.5397056 111.9731692  26.1869490  56.4837312 111.8711146
  22.2360215  50.9458133 118.9538150  21.4228081  51.2452304 119.3603342
  22.7319209  50.5513822 119.6712633  24.3868793  60.9415890 120.8872415
  24.3444972  61.1676737 119.9580947  25.3031492  60.7079265 121.0358216
  33.5632164  54.5318394 118.4902373  33.4250063  54.7219990 117.5623562
  33.2068383  55.2937777 118.9470424  33.5901544  56.5994921 123.5013645
  34.0238050  56.5070210 124.3496699  34.3033124  56.5752421 122.8633661
  22.5034594  57.8178919 120.6834378  23.2975192  57.3229240 120.4816953
  21.7926286  57.2896783 120.3202083  27.3229438  60.1997015 125.0346745
  27.3766461  60.7687951 125.8024461  26.4544220  60.3698900 124.6700783
  18.8117357  51.9622001 116.7594130  17.8814946  51.9006457 116.9764093
  18.9074829  51.4397954 115.9630772  18.7302906  48.4876814 119.3472372
  18.9909724  49.4022147 119.2381533  19.5520079  48.0201257 119.4968985
  34.4517093  56.6418621 126.0346530  34.6452983  57.5464432 126.2805805
  34.3517711  56.1826041 126.8685115  26.2817538  54.3657277 126.5933677
  27.2109598  54.5168437 126.4202645  25.8608568  54.4541298 125.7382324
  25.0805870  58.3907941 124.3632215  24.9416956  58.0226726 125.2358153
  24.2920466  58.9055581 124.1916173  25.6754022  63.4917038 115.7057751
  25.8505778  63.0205081 116.5203374  24.9886810  64.1182804 115.9339012
  26.6311085  57.7689544 121.7521053  26.2960918  57.7290314 122.6478703
  26.1315031  57.1034260 121.2791463  29.5670277  55.1145578 112.0258112
  28.9499447  54.3892407 111.9291165  29.0986765  55.8754939 111.6825187
  31.2224408  59.8244487 129.6863893  31.1636955  59.1403707 129.0194476
  31.6243927  60.5663477 129.2344519  20.2415107  66.6406401 122.4797612
  20.4811705  67.2724925 123.1576630  19.3984304  66.2894441 122.7662971
  21.3568823  49.3331003 111.1479417  20.4798289  49.2119803 110.7841663
  21.8326576  48.5417081 110.8958305  31.2241816  57.7884071 127.9177872
  30.3368594  57.4509992 128.0404271  31.7940367  57.0567102 128.1546638
  12.8770963  54.1208162 121.2420924  13.5642003  53.8069892 120.6541939
  12.7219091  55.0249527 120.9688175  24.7542969  62.4485523 124.8839116
  24.6813141  63.2540495 125.3958420  24.3120362  62.6477489 124.0587137
  24.5432749  61.6857293 118.3941937  23.7600271  62.2278973 118.4880162
  25.2425494  62.2031273 118.7936178  27.8529399  47.4951923 121.0376142
  28.3498098  46.7421885 120.7177213  27.0816380  47.5316239 120.4719352
  35.7059156  53.1992288 122.6794434  35.6949032  54.0817003 122.3088367
  34.8376536  52.8463839 122.4848971  27.2141653  62.3472357 127.0397274
  27.9269625  62.9819822 126.9673176  26.7231681  62.4436223 126.2237276
  28.9359180  56.2523610 118.6114566  28.0015458  56.3725072 118.4419270
  29.1135848  55.3496077 118.3474576  24.4364368  49.6369306 120.7647827
  24.0662155  49.0840346 121.4528733  24.9323460  49.0327439 120.2122827
  32.3231731  52.0940929 119.1464600  32.7892183  52.9268921 119.0724903
  32.7739231  51.6285911 119.8509858  22.2653566  60.0966801 127.8602845
  22.9663026  60.7303283 128.0132239  21.7948681  60.4381532 127.0998484
  30.3907962  58.4384750 116.1450752  30.6667806  58.3241345 117.0544626
  29.5212461  58.0402235 116.1062925  30.0654852  52.6511408 125.6855395
  29.4126302  52.8987315 125.0307848  30.4435232  51.8375546 125.3517873
  27.0262026  62.6871101 119.7883566  27.2084421  61.8692757 120.2511318
  27.8495012  62.9038793 119.3508456  27.3604191  61.6139286 117.0498614
  27.8891958  61.1031741 116.4368776  27.6232411  61.2981816 117.9144147
  17.8621284  59.6303156 124.7933948  18.4474721  58.8846843 124.9261852
  17.6646123  59.9407112 125.6770612  20.7159939  62.6654403 119.8096390
  20.0470315  63.1500531 119.3260430  20.5772809  62.9123623 120.7239769
  24.8565208  64.6998146 126.4079048  25.4083516  64.8629768 127.1728134
  25.1971401  65.2902584 125.7359073  16.0847517  50.9272858 116.5892322
  16.3800958  50.0183536 116.5359376  15.1835552  50.9060597 116.2673325
  27.9933595  62.6480122 123.3942731  27.8684735  61.8469862 122.8853676
  28.6512686  63.1426315 122.9056701  30.0568504  60.4489142 125.0222281
  29.1098839  60.3294493 124.9500607  30.4051277  59.5611640 125.1048542
  17.8135358  48.6086956 116.7131647  17.4848064  47.7284335 116.5306753
  18.1674729  48.5534624 117.6008037  27.0614937  60.2441858 121.2226633
  26.9139899  59.3158566 121.4034203  27.8868430  60.2661949 120.7383708
  20.9277181  48.8959925 117.0807125  21.2673254  49.4245847 116.3585733
  21.3749302  49.2340332 117.8565692  30.6649059  61.0670417 122.3091506
  31.5895606  60.8613278 122.1715957  30.4964362  60.8186818 123.2180847
  22.9145328  47.3934547 115.2800418  23.6353691  47.7715800 114.7764135
  22.2910633  48.1123424 115.3835396  27.0576451  48.0979696 116.2158750
  27.2740066  48.9804334 115.9147578  26.5770518  47.7065909 115.4864392
  30.4544375  61.5856084 117.6653597  30.6281253  61.0202507 116.9127450
  30.9473266  62.3856979 117.4833087  23.0608951  46.9282337 118.1097954
  23.1824863  45.9998984 118.3088842  22.7710994  46.9421023 117.1976270
  36.3083766  54.3492507 119.2843897  36.7514912  53.5999833 118.8863020
  35.4310276  54.3402644 118.9017629  31.4419548  60.9022849 114.7650495
  32.1370452  61.5229542 114.9837810  31.7842698  60.0518200 115.0402873
  33.3410971  58.3522554 116.2937826  33.8662295  58.6909827 115.5687146
  33.2533323  57.4169570 116.1100961  25.0031019  62.2656628 128.4227703
  25.3118146  62.0205775 129.2950402  25.8006501  62.4703267 127.9346573
  25.0251631  64.4194538 120.6533079  24.5856622  63.9270916 121.3465936
  25.7759748  63.8767505 120.4125155  17.5043970  60.6106079 120.6557707
  18.3301990  60.3109850 120.2756351  17.1538022  59.8413701 121.1047496
  22.4725504  59.9632547 122.7255381  21.8505513  59.3003252 122.4257609
  23.1430370  59.9893679 122.0429029  15.7052575  58.5292405 121.6146641
  14.8684484  58.1014579 121.4330642  15.6776221  58.7224848 122.5517432
  33.0304877  58.9855458 131.5989024  32.2400420  58.9679597 131.0593524
  32.7938231  59.5243752 132.3538061  33.1502752  55.8347924 128.9121753
  33.2000757  55.6697932 129.8537275  33.0416675  54.9675183 128.5219633
  22.0339010  58.5136470 116.2013842  22.1827131  59.1971935 115.5480514
  22.8405454  58.4941560 116.7163297  34.6520949  58.2544866 129.1563774
  34.3605757  58.6174847 129.9927235  34.0393080  57.5411874 128.9777106
  35.8516631  55.8197746 121.6766344  36.6863522  56.2587550 121.8403905
  35.9875760  55.3436399 120.8574590  32.9008137  53.3777481 127.6243832
  33.3762258  53.5705127 126.8162684  31.9773702  53.4336666 127.3787216
  19.7891643  54.5401648 117.2074910  19.5437685  53.6363978 117.4055121
  19.9587558  54.5418798 116.2654388  19.0587291  50.2730005 114.7061072
  18.3656536  50.3474360 114.0501108  18.8139043  49.5090349 115.2282589
  25.5334416  61.0084601 113.6725589  24.9608383  61.6274788 113.2196061
  26.1067210  61.5583962 114.2065511  31.6009806  50.2543241 125.8572138
  32.5527229  50.3541338 125.8784362  31.4313256  49.4621509 126.3670222
  28.7531676  61.2921751 114.8034171  29.6862349  61.2267312 115.0067047
  28.6654889  62.1278018 114.3448704  31.3819692  60.6087621 111.7638119
  31.3033324  60.2747485 112.6573877  32.2029359  61.1009389 111.7629591
  34.0797884  53.4749360 124.9714437  34.0474204  52.5365361 125.1574121
  34.6898507  53.5533397 124.2380262  25.9181214  52.3445413 111.0141641
  26.8640319  52.2151621 111.0830060  25.5395459  51.6060075 111.4911070
  34.2292372  50.2660404 125.0172721  33.7131421  49.4818860 124.8302649
  35.1132321  49.9379120 125.1819240  31.8903099  44.0101419 120.9768533
  31.6927920  43.7016508 121.8611865  32.5002805  44.7363058 121.1066463
  39.8974433  54.5365367 124.1120474  40.6277822  54.2750655 124.6728178
  39.2881379  53.7994089 124.1522542  37.9789731  52.6773230 124.7094925
  37.2522894  52.5429195 124.1011417  37.5637017  52.9850058 125.5151643
  24.1024132  50.2695390 110.9496527  23.1955587  49.9728502 111.0259240
  24.3800113  49.9725208 110.0830813  25.7186197  44.8132279 117.1040768
  24.9086926  44.4679364 117.4796014  26.4070614  44.5039823 117.6928380
  27.6476746  43.8910326 118.7265065  28.2007784  44.3105780 119.3855088
  27.8846832  42.9646074 118.7688021  22.8722916  47.1282325 111.0908506
  23.7342080  47.4537223 111.3504323  23.0573260  46.3413821 110.5781572
  31.0255553  46.0010851 118.2343729  30.4454222  46.6595655 117.8521781
  30.7591485  45.1788196 117.8231146  29.4759119  45.4015909 120.4365049
  29.9758897  45.5132444 119.6279368  30.1194727  45.0976962 121.0765858
  16.8027075  55.1422918 121.2454710  16.7797763  55.2410606 120.2936593
  17.1127711  55.9888069 121.5671876  29.8080431  48.1610942 117.2900077
  28.9206286  48.4460592 117.0720272  30.2234420  48.0004705 116.4427354
  33.1594967  48.1857463 121.0054416  33.9355357  48.6753915 121.2779033
  32.4343101  48.6115517 121.4626286  35.5967525  48.8985082 122.0628357
  36.1912016  48.6580818 121.3521665  35.6694109  48.1792213 122.6901893
  17.8164681  62.7418693 122.3771522  17.6819149  61.9819094 121.8109520
  17.3996743  63.4659593 121.9100311  28.9523644  57.9255616 111.3848097
  29.6559494  58.1305619 112.0005753  28.2286293  58.4932378 111.6497181
  29.7821454  53.6765478 117.5050367  29.7256656  54.1334029 116.6658000
  30.3349797  52.9156162 117.3273210  33.5926260  49.4655210 118.3300487
  33.3363195  49.0651845 119.1608695  32.9679128  50.1799004 118.2050626
  37.9038598  52.2051283 120.8371778  37.3438156  52.2744472 121.6103340
  37.2982102  52.0292267 120.1171274  20.9733807  63.6388010 122.5889965
  20.8566191  64.5833442 122.4868655  20.1526253  63.3361571 122.9775764
  30.8610342  58.3638146 113.4346557  31.6955946  57.9319344 113.2524032
  30.6994685  58.1920159 114.3623452  30.5156234  54.8670259 114.8002897
  30.4605038  54.7014530 113.8591341  29.8902289  55.5746292 114.9565086
  23.8252359  44.3678368 114.3788215  23.8131029  45.3120208 114.5356486
  24.7175781  44.1848513 114.0847676  21.9988321  64.2916272 125.8045893
  22.9015568  64.3239882 126.1212388  21.7725691  63.3616723 125.8192229
  23.7541923  63.0447258 122.4655972  22.8037554  63.0449120 122.3520344
  24.0574409  62.2979993 121.9492006  27.6404479  40.9621145 118.6334152
  26.8736875  40.4079631 118.7790834  28.0515184  41.0343013 119.4948303
  39.4894617  68.8807797 123.5301734  40.1273027  68.7614544 122.8265074
  39.3715460  69.8288641 123.5889686  36.2984323  68.8335225 123.4663259
  35.9602834  68.7176290 122.5783794  37.1674091  68.4326390 123.4464265
  32.1571139  70.6870701 119.4560150  31.5936004  70.5960638 118.6876437
  32.0423534  69.8670606 119.9362642  36.7804106  69.9870077 129.4249464
  36.7692747  69.5922875 128.5529968  36.9424745  69.2536149 130.0183236
  29.7035571  72.1821893 122.2944370  30.4956863  71.8412718 121.8790669
  29.9432221  72.2916868 123.2146523  37.7370697  74.3541669 114.7674615
  37.0858677  74.9395749 114.3808628  38.5315060  74.8847864 114.8269652
  31.6626325  71.4430806 115.1661749  32.4357201  70.8959793 115.0274625
  32.0151723  72.3075055 115.3776210  33.5011367  72.7707188 128.3728648
  33.2101233  73.6752819 128.2575314  34.1368351  72.8123716 129.0872718
  34.4267574  70.1484037 124.9630008  35.0231146  69.9240059 124.2486971
  34.4842545  69.4068782 125.5655456  33.9992602  67.6023472 112.7980199
  34.2518123  67.0804994 112.0363662  33.0617161  67.4389618 112.9006882
  39.0435885  66.6059251 120.6054942  39.8298974  66.1878674 120.2545359
  39.3074590  67.5105343 120.7736590  39.2145963  72.0432101 115.3043599
  38.5791796  72.1166727 116.0164503  38.8843369  72.6325700 114.6262678
  44.4444312  66.5434484 121.5087921  45.1769484  65.9733701 121.7425750
  43.6883668  66.1556084 121.9494426  33.7188891  69.5051578 115.0004574
  33.6025149  68.8296482 115.6685658  33.8291151  69.0183952 114.1836727
  36.0620432  68.9661725 118.7051263  35.6978639  68.4392346 119.4164184
  36.9187548  68.5760194 118.5317748  41.9669733  60.2556058 125.9682529
  41.6353057  61.1251469 125.7443744  41.3715346  59.9392342 126.6476560
  35.7025919  63.9951625 113.7012611  35.8700321  64.8631861 114.0683083
  35.5123088  64.1578907 112.7773901  38.4601252  72.4568604 125.3678442
  38.1601975  73.3593643 125.2594249  38.1152312  72.1900787 126.2199595
  31.9113734  68.9082401 121.4015146  30.9864230  68.7758615 121.6092838
  32.1598147  69.6876620 121.8985089  41.8598396  64.9751144 123.0475879
  40.9515273  64.9066553 122.7534640  41.8085992  65.4523089 123.8757705
  35.6815140  66.4509283 114.6859278  35.5614765  66.8966333 115.5244759
  34.9867728  66.7994600 114.1272816  29.2722545  68.5515674 122.2358935
  29.4014926  68.8050153 123.1498347  28.5919996  69.1443382 121.9163590
  33.4422032  79.2212924 118.3349410  33.3646062  80.1720749 118.4137890
  32.8383676  78.8758797 118.9924336  35.9339262  66.3940790 130.9910776
  35.1572596  66.9534710 130.9813641  36.5729825  66.8797573 131.5125647
  43.7260042  63.1767582 124.8253753  43.0834423  63.4700116 124.1793548
  43.2214971  63.0620503 125.6306950  41.3800206  66.9230756 115.5139612
  42.2918062  67.1558142 115.3387310  40.8709853  67.5067800 114.9514691
  34.1885634  69.2026243 130.5528743  34.9300318  69.7411287 130.2763567
  33.4822620  69.8292532 130.7100295  39.6640974  71.3455384 129.1500905
  40.0724330  70.9037794 128.4055537  38.9418235  70.7708011 129.4035098
  36.0172044  66.2827990 126.5234462  36.8633239  66.7067404 126.6669111
  35.9570681  65.6261615 127.2173025  39.9869788  71.9056574 122.9053194
  39.3578651  72.0702288 122.2029262  39.5995450  72.3198184 123.6764158
  43.8659020  72.8411012 120.2597558  43.1810058  73.2209913 119.7094591
  43.9502870  73.4506339 120.9929505  39.1671489  63.9432359 128.1815636
  38.9232421  64.6974419 127.6449911  39.4431420  64.3217706 129.0162883
  41.1209952  70.4870971 126.8592901  41.3326847  71.1302731 126.1827282
  41.0739700  69.6533288 126.3914831  38.7236181  63.0988792 123.7629473
  37.8620660  63.3970045 124.0546211  38.7498615  63.3159191 122.8310506
  35.5397750  71.6430982 120.1703279  36.0036096  71.9218685 119.3807901
  35.2754548  70.7414427 119.9876370  32.4321831  71.1902464 123.1083042
  33.0023188  71.6189732 122.4700527  33.0229943  70.9085048 123.8067228
  34.4766636  67.7654135 116.9792844  35.1790680  68.2175178 117.4466770
  34.1447265  67.1237953 117.6072737  32.9246998  66.3565891 131.3544053
  32.2945658  67.0382172 131.5879450  32.8183086  66.2448973 130.4097192
  28.2191970  66.0237687 122.2809978  27.4291024  66.2795216 121.8050088
  28.7103218  66.8386025 122.3862018  42.2355780  73.3642926 125.0315258
  43.0573224  72.9623114 124.7497940  42.2318183  73.2611161 125.9831374
  30.1706716  66.3882267 119.2393454  29.3737879  66.5000961 119.7576950
  29.9432308  66.7268919 118.3734345  36.0012383  72.9126970 127.1875969
  36.0656816  73.3747377 128.0234141  35.2923307  72.2824335 127.3158279
  26.5029673  66.2768178 124.7124968  26.7537712  67.1615188 124.9782544
  27.0389222  66.0972779 123.9400060  50.3261773  69.7081675 121.3800230
  49.5725481  69.1389073 121.2244234  50.4609314  69.6744339 122.3270865
  35.7160401  74.5795077 117.0554949  35.5806076  75.4246613 117.4839797
  36.2570213  74.7814355 116.2920883  29.1689798  72.0970515 117.6282874
  29.6814319  72.8913766 117.7788439  29.8212511  71.3996806 117.5616476
  30.9784683  75.2136272 119.7105628  31.1551311  76.1354236 119.5226611
  31.7741517  74.8994691 120.1400007  35.1195702  62.0744536 131.3089561
  35.8605415  62.6751689 131.2294024  35.3513624  61.3322174 130.7507604
  30.2637040  67.2600903 129.5867791  30.1490555  66.3586161 129.8874890
  29.4081557  67.5064600 129.2352607  37.3428877  75.2018644 131.1855291
  36.8992731  74.4155022 130.8676196  38.0046091  75.3897794 130.5199182
  32.1015998  76.7314445 125.7115970  32.6523424  76.6031509 124.9392964
  31.2627474  77.0309334 125.3610863  39.4410115  75.4821444 129.2136693
  39.4228591  76.3030325 128.7216962  40.3630035  75.3575519 129.4386834
  35.8983170  72.9965573 130.0560201  36.4311506  72.2353861 129.8259509
  35.3697251  72.7039225 130.7984355  39.0652864  58.1025639 125.5853843
  38.7217134  58.9927281 125.5092953  39.4331827  57.9127297 124.7223428
  27.1338715  70.4259170 118.4042445  27.9713937  70.8356178 118.1876153
  27.3116983  69.4858612 118.3742639  39.0303147  68.0934250 114.0926278
  38.5149771  68.8638855 114.3314665  38.7580456  67.4199386 114.7159339
  36.6150258  62.9383951 119.1511516  35.7591855  62.5490801 118.9717155
  37.0277210  63.0175912 118.2911302  38.1449405  60.4730294 123.5503076
  37.6414200  60.4360429 122.7370881  38.4380012  61.3823037 123.6099733
  34.3892291  60.5569024 122.5569258  35.2545288  60.3611833 122.1975147
  34.4569800  60.3279376 123.4838614  44.0037421  70.8466605 116.0279451
  43.2266864  70.5077764 115.5834613  44.6828902  70.8519228 115.3534416
  38.8189450  65.9661342 115.9186059  38.5139586  66.2807491 116.7696202
  39.7719892  66.0442762 115.9613392  37.2635882  72.1251566 117.5679013
  36.7357244  71.3904325 117.2552250  36.7623385  72.9026242 117.3218981
  42.2428728  70.3200586 122.6846059  41.5852403  71.0099848 122.7726188
  43.0469127  70.7097018 123.0280046  31.9954610  62.7871232 119.9285625
  32.5698362  62.5646413 119.1958817  32.5825592  62.8559926 120.6814226
  41.0534187  68.6744959 120.7350001  41.5666069  69.3074951 121.2371711
  41.7035411  68.0746154 120.3693361  32.3224197  64.8175693 113.9481510
  31.4861509  65.1550379 114.2690785  32.1828967  64.6824673 113.0108647
  34.2977278  59.6612481 118.6560694  33.6441690  59.3461498 118.0317309
  34.2557752  59.0388221 119.3820517  35.4088482  69.9431776 110.5713986
  34.5015544  69.7121029 110.7705135  35.9059514  69.1469395 110.7587968
  38.3156561  78.6529283 113.4910672  37.6418260  78.9560980 114.0995630
  38.7022383  79.4558363 113.1416129  37.5315018  66.1494414 122.9808342
  36.6137579  66.3709361 122.8230030  37.9475162  66.2240725 122.1220049
  38.3150066  67.5485830 118.1111022  39.0621885  68.0607227 117.8018144
  38.5841655  67.2269883 118.9715415  36.5876716  70.0444371 115.0937976
  35.6787935  69.7603404 115.1910446  36.6171800  70.4643449 114.2341283
  41.8195983  73.6550960 118.8629144  41.3658310  72.8141870 118.9194334
  41.1889950  74.2912359 119.2003924  40.7628903  64.5842946 120.0929811
  40.0251660  64.0720332 120.4240054  41.0155676  64.1443328 119.2813088
  40.2628922  75.4927457 119.7978962  40.5551897  76.0532514 119.0791327
  40.7727543  75.7856018 120.5532121  40.8640530  57.3619198 120.6871580
  41.1699407  56.5016562 120.3997495  41.5893135  57.9536818 120.4870574
  27.1564886  67.7649885 119.0753178  26.9589286  67.1719246 118.3504245
  26.6011550  67.4602095 119.7929117  35.1361610  67.6572991 121.1947771
  35.1910220  66.7046828 121.1190248  34.3252812  67.8132430 121.6789070
  36.2852804  71.5853114 112.4326055  35.8472234  70.8688973 111.9731692
  37.0263244  71.8129229 111.8711146  33.0753970  66.2750051 118.9538150
  32.2621835  66.5744222 119.3603342  33.5712964  65.8805740 119.6712633
  35.2262548  76.2707808 120.8872415  35.1838726  76.4968654 119.9580947
  36.1425247  76.0371183 121.0358216  38.6728181  66.7391876 127.7853044
  39.0277569  66.9663349 128.6447510  39.3200313  67.0710252 127.1630300
  44.4025918  69.8610311 118.4902373  44.2643817  70.0511907 117.5623562
  44.0462137  70.6229694 118.9470424  32.5668045  63.8468407 124.5699385
  33.2067424  63.7057166 123.8722349  31.7345575  63.5602920 124.1937987
  44.4295298  71.9286838 123.5013645  44.8631805  71.8362128 124.3496699
  45.1426879  71.9044339 122.8633661  33.3428348  73.1470837 120.6834378
  34.1368947  72.6521157 120.4816953  32.6320041  72.6188700 120.3202083
  38.1623193  75.5288933 125.0346745  38.2160215  76.0979869 125.8024461
  37.2937974  75.6990818 124.6700783  29.6511112  67.2913919 116.7594130
  28.7208700  67.2298374 116.9764093  29.7468584  66.7689872 115.9630772
  29.5696661  63.8168732 119.3472372  29.8303478  64.7314065 119.2381533
  30.3913833  63.3493174 119.4968985  31.0421586  65.2306489 126.5171197
  31.7144640  65.0223851 125.8683846  30.2151373  65.0328575 126.0776429
  45.2910848  71.9710539 126.0346530  45.4846738  72.8756350 126.2805805
  45.1911466  71.5117958 126.8685115  36.9447158  61.8568430 128.5336858
  36.2975073  62.5558379 128.4401334  37.7148174  62.2904574 128.9013106
  40.3525956  72.1217282 131.6087411  40.2011463  71.8927834 130.6917494
  40.3430636  73.0787883 131.6218756  37.1211293  69.6949195 126.5933677
  38.0503353  69.8460354 126.4202645  36.7002323  69.7833215 125.7382324
  35.9199624  73.7199859 124.3632215  35.7810710  73.3518643 125.2358153
  35.1314221  74.2347498 124.1916173  36.5147776  78.8208955 115.7057751
  36.6899532  78.3496999 116.5203374  35.8280564  79.4474722 115.9339012
  37.4704840  73.0981462 121.7521053  37.1354672  73.0582232 122.6478703
  36.9708785  72.4326178 121.2791463  31.4449084  68.5049092 127.2773634
  31.3068881  67.7729331 127.8785173  32.3554007  68.4157992 126.9957822
  40.4064031  70.4437496 112.0258112  39.7893202  69.7184324 111.9291165
  39.9380520  71.2046856 111.6825187  34.0731384  68.2169051 126.7657313
  34.7831003  67.5762243 126.7243932  34.0300692  68.4681946 127.6883494
  42.0618163  75.1536404 129.6863893  42.0030709  74.4695625 129.0194476
  42.4637681  75.8955394 129.2344519  32.7860318  65.2034269 128.5852953
  32.2497675  64.7525007 129.2374549  32.1977027  65.3380178 127.8423417
  31.0808862  81.9698318 122.4797612  31.3205460  82.6016842 123.1576630
  30.2378058  81.6186358 122.7662971  32.1962577  64.6622920 111.1479417
  31.3192043  64.5411721 110.7841663  32.6720330  63.8708999 110.8958305
  42.0635570  73.1175988 127.9177872  41.1762349  72.7801910 128.0404271
  42.6334121  72.3859020 128.1546638  23.7164717  69.4500080 121.2420924
  24.4035757  69.1361810 120.6541939  23.5612846  70.3541445 120.9688175
  28.5199439  64.3390277 125.6705947  28.4357628  63.7315946 124.9356357
  27.6982146  64.8299295 125.6715444  35.5936724  77.7777441 124.8839116
  35.5206895  78.5832412 125.3958420  35.1514117  77.9769407 124.0587137
  35.3826503  77.0149211 118.3941937  34.5994025  77.5570891 118.4880162
  36.0819248  77.5323190 118.7936178  38.6923153  62.8243840 121.0376142
  39.1891853  62.0713803 120.7177213  37.9210135  62.8608157 120.4719352
  46.5452911  68.5284206 122.6794434  46.5342787  69.4108921 122.3088367
  45.6770290  68.1755757 122.4848971  38.0535407  77.6764275 127.0397274
  38.7663379  78.3111740 126.9673176  37.5625436  77.7728141 126.2237276
  39.7752934  71.5815527 118.6114566  38.8409213  71.7016990 118.4419270
  39.9529602  70.6787994 118.3474576  35.2758122  64.9661223 120.7647827
  34.9055910  64.4132264 121.4528733  35.7717215  64.3619357 120.2122827
  43.1625485  67.4232847 119.1464600  43.6285938  68.2560838 119.0724903
  43.6132986  66.9577828 119.8509858  33.1047321  75.4258718 127.8602845
  33.8056780  76.0595201 128.0132239  32.6342436  75.7673450 127.0998484
  41.2301716  73.7676668 116.1450752  41.5061560  73.6533263 117.0544626
  40.3606215  73.3694153 116.1062925  41.1342148  59.7913434 123.1855501
  40.2205228  60.0217661 123.3537708  41.5635250  59.8751878 124.0369534
  40.9048607  67.9803326 125.6855395  40.2520057  68.2279233 125.0307848
  41.2828986  67.1667464 125.3517873  37.8655780  78.0163019 119.7883566
  38.0478175  77.1984675 120.2511318  38.6888766  78.2330711 119.3508456
  38.1997946  76.9431204 117.0498614  38.7285712  76.4323659 116.4368776
  38.4626166  76.6273734 117.9144147  36.9536180  68.7223137 132.1721432
  36.2776817  68.6217266 132.8423808  37.7763813  68.5662350 132.6357430
  28.7015039  74.9595073 124.7933948  29.2868476  74.2138761 124.9261852
  28.5039877  75.2699030 125.6770612  31.5553694  77.9946321 119.8096390
  30.8864069  78.4792448 119.3260430  31.4166564  78.2415541 120.7239769
  23.2932693  67.5300673 123.5138391  23.3316793  66.9964264 124.3075509
  22.7872986  67.0035879 122.8949368  35.6958962  80.0290064 126.4079048
  36.2477271  80.1921686 127.1728134  36.0365156  80.6194502 125.7359073
  30.6723456  62.3765214 127.0100933  30.7364782  63.2380045 126.5978331
  30.6090576  61.7639216 126.2773292  30.1475728  64.4488347 130.6573967
  30.7747767  64.0665424 131.2711492  29.2903647  64.2302548 131.0229660
  40.5469837  74.8551322 132.2627703  41.0909741  75.4681280 131.7682658
  39.9656682  75.4130900 132.7794716  26.9241271  66.2564776 116.5892322
  27.2194712  65.3475454 116.5359376  26.0229307  66.2352515 116.2673325
  38.8327350  77.9772040 123.3942731  38.7078489  77.1761780 122.8853676
  39.4906441  78.4718233 122.9056701  30.4535518  64.3320772 122.5719871
  29.7322104  64.9456740 122.4327344  31.2428774  64.8678537 122.4936517
  40.8962258  75.7781060 125.0222281  39.9492594  75.6586411 124.9500607
  41.2445031  74.8903558 125.1048542  33.2561832  61.6675199 128.8460523
  33.7796233  61.9137495 129.6086832  33.0374165  62.4995233 128.4263660
  28.6529113  63.9378873 116.7131647  28.3241819  63.0576252 116.5306753
  29.0068483  63.8826542 117.6008037  37.9008691  75.5733776 121.2226633
  37.7533654  74.6450483 121.4034203  38.7262185  75.5953867 120.7383708
  31.7670936  64.2251843 117.0807125  32.1067008  64.7537764 116.3585733
  32.2143056  64.5632249 117.8565692  41.5042813  76.3962335 122.3091506
  42.4289361  76.1905196 122.1715957  41.3358117  76.1478736 123.2180847
  34.4614377  62.6088894 126.5310193  34.1211197  61.8096707 126.9330873
  33.7553383  62.9090605 125.9587026  35.1130848  59.6938206 124.9837516
  35.9356918  59.2198684 124.8616406  35.3568912  60.4728690 125.4836202
  33.7539083  62.7226465 115.2800418  34.4747445  63.1007717 114.7764135
  33.1304387  63.4415341 115.3835396  37.8970206  63.4271614 116.2158750
  38.1133820  64.3096252 115.9147578  37.4164273  63.0357827 115.4864392
  32.6369427  66.3857327 122.7929495  32.4914008  66.6997630 123.6853776
  32.1594631  67.0042227 122.2400393  34.4965810  63.3759875 122.8410384
  34.4827379  62.4800968 122.5042682  35.2138238  63.3830539 123.4748670
  36.3491941  63.8097215 124.8863512  36.0909719  64.7314286 124.8847842
  35.8176981  63.4127650 125.5763976  41.2938130  76.9148002 117.6653597
  41.4675007  76.3494425 116.9127450  41.7867021  77.7148897 117.4833087
  27.1115089  68.9262671 125.7317156  26.5668557  69.7022479 125.8637430
  27.9894439  69.2733476 125.5736277  33.9002706  62.2574255 118.1097954
  34.0218617  61.3290901 118.3088842  33.6104748  62.2712941 117.1976270
  36.7693896  59.9429166 121.2464674  36.7915593  60.0068499 120.2916654
  37.1861955  59.1033674 121.4405180  47.1477521  69.6784425 119.2843897
  47.5908667  68.9291750 118.8863020  46.2704031  69.6694561 118.9017629
  42.2813302  76.2314767 114.7650495  42.9764207  76.8521459 114.9837810
  42.6236452  75.3810118 115.0402873  27.8981111  68.0532568 128.6247313
  27.1562847  68.2015203 129.2111943  27.5773855  68.3140833 127.7614062
  44.1804725  73.6814472 116.2937826  44.7056049  74.0201745 115.5687146
  44.0927078  72.7461487 116.1100961  35.8424774  77.5948546 128.4227703
  36.1511900  77.3497693 129.2950402  36.6400256  77.7995184 127.9346573
  35.8645386  79.7486455 120.6533079  35.4250376  79.2562834 121.3465936
  36.6153503  79.2059423 120.4125155  28.3437725  75.9397996 120.6557707
  29.1695745  75.6401768 120.2756351  27.9931777  75.1705619 121.1047496
  33.3119258  75.2924464 122.7255381  32.6899267  74.6295169 122.4257609
  33.9824125  75.3185596 122.0429029  26.5446330  73.8584323 121.6146641
  25.7078238  73.4306497 121.4330642  26.5169975  74.0516766 122.5517432
  33.3843786  63.7706252 132.3187887  33.4331941  64.6468375 131.9365657
  33.9266300  63.2283646 131.7459530  43.8698631  74.3147376 131.5989024
  43.0794175  74.2971515 131.0593524  43.6331986  74.8535669 132.3538061
  43.9896506  71.1639842 128.9121753  44.0394511  70.9989850 129.8537275
  43.8810430  70.2967101 128.5219633  32.8732765  73.8428388 116.2013842
  33.0220885  74.5263852 115.5480514  33.6799208  73.8233478 116.7163297
  41.2800269  67.1470770 130.2281059  42.1810131  67.0077235 129.9365057
  41.3548243  67.3125225 131.1679237  35.6143074  64.5237625 129.0734246
  34.7446383  64.8171191 128.8016834  35.8502554  65.1078070 129.7941509
  45.4914703  73.5836784 129.1563774  45.1999511  73.9466764 129.9927235
  44.8786834  72.8703792 128.9777106  46.6910385  71.1489663 121.6766344
  47.5257277  71.5879467 121.8403905  46.8269514  70.6728317 120.8574590
  43.7401891  68.7069398 127.6243832  44.2156013  68.8997045 126.8162684
  42.8167457  68.7628584 127.3787216  30.6285398  69.8693565 117.2074910
  30.3831440  68.9655895 117.4055121  30.7981312  69.8710716 116.2654388
  38.3182108  60.7417242 126.5899666  38.8364052  61.4778269 126.2646155
  37.9637241  61.0481235 127.4246425  29.8981045  65.6021923 114.7061072
  29.2050290  65.6766278 114.0501108  29.6532797  64.8382267 115.2282589
  38.5694702  57.1617524 122.1100563  38.8496456  56.4940713 122.7360989
  39.3545309  57.3546620 121.5975227  36.3728170  76.3376518 113.6725589
  35.8002138  76.9566705 113.2196061  36.9460964  76.8875880 114.2065511
  42.4403560  65.5835158 125.8572138  43.3920983  65.6833256 125.8784362
  42.2707011  64.7913427 126.3670222  40.4617940  62.6690742 126.0431539
  39.8667872  62.9495754 125.3478027  40.1767636  63.1584642 126.8148280
  39.5925430  76.6213668 114.8034171  40.5256103  76.5559230 115.0067047
  39.5048643  77.4569935 114.3448704  42.2213447  75.9379539 111.7638119
  42.1427078  75.6039402 112.6573877  43.0423114  76.4301307 111.7629591
  44.9191638  68.8041278 124.9714437  44.8867958  67.8657279 125.1574121
  45.5292262  68.8825315 124.2380262  36.7574969  67.6737331 111.0141641
  37.7034074  67.5443539 111.0830060  36.3789214  66.9351993 111.4911070
  45.0686127  65.5952321 125.0172721  44.5525175  64.8110778 124.8302649
  45.9526075  65.2671038 125.1819240  42.7296853  59.3393337 120.9768533
  42.5321675  59.0308425 121.8611865  43.3396559  60.0654976 121.1066463
  50.7368188  69.8657285 124.1120474  51.4671576  69.6042573 124.6728178
  50.1275133  69.1286007 124.1522542  48.8183485  68.0065147 124.7094925
  48.0916649  67.8721112 124.1011417  48.4030772  68.3141976 125.5151643
  36.6413661  71.7255077 132.4742298  37.5616671  71.9033676 132.6682345
  36.6063245  70.7811122 132.3221998  34.9417886  65.5987307 110.9496527
  34.0349341  65.3020420 111.0259240  35.2193867  65.3017125 110.0830813
  25.8595826  66.9193671 121.3995573  25.5398611  66.0658979 121.1069947
  25.3129255  67.1342249 122.1553540  29.6375734  69.6356112 125.1165080
  29.8561744  70.5673220 125.1353113  30.0501508  69.2764086 125.9019883
  36.5579952  60.1424197 117.1040768  35.7480680  59.7971282 117.4796014
  37.2464369  59.8331741 117.6928380  38.4870500  59.2202244 118.7265065
  39.0401539  59.6397697 119.3855088  38.7240586  58.2937992 118.7688021
  34.5103599  65.2089318 134.5067829  34.4100326  66.1583675 134.4379920
  34.2925141  64.8807556 133.6343899  33.7116671  62.4574243 111.0908506
  34.5735835  62.7829141 111.3504323  33.8967015  61.6705739 110.5781572
  25.7284086  70.5396582 123.3688695  25.0347558  70.1250535 122.8558649
  26.4757077  70.5817119 122.7722114  41.8649307  61.3302769 118.2343729
  41.2847976  61.9887573 117.8521781  41.5985240  60.5080114 117.8231146
  40.3152874  60.7307827 120.4365049  40.8152652  60.8424361 119.6279368
  40.9588481  60.4268880 121.0765858  34.3734869  68.6386456 133.3232890
  33.8901951  69.4386817 133.5296779  34.4595808  68.6494401 132.3700334
  27.6420829  70.4714836 121.2454710  27.6191517  70.5702523 120.2936593
  27.9521466  71.3179987 121.5671876  30.3008207  72.5290991 125.3601324
  31.2551460  72.4974933 125.2931256  30.1020730  72.0681615 126.1751550
  30.8907589  71.0992107 127.9272122  31.7100478  71.5936186 127.9506959
  31.1644397  70.1824075 127.8989689  40.6474185  63.4902859 117.2900077
  39.7600040  63.7752510 117.0720272  41.0628174  63.3296623 116.4427354
  43.9988721  63.5149380 121.0054416  44.7749111  64.0045833 121.2779033
  43.2736856  63.9407435 121.4626286  46.4361280  64.2277000 122.0628357
  47.0305771  63.9872736 121.3521665  46.5087864  63.5084130 122.6901893
  28.6558436  78.0710611 122.3771522  28.5212904  77.3111011 121.8109520
  28.2390498  78.7951510 121.9100311  39.7917399  73.2547534 111.3848097
  40.4953249  73.4597537 112.0005753  39.0680047  73.8224296 111.6497181
  40.6215209  69.0057395 117.5050367  40.5650410  69.4625947 116.6658000
  41.1743551  68.2448080 117.3273210  44.4320015  64.7947127 118.3300487
  44.1756949  64.3943763 119.1608695  43.8072883  65.5090921 118.2050626
  48.7432353  67.5343201 120.8371778  48.1831911  67.6036390 121.6103340
  48.1375856  67.3584185 120.1171274  31.8127562  78.9679928 122.5889965
  31.6959946  79.9125360 122.4868655  30.9920008  78.6653489 122.9775764
  41.7004096  73.6930063 113.4346557  42.5349700  73.2611262 113.2524032
  41.5388439  73.5212077 114.3623452  41.3549988  70.1962177 114.8002897
  41.2998792  70.0306448 113.8591341  40.7296044  70.9038210 114.9565086
  26.1442503  65.4330241 128.6264319  26.7901367  64.9229195 129.1151544
  25.9359654  66.1698923 129.2007744  38.6695895  72.5011088 134.1256459
  39.5387055  72.6751741 133.7643094  38.1902647  73.3205505 134.0032189
  34.6646114  59.6970286 114.3788215  34.6524784  60.6412126 114.5356486
  35.5569536  59.5140431 114.0847676  32.8382076  79.6208190 125.8045893
  33.7409322  79.6531800 126.1212388  32.6119446  78.6908640 125.8192229
  34.5935678  78.3739176 122.4655972  33.6431309  78.3741038 122.3520344
  34.8968164  77.6271911 121.9492006  38.4798233  56.2913062 118.6334152
  37.7130629  55.7371549 118.7790834  38.8908938  56.3634931 119.4948303
  50.3288371  84.2099714 123.5301734  50.9666781  84.0906462 122.8265074
  50.2109214  85.1580558 123.5889686  47.1378077  84.1627143 123.4663259
  46.7996589  84.0468207 122.5783794  48.0067846  83.7618308 123.4464265
  42.9964893  86.0162619 119.4560150  42.4329758  85.9252556 118.6876437
  42.8817288  85.1962523 119.9362642  47.6197860  85.3161994 129.4249464
  47.6086501  84.9214793 128.5529968  47.7818500  84.5828067 130.0183236
  40.5429325  87.5113811 122.2944370  41.3350617  87.1704635 121.8790669
  40.7825975  87.6208786 123.2146523  48.5764452  89.6833587 114.7674615
  47.9252432  90.2687667 114.3808628  49.3708815  90.2139782 114.8269652
  42.5020079  86.7722724 115.1661749  43.2750955  86.2251711 115.0274625
  42.8545478  87.6366973 115.3776210  44.3405122  88.0999106 128.3728648
  44.0494988  89.0044737 128.2575314  44.9762106  88.1415634 129.0872718
  45.2661328  85.4775955 124.9630008  45.8624901  85.2531977 124.2486971
  45.3236300  84.7360700 125.5655456  44.8386357  82.9315390 112.7980199
  45.0911878  82.4096911 112.0363662  43.9010916  82.7681535 112.9006882
  49.8829640  81.9351168 120.6054942  50.6692729  81.5170591 120.2545359
  50.1468344  82.8397260 120.7736590  50.0539717  87.3724019 115.3043599
  49.4185550  87.4458645 116.0164503  49.7237123  87.9617617 114.6262678
  55.2838067  81.8726401 121.5087921  56.0163239  81.3025618 121.7425750
  54.5277423  81.4848002 121.9494426  44.5582646  84.8343496 115.0004574
  44.4418904  84.1588399 115.6685658  44.6684905  84.3475870 114.1836727
  46.9014187  84.2953643 118.7051263  46.5372394  83.7684264 119.4164184
  47.7581302  83.9052112 118.5317748  52.8063487  75.5847976 125.9682529
  52.4746812  76.4543387 125.7443744  52.2109101  75.2684260 126.6476560
  46.5419674  79.3243543 113.7012611  46.7094076  80.1923779 114.0683083
  46.3516843  79.4870824 112.7773901  49.2995007  87.7860522 125.3678442
  48.9995730  88.6885560 125.2594249  48.9546066  87.5192705 126.2199595
  42.7507488  84.2374318 121.4015146  41.8257985  84.1050533 121.6092838
  42.9991901  85.0168538 121.8985089  52.6992150  80.3043062 123.0475879
  51.7909028  80.2358470 122.7534640  52.6479746  80.7815007 123.8757705
  46.5208894  81.7801200 114.6859278  46.4008520  82.2258251 115.5244759
  45.8261483  82.1286518 114.1272816  40.1116299  83.8807592 122.2358935
  40.2408680  84.1342071 123.1498347  39.4313751  84.4735300 121.9163590
  44.2815786  94.5504842 118.3349410  44.2039816  95.5012667 118.4137890
  43.6777430  94.2050714 118.9924336  46.7733016  81.7232707 130.9910776
  45.9966350  82.2826628 130.9813641  47.4123579  82.2089490 131.5125647
  54.5653797  78.5059500 124.8253753  53.9228177  78.7992033 124.1793548
  54.0608725  78.3912421 125.6306950  52.2193961  82.2522673 115.5139612
  53.1311817  82.4850060 115.3387310  51.7103608  82.8359718 114.9514691
  45.0279389  84.5318161 130.5528743  45.7694073  85.0703205 130.2763567
  44.3216374  85.1584449 130.7100295  50.5034728  86.6747301 129.1500905
  50.9118084  86.2329712 128.4055537  49.7811990  86.0999929 129.4035098
  46.8565798  81.6119908 126.5234462  47.7026993  82.0359322 126.6669111
  46.7964436  80.9553532 127.2173025  50.8263543  87.2348492 122.9053194
  50.1972405  87.3994206 122.2029262  50.4389205  87.6490101 123.6764158
  54.7052775  88.1702930 120.2597558  54.0203813  88.5501831 119.7094591
  54.7896624  88.7798256 120.9929505  50.0065244  79.2724276 128.1815636
  49.7626175  80.0266337 127.6449911  50.2825174  79.6509624 129.0162883
  51.9603706  85.8162889 126.8592901  52.1720602  86.4594649 126.1827282
  51.9133455  84.9825205 126.3914831  49.5629935  78.4280709 123.7629473
  48.7014414  78.7261963 124.0546211  49.5892370  78.6451108 122.8310506
  46.3791505  86.9722900 120.1703279  46.8429850  87.2510603 119.3807901
  46.1148303  86.0706344 119.9876370  43.2715586  86.5194381 123.1083042
  43.8416943  86.9481650 122.4700527  43.8623698  86.2376966 123.8067228
  45.3160391  83.0946052 116.9792844  46.0184434  83.5467096 117.4466770
  44.9841019  82.4529871 117.6072737  43.7640752  81.6857809 131.3544053
  43.1339413  82.3674090 131.5879450  43.6576840  81.5740891 130.4097192
  39.0585725  81.3529605 122.2809978  38.2684779  81.6087133 121.8050088
  39.5496972  82.1677943 122.3862018  53.0749534  88.6934844 125.0315258
  53.8966978  88.2915031 124.7497940  53.0711937  88.5903078 125.9831374
  41.0100470  81.7174184 119.2393454  40.2131633  81.8292878 119.7576950
  40.7826062  82.0560836 118.3734345  46.8406138  88.2418887 127.1875969
  46.9050570  88.7039295 128.0234141  46.1317062  87.6116252 127.3158279
  37.3423428  81.6060095 124.7124968  37.5931466  82.4907105 124.9782544
  37.8782976  81.4264697 123.9400060  61.1655527  85.0373593 121.3800230
  60.4119236  84.4680991 121.2244234  61.3003069  85.0036257 122.3270865
  46.5554155  89.9086995 117.0554949  46.4199830  90.7538531 117.4839797
  47.0963968  90.1106273 116.2920883  43.0421495  75.9878575 133.7169304
  42.6488441  75.4344773 134.3916949  43.8587635  76.2989153 134.1075822
  40.0083553  87.4262433 117.6282874  40.5208073  88.2205683 117.7788439
  40.6606266  86.7288723 117.5616476  41.8178437  90.5428189 119.7105628
  41.9945066  91.4646154 119.5226611  42.6135271  90.2286608 120.1400007
  45.9589456  77.4036454 131.3089561  46.6999169  78.0043607 131.2294024
  46.1907379  76.6614092 130.7507604  41.1030794  82.5892821 129.5867791
  40.9884309  81.6878078 129.8874890  40.2475312  82.8356518 129.2352607
  48.1822632  90.5310561 131.1855291  47.7386486  89.7446940 130.8676196
  48.8439845  90.7189712 130.5199182  42.9409753  92.0606363 125.7115970
  43.4917178  91.9323426 124.9392964  42.1021229  92.3601252 125.3610863
  50.2803870  90.8113361 129.2136693  50.2622345  91.6322242 128.7216962
  51.2023790  90.6867437 129.4386834  46.7376924  88.3257491 130.0560201
  47.2705261  87.5645779 129.8259509  46.2091005  88.0331143 130.7984355
  49.9046619  73.4317557 125.5853843  49.5610888  74.3219198 125.5092953
  50.2725582  73.2419214 124.7223428  37.9732470  85.7551087 118.4042445
  38.8107692  86.1648096 118.1876153  38.1510737  84.8150529 118.3742639
  49.8696902  83.4226168 114.0926278  49.3543525  84.1930773 114.3314665
  49.5974210  82.7491304 114.7159339  47.4544013  78.2675869 119.1511516
  46.5985609  77.8782719 118.9717155  47.8670964  78.3467829 118.2911302
  48.9843159  75.8022212 123.5503076  48.4807955  75.7652347 122.7370881
  49.2773766  76.7114955 123.6099733  45.2286045  75.8860942 122.5569258
  46.0939042  75.6903750 122.1975147  45.2963554  75.6571293 123.4838614
  54.8431176  86.1758523 116.0279451  54.0660619  85.8369682 115.5834613
  55.5222657  86.1811146 115.3534416  49.6583205  81.2953260 115.9186059
  49.3533340  81.6099409 116.7696202  50.6113647  81.3734680 115.9613392
  48.1029637  87.4543483 117.5679013  47.5750998  86.7196243 117.2552250
  47.6017139  88.2318160 117.3218981  53.0822483  85.6492504 122.6846059
  52.4246157  86.3391765 122.7726188  53.8862882  86.0388936 123.0280046
  42.8348364  78.1163150 119.9285625  43.4092116  77.8938331 119.1958817
  43.4219347  78.1851844 120.6814226  51.8927942  84.0036876 120.7350001
  52.4059823  84.6366868 121.2371711  52.5429165  83.4038072 120.3693361
  43.1617951  80.1467611 113.9481510  42.3255264  80.4842297 114.2690785
  43.0222721  80.0116590 113.0108647  45.1371032  74.9904398 118.6560694
  44.4835444  74.6753416 118.0317309  45.0951506  74.3680139 119.3820517
  46.2482237  85.2723694 110.5713986  45.3409299  85.0412947 110.7705135
  46.7453269  84.4761313 110.7587968  49.1550316  93.9821201 113.4910672
  48.4812015  94.2852898 114.0995630  49.5416138  94.7850281 113.1416129
  48.3708772  81.4786332 122.9808342  47.4531334  81.7001279 122.8230030
  48.7868916  81.5532642 122.1220049  49.1543820  82.8777748 118.1111022
  49.9015639  83.3899145 117.8018144  49.4235410  82.5561800 118.9715415
  47.4270470  85.3736288 115.0937976  46.5181690  85.0895321 115.1910446
  47.4565554  85.7935367 114.2341283  52.6589738  88.9842878 118.8629144
  52.2052065  88.1433788 118.9194334  52.0283704  89.6204276 119.2003924
  51.6022657  79.9134864 120.0929811  50.8645414  79.4012250 120.4240054
  51.8549431  79.4735246 119.2813088  51.1022677  90.8219375 119.7978962
  51.3945651  91.3824432 119.0791327  51.6121298  91.1147936 120.5532121
  51.7034285  72.6911116 120.6871580  52.0093161  71.8308479 120.3997495
  52.4286889  73.2828736 120.4870574  37.9958641  83.0941803 119.0753178
  37.7983041  82.5011163 118.3504245  37.4405305  82.7894013 119.7929117
  45.9755364  82.9864909 121.1947771  46.0303974  82.0338745 121.1190248
  45.1646566  83.1424348 121.6789070  47.1246558  86.9145032 112.4326055
  46.6865988  86.1980891 111.9731692  47.8656999  87.1421147 111.8711146
  43.9147724  81.6041969 118.9538150  43.1015590  81.9036139 119.3603342
  44.4106718  81.2097658 119.6712633  46.0656302  91.5999726 120.8872415
  46.0232481  91.8260572 119.9580947  46.9819001  91.3663100 121.0358216
  49.5121936  82.0683793 127.7853044  49.8671324  82.2955266 128.6447510
  50.1594067  82.4002170 127.1630300  55.2419673  85.1902229 118.4902373
  55.1037571  85.3803825 117.5623562  54.8855892  85.9521612 118.9470424
  43.4061799  79.1760324 124.5699385  44.0461178  79.0349083 123.8722349
  42.5739330  78.8894838 124.1937987  55.2689053  87.2578756 123.5013645
  55.7025559  87.1654045 124.3496699  55.9820633  87.2336257 122.8633661
  44.1822103  88.4762755 120.6834378  44.9762701  87.9813075 120.4816953
  43.4713795  87.9480618 120.3202083  49.0016947  90.8580850 125.0346745
  49.0553970  91.4271787 125.8024461  48.1331729  91.0282735 124.6700783
  40.4904866  82.6205836 116.7594130  39.5602455  82.5590292 116.9764093
  40.5862338  82.0981789 115.9630772  40.4090415  79.1460649 119.3472372
  40.6697233  80.0605983 119.2381533  41.2307588  78.6785092 119.4968985
  41.8815341  80.5598406 126.5171197  42.5538394  80.3515769 125.8683846
  41.0545127  80.3620492 126.0776429  56.1304602  87.3002457 126.0346530
  56.3240492  88.2048267 126.2805805  56.0305220  86.8409876 126.8685115
  47.7840913  77.1860347 128.5336858  47.1368828  77.8850297 128.4401334
  48.5541928  77.6196491 128.9013106  51.1919711  87.4509200 131.6087411
  51.0405217  87.2219751 130.6917494  51.1824390  88.4079801 131.6218756
  47.9605047  85.0241112 126.5933677  48.8897107  85.1752272 126.4202645
  47.5396077  85.1125133 125.7382324  46.7593379  89.0491777 124.3632215
  46.6204465  88.6810561 125.2358153  45.9707975  89.5639416 124.1916173
  47.3541531  94.1500873 115.7057751  47.5293287  93.6788916 116.5203374
  46.6674319  94.7766639 115.9339012  48.3098594  88.4273379 121.7521053
  47.9748427  88.3874149 122.6478703  47.8102540  87.7618095 121.2791463
  42.2842838  83.8341009 127.2773634  42.1462636  83.1021248 127.8785173
  43.1947762  83.7449910 126.9957822  51.2457786  85.7729414 112.0258112
  50.6286956  85.0476242 111.9291165  50.7774274  86.5338774 111.6825187
  44.9125139  83.5460969 126.7657313  45.6224757  82.9054161 126.7243932
  44.8694447  83.7973864 127.6883494  52.9011917  90.4828322 129.6863893
  52.8424464  89.7987542 129.0194476  53.3031436  91.2247312 129.2344519
  43.6254073  80.5326187 128.5852953  43.0891430  80.0816925 129.2374549
  43.0370781  80.6672095 127.8423417  41.9202616  97.2990236 122.4797612
  42.1599214  97.9308760 123.1576630  41.0771813  96.9478276 122.7662971
  43.0356332  79.9914838 111.1479417  42.1585798  79.8703639 110.7841663
  43.5114085  79.2000916 110.8958305  52.9029325  88.4467906 127.9177872
  52.0156103  88.1093828 128.0404271  53.4727876  87.7150937 128.1546638
  34.5558472  84.7791998 121.2420924  35.2429512  84.4653728 120.6541939
  34.4006600  85.6833362 120.9688175  39.3593194  79.6682194 125.6705947
  39.2751383  79.0607864 124.9356357  38.5375900  80.1591213 125.6715444
  46.4330478  93.1069358 124.8839116  46.3600650  93.9124330 125.3958420
  45.9907871  93.3061324 124.0587137  46.2220258  92.3441128 118.3941937
  45.4387780  92.8862809 118.4880162  46.9213003  92.8615108 118.7936178
  49.5316908  78.1535758 121.0376142  50.0285607  77.4005720 120.7177213
  48.7603889  78.1900075 120.4719352  57.3846665  83.8576123 122.6794434
  57.3736541  84.7400839 122.3088367  56.5164045  83.5047674 122.4848971
  48.8929162  93.0056192 127.0397274  49.6057134  93.6403657 126.9673176
  48.4019190  93.1020058 126.2237276  50.6146688  86.9107445 118.6114566
  49.6802967  87.0308908 118.4419270  50.7923357  86.0079912 118.3474576
  46.1151877  80.2953141 120.7647827  45.7449664  79.7424181 121.4528733
  46.6110969  79.6911274 120.2122827  54.0019240  82.7524764 119.1464600
  54.4679692  83.5852756 119.0724903  54.4526740  82.2869746 119.8509858
  43.9441075  90.7550636 127.8602845  44.6450535  91.3887119 128.0132239
  43.4736190  91.0965367 127.0998484  52.0695471  89.0968586 116.1450752
  52.3455315  88.9825180 117.0544626  51.1999970  88.6986071 116.1062925
  51.9735903  75.1205351 123.1855501  51.0598982  75.3509578 123.3537708
  52.4029004  75.2043795 124.0369534  51.7442361  83.3095243 125.6855395
  51.0913811  83.5571151 125.0307848  52.1222741  82.4959382 125.3517873
  48.7049535  93.3454937 119.7883566  48.8871929  92.5276592 120.2511318
  49.5282521  93.5622629 119.3508456  49.0391700  92.2723122 117.0498614
  49.5679467  91.7615576 116.4368776  49.3019920  91.9565652 117.9144147
  47.7929934  84.0515054 132.1721432  47.1170571  83.9509184 132.8423808
  48.6157568  83.8954268 132.6357430  39.5408793  90.2886991 124.7933948
  40.1262230  89.5430679 124.9261852  39.3433632  90.5990948 125.6770612
  42.3947448  93.3238238 119.8096390  41.7257824  93.8084366 119.3260430
  42.2560318  93.5707459 120.7239769  34.1326448  82.8592591 123.5138391
  34.1710547  82.3256182 124.3075509  33.6266741  82.3327797 122.8949368
  46.5352717  95.3581982 126.4079048  47.0871025  95.5213603 127.1728134
  46.8758910  95.9486420 125.7359073  41.5117210  77.7057132 127.0100933
  41.5758537  78.5671963 126.5978331  41.4484330  77.0931133 126.2773292
  40.9869483  79.7780264 130.6573967  41.6141522  79.3957341 131.2711492
  40.1297402  79.5594466 131.0229660  51.3863591  90.1843239 132.2627703
  51.9303495  90.7973198 131.7682658  50.8050436  90.7422818 132.7794716
  37.7635025  81.5856693 116.5892322  38.0588467  80.6767372 116.5359376
  36.8623061  81.5644433 116.2673325  49.6721104  93.3063957 123.3942731
  49.5472244  92.5053697 122.8853676  50.3300195  93.8010151 122.9056701
  41.2929272  79.6612690 122.5719871  40.5715858  80.2748658 122.4327344
  42.0822528  80.1970455 122.4936517  51.7356013  91.1072977 125.0222281
  50.7886348  90.9878329 124.9500607  52.0838786  90.2195475 125.1048542
  44.0955586  76.9967116 128.8460523  44.6189988  77.2429413 129.6086832
  43.8767919  77.8287151 128.4263660  39.4922867  79.2670791 116.7131647
  39.1635573  78.3868170 116.5306753  39.8462238  79.2118460 117.6008037
  48.7402446  90.9025694 121.2226633  48.5927408  89.9742401 121.4034203
  49.5655939  90.9245784 120.7383708  42.6064690  79.5543761 117.0807125
  42.9460763  80.0829682 116.3585733  43.0536811  79.8924167 117.8565692
  52.3436568  91.7254252 122.3091506  53.2683115  91.5197114 122.1715957
  52.1751871  91.4770654 123.2180847  45.3008131  77.9380811 126.5310193
  44.9604951  77.1388625 126.9330873  44.5947137  78.2382522 125.9587026
  45.9524603  75.0230124 124.9837516  46.7750672  74.5490602 124.8616406
  46.1962666  75.8020608 125.4836202  44.5932837  78.0518382 115.2800418
  45.3141200  78.4299635 114.7764135  43.9698141  78.7707259 115.3835396
  48.7363960  78.7563531 116.2158750  48.9527575  79.6388169 115.9147578
  48.2558027  78.3649745 115.4864392  43.4763182  81.7149245 122.7929495
  43.3307762  82.0289548 123.6853776  42.9988385  82.3334145 122.2400393
  45.3359565  78.7051793 122.8410384  45.3221133  77.8092886 122.5042682
  46.0531993  78.7122456 123.4748670  47.1885695  79.1389133 124.8863512
  46.9303473  80.0606203 124.8847842  46.6570736  78.7419567 125.5763976
  52.1331884  92.2439920 117.6653597  52.3068762  91.6786342 116.9127450
  52.6260775  93.0440815 117.4833087  37.9508844  84.2554589 125.7317156
  37.4062312  85.0314397 125.8637430  38.8288194  84.6025393 125.5736277
  44.7396460  77.5866173 118.1097954  44.8612372  76.6582819 118.3088842
  44.4498503  77.6004859 117.1976270  47.6087651  75.2721083 121.2464674
  47.6309348  75.3360416 120.2916654  48.0255710  74.4325592 121.4405180
  57.9871275  85.0076343 119.2843897  58.4302421  84.2583668 118.8863020
  57.1097785  84.9986479 118.9017629  53.1207056  91.5606684 114.7650495
  53.8157961  92.1813377 114.9837810  53.4630207  90.7102035 115.0402873
  38.7374866  83.3824485 128.6247313  37.9956602  83.5307121 129.2111943
  38.4167610  83.6432751 127.7614062  55.0198480  89.0106390 116.2937826
  55.5449804  89.3493663 115.5687146  54.9320832  88.0753405 116.1100961
  46.6818528  92.9240463 128.4227703  46.9905655  92.6789610 129.2950402
  47.4794010  93.1287102 127.9346573  46.7039140  95.0778373 120.6533079
  46.2644131  94.5854752 121.3465936  47.4547257  94.5351341 120.4125155
  39.1831479  91.2689914 120.6557707  40.0089499  90.9693686 120.2756351
  38.8325531  90.4997536 121.1047496  44.1513013  90.6216382 122.7255381
  43.5293022  89.9587087 122.4257609  44.8217879  90.6477514 122.0429029
  37.3840084  89.1876240 121.6146641  36.5471993  88.7598415 121.4330642
  37.3563730  89.3808684 122.5517432  44.2237540  79.0998170 132.3187887
  44.2725695  79.9760293 131.9365657  44.7660054  78.5575563 131.7459530
  54.7092386  89.6439293 131.5989024  53.9187929  89.6263432 131.0593524
  54.4725740  90.1827587 132.3538061  54.8290261  86.4931760 128.9121753
  54.8788266  86.3281767 129.8537275  54.7204184  85.6259019 128.5219633
  43.7126519  89.1720305 116.2013842  43.8614640  89.8555770 115.5480514
  44.5192963  89.1525396 116.7163297  52.1194023  82.4762688 130.2281059
  53.0203886  82.3369153 129.9365057  52.1941998  82.6417143 131.1679237
  46.4536828  79.8529543 129.0734246  45.5840138  80.1463109 128.8016834
  46.6896309  80.4369988 129.7941509  56.3308458  88.9128701 129.1563774
  56.0393266  89.2758682 129.9927235  55.7180589  88.1995710 128.9777106
  57.5304140  86.4781581 121.6766344  58.3651031  86.9171385 121.8403905
  57.6663269  86.0020234 120.8574590  54.5795646  84.0361316 127.6243832
  55.0549767  84.2288962 126.8162684  53.6561211  84.0920502 127.3787216
  41.4679152  85.1985483 117.2074910  41.2225194  84.2947813 117.4055121
  41.6375067  85.2002634 116.2654388  49.1575862  76.0709160 126.5899666
  49.6757806  76.8070186 126.2646155  48.8030995  76.3773153 127.4246425
  40.7374800  80.9313841 114.7061072  40.0444045  81.0058196 114.0501108
  40.4926552  80.1674184 115.2282589  49.4088456  72.4909442 122.1100563
  49.6890210  71.8232631 122.7360989  50.1939063  72.6838538 121.5975227
  47.2121925  91.6668436 113.6725589  46.6395892  92.2858623 113.2196061
  47.7854719  92.2167798 114.2065511  53.2797315  80.9127076 125.8572138
  54.2314738  81.0125174 125.8784362  53.1100765  80.1205345 126.3670222
  51.3011694  77.9982659 126.0431539  50.7061626  78.2787672 125.3478027
  51.0161391  78.4876560 126.8148280  50.4319185  91.9505586 114.8034171
  51.3649858  91.8851148 115.0067047  50.3442398  92.7861853 114.3448704
  53.0607201  91.2671456 111.7638119  52.9820833  90.9331320 112.6573877
  53.8816868  91.7593224 111.7629591  55.7585393  84.1333196 124.9714437
  55.7261713  83.1949196 125.1574121  56.3686016  84.2117232 124.2380262
  47.5968723  83.0029249 111.0141641  48.5427828  82.8735457 111.0830060
  47.2182968  82.2643911 111.4911070  55.9079881  80.9244239 125.0172721
  55.3918930  80.1402696 124.8302649  56.7919830  80.5962956 125.1819240
  53.5690608  74.6685255 120.9768533  53.3715429  74.3600343 121.8611865
  54.1790314  75.3946894 121.1066463  61.5761942  85.1949203 124.1120474
  62.3065331  84.9334491 124.6728178  60.9668888  84.4577924 124.1522542
  59.6577240  83.3357065 124.7094925  58.9310403  83.2013030 124.1011417
  59.2424526  83.6433894 125.5151643  47.4807416  87.0546995 132.4742298
  48.4010425  87.2325594 132.6682345  47.4456999  86.1103040 132.3221998
  45.7811641  80.9279225 110.9496527  44.8743096  80.6312338 111.0259240
  46.0587622  80.6309043 110.0830813  36.6989581  82.2485588 121.3995573
  36.3792365  81.3950897 121.1069947  36.1523009  82.4634167 122.1553540
  40.4769489  84.9648029 125.1165080  40.6955498  85.8965137 125.1353113
  40.8895262  84.6056004 125.9019883  47.3973706  75.4716115 117.1040768
  46.5874435  75.1263200 117.4796014  48.0858123  75.1623659 117.6928380
  49.3264255  74.5494162 118.7265065  49.8795293  74.9689615 119.3855088
  49.5634341  73.6229910 118.7688021  45.3497354  80.5381235 134.5067829
  45.2494081  81.4875592 134.4379920  45.1318896  80.2099474 133.6343899
  44.5510425  77.7866160 111.0908506  45.4129589  78.1121059 111.3504323
  44.7360769  76.9997656 110.5781572  36.5677841  85.8688500 123.3688695
  35.8741312  85.4542453 122.8558649  37.3150832  85.9109036 122.7722114
  52.7043062  76.6594687 118.2343729  52.1241731  77.3179491 117.8521781
  52.4378994  75.8372031 117.8231146  51.1546628  76.0599744 120.4365049
  51.6546406  76.1716279 119.6279368  51.7982236  75.7560797 121.0765858
  45.2128624  83.9678374 133.3232890  44.7295706  84.7678734 133.5296779
  45.2989563  83.9786319 132.3700334  38.4814583  85.8006754 121.2454710
  38.4585272  85.8994441 120.2936593  38.7915220  86.6471905 121.5671876
  41.1401961  87.8582909 125.3601324  42.0945215  87.8266851 125.2931256
  40.9414485  87.3973533 126.1751550  41.7301344  86.4284025 127.9272122
  42.5494232  86.9228103 127.9506959  42.0038151  85.5115993 127.8989689
  51.4867940  78.8194777 117.2900077  50.5993795  79.1044428 117.0720272
  51.9021929  78.6588541 116.4427354  54.8382476  78.8441298 121.0054416
  55.6142866  79.3337751 121.2779033  54.1130610  79.2699352 121.4626286
  57.2755034  79.5568917 122.0628357  57.8699525  79.3164653 121.3521665
  57.3481618  78.8376048 122.6901893  39.4952190  93.4002528 122.3771522
  39.3606658  92.6402929 121.8109520  39.0784252  94.1243428 121.9100311
  50.6311153  88.5839452 111.3848097  51.3347003  88.7889454 112.0005753
  49.9073802  89.1516214 111.6497181  51.4608963  84.3349313 117.5050367
  51.4044165  84.7917864 116.6658000  52.0137306  83.5739998 117.3273210
  55.2713769  80.1239045 118.3300487  55.0150704  79.7235681 119.1608695
  54.6466637  80.8382839 118.2050626  59.5826107  82.8635118 120.8371778
  59.0225665  82.9328307 121.6103340  58.9769611  82.6876103 120.1171274
  42.6521316  94.2971845 122.5889965  42.5353700  95.2417278 122.4868655
  41.8313762  93.9945407 122.9775764  52.5397851  89.0221981 113.4346557
  53.3743455  88.5903179 113.2524032  52.3782193  88.8503995 114.3623452
  52.1943743  85.5254094 114.8002897  52.1392547  85.3598366 113.8591341
  51.5689798  86.2330127 114.9565086  36.9836258  80.7622159 128.6264319
  37.6295121  80.2521113 129.1151544  36.7753409  81.4990840 129.2007744
  49.5089650  87.8303006 134.1256459  50.3780810  88.0043658 133.7643094
  49.0296401  88.6497423 134.0032189  45.5039868  75.0262203 114.3788215
  45.4918538  75.9704043 114.5356486  46.3963290  74.8432349 114.0847676
  43.6775830  94.9500107 125.8045893  44.5803077  94.9823717 126.1212388
  43.4513200  94.0200558 125.8192229  45.4329432  93.7031094 122.4655972
  44.4825063  93.7032955 122.3520344  45.7361918  92.9563828 121.9492006
  49.3191988  71.6204980 118.6334152  48.5524383  71.0663467 118.7790834
  49.7302693  71.6926849 119.4948303  41.3233749  77.9089776 132.7239333
  42.1865210  77.5526581 132.9342658  40.7499159  77.5703671 133.4114737
  61.1682126  99.5391632 123.5301734  61.8060536  99.4198379 122.8265074
  61.0502969 100.4872476 123.5889686  57.9771832  99.4919060 123.4663259
  57.6390343  99.3760125 122.5783794  58.8461600  99.0910225 123.4464265
  53.8358648 101.3454537 119.4560150  53.2723513 101.2544474 118.6876437
  53.7211043 100.5254441 119.9362642  58.4591615 100.6453912 129.4249464
  58.4480256 100.2506710 128.5529968  58.6212254  99.9119985 130.0183236
  51.3823080 102.8405728 122.2944370  52.1744372 102.4996553 121.8790669
  51.6219730 102.9500703 123.2146523  59.4158206 105.0125504 114.7674615
  58.7646186 105.5979585 114.3808628  60.2102569 105.5431699 114.8269652
  53.3413834 102.1014641 115.1661749  54.1144710 101.5543629 115.0274625
  53.6939232 102.9658891 115.3776210  55.1798876 103.4291024 128.3728648
  54.8888742 104.3336655 128.2575314  55.8155860 103.4707551 129.0872718
  56.1055083 100.8067872 124.9630008  56.7018655 100.5823895 124.2486971
  56.1630054 100.0652618 125.5655456  55.6780111  98.2607308 112.7980199
  55.9305632  97.7388829 112.0363662  54.7404670  98.0973453 112.9006882
  60.7223394  97.2643086 120.6054942  61.5086483  96.8462509 120.2545359
  60.9862098  98.1689178 120.7736590  60.8933472 102.7015936 115.3043599
  60.2579304 102.7750563 116.0164503  60.5630878 103.2909535 114.6262678
  66.1231821  97.2018319 121.5087921  66.8556993  96.6317536 121.7425750
  65.3671177  96.8139920 121.9494426  55.3976400 100.1635414 115.0004574
  55.2812658  99.4880317 115.6685658  55.5078660  99.6767787 114.1836727
  57.7407941  99.6245561 118.7051263  57.3766148  99.0976182 119.4164184
  58.5975057  99.2344030 118.5317748  63.6457242  90.9139893 125.9682529
  63.3140566  91.7835304 125.7443744  63.0502855  90.5976177 126.6476560
  57.3813428  94.6535460 113.7012611  57.5487830  95.5215697 114.0683083
  57.1910597  94.8162742 112.7773901  60.1388761 103.1152439 125.3678442
  59.8389484 104.0177478 125.2594249  59.7939821 102.8484622 126.2199595
  53.5901243  99.5666236 121.4015146  52.6651739  99.4342450 121.6092838
  53.8385656 100.3460455 121.8985089  63.5385905  95.6334979 123.0475879
  62.6302782  95.5650388 122.7534640  63.4873501  96.1106924 123.8757705
  57.3602649  97.1093118 114.6859278  57.2402274  97.5550169 115.5244759
  56.6655237  97.4578436 114.1272816  50.9510054  99.2099510 122.2358935
  51.0802435  99.4633989 123.1498347  50.2707505  99.8027218 121.9163590
  55.1209541 109.8796760 118.3349410  55.0433571 110.8304585 118.4137890
  54.5171185 109.5342632 118.9924336  57.6126771  97.0524625 130.9910776
  56.8360105  97.6118545 130.9813641  58.2517334  97.5381408 131.5125647
  65.4047551  93.8351418 124.8253753  64.7621932  94.1283951 124.1793548
  64.9002480  93.7204338 125.6306950  63.0587715  97.5814591 115.5139612
  63.9705571  97.8141978 115.3387310  62.5497362  98.1651635 114.9514691
  55.8673143  99.8610078 130.5528743  56.6087827 100.3995122 130.2763567
  55.1610129 100.4876367 130.7100295  61.3428483 102.0039219 129.1500905
  61.7511839 101.5621629 128.4055537  60.6205744 101.4291846 129.4035098
  57.6959553  96.9411826 126.5234462  58.5420748  97.3651239 126.6669111
  57.6358190  96.2845450 127.2173025  61.6657297 102.5640409 122.9053194
  61.0366160 102.7286124 122.2029262  61.2782959 102.9782019 123.6764158
  65.5446529 103.4994847 120.2597558  64.8597567 103.8793749 119.7094591
  65.6290379 104.1090174 120.9929505  60.8458998  94.6016194 128.1815636
  60.6019930  95.3558255 127.6449911  61.1218929  94.9801542 129.0162883
  62.7997461 101.1454806 126.8592901  63.0114356 101.7886566 126.1827282
  62.7527209 100.3117123 126.3914831  60.4023690  93.7572627 123.7629473
  59.5408169  94.0553881 124.0546211  60.4286124  93.9743026 122.8310506
  57.2185259 102.3014818 120.1703279  57.6823605 102.5802521 119.3807901
  56.9542057 101.3998262 119.9876370  54.1109340 101.8486299 123.1083042
  54.6810697 102.2773567 122.4700527  54.7017452 101.5668884 123.8067228
  56.1554145  98.4237970 116.9792844  56.8578189  98.8759014 117.4466770
  55.8234774  97.7821789 117.6072737  54.6034507  97.0149727 131.3544053
  53.9733167  97.6966007 131.5879450  54.4970595  96.9032808 130.4097192
  49.8979479  96.6821523 122.2809978  49.1078533  96.9379051 121.8050088
  50.3890727  97.4969860 122.3862018  63.9143289 104.0226762 125.0315258
  64.7360733 103.6206949 124.7497940  63.9105692 103.9194996 125.9831374
  51.8494225  97.0466102 119.2393454  51.0525388  97.1584796 119.7576950
  51.6219817  97.3852754 118.3734345  57.6799892 103.5710805 127.1875969
  57.7444325 104.0331212 128.0234141  56.9710816 102.9408170 127.3158279
  48.1817182  96.9352013 124.7124968  48.4325221  97.8199023 124.9782544
  48.7176731  96.7556615 123.9400060  72.0049282 100.3665510 121.3800230
  71.2512990  99.7972908 121.2244234  72.1396823 100.3328175 122.3270865
  57.3947910 105.2378913 117.0554949  57.2593585 106.0830448 117.4839797
  57.9357722 105.4398190 116.2920883  53.8815250  91.3170492 133.7169304
  53.4882195  90.7636691 134.3916949  54.6981390  91.6281071 134.1075822
  50.8477307 102.7554351 117.6282874  51.3601828 103.5497601 117.7788439
  51.5000020 102.0580641 117.5616476  52.6572192 105.8720107 119.7105628
  52.8338820 106.7938072 119.5226611  53.4529026 105.5578526 120.1400007
  56.7983211  92.7328372 131.3089561  57.5392924  93.3335525 131.2294024
  57.0301133  91.9906009 130.7507604  51.9424549  97.9184739 129.5867791
  51.8278064  97.0169996 129.8874890  51.0869066  98.1648436 129.2352607
  59.0216386 105.8602479 131.1855291  58.5780240 105.0738858 130.8676196
  59.6833600 106.0481630 130.5199182  53.7803507 107.3898281 125.7115970
  54.3310933 107.2615344 124.9392964  52.9414983 107.6893170 125.3610863
  61.1197624 106.1405279 129.2136693  61.1016100 106.9614160 128.7216962
  62.0417544 106.0159354 129.4386834  57.5770678 103.6549408 130.0560201
  58.1099015 102.8937697 129.8259509  57.0484760 103.3623060 130.7984355
  60.7440373  88.7609474 125.5853843  60.4004643  89.6511116 125.5092953
  61.1119336  88.5711132 124.7223428  48.8126224 101.0843005 118.4042445
  49.6501446 101.4940013 118.1876153  48.9904492 100.1442447 118.3742639
  60.7090656  98.7518086 114.0926278  60.1937280  99.5222690 114.3314665
  60.4367965  98.0783222 114.7159339  58.2937767  93.5967786 119.1511516
  57.4379364  93.2074637 118.9717155  58.7064719  93.6759747 118.2911302
  59.8236914  91.1314130 123.5503076  59.3201709  91.0944265 122.7370881
  60.1167521  92.0406872 123.6099733  56.0679800  91.2152859 122.5569258
  56.9332796  91.0195668 122.1975147  56.1357309  90.9863211 123.4838614
  65.6824930 101.5050440 116.0279451  64.9054373 101.1661600 115.5834613
  66.3616411 101.5103063 115.3534416  60.4976959  96.6245178 115.9186059
  60.1927095  96.9391327 116.7696202  61.4507401  96.7026598 115.9613392
  58.9423391 102.7835401 117.5679013  58.4144753 102.0488161 117.2552250
  58.4410894 103.5610077 117.3218981  63.9216237 100.9784421 122.6846059
  63.2639912 101.6683683 122.7726188  64.7256636 101.3680853 123.0280046
  53.6742119  93.4455067 119.9285625  54.2485871  93.2230249 119.1958817
  54.2613101  93.5143762 120.6814226  62.7321696  99.3328794 120.7350001
  63.2453578  99.9658786 121.2371711  63.3822920  98.7329990 120.3693361
  54.0011706  95.4759528 113.9481510  53.1649018  95.8134215 114.2690785
  53.8616476  95.3408508 113.0108647  55.9764787  90.3196316 118.6560694
  55.3229199  90.0045333 118.0317309  55.9345261  89.6972057 119.3820517
  57.0875991 100.6015611 110.5713986  56.1803053 100.3704865 110.7705135
  57.5847023  99.8053230 110.7587968  59.9944070 109.3113118 113.4910672
  59.3205769 109.6144815 114.0995630  60.3809892 110.1142199 113.1416129
  59.2102527  96.8078250 122.9808342  58.2925088  97.0293197 122.8230030
  59.6262671  96.8824560 122.1220049  59.9937575  98.2069665 118.1111022
  60.7409394  98.7191063 117.8018144  60.2629164  97.8853718 118.9715415
  58.2664225 100.7028206 115.0937976  57.3575444 100.4187239 115.1910446
  58.2959309 101.1227285 114.2341283  63.4983492 104.3134796 118.8629144
  63.0445819 103.4725705 118.9194334  62.8677459 104.9496194 119.2003924
  62.4416412  95.2426782 120.0929811  61.7039169  94.7304168 120.4240054
  62.6943185  94.8027163 119.2813088  61.9416431 106.1511292 119.7978962
  62.2339406 106.7116349 119.0791327  62.4515052 106.4439853 120.5532121
  62.5428039  88.0203034 120.6871580  62.8486916  87.1600397 120.3997495
  63.2680644  88.6120654 120.4870574  48.8352395  98.4233720 119.0753178
  48.6376795  97.8303081 118.3504245  48.2799059  98.1185930 119.7929117
  56.8149119  98.3156827 121.1947771  56.8697729  97.3630663 121.1190248
  56.0040321  98.4716266 121.6789070  57.9640313 102.2436950 112.4326055
  57.5259743 101.5272809 111.9731692  58.7050753 102.4713065 111.8711146
  54.7541479  96.9333886 118.9538150  53.9409344  97.2328057 119.3603342
  55.2500473  96.5389575 119.6712633  56.9050057 106.9291643 120.8872415
  56.8626235 107.1552490 119.9580947  57.8212756 106.6955018 121.0358216
  60.3515690  97.3975711 127.7853044  60.7065078  97.6247184 128.6447510
  60.9987822  97.7294088 127.1630300  66.0813427 100.5194147 118.4902373
  65.9431326 100.7095743 117.5623562  65.7249646 101.2813530 118.9470424
  54.2455554  94.5052242 124.5699385  54.8854933  94.3641001 123.8722349
  53.4133084  94.2186755 124.1937987  66.1082807 102.5870674 123.5013645
  66.5419314 102.4945963 124.3496699  66.8214388 102.5628174 122.8633661
  55.0215857 103.8054672 120.6834378  55.8156456 103.3104993 120.4816953
  54.3107550 103.2772536 120.3202083  59.8410702 106.1872768 125.0346745
  59.8947724 106.7563704 125.8024461  58.9725483 106.3574653 124.6700783
  51.3298621  97.9497754 116.7594130  50.3996209  97.8882210 116.9764093
  51.4256093  97.4273707 115.9630772  51.2484170  94.4752567 119.3472372
  51.5090987  95.3897900 119.2381533  52.0701342  94.0077010 119.4968985
  52.7209095  95.8890324 126.5171197  53.3932149  95.6807686 125.8683846
  51.8938882  95.6912410 126.0776429  66.9698357 102.6294374 126.0346530
  67.1634247 103.5340185 126.2805805  66.8698975 102.1701794 126.8685115
  58.6234667  92.5152265 128.5336858  57.9762582  93.2142215 128.4401334
  59.3935683  92.9488409 128.9013106  62.0313465 102.7801117 131.6087411
  61.8798972 102.5511669 130.6917494  62.0218145 103.7371719 131.6218756
  58.7998802 100.3533030 126.5933677  59.7290862 100.5044190 126.4202645
  58.3789832 100.4417051 125.7382324  57.5987133 104.3783694 124.3632215
  57.4598219 104.0102479 125.2358153  56.8101730 104.8931334 124.1916173
  58.1935285 109.4792791 115.7057751  58.3687041 109.0080834 116.5203374
  57.5068073 110.1058557 115.9339012  59.1492349 103.7565297 121.7521053
  58.8142181 103.7166067 122.6478703  58.6496294 103.0910013 121.2791463
  53.1236593  99.1632927 127.2773634  52.9856390  98.4313166 127.8785173
  54.0341516  99.0741827 126.9957822  62.0851540 101.1021331 112.0258112
  61.4680711 100.3768160 111.9291165  61.6168029 101.8630692 111.6825187
  55.7518893  98.8752886 126.7657313  56.4618512  98.2346079 126.7243932
  55.7088201  99.1265781 127.6883494  63.7405672 105.8120240 129.6863893
  63.6818218 105.1279460 129.0194476  64.1425190 106.5539230 129.2344519
  54.4647827  95.8618104 128.5852953  53.9285184  95.4108843 129.2374549
  53.8764536  95.9964013 127.8423417  52.7596371 112.6282154 122.4797612
  52.9992969 113.2600678 123.1576630  51.9165567 112.2770194 122.7662971
  53.8750086  95.3206756 111.1479417  52.9979552  95.1995557 110.7841663
  54.3507839  94.5292834 110.8958305  63.7423079 103.7759824 127.9177872
  62.8549858 103.4385745 128.0404271  64.3121630 103.0442855 128.1546638
  45.3952226 100.1083915 121.2420924  46.0823266  99.7945645 120.6541939
  45.2400355 101.0125280 120.9688175  50.1986948  94.9974112 125.6705947
  50.1145137  94.3899782 124.9356357  49.3769655  95.4883130 125.6715444
  57.2724233 108.4361276 124.8839116  57.1994404 109.2416248 125.3958420
  56.8301626 108.6353242 124.0587137  57.0614012 107.6733046 118.3941937
  56.2781534 108.2154726 118.4880162  57.7606757 108.1907026 118.7936178
  60.3710662  93.4827676 121.0376142  60.8679362  92.7297638 120.7177213
  59.5997644  93.5191992 120.4719352  68.2240420  99.1868041 122.6794434
  68.2130296 100.0692757 122.3088367  67.3557799  98.8339592 122.4848971
  59.7322916 108.3348110 127.0397274  60.4450888 108.9695575 126.9673176
  59.2412945 108.4311976 126.2237276  61.4540443 102.2399363 118.6114566
  60.5196722 102.3600825 118.4419270  61.6317111 101.3371830 118.3474576
  56.9545631  95.6245059 120.7647827  56.5843419  95.0716099 121.4528733
  57.4504723  95.0203192 120.2122827  64.8412994  98.0816682 119.1464600
  65.3073447  98.9144674 119.0724903  65.2920495  97.6161664 119.8509858
  54.7834830 106.0842554 127.8602845  55.4844289 106.7179037 128.0132239
  54.3129945 106.4257285 127.0998484  62.9089225 104.4260503 116.1450752
  63.1849069 104.3117098 117.0544626  62.0393724 104.0277988 116.1062925
  62.8129657  90.4497269 123.1855501  61.8992737  90.6801496 123.3537708
  63.2422759  90.5335713 124.0369534  62.5836116  98.6387161 125.6855395
  61.9307566  98.8863068 125.0307848  62.9616495  97.8251299 125.3517873
  59.5443289 108.6746854 119.7883566  59.7265684 107.8568510 120.2511318
  60.3676275 108.8914546 119.3508456  59.8785455 107.6015039 117.0498614
  60.4073221 107.0907494 116.4368776  60.1413675 107.2857570 117.9144147
  58.6323689  99.3806972 132.1721432  57.9564326  99.2801101 132.8423808
  59.4551322  99.2246186 132.6357430  50.3802548 105.6178909 124.7933948
  50.9655984 104.8722597 124.9261852  50.1827386 105.9282865 125.6770612
  53.2341203 108.6530156 119.8096390  52.5651578 109.1376284 119.3260430
  53.0954073 108.8999376 120.7239769  44.9720202  98.1884509 123.5138391
  45.0104302  97.6548100 124.3075509  44.4660495  97.6619714 122.8949368
  57.3746471 110.6873900 126.4079048  57.9264780 110.8505521 127.1728134
  57.7152665 111.2778337 125.7359073  52.3510965  93.0349049 127.0100933
  52.4152291  93.8963880 126.5978331  52.2878085  92.4223051 126.2773292
  51.8263237  95.1072182 130.6573967  52.4535276  94.7249259 131.2711492
  50.9691156  94.8886384 131.0229660  62.2257346 105.5135157 132.2627703
  62.7697250 106.1265115 131.7682658  61.6444191 106.0714735 132.7794716
  48.6028780  96.9148611 116.5892322  48.8982221  96.0059289 116.5359376
  47.7016816  96.8936350 116.2673325  60.5114859 108.6355875 123.3942731
  60.3865998 107.8345615 122.8853676  61.1693950 109.1302068 122.9056701
  52.1323027  94.9904608 122.5719871  51.4109613  95.6040575 122.4327344
  52.9216283  95.5262372 122.4936517  62.5749767 106.4364895 125.0222281
  61.6280103 106.3170246 124.9500607  62.9232540 105.5487393 125.1048542
  54.9349341  92.3259034 128.8460523  55.4583742  92.5721331 129.6086832
  54.7161674  93.1579069 128.4263660  50.3316622  94.5962709 116.7131647
  50.0029328  93.7160088 116.5306753  50.6855992  94.5410377 117.6008037
  59.5796200 106.2317611 121.2226633  59.4321163 105.3034319 121.4034203
  60.4049694 106.2537702 120.7383708  53.4458445  94.8835678 117.0807125
  53.7854517  95.4121600 116.3585733  53.8930565  95.2216085 117.8565692
  63.1830322 107.0546170 122.3091506  64.1076870 106.8489031 122.1715957
  63.0145626 106.8062571 123.2180847  56.1401886  93.2672729 126.5310193
  55.7998706  92.4680542 126.9330873  55.4340892  93.5674440 125.9587026
  56.7918357  90.3522042 124.9837516  57.6144427  89.8782520 124.8616406
  57.0356421  91.1312525 125.4836202  55.4326592  93.3810300 115.2800418
  56.1534954  93.7591553 114.7764135  54.8091896  94.0999177 115.3835396
  59.5757715  94.0855449 116.2158750  59.7921329  94.9680087 115.9147578
  59.0951782  93.6941662 115.4864392  54.3156936  97.0441162 122.7929495
  54.1701517  97.3581465 123.6853776  53.8382140  97.6626063 122.2400393
  56.1753319  94.0343710 122.8410384  56.1614888  93.1384804 122.5042682
  56.8925747  94.0414374 123.4748670  58.0279450  94.4681050 124.8863512
  57.7697228  95.3898121 124.8847842  57.4964490  94.0711485 125.5763976
  62.9725638 107.5731838 117.6653597  63.1462516 107.0078260 116.9127450
  63.4654530 108.3732732 117.4833087  48.7902598  99.5846507 125.7317156
  48.2456066 100.3606315 125.8637430  49.6681948  99.9317311 125.5736277
  55.5790215  92.9158090 118.1097954  55.7006126  91.9874737 118.3088842
  55.2892257  92.9296776 117.1976270  58.4481405  90.6013001 121.2464674
  58.4703102  90.6652334 120.2916654  58.8649464  89.7617510 121.4405180
  68.8265030 100.3368260 119.2843897  69.2696176  99.5875586 118.8863020
  67.9491540 100.3278397 118.9017629  63.9600811 106.8898602 114.7650495
  64.6551716 107.5105295 114.9837810  64.3023961 106.0393953 115.0402873
  49.5768620  98.7116403 128.6247313  48.8350356  98.8599038 129.2111943
  49.2561364  98.9724668 127.7614062  65.8592234 104.3398307 116.2937826
  66.3843558 104.6785580 115.5687146  65.7714587 103.4045323 116.1100961
  57.5212283 108.2532381 128.4227703  57.8299409 108.0081528 129.2950402
  58.3187765 108.4579020 127.9346573  57.5432895 110.4070291 120.6533079
  57.1037885 109.9146669 121.3465936  58.2941012 109.8643258 120.4125155
  50.0225234 106.5981832 120.6557707  50.8483254 106.2985603 120.2756351
  49.6719286 105.8289454 121.1047496  54.9906767 105.9508300 122.7255381
  54.3686776 105.2879005 122.4257609  55.6611634 105.9769432 122.0429029
  48.2233839 104.5168158 121.6146641  47.3865747 104.0890332 121.4330642
  48.1957484 104.7100601 122.5517432  55.0631294  94.4290088 132.3187887
  55.1119450  95.3052211 131.9365657  55.6053809  93.8867481 131.7459530
  65.5486140 104.9731211 131.5989024  64.7581684 104.9555350 131.0593524
  65.3119495 105.5119505 132.3538061  65.6684015 101.8223677 128.9121753
  65.7182020 101.6573685 129.8537275  65.5597939 100.9550936 128.5219633
  54.5520274 104.5012223 116.2013842  54.7008394 105.1847688 115.5480514
  55.3586717 104.4817313 116.7163297  62.9587778  97.8054605 130.2281059
  63.8597640  97.6661070 129.9365057  63.0335752  97.9709060 131.1679237
  57.2930583  95.1821460 129.0734246  56.4233892  95.4755026 128.8016834
  57.5290063  95.7661905 129.7941509  67.1702212 104.2420619 129.1563774
  66.8787020 104.6050600 129.9927235  66.5574343 103.5287627 128.9777106
  68.3697894 101.8073499 121.6766344  69.2044786 102.2463303 121.8403905
  68.5057023 101.3312152 120.8574590  65.4189400  99.3653234 127.6243832
  65.8943522  99.5580880 126.8162684  64.4954966  99.4212419 127.3787216
  52.3072907 100.5277401 117.2074910  52.0618949  99.6239731 117.4055121
  52.4768821 100.5294551 116.2654388  59.9969617  91.4001077 126.5899666
  60.5151561  92.1362104 126.2646155  59.6424750  91.7065070 127.4246425
  51.5768554  96.2605758 114.7061072  50.8837799  96.3350113 114.0501108
  51.3320306  95.4966102 115.2282589  60.2482211  87.8201360 122.1100563
  60.5283965  87.1524549 122.7360989  61.0332818  88.0130455 121.5975227
  58.0515679 106.9960354 113.6725589  57.4789647 107.6150541 113.2196061
  58.6248473 107.5459715 114.2065511  64.1191069  96.2418994 125.8572138
  65.0708492  96.3417091 125.8784362  63.9494520  95.4497262 126.3670222
  62.1405449  93.3274577 126.0431539  61.5455381  93.6079590 125.3478027
  61.8555145  93.8168478 126.8148280  61.2712939 107.2797504 114.8034171
  62.2043612 107.2143065 115.0067047  61.1836152 108.1153771 114.3448704
  63.9000956 106.5963374 111.7638119  63.8214587 106.2623238 112.6573877
  64.7210623 107.0885142 111.7629591  66.5979147  99.4625113 124.9714437
  66.5655467  98.5241114 125.1574121  67.2079771  99.5409150 124.2380262
  58.4362478  98.3321166 111.0141641  59.3821583  98.2027374 111.0830060
  58.0576723  97.5935828 111.4911070  66.7473636  96.2536157 125.0172721
  66.2312684  95.4694613 124.8302649  67.6313584  95.9254873 125.1819240
  64.4084362  89.9977172 120.9768533  64.2109184  89.6892261 121.8611865
  65.0184068  90.7238811 121.1066463  72.4155697 100.5241120 124.1120474
  73.1459085 100.2626408 124.6728178  71.8062642  99.7869842 124.1522542
  70.4970994  98.6648983 124.7094925  69.7704158  98.5304948 124.1011417
  70.0818281  98.9725811 125.5151643  58.3201170 102.3838912 132.4742298
  59.2404180 102.5617511 132.6682345  58.2850753 101.4394958 132.3221998
  56.6205395  96.2571143 110.9496527  55.7136850  95.9604255 111.0259240
  56.8981376  95.9600961 110.0830813  47.5383335  97.5777506 121.3995573
  47.2186120  96.7242814 121.1069947  46.9916764  97.7926084 122.1553540
  51.3163243 100.2939947 125.1165080  51.5349253 101.2257055 125.1353113
  51.7289017  99.9347922 125.9019883  58.2367461  90.8008032 117.1040768
  57.4268189  90.4555117 117.4796014  58.9251878  90.4915576 117.6928380
  60.1658009  89.8786079 118.7265065  60.7189048  90.2981533 119.3855088
  60.4028095  88.9521827 118.7688021  56.1891108  95.8673153 134.5067829
  56.0887835  96.8167510 134.4379920  55.9712650  95.5391392 133.6343899
  55.3904180  93.1158078 111.0908506  56.2523344  93.4412976 111.3504323
  55.5754524  92.3289574 110.5781572  47.4071595 101.1980418 123.3688695
  46.7135067 100.7834370 122.8558649  48.1544586 101.2400954 122.7722114
  63.5436816  91.9886604 118.2343729  62.9635485  92.6471408 117.8521781
  63.2772749  91.1663949 117.8231146  61.9940383  91.3891662 120.4365049
  62.4940161  91.5008197 119.6279368  62.6375990  91.0852715 121.0765858
  56.0522378  99.2970292 133.3232890  55.5689460 100.0970652 133.5296779
  56.1383317  99.3078237 132.3700334  49.3208338 101.1298671 121.2454710
  49.2979026 101.2286359 120.2936593  49.6308974 101.9763822 121.5671876
  51.9795716 103.1874826 125.3601324  52.9338969 103.1558769 125.2931256
  51.7808239 102.7265450 126.1751550  52.5695098 101.7575943 127.9272122
  53.3887987 102.2520021 127.9506959  52.8431906 100.8407911 127.8989689
  62.3261694  94.1486695 117.2900077  61.4387549  94.4336345 117.0720272
  62.7415683  93.9880458 116.4427354  65.6776230  94.1733216 121.0054416
  66.4536620  94.6629668 121.2779033  64.9524365  94.5991270 121.4626286
  68.1148789  94.8860835 122.0628357  68.7093280  94.6456571 121.3521665
  68.1875373  94.1667966 122.6901893  50.3345945 108.7294446 122.3771522
  50.2000413 107.9694847 121.8109520  49.9178007 109.4535346 121.9100311
  61.4704908 103.9131369 111.3848097  62.1740758 104.1181372 112.0005753
  60.7467556 104.4808131 111.6497181  62.3002718  99.6641231 117.5050367
  62.2437919 100.1209782 116.6658000  62.8531060  98.9031915 117.3273210
  66.1107524  95.4530963 118.3300487  65.8544458  95.0527598 119.1608695
  65.4860392  96.1674757 118.2050626  70.4219862  98.1927036 120.8371778
  69.8619420  98.2620225 121.6103340  69.8163365  98.0168020 120.1171274
  53.4915071 109.6263763 122.5889965  53.3747455 110.5709195 122.4868655
  52.6707517 109.3237325 122.9775764  63.3791605 104.3513899 113.4346557
  64.2137209 103.9195097 113.2524032  63.2175948 104.1795912 114.3623452
  63.0337497 100.8546012 114.8002897  62.9786301 100.6890283 113.8591341
  62.4083553 101.5622045 114.9565086  47.8230012  96.0914076 128.6264319
  48.4688876  95.5813030 129.1151544  47.6147163  96.8282758 129.2007744
  60.3483404 103.1594924 134.1256459  61.2174564 103.3335576 133.7643094
  59.8690156 103.9789341 134.0032189  56.3433623  90.3554121 114.3788215
  56.3312293  91.2995961 114.5356486  57.2357045  90.1724266 114.0847676
  54.5169585 110.2792025 125.8045893  55.4196831 110.3115635 126.1212388
  54.2906955 109.3492476 125.8192229  56.2723187 109.0323011 122.4655972
  55.3218818 109.0324873 122.3520344  56.5755673 108.2855746 121.9492006
  60.1585742  86.9496898 118.6334152  59.3918138  86.3955384 118.7790834
  60.5696447  87.0218766 119.4948303  52.1627503  93.2381693 132.7239333
  53.0258965  92.8818498 132.9342658  51.5892914  92.8995588 133.4114737
  72.0075880 114.8683550 123.5301734  72.6454290 114.7490297 122.8265074
  71.8896723 115.8164394 123.5889686  68.8165586 114.8210978 123.4663259
  68.4784098 114.7052043 122.5783794  69.6855355 114.4202143 123.4464265
  64.6752402 116.6746454 119.4560150  64.1117267 116.5836391 118.6876437
  64.5604797 115.8546359 119.9362642  62.2216834 118.1697646 122.2944370
  63.0138126 117.8288471 121.8790669  62.4613484 118.2792621 123.2146523
  70.2551961 120.3417422 114.7674615  69.6039941 120.9271502 114.3808628
  71.0496324 120.8723617 114.8269652  64.1807588 117.4306559 115.1661749
  64.9538464 116.8835546 115.0274625  64.5332987 118.2950808 115.3776210
  66.9448837 116.1359790 124.9630008  67.5412410 115.9115812 124.2486971
  67.0023809 115.3944535 125.5655456  66.5173866 113.5899225 112.7980199
  66.7699387 113.0680747 112.0363662  65.5798425 113.4265371 112.9006882
  71.5617149 112.5935004 120.6054942  72.3480238 112.1754427 120.2545359
  71.8255853 113.4981096 120.7736590  71.7327226 118.0307854 115.3043599
  71.0973059 118.1042480 116.0164503  71.4024632 118.6201453 114.6262678
  76.9625576 112.5310237 121.5087921  77.6950748 111.9609454 121.7425750
  76.2064931 112.1431837 121.9494426  66.2370155 115.4927331 115.0004574
  66.1206413 114.8172235 115.6685658  66.3472414 115.0059705 114.1836727
  68.5801696 114.9537478 118.7051263  68.2159903 114.4268099 119.4164184
  69.4368811 114.5635947 118.5317748  74.4850996 106.2431811 125.9682529
  74.1534321 107.1127222 125.7443744  73.8896610 105.9268095 126.6476560
  68.2207182 109.9827378 113.7012611  68.3881585 110.8507614 114.0683083
  68.0304352 110.1454660 112.7773901  64.4294997 114.8958154 121.4015146
  63.5045494 114.7634368 121.6092838  64.6779410 115.6752373 121.8985089
  74.3779659 110.9626897 123.0475879  73.4696537 110.8942306 122.7534640
  74.3267255 111.4398842 123.8757705  68.1996403 112.4385036 114.6859278
  68.0796029 112.8842086 115.5244759  67.5048992 112.7870353 114.1272816
  61.7903808 114.5391427 122.2358935  61.9196189 114.7925906 123.1498347
  61.1101259 115.1319135 121.9163590  65.9603295 125.2088677 118.3349410
  65.8827325 126.1596502 118.4137890  65.3564939 124.8634550 118.9924336
  76.2441306 109.1643336 124.8253753  75.6015686 109.4575869 124.1793548
  75.7396234 109.0496256 125.6306950  73.8981470 112.9106509 115.5139612
  74.8099326 113.1433895 115.3387310  73.3891117 113.4943553 114.9514691
  68.5353307 112.2703743 126.5234462  69.3814502 112.6943157 126.6669111
  68.4751945 111.6137368 127.2173025  71.2417444 109.0864545 123.7629473
  70.3801923 109.3845798 124.0546211  71.2679879 109.3034944 122.8310506
  68.0579014 117.6306735 120.1703279  68.5217359 117.9094438 119.3807901
  67.7935812 116.7290180 119.9876370  64.9503095 117.1778217 123.1083042
  65.5204452 117.6065485 122.4700527  65.5411207 116.8960801 123.8067228
  66.9947900 113.7529888 116.9792844  67.6971943 114.2050931 117.4466770
  66.6628528 113.1113706 117.6072737  60.7373234 112.0113440 122.2809978
  59.9472288 112.2670969 121.8050088  61.2284481 112.8261778 122.3862018
  62.6887979 112.3758020 119.2393454  61.8919142 112.4876714 119.7576950
  62.4613571 112.7144672 118.3734345  59.0210937 112.2643931 124.7124968
  59.2718975 113.1490941 124.9782544  59.5570485 112.0848532 123.9400060
  68.2341664 120.5670830 117.0554949  68.0987339 121.4122366 117.4839797
  68.7751477 120.7690108 116.2920883  61.6871062 118.0846268 117.6282874
  62.1995582 118.8789519 117.7788439  62.3393775 117.3872559 117.5616476
  63.4965946 121.2012025 119.7105628  63.6732575 122.1229989 119.5226611
  64.2922780 120.8870444 120.1400007  62.7818303 113.2476656 129.5867791
  62.6671818 112.3461914 129.8874890  61.9262821 113.4940353 129.2352607
  71.5834128 104.0901392 125.5853843  71.2398397 104.9803034 125.5092953
  71.9513091 103.9003050 124.7223428  59.6519979 116.4134923 118.4042445
  60.4895201 116.8231931 118.1876153  59.8298246 115.4734365 118.3742639
  71.5484411 114.0810003 114.0926278  71.0331034 114.8514608 114.3314665
  71.2761719 113.4075139 114.7159339  69.1331522 108.9259704 119.1511516
  68.2773118 108.5366554 118.9717155  69.5458473 109.0051665 118.2911302
  70.6630668 106.4606047 123.5503076  70.1595464 106.4236182 122.7370881
  70.9561275 107.3698790 123.6099733  66.9073554 106.5444777 122.5569258
  67.7726551 106.3487586 122.1975147  66.9751063 106.3155129 123.4838614
  76.5218685 116.8342358 116.0279451  75.7448128 116.4953517 115.5834613
  77.2010166 116.8394981 115.3534416  71.3370714 111.9537095 115.9186059
  71.0320849 112.2683245 116.7696202  72.2901156 112.0318515 115.9613392
  69.7817146 118.1127319 117.5679013  69.2538507 117.3780078 117.2552250
  69.2804648 118.8901995 117.3218981  64.5135873 108.7746985 119.9285625
  65.0879625 108.5522166 119.1958817  65.1006856 108.8435679 120.6814226
  73.5715451 114.6620712 120.7350001  74.0847332 115.2950704 121.2371711
  74.2216674 114.0621907 120.3693361  64.8405460 110.8051446 113.9481510
  64.0042773 111.1426132 114.2690785  64.7010230 110.6700426 113.0108647
  66.8158541 105.6488234 118.6560694  66.1622953 105.3337251 118.0317309
  66.7739015 105.0263974 119.3820517  67.9269746 115.9307529 110.5713986
  67.0196808 115.6996782 110.7705135  68.4240778 115.1345148 110.7587968
  70.8337825 124.6405036 113.4910672  70.1599524 124.9436733 114.0995630
  71.2203647 125.4434116 113.1416129  70.0496281 112.1370167 122.9808342
  69.1318843 112.3585114 122.8230030  70.4656425 112.2116478 122.1220049
  70.8331329 113.5361583 118.1111022  71.5803148 114.0482980 117.8018144
  71.1022919 113.2145636 118.9715415  69.1057979 116.0320124 115.0937976
  68.1969199 115.7479157 115.1910446  69.1353063 116.4519202 114.2341283
  74.3377247 119.6426713 118.8629144  73.8839574 118.8017623 118.9194334
  73.7071213 120.2788112 119.2003924  73.2810166 110.5718699 120.0929811
  72.5432923 110.0596086 120.4240054  73.5336940 110.1319081 119.2813088
  72.7810186 121.4803210 119.7978962  73.0733160 122.0408267 119.0791327
  73.2908807 121.7731771 120.5532121  73.3821794 103.3494951 120.6871580
  73.6880670 102.4892315 120.3997495  74.1074398 103.9412572 120.4870574
  59.6746150 113.7525638 119.0753178  59.4770550 113.1594999 118.3504245
  59.1192814 113.4477848 119.7929117  67.6542873 113.6448744 121.1947771
  67.7091483 112.6922581 121.1190248  66.8434075 113.8008183 121.6789070
  68.8034067 117.5728867 112.4326055  68.3653497 116.8564726 111.9731692
  69.5444508 117.8004982 111.8711146  65.5935233 112.2625804 118.9538150
  64.7803099 112.5619975 119.3603342  66.0894227 111.8681493 119.6712633
  67.7443811 122.2583561 120.8872415  67.7019990 122.4844407 119.9580947
  68.6606510 122.0246936 121.0358216  76.9207182 115.8486064 118.4902373
  76.7825080 116.0387660 117.5623562  76.5643401 116.6105447 118.9470424
  65.0849308 109.8344160 124.5699385  65.7248687 109.6932919 123.8722349
  64.2526839 109.5478673 124.1937987  65.8609612 119.1346590 120.6834378
  66.6550210 118.6396910 120.4816953  65.1501304 118.6064453 120.3202083
  62.1692375 113.2789672 116.7594130  61.2389963 113.2174127 116.9764093
  62.2649847 112.7565625 115.9630772  62.0877924 109.8044485 119.3472372
  62.3484742 110.7189818 119.2381533  62.9095097 109.3368927 119.4968985
  63.5602850 111.2182242 126.5171197  64.2325903 111.0099604 125.8683846
  62.7332636 111.0204328 126.0776429  69.4628422 107.8444183 128.5336858
  68.8156337 108.5434132 128.4401334  70.2329437 108.2780327 128.9013106
  69.0329040 124.8084709 115.7057751  69.2080796 124.3372752 116.5203374
  68.3461828 125.4350475 115.9339012  69.9886103 119.0857215 121.7521053
  69.6535936 119.0457985 122.6478703  69.4890049 118.4201931 121.2791463
  63.9630347 114.4924845 127.2773634  63.8250145 113.7605084 127.8785173
  64.8735270 114.4033745 126.9957822  72.9245295 116.4313249 112.0258112
  72.3074465 115.7060077 111.9291165  72.4561783 117.1922609 111.6825187
  66.5912648 114.2044804 126.7657313  67.3012266 113.5637996 126.7243932
  66.5481956 114.4557699 127.6883494  65.3041582 111.1910022 128.5852953
  64.7678939 110.7400760 129.2374549  64.7158290 111.3255931 127.8423417
  64.7143841 110.6498673 111.1479417  63.8373307 110.5287474 110.7841663
  65.1901594 109.8584752 110.8958305  56.2345981 115.4375833 121.2420924
  56.9217021 115.1237563 120.6541939  56.0794109 116.3417198 120.9688175
  61.0380703 110.3266030 125.6705947  60.9538892 109.7191699 124.9356357
  60.2163409 110.8175048 125.6715444  67.9007767 123.0024964 118.3941937
  67.1175289 123.5446644 118.4880162  68.6000512 123.5198943 118.7936178
  71.2104417 108.8119593 121.0376142  71.7073116 108.0589556 120.7177213
  70.4391398 108.8483910 120.4719352  72.2934197 117.5691280 118.6114566
  71.3590476 117.6892743 118.4419270  72.4710866 116.6663747 118.3474576
  67.7939386 110.9536976 120.7647827  67.4237173 110.4008017 121.4528733
  68.2898478 110.3495110 120.2122827  75.6806749 113.4108600 119.1464600
  76.1467201 114.2436591 119.0724903  76.1314249 112.9453581 119.8509858
  73.7482980 119.7552421 116.1450752  74.0242824 119.6409016 117.0544626
  72.8787479 119.3569906 116.1062925  73.6523412 105.7789187 123.1855501
  72.7386491 106.0093414 123.3537708  74.0816513 105.8627631 124.0369534
  70.3837044 124.0038772 119.7883566  70.5659438 123.1860428 120.2511318
  71.2070030 124.2206464 119.3508456  70.7179209 122.9306957 117.0498614
  71.2466976 122.4199412 116.4368776  70.9807429 122.6149487 117.9144147
  61.2196302 120.9470826 124.7933948  61.8049739 120.2014514 124.9261852
  61.0221141 121.2574783 125.6770612  64.0734957 123.9822074 119.8096390
  63.4045333 124.4668201 119.3260430  63.9347827 124.2291294 120.7239769
  55.8113957 113.5176426 123.5138391  55.8498056 112.9840017 124.3075509
  55.3054250 112.9911632 122.8949368  63.1904719 108.3640967 127.0100933
  63.2546046 109.2255798 126.5978331  63.1271839 107.7514969 126.2773292
  62.6656992 110.4364100 130.6573967  63.2929031 110.0541177 131.2711492
  61.8084911 110.2178301 131.0229660  59.4422534 112.2440529 116.5892322
  59.7375976 111.3351207 116.5359376  58.5410570 112.2228268 116.2673325
  62.9716781 110.3196525 122.5719871  62.2503367 110.9332493 122.4327344
  63.7610037 110.8554290 122.4936517  65.7743095 107.6550952 128.8460523
  66.2977497 107.9013248 129.6086832  65.5555428 108.4870987 128.4263660
  61.1710376 109.9254626 116.7131647  60.8423082 109.0452005 116.5306753
  61.5249747 109.8702295 117.6008037  70.4189955 121.5609529 121.2226633
  70.2714917 120.6326236 121.4034203  71.2443448 121.5829620 120.7383708
  64.2852199 110.2127596 117.0807125  64.6248272 110.7413517 116.3585733
  64.7324320 110.5508002 117.8565692  66.9795640 108.5964647 126.5310193
  66.6392460 107.7972460 126.9330873  66.2734646 108.8966358 125.9587026
  67.6312112 105.6813959 124.9837516  68.4538181 105.2074437 124.8616406
  67.8750175 106.4604443 125.4836202  66.2720346 108.7102218 115.2800418
  66.9928709 109.0883470 114.7764135  65.6485650 109.4291095 115.3835396
  70.4151469 109.4147367 116.2158750  70.6315084 110.2972005 115.9147578
  69.9345536 109.0233580 115.4864392  65.1550691 112.3733080 122.7929495
  65.0095271 112.6873383 123.6853776  64.6775894 112.9917980 122.2400393
  67.0147074 109.3635628 122.8410384  67.0008642 108.4676721 122.5042682
  67.7319502 109.3706292 123.4748670  68.8673204 109.7972968 124.8863512
  68.6090982 110.7190039 124.8847842  68.3358245 109.4003403 125.5763976
  73.8119393 122.9023755 117.6653597  73.9856271 122.3370178 116.9127450
  74.3048284 123.7024650 117.4833087  59.6296353 114.9138424 125.7317156
  59.0849821 115.6898232 125.8637430  60.5075703 115.2609229 125.5736277
  66.4183969 108.2450008 118.1097954  66.5399881 107.3166654 118.3088842
  66.1286012 108.2588694 117.1976270  69.2875160 105.9304919 121.2464674
  69.3096857 105.9944252 120.2916654  69.7043219 105.0909427 121.4405180
  79.6658784 115.6660178 119.2843897  80.1089930 114.9167503 118.8863020
  78.7885294 115.6570315 118.9017629  74.7994565 122.2190520 114.7650495
  75.4945470 122.8397212 114.9837810  75.1417716 121.3685871 115.0402873
  60.4162375 114.0408321 128.6247313  59.6744111 114.1890956 129.2111943
  60.0955119 114.3016586 127.7614062  76.6985989 119.6690225 116.2937826
  77.2237313 120.0077498 115.5687146  76.6108341 118.7337240 116.1100961
  60.8618988 121.9273749 120.6557707  61.6877008 121.6277521 120.2756351
  60.5113040 121.1581372 121.1047496  65.8300521 121.2800217 122.7255381
  65.2080531 120.6170923 122.4257609  66.5005388 121.3061349 122.0429029
  59.0627593 119.8460076 121.6146641  58.2259502 119.4182250 121.4330642
  59.0351239 120.0392519 122.5517432  65.3914028 119.8304141 116.2013842
  65.5402149 120.5139605 115.5480514  66.1980472 119.8109231 116.7163297
  63.1466661 115.8569318 117.2074910  62.9012703 114.9531648 117.4055121
  63.3162576 115.8586469 116.2654388  70.8363371 106.7292995 126.5899666
  71.3545315 107.4654022 126.2646155  70.4818504 107.0356988 127.4246425
  62.4162309 111.5897676 114.7061072  61.7231554 111.6642031 114.0501108
  62.1714061 110.8258020 115.2282589  71.0875965 103.1493277 122.1100563
  71.3677719 102.4816466 122.7360989  71.8726572 103.3422373 121.5975227
  68.8909434 122.3252271 113.6725589  68.3183401 122.9442458 113.2196061
  69.4642228 122.8751633 114.2065511  72.9799203 108.6566495 126.0431539
  72.3849135 108.9371507 125.3478027  72.6948900 109.1460396 126.8148280
  72.1106694 122.6089421 114.8034171  73.0437367 122.5434983 115.0067047
  72.0229907 123.4445688 114.3448704  74.7394710 121.9255292 111.7638119
  74.6608342 121.5915155 112.6573877  75.5604377 122.4177060 111.7629591
  69.2756232 113.6613084 111.0141641  70.2215337 113.5319292 111.0830060
  68.8970477 112.9227746 111.4911070  75.2478117 105.3269090 120.9768533
  75.0502938 105.0184178 121.8611865  75.8577823 106.0530729 121.1066463
  67.4599150 111.5863060 110.9496527  66.5530605 111.2896173 111.0259240
  67.7375131 111.2892879 110.0830813  58.3777090 112.9069424 121.3995573
  58.0579874 112.0534732 121.1069947  57.8310518 113.1218002 122.1553540
  62.1556998 115.6231865 125.1165080  62.3743007 116.5548973 125.1353113
  62.5682771 115.2639839 125.9019883  69.0761215 106.1299950 117.1040768
  68.2661944 105.7847035 117.4796014  69.7645632 105.8207494 117.6928380
  71.0051764 105.2077997 118.7265065  71.5582802 105.6273450 119.3855088
  71.2421850 104.2813745 118.7688021  66.2297934 108.4449996 111.0908506
  67.0917098 108.7704894 111.3504323  66.4148278 107.6581492 110.5781572
  58.2465350 116.5272335 123.3688695  57.5528821 116.1126288 122.8558649
  58.9938341 116.5692872 122.7722114  74.3830571 107.3178522 118.2343729
  73.8029240 107.9763326 117.8521781  74.1166503 106.4955867 117.8231146
  72.8334137 106.7183580 120.4365049  73.3333915 106.8300114 119.6279368
  73.4769745 106.4144633 121.0765858  60.1602092 116.4590589 121.2454710
  60.1372781 116.5578276 120.2936593  60.4702729 117.3055740 121.5671876
  62.8189470 118.5166744 125.3601324  63.7732724 118.4850686 125.2931256
  62.6201994 118.0557368 126.1751550  73.1655449 109.4778612 117.2900077
  72.2781304 109.7628263 117.0720272  73.5809438 109.3172376 116.4427354
  76.5169985 109.5025133 121.0054416  77.2930375 109.9921586 121.2779033
  75.7918119 109.9283188 121.4626286  78.9542543 110.2152753 122.0628357
  79.5487034 109.9748489 121.3521665  79.0269127 109.4959883 122.6901893
  61.1739699 124.0586364 122.3771522  61.0394167 123.2986765 121.8109520
  60.7571761 124.7827263 121.9100311  72.3098662 119.2423287 111.3848097
  73.0134512 119.4473290 112.0005753  71.5861311 119.8100049 111.6497181
  73.1396472 114.9933148 117.5050367  73.0831674 115.4501700 116.6658000
  73.6924815 114.2323833 117.3273210  76.9501278 110.7822880 118.3300487
  76.6938213 110.3819516 119.1608695  76.3254146 111.4966674 118.2050626
  81.2613616 113.5218954 120.8371778  80.7013174 113.5912143 121.6103340
  80.6557120 113.3459938 120.1171274  74.2185360 119.6805816 113.4346557
  75.0530963 119.2487015 113.2524032  74.0569702 119.5087830 114.3623452
  73.8731252 116.1837930 114.8002897  73.8180056 116.0182201 113.8591341
  73.2477307 116.8913963 114.9565086  58.6623767 111.4205994 128.6264319
  59.3082630 110.9104948 129.1151544  58.4540918 112.1574676 129.2007744
  67.1827377 105.6846039 114.3788215  67.1706047 106.6287879 114.5356486
  68.0750799 105.5016184 114.0847676  70.9979497 102.2788815 118.6334152
  70.2311892 101.7247302 118.7790834  71.4090202 102.3510684 119.4948303
  79.0600937 125.3119296 113.7012611  79.2275339 126.1799532 114.0683083
  78.8698106 125.4746577 112.7773901  75.6799215 126.1343364 113.9481510
  74.8436527 126.4718050 114.2690785  75.5403985 125.9992343 113.0108647
  77.6552295 120.9780152 118.6560694  77.0016708 120.6629169 118.0317309
  77.6132770 120.3555892 119.3820517  73.0086130 128.6081589 116.7594130
  72.0783718 128.5466045 116.9764093  73.1043602 128.0857542 115.9630772
  70.2816289 127.5732446 116.5892322  70.5769730 126.6643125 116.5359376
  69.3804325 127.5520186 116.2673325  72.0104131 125.2546544 116.7131647
  71.6816837 124.3743923 116.5306753  72.3643501 125.1994213 117.6008037
  77.1114101 124.0394135 115.2800418  77.8322463 124.4175388 114.7764135
  76.4879405 124.7583012 115.3835396  77.2577724 123.5741926 118.1097954
  77.3793635 122.6458572 118.3088842  76.9679766 123.5880612 117.1976270
  73.2556063 126.9189594 114.7061072  72.5625308 126.9933949 114.0501108
  73.0107815 126.1549937 115.2282589  79.9154970 121.4591868 117.1040768
  79.1055698 121.1138953 117.4796014  80.6039387 121.1499412 117.6928380
  78.0221132 121.0137956 114.3788215  78.0099802 121.9579796 114.5356486
  78.9144554 120.8308102 114.0847676  81.8373251 117.6080733 118.6334152
  81.0705647 117.0539220 118.7790834  82.2483956 117.6802602 119.4948303
  16.0583190  20.7019956 101.4919921  15.4071169  21.2874037 101.1053935
  16.8527552  21.2326151 101.5514959  22.3249914  17.1944892 102.7524758
  21.5479356  16.8556052 102.3079920  23.0041395  17.1997515 102.0779723
  13.7300975  16.2910063  97.2959293  12.8228036  16.0599317  97.4950442
  14.2272007  15.4947682  97.4833274  16.6369054  25.0007570 100.2155979
  15.9630752  25.3039267 100.8240937  17.0234876  25.8036651  99.8661436
  14.6065296  17.9331402  99.1571361  14.1684726  17.2167261  98.6976999
  15.3475737  18.1607516  98.5956453  14.8360269  25.1687243 102.4303058
  15.0112024  24.6975286 103.2448681  14.1493057  25.7953009 102.6584319
  18.7276524  16.7915783  98.7503419  18.1105694  16.0662611  98.6536472
  18.2593012  17.5525144  98.4070493  19.5514209  20.1154955 102.8696059
  19.8274053  20.0011550 103.7789933  18.6818707  19.7172440 102.8308232
  16.5210438  23.2909491 103.7743921  17.0498205  22.7801946 103.1614083
  16.7838658  22.9752021 104.6389454  19.6150622  23.2626289 104.3898904
  19.7887499  22.6972712 103.6372756  20.1079513  24.0627184 104.2078394
  20.6025794  22.5793054 101.4895802  21.2976699  23.1999746 101.7083117
  20.9448944  21.7288405 101.7648180  22.5017217  20.0292759 103.0183133
  23.0268541  20.3680032 102.2932453  22.4139570  19.0939775 102.8346267
  14.6940663  22.6854805 100.3970896  14.1214630  23.3044993  99.9441367
  15.2673456  23.2354167 100.9310818  17.9137923  22.9691956 101.5279478
  18.8468596  22.9037517 101.7312353  17.8261135  23.8048222 101.0694011
  20.5425939  22.2857826  98.4883425  20.4639571  21.9517690  99.3819183
  21.3635606  22.7779594  98.4874898  15.0787461  14.0215618  97.7386948
  16.0246566  13.8921826  97.8075366  14.7001706  13.2830280  98.2156376
  18.1129891  19.6025821  98.1093404  18.8165741  19.8075824  98.7251059
  17.3892540  20.1702583  98.3742487  20.0216588  20.0408351 100.1591864
  20.8562192  19.6089549  99.9769339  19.8600931  19.8690364 101.0868758
  19.6762481  16.5440464 101.5248203  19.6211284  16.3784735 100.5836647
  19.0508536  17.2516497 101.6810393  28.6500863  30.5578002 110.2547041
  29.2879273  30.4384749 109.5510381  28.5321706  31.5058846 110.3134993
  25.4590570  30.5105430 110.1908565  25.1209081  30.3946494 109.3029100
  26.3280338  30.1096595 110.1709571  21.3177385  32.3640906 106.1805456
  20.7542251  32.2730843 105.4121744  21.2029780  31.5440811 106.6607949
  18.8641817  33.8592098 109.0189677  19.6563109  33.5182922 108.6035976
  19.1038468  33.9687073 109.9391830  26.8976944  36.0311874 101.4919921
  26.2464924  36.6165954 101.1053935  27.6921307  36.5618069 101.5514959
  20.8232571  33.1201011 101.8907055  21.5963447  32.5729998 101.7519931
  21.1757970  33.9845260 102.1021517  23.5873821  31.8254242 111.6875314
  24.1837393  31.6010264 110.9732277  23.6448792  31.0838987 112.2900762
  23.1598849  29.2793677  99.5225505  23.4124370  28.7575198  98.7608968
  22.2223408  29.1159823  99.6252189  28.2042132  28.2829456 107.3300249
  28.9905221  27.8648879 106.9790666  28.4680836  29.1875548 107.4981897
  28.3752209  33.7202306 102.0288905  27.7398042  33.7936932 102.7409810
  28.0449616  34.3095905 101.3507985  33.6050559  28.2204689 108.2333227
  34.3375731  27.6503906 108.4671057  32.8489915  27.8326289 108.6739733
  22.8795138  31.1821783 101.7249880  22.7631396  30.5066687 102.3930965
  22.9897398  30.6954157 100.9082033  25.2226679  30.6431930 105.4296570
  24.8584886  30.1162551 106.1409491  26.0793795  30.2530399 105.2563055
  24.8632166  25.6721830 100.4257918  25.0306568  26.5402066 100.7928389
  24.6729335  25.8349112  99.5019207  27.6207499  34.1338809 112.0923748
  27.3208222  35.0363848 111.9839556  27.2758558  33.8670992 112.9444901
  21.0719980  30.5852606 108.1260453  20.1470477  30.4528820 108.3338145
  21.3204394  31.3646825 108.6230395  31.0204643  26.6521349 109.7721186
  30.1121520  26.5836757 109.4779947  30.9692239  27.1293294 110.6003011
  24.8421387  28.1279487 101.4104585  24.7221012  28.5736538 102.2490065
  24.1473975  28.4764805 100.8518123  18.4328791  30.2285879 108.9604242
  18.5621173  30.4820358 109.8743654  17.7526243  30.8213587 108.6408897
  22.6028279  40.8983129 105.0594716  22.5252308  41.8490954 105.1383197
  21.9989922  40.5529002 105.7169642  32.8866289  24.8537787 111.5499060
  32.2440669  25.1470321 110.9038854  32.3821218  24.7390708 112.3552256
  30.5406453  28.6000961 102.2384919  31.4524309  28.8328347 102.0632617
  30.0316100  29.1838005 101.6759998  29.1476035  33.5826779 109.6298500
  28.5184898  33.7472493 108.9274568  28.7601697  33.9968389 110.4009464
  33.0265267  34.5181217 106.9842864  32.3416305  34.8980118 106.4339898
  33.1109116  35.1276544 107.7174812  30.2816199  32.1641176 113.5838208
  30.4933094  32.8072936 112.9072589  30.2345947  31.3303492 113.1160138
  24.7003997  33.3201187 106.8948586  25.1642343  33.5988890 106.1053208
  24.4360795  32.4184632 106.7121676  21.5928078  32.8672669 109.8328349
  22.1629435  33.2959937 109.1945833  22.1836190  32.5855253 110.5312534
  23.6372883  29.4424340 103.7038151  24.3396926  29.8945383 104.1712077
  23.3053512  28.8008158 104.3318044  31.3962027  35.0413131 111.7560565
  32.2179470  34.6393319 111.4743247  31.3924429  34.9381366 112.7076681
  19.3312962  28.0652471 105.9638761  18.5344126  28.1771166 106.4822257
  19.1038555  28.4039124 105.0979651  25.1618630  34.5897175 113.9121276
  25.2263063  35.0517582 114.7479447  24.4529554  33.9594540 114.0403585
  39.4868020  31.3851880 108.1045537  38.7331728  30.8159278 107.9489541
  39.6215561  31.3514544 109.0516171  24.8766648  36.2565282 103.7800256
  24.7412322  37.1016818 104.2085104  25.4176460  36.4584560 103.0166190
  18.3296045  33.7740720 104.3528181  18.8420566  34.5683970 104.5033746
  18.9818758  33.0767011 104.2861782  20.1390930  36.8906476 106.4350934
  20.3157558  37.8124441 106.2471918  20.9347763  36.5764896 106.8645314
  21.2622245  38.4084650 112.4361276  21.8129670  38.2801714 111.6638270
  20.4233721  38.7079539 112.0856169  28.6016362  37.1591649 115.9381999
  28.5834837  37.9800530 115.4462268  29.5236282  37.0345724 116.1632140
  16.2944962  32.1029374 105.1287752  17.1320184  32.5126383 104.9121459
  16.4723230  31.1628817 105.0987945  28.1909394  29.7704455 100.8171584
  27.6756017  30.5409060 101.0559972  27.9186702  29.0969591 101.4404646
  25.7756505  24.6154156 105.8756823  24.9198101  24.2261006 105.6962462
  26.1883457  24.6946117 105.0156608  33.1643668  32.5236810 102.7524758
  32.3873111  32.1847969 102.3079920  33.8435149  32.5289433 102.0779723
  27.9795697  27.6431547 102.6431366  27.6745833  27.9577696 103.4941509
  28.9326139  27.7212967 102.6858699  26.4242129  33.8021771 104.2924320
  25.8963491  33.0674530 103.9797557  25.9229632  34.5796447 104.0464288
  31.4034975  31.9970791 109.4091366  30.7458649  32.6870052 109.4971495
  32.2075374  32.3867223 109.7525352  21.1560857  24.4641437 106.6530931
  21.7304608  24.2416618 105.9204124  21.7431839  24.5330131 107.4059532
  30.2140434  30.3515164 107.4595308  30.7272316  30.9845156 107.9617017
  30.8641658  29.7516359 107.0938668  21.4830444  26.4945898 100.6726816
  20.6467756  26.8320584 100.9936091  21.3435213  26.3594878  99.7353953
  23.4583524  21.3382686 105.3806001  22.8047937  21.0231703 104.7562615
  23.4163998  20.7158426 106.1065824  24.5694729  31.6201981  97.2959293
  23.6621791  31.3891234  97.4950442  25.0665761  30.8239600  97.4833274
  27.4762808  40.3299488 100.2155979  26.8024507  40.6331185 100.8240937
  27.8628630  41.1328568  99.8661436  26.6921265  27.8264619 109.7053648
  25.7743826  28.0479566 109.5475336  27.1081408  27.9010930 108.8465356
  27.4756312  29.2256035 104.8356328  28.2228131  29.7377432 104.5263451
  27.7447902  28.9040088 105.6960722  25.7482963  31.7214576 101.8183283
  24.8394182  31.4373608 101.9155753  25.7778046  32.1413654 100.9586590
  30.9802230  35.3321165 105.5874450  30.5264557  34.4912075 105.6439641
  30.3496197  35.9682564 105.9249230  29.9235150  26.2613151 106.8175118
  29.1857906  25.7490537 107.1485360  30.1761923  25.8213533 106.0058395
  29.4235169  37.1697662 106.5224268  29.7158144  37.7302719 105.8036634
  29.9333790  37.4626223 107.2777428  30.0246777  19.0389403 107.4116887
  30.3305654  18.1786767 107.1242802  30.7499382  19.6307023 107.2115881
  16.3171133  29.4420090 105.7998485  16.1195533  28.8489451 105.0749552
  15.7617797  29.1372300 106.5174424  24.2967857  29.3343196 107.9193078
  24.3516466  28.3817033 107.8435555  23.4859059  29.4902635 108.4034377
  25.4459050  33.2623319  99.1571361  25.0078480  32.5459178  98.6976999
  26.1869491  33.4899434  98.5956453  22.2360217  27.9520256 105.6783457
  21.4228082  28.2514427 106.0848649  22.7319211  27.5575945 106.3957939
  24.3868794  37.9478013 107.6117722  24.3444973  38.1738859 106.6826254
  25.3031493  37.7141388 107.7603523  33.5632165  31.5380516 105.2147680
  33.4250064  31.7282112 104.2868869  33.2068384  32.2999899 105.6715731
  33.5901545  33.6057043 110.2258951  34.0238051  33.5132332 111.0742005
  34.3033125  33.5814544 109.5878967  22.5034595  34.8241042 107.4079684
  23.2975194  34.3291362 107.2062259  21.7926288  34.2958905 107.0447390
  27.3229440  37.2059137 111.7592052  27.3766462  37.7750074 112.5269768
  26.4544221  37.3761023 111.3946089  18.8117359  28.9684124 103.4839437
  17.8814947  28.9068579 103.7009399  18.9074831  28.4460076 102.6876078
  18.7302908  25.4938937 106.0717679  18.9909725  26.4084270 105.9626839
  19.5520080  25.0263379 106.2214292  34.4517094  33.6480744 112.7591837
  34.6452984  34.5526555 113.0051112  34.3517713  33.1888163 113.5930422
  26.2817539  31.3719400 113.3178984  27.2109599  31.5230559 113.1447951
  25.8608569  31.4603420 112.4627630  25.0805871  35.3970064 111.0877521
  24.9416957  35.0288848 111.9603460  24.2920467  35.9117703 110.9161479
  25.6754023  40.4979160 102.4303058  25.8505779  40.0267204 103.2448681
  24.9886811  41.1244927 102.6584319  26.6311086  34.7751667 108.4766359
  26.2960919  34.7352437 109.3724009  26.1315032  34.1096383 108.0036769
  29.5670278  32.1207701  98.7503419  28.9499449  31.3954529  98.6536472
  29.0986766  32.8817061  98.4070493  31.2224410  36.8306609 116.4109199
  31.1636956  36.1465829 115.7439782  31.6243928  37.5725599 115.9589825
  20.2415108  43.6468523 109.2042918  20.4811707  44.2787047 109.8821937
  19.3984305  43.2956563 109.4908277  21.3568824  26.3393125  97.8724723
  20.4798290  26.2181926  97.5086970  21.8326577  25.5479204  97.6203612
  31.2241817  34.7946193 114.6423179  30.3368596  34.4572115 114.7649578
  31.7940368  34.0629225 114.8791944  12.8770964  31.1270285 107.9666230
  13.5642004  30.8132015 107.3787246  12.7219093  32.0311650 107.6933482
  24.7542970  39.4547646 111.6084422  24.6813142  40.2602617 112.1203727
  24.3120363  39.6539611 110.7832444  24.5432750  38.6919416 105.1187244
  23.7600272  39.2341096 105.2125468  25.2425495  39.2093395 105.5181485
  27.8529400  24.5014045 107.7621449  28.3498100  23.7484007 107.4422519
  27.0816382  24.5378362 107.1964658  35.7059157  30.2054411 109.4039741
  35.6949034  31.0879126 109.0333674  34.8376537  29.8525961 109.2094278
  27.2141654  39.3534480 113.7642581  27.9269626  39.9881944 113.6918482
  26.7231682  39.4498346 112.9482583  28.9359181  33.2585732 105.3359872
  28.0015459  33.3787195 105.1664577  29.1135849  32.3558199 105.0719882
  24.4364369  26.6431428 107.4893134  24.0662156  26.0902468 108.1774039
  24.9323461  26.0389562 106.9368134  32.3231732  29.1003052 105.8709907
  32.7892184  29.9331043 105.7970209  32.7739233  28.6348033 106.5755165
  22.2653567  37.1028923 114.5848152  22.9663027  37.7365406 114.7377546
  21.7948682  37.4443655 113.8243791  30.3907963  35.4446873 102.8696059
  30.6667807  35.3303467 103.7789933  29.5212462  35.0464358 102.8308232
  30.0654853  29.6573531 112.4100702  29.4126304  29.9049438 111.7553155
  30.4435233  28.8437669 112.0763179  27.0262027  39.6933224 106.5128872
  27.2084422  38.8754880 106.9756625  27.8495013  39.9100916 106.0753762
  27.3604193  38.6201409 103.7743921  27.8891959  38.1093863 103.1614083
  27.6232412  38.3043939 104.6389454  17.8621285  36.6365278 111.5179254
  18.4474722  35.8908966 111.6507159  17.6646124  36.9469235 112.4015918
  20.7159941  39.6716526 106.5341697  20.0470316  40.1562653 106.0505737
  20.5772810  39.9185746 107.4485075  24.8565209  41.7060269 113.1324355
  25.4083517  41.8691891 113.8973440  25.1971403  42.2964707 112.4604380
  16.0847518  27.9334981 103.3137629  16.3800959  27.0245659 103.2604683
  15.1835554  27.9122720 102.9918631  27.9933597  39.6542245 110.1188037
  27.8684736  38.8531984 109.6098983  28.6512688  40.1488438 109.6302007
  30.0568505  37.4551265 111.7467587  29.1098840  37.3356616 111.6745914
  30.4051278  36.5673763 111.8293849  17.8135359  25.6149078 103.4376954
  17.4848066  24.7346457 103.2552060  18.1674730  25.5596747 104.3253343
  27.0614938  37.2503981 107.9471940  26.9139901  36.3220688 108.1279510
  27.8868432  37.2724072 107.4629015  20.9277183  25.9022048 103.8052432
  21.2673255  26.4307969 103.0831040  21.3749303  26.2402454 104.5810998
  30.6649060  38.0732540 109.0336812  31.5895608  37.8675401 108.8961263
  30.4964363  37.8248941 109.9426154  22.9145330  24.3996670 102.0045724
  23.6353692  24.7777922 101.5009441  22.2910634  25.1185546 102.1080702
  27.0576453  25.1041819 102.9404057  27.2740067  25.9866456 102.6392885
  26.5770520  24.7128032 102.2109699  30.4544376  38.5918207 104.3898904
  30.6281254  38.0264630 103.6372756  30.9473268  39.3919102 104.2078394
  23.0608953  23.9344460 104.8343261  23.1824864  23.0061106 105.0334149
  22.7710995  23.9483146 103.9221576  36.3083767  31.3554630 106.0089203
  36.7514913  30.6061955 105.6108327  35.4310278  31.3464766 105.6262935
  31.4419549  37.9084971 101.4895802  32.1370453  38.5291664 101.7083117
  31.7842699  37.0580323 101.7648180  33.3410972  35.3584677 103.0183133
  33.8662296  35.6971950 102.2932453  33.2533324  34.4231692 102.8346267
  25.0031021  39.2718751 115.1473009  25.3118147  39.0267897 116.0195709
  25.8006503  39.4765389 114.6591880  25.0251633  41.4256660 107.3778386
  24.5856623  40.9333039 108.0711243  25.7759750  40.8829628 107.1370461
  17.5043972  37.6168201 107.3803014  18.3301992  37.3171973 107.0001658
  17.1538024  36.8475824 107.8292803  22.4725505  36.9694669 109.4500688
  21.8505514  36.3065374 109.1502916  23.1430372  36.9955801 108.7674335
  15.7052577  35.5354528 108.3391948  14.8684485  35.1076702 108.1575949
  15.6776222  35.7286971 109.2762739  33.0304878  35.9917581 118.3234331
  32.2400422  35.9741720 117.7838830  32.7938233  36.5305874 119.0783367
  33.1502753  32.8410047 115.6367059  33.2000758  32.6760054 116.5782582
  33.0416676  31.9737306 115.2464940  22.0339012  35.5198593 102.9259148
  22.1827132  36.2034057 102.2725821  22.8405455  35.5003683 103.4408604
  34.6520950  35.2606989 115.8809081  34.3605758  35.6236969 116.7172542
  34.0393081  34.5473997 115.7022413  35.8516632  32.8259868 108.4011651
  36.6863524  33.2649672 108.5649211  35.9875761  32.3498522 107.5819897
  32.9008138  30.3839603 114.3489139  33.3762260  30.5767249 113.5407990
  31.9773703  30.4398789 114.1032522  19.7891645  31.5463770 103.9320217
  19.5437687  30.6426100 104.1300427  19.9587559  31.5480921 102.9899695
  19.0587292  27.2792128 101.4306379  18.3656537  27.3536483 100.7746415
  18.8139044  26.5152472 101.9527895  25.5334417  38.0146723 100.3970896
  24.9608384  38.6336910  99.9441367  26.1067211  38.5646085 100.9310818
  31.6009807  27.2605363 112.5817444  32.5527230  27.3603461 112.6029668
  31.4313257  26.4683632 113.0915529  28.7531677  38.2983873 101.5279478
  29.6862350  38.2329435 101.7312353  28.6654890  39.1340140 101.0694011
  31.3819694  37.6149744  98.4883425  31.3033325  37.2809607  99.3819183
  32.2029360  38.1071512  98.4874898  34.0797885  30.4811483 111.6959744
  34.0474205  29.5427484 111.8819428  34.6898509  30.5595520 110.9625569
  25.9181216  29.3507536  97.7386948  26.8640320  29.2213744  97.8075366
  25.5395461  28.6122198  98.2156376  34.2292373  27.2722526 111.7418027
  33.7131422  26.4880983 111.5547956  35.1132322  26.9441243 111.9064547
  31.8903100  21.0163542 107.7013840  31.6927921  20.7078630 108.5857172
  32.5002806  21.7425181 107.8311770  39.8974435  31.5427490 110.8365781
  40.6277823  31.2812778 111.3973484  39.2881380  30.8056212 110.8767849
  37.9789732  29.6835352 111.4340232  37.2522895  29.5491317 110.8256724
  37.5637019  29.9912181 112.2396950  24.1024133  27.2757512  97.6741833
  23.1955588  26.9790625  97.7504547  24.3800114  26.9787330  96.8076120
  25.7186199  21.8194402 103.8286075  24.9086927  21.4741487 104.2041321
  26.4070616  21.5101946 104.4173686  27.6476747  20.8972449 105.4510371
  28.2007785  21.3167902 106.1100394  27.8846833  19.9708197 105.4933327
  22.8722917  24.1344448  97.8153813  23.7342081  24.4599346  98.0749630
  23.0573262  23.3475943  97.3026878  31.0255554  23.0072974 104.9589036
  30.4454223  23.6657778 104.5767088  30.7591487  22.1850319 104.5476453
  29.4759120  22.4078032 107.1610356  29.9758899  22.5194566 106.3524675
  30.1194728  22.1039085 107.8011164  16.8027076  32.1485041 107.9700016
  16.7797764  32.2472728 107.0181899  17.1127712  32.9950192 108.2917182
  29.8080432  25.1673064 104.0145384  28.9206287  25.4522715 103.7965579
  30.2234421  25.0066828 103.1672661  33.1594968  25.1919585 107.7299723
  33.9355358  25.6816038 108.0024340  32.4343102  25.6177640 108.1871593
  35.5967527  25.9047205 108.7873664  36.1912018  25.6642941 108.0766972
  35.6694110  25.1854335 109.4147200  17.8164682  39.7480816 109.1016828
  17.6819150  38.9881216 108.5354827  17.3996745  40.4721715 108.6345617
  28.9523645  34.9317739  98.1093404  29.6559496  35.1367742  98.7251059
  28.2286294  35.4994501  98.3742487  29.7821456  30.6827600 104.2295674
  29.7256657  31.1396152 103.3903306  30.3349798  29.9218285 104.0518517
  33.5926262  26.4717332 105.0545793  33.3363196  26.0713968 105.8854001
  32.9679130  27.1861126 104.9295933  37.9038599  29.2113405 107.5617085
  37.3438157  29.2806595 108.3348647  37.2982103  29.0354390 106.8416581
  20.9733808  40.6450133 109.3135271  20.8566192  41.5895565 109.2113961
  20.1526255  40.3423694 109.7021070  30.8610343  35.3700268 100.1591864
  31.6955947  34.9381467  99.9769339  30.6994686  35.1982282 101.0868758
  30.5156235  31.8732382 101.5248203  30.4605039  31.7076653 100.5836647
  29.8902290  32.5808414 101.6810393  23.8252361  21.3740491 101.1033522
  23.8131030  22.3182330 101.2601792  24.7175782  21.1910636 100.8092983
  21.9988322  41.2978394 112.5291200  22.9015569  41.3302005 112.8457695
  21.7725693  40.3678845 112.5437535  23.7541924  40.0509381 109.1901278
  22.8037555  40.0511243 109.0765650  24.0574411  39.3042116 108.6737313
  27.6404480  17.9683267 105.3579458  26.8736876  17.4141754 105.5036141
  28.0515185  18.0405136 106.2193610  39.4894618  45.8869919 110.2547041
  40.1273028  45.7676667 109.5510381  39.3715461  46.8350763 110.3134993
  36.2984324  45.8397347 110.1908565  35.9602836  45.7238412 109.3029100
  37.1674092  45.4388513 110.1709571  32.1571140  47.6932824 106.1805456
  31.5936005  47.6022761 105.4121744  32.0423535  46.8732728 106.6607949
  36.7804107  46.9932199 116.1494771  36.7692748  46.5984997 115.2775274
  36.9424747  46.2598272 116.7428542  29.7035572  49.1884015 109.0189677
  30.4956864  48.8474840 108.6035976  29.9432222  49.2978991 109.9391830
  37.7370699  51.3603792 101.4919921  37.0858678  51.9457872 101.1053935
  38.5315061  51.8909986 101.5514959  31.6626326  48.4492929 101.8907055
  32.4357202  47.9021916 101.7519931  32.0151725  49.3137178 102.1021517
  33.5011368  49.7769311 115.0973955  33.2101234  50.6814942 114.9820621
  34.1368353  49.8185839 115.8118024  34.4267575  47.1546160 111.6875314
  35.0231147  46.9302182 110.9732277  34.4842547  46.4130905 112.2900762
  33.9992604  44.6085595  99.5225505  34.2518124  44.0867116  98.7608968
  33.0617163  44.4451740  99.6252189  39.0435886  43.6121373 107.3300249
  39.8298976  43.1940796 106.9790666  39.3074591  44.5167465 107.4981897
  39.2145964  49.0494224 102.0288905  38.5791797  49.1228850 102.7409810
  38.8843370  49.6387822 101.3507985  44.4444314  43.5496606 108.2333227
  45.1769486  42.9795823 108.4671057  43.6883669  43.1618207 108.6739733
  33.7188892  46.5113701 101.7249880  33.6025150  45.8358604 102.3930965
  33.8291152  46.0246075 100.9082033  36.0620433  45.9723848 105.4296570
  35.6978641  45.4454469 106.1409491  36.9187549  45.5822317 105.2563055
  41.9669734  37.2618181 112.6927836  41.6353059  38.1313591 112.4689051
  41.3715347  36.9454465 113.3721866  35.7025920  41.0013748 100.4257918
  35.8700323  41.8693984 100.7928389  35.5123089  41.1641029  99.5019207
  38.4601253  49.4630727 112.0923748  38.1601977  50.3655765 111.9839556
  38.1152313  49.1962910 112.9444901  31.9113735  45.9144523 108.1260453
  30.9864231  45.7820737 108.3338145  32.1598148  46.6938743 108.6230395
  41.8598397  41.9813267 109.7721186  40.9515275  41.9128675 109.4779947
  41.8085993  42.4585212 110.6003011  35.6815141  43.4571405 101.4104585
  35.5614766  43.9028456 102.2490065  34.9867730  43.8056723 100.8518123
  29.2722546  45.5577797 108.9604242  29.4014927  45.8112276 109.8743654
  28.5919997  46.1505505 108.6408897  33.4422033  56.2275047 105.0594716
  33.3646063  57.1782872 105.1383197  32.8383677  55.8820919 105.7169642
  35.9339263  43.4002912 117.7156083  35.1572597  43.9596832 117.7058948
  36.5729826  43.8859695 118.2370953  43.7260044  40.1829705 111.5499060
  43.0834424  40.4762238 110.9038854  43.2214972  40.0682625 112.3552256
  41.3800207  43.9292878 102.2384919  42.2918063  44.1620265 102.0632617
  40.8709854  44.5129922 101.6759998  34.1885635  46.2088366 117.2774050
  34.9300320  46.7473410 117.0008874  33.4822621  46.8354654 117.4345602
  39.6640975  48.3517506 115.8746212  40.0724331  47.9099917 115.1300844
  38.9418236  47.7770134 116.1280404  36.0172045  43.2890113 113.2479769
  36.8633240  43.7129526 113.3914418  35.9570683  42.6323737 113.9418332
  39.9869790  48.9118697 109.6298500  39.3578652  49.0764411 108.9274568
  39.5995452  49.3260306 110.4009464  43.8659022  49.8473135 106.9842864
  43.1810060  50.2272036 106.4339898  43.9502871  50.4568461 107.7174812
  39.1671490  40.9494481 114.9060942  38.9232422  41.7036542 114.3695218
  39.4431421  41.3279829 115.7408189  41.1209953  47.4933094 113.5838208
  41.3326848  48.1364854 112.9072589  41.0739701  46.6595410 113.1160138
  38.7236182  40.1050914 110.4874780  37.8620661  40.4032168 110.7791517
  38.7498617  40.3221313 109.5555813  35.5397751  48.6493105 106.8948586
  36.0036097  48.9280808 106.1053208  35.2754550  47.7476549 106.7121676
  32.4321833  48.1964586 109.8328349  33.0023190  48.6251855 109.1945833
  33.0229944  47.9147171 110.5312534  34.4766638  44.7716257 103.7038151
  35.1790681  45.2237301 104.1712077  34.1447266  44.1300076 104.3318044
  32.9246999  43.3628014 118.0789360  32.2945660  44.0444295 118.3124757
  32.8183087  43.2511095 117.1342498  28.2191971  43.0299810 109.0055284
  27.4291025  43.2857338 108.5295395  28.7103219  43.8448148 109.1107325
  42.2355781  50.3705049 111.7560565  43.0573225  49.9685236 111.4743247
  42.2318184  50.2673283 112.7076681  30.1706717  43.3944389 105.9638761
  29.3737880  43.5063083 106.4822257  29.9432309  43.7331041 105.0979651
  36.0012385  49.9189092 113.9121276  36.0656817  50.3809500 114.7479447
  35.2923308  49.2886457 114.0403585  26.5029674  43.2830300 111.4370275
  26.7537713  44.1677310 111.7027851  27.0389223  43.1034902 110.6645367
  50.3261774  46.7143798 108.1045537  49.5725482  46.1451196 107.9489541
  50.4609315  46.6806462 109.0516171  35.7160402  51.5857200 103.7800256
  35.5806077  52.4308736 104.2085104  36.2570215  51.7876477 103.0166190
  29.1689800  49.1032638 104.3528181  29.6814320  49.8975888 104.5033746
  29.8212512  48.4058928 104.2861782  30.9784684  52.2198394 106.4350934
  31.1551313  53.1416359 106.2471918  31.7741518  51.9056813 106.8645314
  35.1195703  39.0806659 118.0334868  35.8605416  39.6813812 117.9539330
  35.3513626  38.3384297 117.4752910  30.2637041  44.2663026 116.3113097
  30.1490556  43.3648283 116.6120196  29.4081559  44.5126723 115.9597914
  37.3428879  52.2080766 117.9100598  36.8992733  51.4217145 117.5921502
  38.0046092  52.3959917 117.2444489  32.1016000  53.7376568 112.4361276
  32.6523425  53.6093631 111.6638270  31.2627476  54.0371457 112.0856169
  39.4410117  52.4883566 115.9381999  39.4228592  53.3092447 115.4462268
  40.3630037  52.3637641 116.1632140  35.8983171  50.0027696 116.7805508
  36.4311508  49.2415984 116.5504816  35.3697252  49.7101348 117.5229662
  39.0652866  35.1087762 112.3099149  38.7217135  35.9989403 112.2338260
  39.4331828  34.9189419 111.4468734  27.1338716  47.4321292 105.1287752
  27.9713938  47.8418301 104.9121459  27.3116984  46.4920734 105.0987945
  39.0303148  45.0996373 100.8171584  38.5149772  45.8700977 101.0559972
  38.7580457  44.4261509 101.4404646  36.6150259  39.9446074 105.8756823
  35.7591856  39.5552924 105.6962462  37.0277211  40.0238034 105.0156608
  38.1449406  37.4792417 110.2748383  37.6414202  37.4422552 109.4616188
  38.4380013  38.3885160 110.3345039  34.3892292  37.5631147 109.2814564
  35.2545289  37.3673955 108.9220454  34.4569801  37.3341498 110.2083921
  44.0037423  47.8528727 102.7524758  43.2266865  47.5139887 102.3079920
  44.6828904  47.8581351 102.0779723  38.8189452  42.9723465 102.6431366
  38.5139587  43.2869614 103.4941509  39.7719894  43.0504885 102.6858699
  37.2635883  49.1313688 104.2924320  36.7357245  48.3966448 103.9797557
  36.7623386  49.9088365 104.0464288  42.2428729  47.3262709 109.4091366
  41.5852404  48.0161970 109.4971495  43.0469129  47.7159141 109.7525352
  31.9954611  39.7933355 106.6530931  32.5698363  39.5708536 105.9204124
  32.5825594  39.8622049 107.4059532  41.0534188  45.6807081 107.4595308
  41.5666070  46.3137073 107.9617017  41.7035412  45.0808277 107.0938668
  32.3224198  41.8237816 100.6726816  31.4861510  42.1612502 100.9936091
  32.1828968  41.6886795  99.7353953  34.2977279  36.6674603 105.3806001
  33.6441691  36.3523621 104.7562615  34.2557753  36.0450344 106.1065824
  35.4088484  46.9493898  97.2959293  34.5015545  46.7183152  97.4950442
  35.9059516  46.1531518  97.4833274  37.5315019  43.1556537 109.7053648
  36.6137581  43.3771484 109.5475336  37.9475163  43.2302847 108.8465356
  38.3150067  44.5547953 104.8356328  39.0621886  45.0669350 104.5263451
  38.5841656  44.2332005 105.6960722  36.5876717  47.0506493 101.8183283
  35.6787936  46.7665526 101.9155753  36.6171801  47.4705572 100.9586590
  41.8195985  50.6613083 105.5874450  41.3658312  49.8203993 105.6439641
  41.1889951  51.2974481 105.9249230  40.7628904  41.5905069 106.8175118
  40.0251661  41.0782455 107.1485360  41.0155678  41.1505450 106.0058395
  40.2628924  52.4989580 106.5224268  40.5551898  53.0594637 105.8036634
  40.7727544  52.7918141 107.2777428  40.8640531  34.3681321 107.4116887
  41.1699408  33.5078684 107.1242802  41.5893136  34.9598941 107.2115881
  27.1564887  44.7712007 105.7998485  26.9589287  44.1781368 105.0749552
  26.6011551  44.4664218 106.5174424  35.1361611  44.6635114 107.9193078
  35.1910221  43.7108950 107.8435555  34.3252813  44.8194553 108.4034377
  36.2852805  48.5915237  99.1571361  35.8472235  47.8751096  98.6976999
  37.0263246  48.8191352  98.5956453  33.0753971  43.2812174 105.6783457
  32.2621837  43.5806344 106.0848649  33.5712965  42.8867862 106.3957939
  35.2262549  53.2769931 107.6117722  35.1838728  53.5030777 106.6826254
  36.1425248  53.0433305 107.7603523  38.6728183  43.7453998 114.5098351
  39.0277570  43.9725471 115.3692817  39.3200314  44.0772375 113.8875606
  44.4025920  46.8672434 105.2147680  44.2643818  47.0574030 104.2868869
  44.0462138  47.6291817 105.6715731  32.5668046  40.8530529 111.2944692
  33.2067425  40.7119288 110.5967655  31.7345576  40.5665043 110.9183294
  44.4295299  48.9348961 110.2258951  44.8631806  48.8424250 111.0742005
  45.1426880  48.9106462 109.5878967  33.3428350  50.1532960 107.4079684
  34.1368948  49.6583280 107.2062259  32.6320042  49.6250823 107.0447390
  38.1623194  52.5351055 111.7592052  38.2160216  53.1041991 112.5269768
  37.2937976  52.7052940 111.3946089  29.6511113  44.2976041 103.4839437
  28.7208701  44.2360497 103.7009399  29.7468585  43.7751994 102.6876078
  29.5696662  40.8230854 106.0717679  29.8303480  41.7376187 105.9626839
  30.3913835  40.3555297 106.2214292  31.0421588  42.2368611 113.2416503
  31.7144641  42.0285974 112.5929152  30.2151374  42.0390697 112.8021736
  45.2910849  48.9772662 112.7591837  45.4846739  49.8818472 113.0051112
  45.1911467  48.5180081 113.5930422  36.9447160  38.8630552 115.2582164
  36.2975075  39.5620502 115.1646641  37.7148175  39.2966696 115.6258412
  40.3525958  49.1279404 118.3332717  40.2011464  48.8989956 117.4162801
  40.3430637  50.0850006 118.3464062  37.1211294  46.7011317 113.3178984
  38.0503354  46.8522477 113.1447951  36.7002324  46.7895338 112.4627630
  35.9199626  50.7261982 111.0877521  35.7810711  50.3580766 111.9603460
  35.1314222  51.2409621 110.9161479  37.4704841  50.1043584 108.4766359
  37.1354673  50.0644354 109.3724009  36.9708787  49.4388300 108.0036769
  31.4449085  45.5111214 114.0018940  31.3068883  44.7791453 114.6030479
  32.3554008  45.4220114 113.7203128  34.0731385  45.2231174 113.4902620
  34.7831004  44.5824366 113.4489238  34.0300694  45.4744069 114.4128801
  42.0618164  52.1598527 116.4109199  42.0030710  51.4757747 115.7439782
  42.4637683  52.9017517 115.9589825  32.7860319  42.2096392 115.3098260
  32.2497676  41.7587130 115.9619856  32.1977028  42.3442300 114.5668724
  31.0808863  58.9760441 109.2042918  31.3205461  59.6078965 109.8821937
  30.2378059  58.6248481 109.4908277  32.1962578  41.6685043  97.8724723
  31.3192045  41.5473844  97.5086970  32.6720331  40.8771121  97.6203612
  42.0635571  50.1238111 114.6423179  41.1762350  49.7864033 114.7649578
  42.6334122  49.3921142 114.8791944  23.7164719  46.4562203 107.9666230
  24.4035758  46.1423933 107.3787246  23.5612847  47.3603567 107.6933482
  28.5199441  41.3452399 112.3951254  28.4357629  40.7378069 111.6601664
  27.6982147  41.8361418 112.3960750  35.5936725  54.7839563 111.6084422
  35.5206896  55.5894535 112.1203727  35.1514118  54.9831529 110.7832444
  35.3826504  54.0211333 105.1187244  34.5994026  54.5633014 105.2125468
  36.0819250  54.5385313 105.5181485  38.6923155  39.8305963 107.7621449
  39.1891854  39.0775925 107.4422519  37.9210136  39.8670279 107.1964658
  46.5452912  45.5346328 109.4039741  46.5342788  46.4171044 109.0333674
  45.6770291  45.1817879 109.2094278  38.0535408  54.6826397 113.7642581
  38.7663381  55.3173862 113.6918482  37.5625437  54.7790263 112.9482583
  39.7752935  48.5877650 105.3359872  38.8409214  48.7079112 105.1664577
  39.9529604  47.6850117 105.0719882  35.2758123  41.9723346 107.4893134
  34.9055911  41.4194386 108.1774039  35.7717216  41.3681479 106.9368134
  43.1625487  44.4294969 105.8709907  43.6285939  45.2622961 105.7970209
  43.6132987  43.9639951 106.5755165  33.1047322  52.4320841 114.5848152
  33.8056781  53.0657324 114.7377546  32.6342437  52.7735572 113.8243791
  41.2301718  50.7738791 102.8696059  41.5061562  50.6595385 103.7789933
  40.3606216  50.3756275 102.8308232  41.1342149  36.7975556 109.9100808
  40.2205229  37.0279783 110.0783015  41.5635251  36.8814000 110.7614840
  40.9048608  44.9865448 112.4100702  40.2520058  45.2341356 111.7553155
  41.2828988  44.1729586 112.0763179  37.8655782  55.0225141 106.5128872
  38.0478176  54.2046797 106.9756625  38.6888768  55.2392834 106.0753762
  38.1997947  53.9493327 103.7743921  38.7285714  53.4385781 103.1614083
  38.4626167  53.6335857 104.6389454  36.9536181  45.7285259 118.8966739
  36.2776818  45.6279389 119.5669114  37.7763815  45.5724473 119.3602736
  28.7015040  51.9657196 111.5179254  29.2868477  51.2200884 111.6507159
  28.5039878  52.2761153 112.4015918  31.5553695  55.0008443 106.5341697
  30.8864070  55.4854571 106.0505737  31.4166565  55.2477664 107.4485075
  23.2932695  44.5362796 110.2383697  23.3316794  44.0026387 111.0320816
  22.7872987  44.0098002 109.6194675  35.6958964  57.0352187 113.1324355
  36.2477272  57.1983808 113.8973440  36.0365157  57.6256625 112.4604380
  30.6723457  39.3827337 113.7346240  30.7364783  40.2442167 113.3223637
  30.6090577  38.7701338 113.0018598  30.1475729  41.4550469 117.3819274
  30.7747768  41.0727546 117.9956798  29.2903648  41.2364671 117.7474967
  40.5469838  51.8613444 118.9873009  41.0909742  52.4743403 118.4927964
  39.9656683  52.4193023 119.5040022  26.9241272  43.2626898 103.3137629
  27.2194713  42.3537577 103.2604683  26.0229308  43.2414638 102.9918631
  38.8327351  54.9834162 110.1188037  38.7078490  54.1823902 109.6098983
  39.4906442  55.4780356 109.6302007  30.4535519  41.3382895 109.2965177
  29.7322105  41.9518862 109.1572651  31.2428775  41.8740660 109.2181823
  40.8962259  52.7843182 111.7467587  39.9492595  52.6648534 111.6745914
  41.2445033  51.8965680 111.8293849  33.2561833  38.6737321 115.5705829
  33.7796235  38.9199618 116.3332139  33.0374166  39.5057356 115.1508967
  28.6529114  40.9440996 103.4376954  28.3241820  40.0638375 103.2552060
  29.0068485  40.8888665 104.3253343  37.9008693  52.5795899 107.9471940
  37.7533655  51.6512606 108.1279510  38.7262186  52.6015989 107.4629015
  31.7670937  41.2313966 103.8052432  32.1067010  41.7599887 103.0831040
  32.2143057  41.5694372 104.5810998  41.5042815  53.4024457 109.0336812
  42.4289362  53.1967319 108.8961263  41.3358118  53.1540858 109.9426154
  34.4614378  39.6151016 113.2555500  34.1211198  38.8158829 113.6576180
  33.7553384  39.9152727 112.6832333  35.1130850  36.7000329 111.7082823
  35.9356919  36.2260807 111.5861713  35.3568913  37.4790813 112.2081509
  33.7539084  39.7288587 102.0045724  34.4747447  40.1069840 101.5009441
  33.1304388  40.4477464 102.1080702  37.8970207  40.4333736 102.9404057
  38.1133821  41.3158374 102.6392885  37.4164274  40.0419950 102.2109699
  32.6369428  43.3919449 109.5174801  32.4914009  43.7059753 110.4099083
  32.1594632  44.0104350 108.9645700  34.4965811  40.3821997 109.5655691
  34.4827380  39.4863091 109.2287989  35.2138239  40.3892661 110.1993977
  36.3491942  40.8159338 111.6108818  36.0909720  41.7376408 111.6093149
  35.8176982  40.4189772 112.3009282  41.2938131  53.9210125 104.3898904
  41.4675008  53.3556547 103.6372756  41.7867022  54.7211020 104.2078394
  27.1115091  45.9324794 112.4562463  26.5668559  46.7084602 112.5882737
  27.9894440  46.2795598 112.2981584  33.9002707  39.2636378 104.8343261
  34.0218618  38.3353024 105.0334149  33.6104750  39.2775064 103.9221576
  36.7693898  36.9491288 107.9709981  36.7915594  37.0130621 107.0161960
  37.1861957  36.1095797 108.1650487  47.1477522  46.6846548 106.0089203
  47.5908668  45.9353873 105.6108327  46.2704032  46.6756684 105.6262935
  27.8981112  45.0594690 115.3492619  27.1562848  45.2077325 115.9357250
  27.5773857  45.3202956 114.4859369  35.8424775  54.6010668 115.1473009
  36.1511902  54.3559815 116.0195709  36.6400257  54.8057307 114.6591880
  35.8645387  56.7548578 107.3778386  35.4250377  56.2624957 108.0711243
  36.6153504  56.2121546 107.1370461  28.3437726  52.9460119 107.3803014
  29.1695746  52.6463891 107.0001658  27.9931778  52.1767741 107.8292803
  33.3119259  52.2986587 109.4500688  32.6899269  51.6357292 109.1502916
  33.9824126  52.3247719 108.7674335  26.5446331  50.8646445 108.3391948
  25.7078239  50.4368620 108.1575949  26.5169977  51.0578889 109.2762739
  33.3843787  40.7768375 119.0433194  33.4331942  41.6530498 118.6610963
  33.9266301  40.2345768 118.4704837  43.8698632  51.3209498 118.3234331
  43.0794176  51.3033637 117.7838830  43.6331987  51.8597792 119.0783367
  43.9896507  48.1701965 115.6367059  44.0394512  48.0051972 116.5782582
  43.8810431  47.3029224 115.2464940  32.8732766  50.8490510 102.9259148
  33.0220887  51.5325975 102.2725821  33.6799210  50.8295600 103.4408604
  41.2800270  44.1532893 116.9526366  42.1810133  44.0139358 116.6610364
  41.3548244  44.3187348 117.8924543  35.6143075  41.5299747 115.7979552
  34.7446385  41.8233314 115.5262141  35.8502556  42.1140192 116.5186816
  45.4914704  50.5898906 115.8809081  45.1999513  50.9528887 116.7172542
  44.8786836  49.8765915 115.7022413  46.6910387  48.1551786 108.4011651
  47.5257278  48.5941590 108.5649211  46.8269515  47.6790439 107.5819897
  43.7401893  45.7131521 114.3489139  44.2156014  45.9059167 113.5407990
  42.8167458  45.7690707 114.1032522  30.6285399  46.8755688 103.9320217
  30.3831441  45.9718018 104.1300427  30.7981314  46.8772838 102.9899695
  38.3182109  37.7479364 113.3144973  38.8364053  38.4840391 112.9891461
  37.9637242  38.0543358 114.1491732  29.8981047  42.6084046 101.4306379
  29.2050292  42.6828401 100.7746415  29.6532799  41.8444389 101.9527895
  38.5694703  34.1679647 108.8345869  38.8496457  33.5002836 109.4606296
  39.3545310  34.3608743 108.3220533  42.4403562  42.5897281 112.5817444
  43.3920984  42.6895379 112.6029668  42.2707012  41.7975549 113.0915529
  40.4617941  39.6752864 112.7676845  39.8667873  39.9557877 112.0723334
  40.1767638  40.1646765 113.5393586  44.9191639  45.8103401 111.6959744
  44.8867959  44.8719401 111.8819428  45.5292263  45.8887437 110.9625569
  36.7574970  44.6799454  97.7386948  37.7034075  44.5505662  97.8075366
  36.3789215  43.9414116  98.2156376  45.0686128  42.6014444 111.7418027
  44.5525176  41.8172901 111.5547956  45.9526076  42.2733161 111.9064547
  42.7296855  36.3455460 107.7013840  42.5321676  36.0370548 108.5857172
  43.3396560  37.0717099 107.8311770  50.7368189  46.8719407 110.8365781
  51.4671578  46.6104696 111.3973484  50.1275135  46.1348129 110.8767849
  48.8183486  45.0127270 111.4340232  48.0916650  44.8783235 110.8256724
  48.4030773  45.3204099 112.2396950  36.6413663  48.7317200 119.1987605
  37.5616672  48.9095799 119.3927652  36.6063246  47.7873245 119.0467304
  34.9417887  42.6049430  97.6741833  34.0349343  42.3082543  97.7504547
  35.2193868  42.3079248  96.8076120  25.8595828  43.9255793 108.1240880
  25.5398612  43.0721102 107.8315254  25.3129256  44.1404372 108.8798847
  29.6375735  46.6418234 111.8410386  29.8561745  47.5735342 111.8598420
  30.0501509  46.2826209 112.6265190  36.5579953  37.1486320 103.8286075
  35.7480681  36.8033405 104.2041321  37.2464370  36.8393863 104.4173686
  38.4870501  36.2264367 105.4510371  39.0401540  36.6459820 106.1100394
  38.7240588  35.3000115 105.4933327  34.5103601  42.2151440 121.2313135
  34.4100327  43.1645797 121.1625226  34.2925143  41.8869679 120.3589205
  33.7116672  39.4636365  97.8153813  34.5735836  39.7891264  98.0749630
  33.8967016  38.6767861  97.3026878  25.7284088  47.5458705 110.0934001
  25.0347559  47.1312658 109.5803956  26.4757079  47.5879241 109.4967420
  41.8649308  38.3364892 104.9589036  41.2847978  38.9949696 104.5767088
  41.5985241  37.5142236 104.5476453  40.3152875  37.7369949 107.1610356
  40.8152653  37.8486484 106.3524675  40.9588483  37.4331002 107.8011164
  34.3734871  45.6448579 120.0478197  33.8901952  46.4448939 120.2542086
  34.4595810  45.6556524 119.0945641  27.6420830  47.4776959 107.9700016
  27.6191518  47.5764646 107.0181899  27.9521467  48.3242109 108.2917182
  30.3008208  49.5353114 112.0846631  31.2551462  49.5037056 112.0176562
  30.1020732  49.0743737 112.8996857  30.8907590  48.1054230 114.6517428
  31.7100479  48.5998308 114.6752266  31.1644398  47.1886198 114.6234996
  40.6474186  40.4964982 104.0145384  39.7600042  40.7814633 103.7965579
  41.0628176  40.3358745 103.1672661  43.9988723  40.5211503 107.7299723
  44.7749113  41.0107955 108.0024340  43.2736857  40.9469557 108.1871593
  46.4361281  41.2339122 108.7873664  47.0305772  40.9934858 108.0766972
  46.5087865  40.5146253 109.4147200  28.6558437  55.0772733 109.1016828
  28.5212905  54.3173134 108.5354827  28.2390499  55.8013633 108.6345617
  40.6215210  46.0119518 104.2295674  40.5650412  46.4688069 103.3903306
  41.1743553  45.2510203 104.0518517  44.4320016  41.8009250 105.0545793
  44.1756950  41.4005886 105.8854001  43.8072884  42.5153044 104.9295933
  48.7432354  44.5405323 107.5617085  48.1831912  44.6098512 108.3348647
  48.1375857  44.3646308 106.8416581  31.8127563  55.9742050 109.3135271
  31.6959947  56.9187483 109.2113961  30.9920009  55.6715612 109.7021070
  41.3549990  47.2024299 101.5248203  41.2998793  47.0368571 100.5836647
  40.7296045  47.9100332 101.6810393  26.1442505  42.4392364 115.3509625
  26.7901368  41.9291318 115.8396851  25.9359656  43.1761045 115.9253051
  38.6695897  49.5073211 120.8501766  39.5387056  49.6813863 120.4888401
  38.1902648  50.3267628 120.7277495  34.6646115  36.7032408 101.1033522
  34.6524785  37.6474248 101.2601792  35.5569537  36.5202554 100.8092983
  32.8382077  56.6270312 112.5291200  33.7409324  56.6593922 112.8457695
  32.6119447  55.6970763 112.5437535  34.5935679  55.3801299 109.1901278
  33.6431310  55.3803160 109.0765650  34.8968165  54.6334033 108.6737313
  38.4798234  33.2975185 105.3579458  37.7130630  32.7433672 105.5036141
  38.8908939  33.3697054 106.2193610  50.3288372  61.2161837 110.2547041
  50.9666782  61.0968584 109.5510381  50.2109215  62.1642681 110.3134993
  47.1378079  61.1689265 110.1908565  46.7996590  61.0530330 109.3029100
  48.0067847  60.7680430 110.1709571  42.9964894  63.0224742 106.1805456
  42.4329760  62.9314678 105.4121744  42.8817289  62.2024646 106.6607949
  47.6197862  62.3224117 116.1494771  47.6086502  61.9276915 115.2775274
  47.7818501  61.5890189 116.7428542  40.5429326  64.5175933 109.0189677
  41.3350618  64.1766758 108.6035976  40.7825977  64.6270908 109.9391830
  48.5764453  66.6895709 101.4919921  47.9252433  67.2749790 101.1053935
  49.3708816  67.2201904 101.5514959  42.5020080  63.7784846 101.8907055
  43.2750956  63.2313833 101.7519931  42.8545479  64.6429096 102.1021517
  44.3405123  65.1061229 115.0973955  44.0494989  66.0106860 114.9820621
  44.9762107  65.1477756 115.8118024  45.2661330  62.4838077 111.6875314
  45.8624902  62.2594100 110.9732277  45.3236301  61.7422823 112.2900762
  44.8386358  59.9377513  99.5225505  45.0911879  59.4159034  98.7608968
  43.9010917  59.7743658  99.6252189  49.8829641  58.9413291 107.3300249
  50.6692730  58.5232714 106.9790666  50.1468345  59.8459383 107.4981897
  50.0539718  64.3786141 102.0288905  49.4185551  64.4520768 102.7409810
  49.7237125  64.9679740 101.3507985  55.2838068  58.8788524 108.2333227
  56.0163240  58.3087741 108.4671057  54.5277424  58.4910125 108.6739733
  44.5582647  61.8405618 101.7249880  44.4418905  61.1650522 102.3930965
  44.6684907  61.3537992 100.9082033  46.9014188  61.3015766 105.4296570
  46.5372395  60.7746387 106.1409491  47.7581304  60.9114235 105.2563055
  52.8063488  52.5910098 112.6927836  52.4746813  53.4605509 112.4689051
  52.2109102  52.2746382 113.3721866  49.2995008  64.7922644 112.0923748
  48.9995731  65.6947683 111.9839556  48.9546067  64.5254827 112.9444901
  42.7507489  61.2436441 108.1260453  41.8257986  61.1112655 108.3338145
  42.9991903  62.0230660 108.6230395  52.6992152  57.3105184 109.7721186
  51.7909029  57.2420593 109.4779947  52.6479748  57.7877129 110.6003011
  46.5208896  58.7863323 101.4104585  46.4008521  59.2320374 102.2490065
  45.8261484  59.1348640 100.8518123  40.1116300  60.8869715 108.9604242
  40.2408682  61.1404194 109.8743654  39.4313752  61.4797423 108.6408897
  44.2815788  71.5566965 105.0594716  44.2039817  72.5074790 105.1383197
  43.6777431  71.2112837 105.7169642  46.7733018  58.7294830 117.7156083
  45.9966352  59.2888750 117.7058948  47.4123581  59.2151613 118.2370953
  54.5653798  55.5121623 111.5499060  53.9228178  55.8054156 110.9038854
  54.0608727  55.3974543 112.3552256  52.2193962  59.2584796 102.2384919
  53.1311818  59.4912183 102.0632617  51.7103609  59.8421840 101.6759998
  45.0279390  61.5380283 117.2774050  45.7694074  62.0765327 117.0008874
  44.3216375  62.1646572 117.4345602  50.5034729  63.6809424 115.8746212
  50.9118085  63.2391834 115.1300844  49.7811991  63.1062051 116.1280404
  46.8565799  58.6182031 113.2479769  47.7026995  59.0421444 113.3914418
  46.7964437  57.9615655 113.9418332  50.8263544  64.2410614 109.6298500
  50.1972407  64.4056329 108.9274568  50.4389206  64.6552224 110.4009464
  54.7052776  65.1765052 106.9842864  54.0203814  65.5563954 106.4339898
  54.7896625  65.7860379 107.7174812  50.0065245  56.2786399 114.9060942
  49.7626177  57.0328459 114.3695218  50.2825175  56.6571747 115.7408189
  51.9603708  62.8225011 113.5838208  52.1720603  63.4656771 112.9072589
  51.9133456  61.9887328 113.1160138  49.5629937  55.4342832 110.4874780
  48.7014416  55.7324086 110.7791517  49.5892371  55.6513231 109.5555813
  46.3791506  63.9785023 106.8948586  46.8429852  64.2572725 106.1053208
  46.1148304  63.0768467 106.7121676  43.2715587  63.5256504 109.8328349
  43.8416944  63.9543772 109.1945833  43.8623699  63.2439089 110.5312534
  45.3160392  60.1008175 103.7038151  46.0184435  60.5529219 104.1712077
  44.9841021  59.4591994 104.3318044  43.7640754  58.6919931 118.0789360
  43.1339414  59.3736212 118.3124757  43.6576841  58.5803013 117.1342498
  39.0585726  58.3591728 109.0055284  38.2684780  58.6149256 108.5295395
  39.5496973  59.1740065 109.1107325  53.0749536  65.6996967 111.7560565
  53.8966979  65.2977154 111.4743247  53.0711938  65.5965201 112.7076681
  41.0100471  58.7236307 105.9638761  40.2131635  58.8355001 106.4822257
  40.7826064  59.0622959 105.0979651  46.8406139  65.2481010 113.9121276
  46.9050572  65.7101417 114.7479447  46.1317063  64.6178375 114.0403585
  37.3423429  58.6122218 111.4370275  37.5931467  59.4969228 111.7027851
  37.8782977  58.4326820 110.6645367  61.1655529  62.0435715 108.1045537
  60.4119237  61.4743113 107.9489541  61.3003070  62.0098380 109.0516171
  46.5554157  66.9149117 103.7800256  46.4199831  67.7600653 104.2085104
  47.0963969  67.1168395 103.0166190  43.0421496  52.9940697 120.4414611
  42.6488442  52.4406896 121.1162255  43.8587637  53.3051276 120.8321129
  40.0083554  64.4324556 104.3528181  40.5208075  65.2267806 104.5033746
  40.6606267  63.7350846 104.2861782  41.8178439  67.5490312 106.4350934
  41.9945067  68.4708277 106.2471918  42.6135272  67.2348731 106.8645314
  45.9589457  54.4098576 118.0334868  46.6999171  55.0105730 117.9539330
  46.1907380  53.6676214 117.4752910  41.1030795  59.5954944 116.3113097
  40.9884310  58.6940201 116.6120196  40.2475313  59.8418640 115.9597914
  48.1822633  67.5372684 117.9100598  47.7386487  66.7509063 117.5921502
  48.8439847  67.7251835 117.2444489  42.9409754  69.0668486 112.4361276
  43.4917179  68.9385549 111.6638270  42.1021230  69.3663375 112.0856169
  50.2803871  67.8175484 115.9381999  50.2622346  68.6384365 115.4462268
  51.2023791  67.6929559 116.1632140  46.7376925  65.3319613 116.7805508
  47.2705262  64.5707902 116.5504816  46.2091006  65.0393265 117.5229662
  49.9046620  50.4379679 112.3099149  49.5610890  51.3281321 112.2338260
  50.2725583  50.2481337 111.4468734  37.9732471  62.7613210 105.1287752
  38.8107693  63.1710218 104.9121459  38.1510739  61.8212652 105.0987945
  49.8696903  60.4288290 100.8171584  49.3543526  61.1992895 101.0559972
  49.5974211  59.7553427 101.4404646  47.4544014  55.2737991 105.8756823
  46.5985610  54.8844842 105.6962462  47.8670966  55.3529952 105.0156608
  48.9843161  52.8084335 110.2748383  48.4807956  52.7714470 109.4616188
  49.2773767  53.7177077 110.3345039  45.2286046  52.8923064 109.2814564
  46.0939043  52.6965873 108.9220454  45.2963555  52.6633416 110.2083921
  54.8431177  63.1820645 102.7524758  54.0660620  62.8431805 102.3079920
  55.5222658  63.1873268 102.0779723  49.6583206  58.3015383 102.6431366
  49.3533342  58.6161532 103.4941509  50.6113648  58.3796802 102.6858699
  48.1029638  64.4605606 104.2924320  47.5751000  63.7258365 103.9797557
  47.6017141  65.2380282 104.0464288  53.0822484  62.6554626 109.4091366
  52.4246158  63.3453888 109.4971495  53.8862883  63.0451058 109.7525352
  42.8348366  55.1225272 106.6530931  43.4092117  54.9000454 105.9204124
  43.4219348  55.1913967 107.4059532  51.8927943  61.0098999 107.4595308
  52.4059825  61.6428991 107.9617017  52.5429167  60.4100195 107.0938668
  46.2482238  62.2785816  97.2959293  45.3409300  62.0475070  97.4950442
  46.7453270  61.4823435  97.4833274  49.1550317  70.9883323 100.2155979
  48.4812016  71.2915020 100.8240937  49.5416139  71.7912404  99.8661436
  48.3708774  58.4848455 109.7053648  47.4531335  58.7063402 109.5475336
  48.7868917  58.5594765 108.8465356  49.1543821  59.8839870 104.8356328
  49.9015640  60.3961268 104.5263451  49.4235411  59.5623923 105.6960722
  47.4270472  62.3798411 101.8183283  46.5181691  62.0957444 101.9155753
  47.4565555  62.7997490 100.9586590  52.6589739  65.9905001 105.5874450
  52.2052066  65.1495910 105.6439641  52.0283706  66.6266399 105.9249230
  51.6022659  56.9196987 106.8175118  50.8645415  56.4074373 107.1485360
  51.8549432  56.4797368 106.0058395  51.1022678  67.8281497 106.5224268
  51.3945653  68.3886554 105.8036634  51.6121299  68.1210058 107.2777428
  51.7034286  49.6973239 107.4116887  52.0093163  48.8370602 107.1242802
  52.4286891  50.2890859 107.2115881  37.9958642  60.1003925 105.7998485
  37.7983042  59.5073286 105.0749552  37.4405306  59.7956135 106.5174424
  45.9755366  59.9927032 107.9193078  46.0303975  59.0400868 107.8435555
  45.1646568  60.1486471 108.4034377  47.1246559  63.9207155  99.1571361
  46.6865989  63.2043014  98.6976999  47.8657000  64.1483270  98.5956453
  43.9147726  58.6104091 105.6783457  43.1015591  58.9098262 106.0848649
  44.4106720  58.2159780 106.3957939  46.0656303  68.6061848 107.6117722
  46.0232482  68.8322695 106.6826254  46.9819002  68.3725223 107.7603523
  49.5121937  59.0745916 114.5098351  49.8671325  59.3017389 115.3692817
  50.1594068  59.4064293 113.8875606  55.2419674  62.1964352 105.2147680
  55.1037573  62.3865948 104.2868869  54.8855893  62.9583735 105.6715731
  43.4061800  56.1822447 111.2944692  44.0461180  56.0411206 110.5967655
  42.5739331  55.8956960 110.9183294  55.2689054  64.2640879 110.2258951
  55.7025560  64.1716168 111.0742005  55.9820634  64.2398379 109.5878967
  44.1822104  65.4824877 107.4079684  44.9762703  64.9875197 107.2062259
  43.4713797  64.9542740 107.0447390  49.0016949  67.8642973 111.7592052
  49.0553971  68.4333909 112.5269768  48.1331730  68.0344858 111.3946089
  40.4904868  59.6267959 103.4839437  39.5602456  59.5652415 103.7009399
  40.5862340  59.1043912 102.6876078  40.4090417  56.1522772 106.0717679
  40.6697234  57.0668105 105.9626839  41.2307589  55.6847214 106.2214292
  41.8815342  57.5660529 113.2416503  42.5538395  57.3577891 112.5929152
  41.0545129  57.3682615 112.8021736  56.1304603  64.3064579 112.7591837
  56.3240493  65.2110390 113.0051112  56.0305221  63.8471998 113.5930422
  47.7840914  54.1922470 115.2582164  47.1368829  54.8912420 115.1646641
  48.5541929  54.6258614 115.6258412  51.1919712  64.4571322 118.3332717
  51.0405218  64.2281874 117.4162801  51.1824391  65.4141924 118.3464062
  47.9605048  62.0303235 113.3178984  48.8897108  62.1814394 113.1447951
  47.5396078  62.1187256 112.4627630  46.7593380  66.0553899 111.0877521
  46.6204466  65.6872684 111.9603460  45.9707976  66.5701539 110.9161479
  47.3541532  71.1562996 102.4303058  47.5293288  70.6851039 103.2448681
  46.6674320  71.7828762 102.6584319  48.3098595  65.4335502 108.4766359
  47.9748428  65.3936272 109.3724009  47.8102541  64.7680218 108.0036769
  42.2842839  60.8403132 114.0018940  42.1462637  60.1083371 114.6030479
  43.1947763  60.7512032 113.7203128  51.2457787  62.7791536  98.7503419
  50.6286958  62.0538365  98.6536472  50.7774275  63.5400897  98.4070493
  44.9125140  60.5523091 113.4902620  45.6224758  59.9116284 113.4489238
  44.8694448  60.8035986 114.4128801  52.9011919  67.4890445 116.4109199
  52.8424465  66.8049665 115.7439782  53.3031437  68.2309435 115.9589825
  43.6254074  57.5388309 115.3098260  43.0891431  57.0879048 115.9619856
  43.0370782  57.6734218 114.5668724  41.9202617  74.3052359 109.2042918
  42.1599216  74.9370883 109.8821937  41.0771814  73.9540399 109.4908277
  52.9029326  65.4530029 114.6423179  52.0156105  65.1155950 114.7649578
  53.4727877  64.7213060 114.8791944  34.5558473  61.7854120 107.9666230
  35.2429513  61.4715850 107.3787246  34.4006602  62.6895485 107.6933482
  39.3593195  56.6744317 112.3951254  39.2751384  56.0669986 111.6601664
  38.5375902  57.1653335 112.3960750  46.4330479  70.1131481 111.6084422
  46.3600651  70.9186452 112.1203727  45.9907872  70.3123447 110.7832444
  46.2220259  69.3503251 105.1187244  45.4387781  69.8924931 105.2125468
  46.9213004  69.8677231 105.5181485  49.5316909  55.1597880 107.7621449
  50.0285609  54.4067843 107.4422519  48.7603891  55.1962197 107.1964658
  57.3846666  60.8638246 109.4039741  57.3736543  61.7462961 109.0333674
  56.5164046  60.5109797 109.2094278  48.8929163  70.0118315 113.7642581
  49.6057135  70.6465780 113.6918482  48.4019191  70.1082181 112.9482583
  50.6146690  63.9169568 105.3359872  49.6802968  64.0371030 105.1664577
  50.7923358  63.0142034 105.0719882  46.1151878  57.3015263 107.4893134
  45.7449665  56.7486304 108.1774039  46.6110970  56.6973397 106.9368134
  54.0019241  59.7586887 105.8709907  54.4679693  60.5914879 105.7970209
  54.4526742  59.2931869 106.5755165  43.9441076  67.7612758 114.5848152
  44.6450536  68.3949241 114.7377546  43.4736191  68.1027490 113.8243791
  52.0695472  66.1030708 102.8696059  52.3455316  65.9887303 103.7789933
  51.1999971  65.7048193 102.8308232  51.9735904  52.1267474 109.9100808
  51.0598984  52.3571701 110.0783015  52.4029005  52.2105918 110.7614840
  51.7442362  60.3157366 112.4100702  51.0913813  60.5633273 111.7553155
  52.1222742  59.5021504 112.0763179  48.7049536  70.3517059 106.5128872
  48.8871931  69.5338715 106.9756625  49.5282522  70.5684751 106.0753762
  49.0391702  69.2785244 103.7743921  49.5679468  68.7677699 103.1614083
  49.3019921  68.9627774 104.6389454  47.7929935  61.0577177 118.8966739
  47.1170572  60.9571306 119.5669114  48.6157569  60.9016391 119.3602736
  39.5408794  67.2949114 111.5179254  40.1262231  66.5492801 111.6507159
  39.3433633  67.6053070 112.4015918  42.3947450  70.3300361 106.5341697
  41.7257825  70.8146489 106.0505737  42.2560319  70.5769581 107.4485075
  34.1326449  59.8654714 110.2383697  34.1710549  59.3318304 111.0320816
  33.6266742  59.3389919 109.6194675  46.5352718  72.3644104 113.1324355
  47.0871026  72.5275726 113.8973440  46.8758912  72.9548542 112.4604380
  41.5117211  54.7119254 113.7346240  41.5758538  55.5734085 113.3223637
  41.4484332  54.0993256 113.0018598  40.9869484  56.7842387 117.3819274
  41.6141523  56.4019464 117.9956798  40.1297403  56.5656589 117.7474967
  51.3863593  67.1905362 118.9873009  51.9303497  67.8035320 118.4927964
  50.8050437  67.7484940 119.5040022  37.7635027  58.5918816 103.3137629
  38.0588468  57.6829494 103.2604683  36.8623063  58.5706555 102.9918631
  49.6721106  70.3126080 110.1188037  49.5472245  69.5115820 109.6098983
  50.3300197  70.8072273 109.6302007  41.2929274  56.6674812 109.2965177
  40.5715860  57.2810780 109.1572651  42.0822530  57.2032577 109.2181823
  51.7356014  68.1135100 111.7467587  50.7886349  67.9940451 111.6745914
  52.0838787  67.2257598 111.8293849  44.0955587  54.0029239 115.5705829
  44.6189989  54.2491536 116.3332139  43.8767921  54.8349274 115.1508967
  48.7402447  67.9087816 107.9471940  48.5927410  66.9804524 108.1279510
  49.5655941  67.9307907 107.4629015  42.6064691  56.5605883 103.8052432
  42.9460764  57.0891805 103.0831040  43.0536812  56.8986289 104.5810998
  52.3436569  68.7316375 109.0336812  53.2683117  68.5259236 108.8961263
  52.1751872  68.4832776 109.9426154  45.3008132  54.9442934 113.2555500
  44.9604953  54.1450747 113.6576180  44.5947139  55.2444645 112.6832333
  45.9524604  52.0292246 111.7082823  46.7750673  51.5552725 111.5861713
  46.1962668  52.8082730 112.2081509  48.7363962  55.7625654 102.9404057
  48.9527576  56.6450292 102.6392885  48.2558029  55.3711867 102.2109699
  43.4763183  58.7211367 109.5174801  43.3307764  59.0351670 110.4099083
  42.9988387  59.3396267 108.9645700  45.3359566  55.7113915 109.5655691
  45.3221135  54.8155008 109.2287989  46.0531994  55.7184579 110.1993977
  47.1885696  56.1451255 111.6108818  46.9303474  57.0668326 111.6093149
  46.6570737  55.7481690 112.3009282  52.1331885  69.2502042 104.3898904
  52.3068763  68.6848465 103.6372756  52.6260776  70.0502937 104.2078394
  37.9508845  61.2616712 112.4562463  37.4062313  62.0376519 112.5882737
  38.8288195  61.6087516 112.2981584  47.6087652  52.2783206 107.9709981
  47.6309349  52.3422539 107.0161960  48.0255711  51.4387714 108.1650487
  57.9871276  62.0138465 106.0089203  58.4302422  61.2645791 105.6108327
  57.1097787  62.0048602 105.6262935  53.1207058  68.5668807 101.4895802
  53.8157962  69.1875500 101.7083117  53.4630208  67.7164158 101.7648180
  38.7374867  60.3886608 115.3492619  37.9956603  60.5369243 115.9357250
  38.4167611  60.6494873 114.4859369  55.0198481  66.0168512 103.0183133
  55.5449805  66.3555785 102.2932453  54.9320833  65.0815528 102.8346267
  46.6818530  69.9302586 115.1473009  46.9905656  69.6851733 116.0195709
  47.4794012  70.1349224 114.6591880  46.7039142  72.0840496 107.3778386
  46.2644132  71.5916874 108.0711243  47.4547259  71.5413463 107.1370461
  39.1831481  68.2752037 107.3803014  40.0089501  67.9755808 107.0001658
  38.8325533  67.5059659 107.8292803  44.1513014  67.6278505 109.4500688
  43.5293023  66.9649210 109.1502916  44.8217881  67.6539637 108.7674335
  37.3840086  66.1938363 108.3391948  36.5471994  65.7660537 108.1575949
  37.3563731  66.3870806 109.2762739  44.2237541  56.1060293 119.0433194
  44.2725697  56.9822416 118.6610963  44.7660055  55.5637686 118.4704837
  54.7092387  66.6501416 118.3234331  53.9187931  66.6325555 117.7838830
  54.4725741  67.1889710 119.0783367  54.8290262  63.4993882 115.6367059
  54.8788267  63.3343890 116.5782582  54.7204185  62.6321141 115.2464940
  43.7126521  66.1782428 102.9259148  43.8614641  66.8617892 102.2725821
  44.5192964  66.1587518 103.4408604  52.1194024  59.4824810 116.9526366
  53.0203887  59.3431275 116.6610364  52.1941999  59.6479265 117.8924543
  46.4536830  56.8591665 115.7979552  45.5840139  57.1525231 115.5262141
  46.6896310  57.4432110 116.5186816  56.3308459  65.9190824 115.8809081
  56.0393267  66.2820804 116.7172542  55.7180590  65.2057832 115.7022413
  57.5304141  63.4843704 108.4011651  58.3651033  63.9233508 108.5649211
  57.6663270  63.0082357 107.5819897  54.5795647  61.0423439 114.3489139
  55.0549769  61.2351085 113.5407990  53.6561212  61.0982624 114.1032522
  41.4679154  62.2047606 103.9320217  41.2225196  61.3009936 104.1300427
  41.6375068  62.2064756 102.9899695  49.1575864  53.0771282 113.3144973
  49.6757807  53.8132309 112.9891461  48.8030996  53.3835275 114.1491732
  49.4088458  49.4971565 108.8345869  49.6890211  48.8294754 109.4606296
  50.1939065  49.6900660 108.3220533  47.2121926  68.6730559 100.3970896
  46.6395893  69.2920746  99.9441367  47.7854720  69.2229920 100.9310818
  53.2797316  57.9189199 112.5817444  54.2314739  58.0187296 112.6029668
  53.1100766  57.1267467 113.0915529  51.3011696  55.0044782 112.7676845
  50.7061628  55.2849795 112.0723334  51.0161392  55.4938683 113.5393586
  50.4319186  68.9567709 101.5279478  51.3649859  68.8913270 101.7312353
  50.3442399  69.7923976 101.0694011  53.0607203  68.2733579  98.4883425
  52.9820834  67.9393443  99.3819183  53.8816869  68.7655347  98.4874898
  55.7585394  61.1395318 111.6959744  55.7261714  60.2011319 111.8819428
  56.3686017  61.2179355 110.9625569  55.9079882  57.9306362 111.7418027
  55.3918931  57.1464818 111.5547956  56.7919831  57.6025078 111.9064547
  53.5690609  51.6747377 107.7013840  53.3715430  51.3662465 108.5857172
  54.1790315  52.4009016 107.8311770  61.5761944  62.2011325 110.8365781
  62.3065332  61.9396613 111.3973484  60.9668889  61.4640047 110.8767849
  59.6577241  60.3419188 111.4340232  58.9310404  60.2075153 110.8256724
  59.2424528  60.6496016 112.2396950  47.4807417  64.0609117 119.1987605
  48.4010427  64.2387716 119.3927652  47.4457000  63.1165163 119.0467304
  36.6989582  59.2547711 108.1240880  36.3792367  58.4013019 107.8315254
  36.1523010  59.4696289 108.8798847  40.4769490  61.9710152 111.8410386
  40.6955500  62.9027260 111.8598420  40.8895264  61.6118126 112.6265190
  45.3497355  57.5443358 121.2313135  45.2494082  58.4937715 121.1625226
  45.1318897  57.2161597 120.3589205  36.5677842  62.8750623 110.0934001
  35.8741314  62.4604575 109.5803956  37.3150833  62.9171159 109.4967420
  52.7043063  53.6656809 104.9589036  52.1241732  54.3241613 104.5767088
  52.4378996  52.8434154 104.5476453  51.1546629  53.0661867 107.1610356
  51.6546408  53.1778402 106.3524675  51.7982237  52.7622920 107.8011164
  45.2128625  60.9740497 120.0478197  44.7295707  61.7740857 120.2542086
  45.2989564  60.9848442 119.0945641  38.4814585  62.8068876 107.9700016
  38.4585273  62.9056564 107.0181899  38.7915221  63.6534027 108.2917182
  41.1401963  64.8645031 112.0846631  42.0945216  64.8328974 112.0176562
  40.9414486  64.4035655 112.8996857  41.7301345  63.4346147 114.6517428
  42.5494234  63.9290226 114.6752266  42.0038152  62.5178116 114.6234996
  51.4867941  55.8256900 104.0145384  50.5993796  56.1106550 103.7965579
  51.9021930  55.6650663 103.1672661  54.8382477  55.8503421 107.7299723
  55.6142867  56.3399873 108.0024340  54.1130611  56.2761475 108.1871593
  57.2755036  56.5631040 108.7873664  57.8699527  56.3226776 108.0766972
  57.3481619  55.8438171 109.4147200  39.4952191  70.4064651 109.1016828
  39.3606659  69.6465052 108.5354827  39.0784254  71.1305551 108.6345617
  50.6311154  65.5901574  98.1093404  51.3347005  65.7951577  98.7251059
  49.9073803  66.1578336  98.3742487  51.4608965  61.3411436 104.2295674
  51.4044166  61.7979987 103.3903306  52.0137307  60.5802120 104.0518517
  55.2713771  57.1301168 105.0545793  55.0150705  56.7297803 105.8854001
  54.6466639  57.8444961 104.9295933  59.5826108  59.8697241 107.5617085
  59.0225666  59.9390430 108.3348647  58.9769612  59.6938225 106.8416581
  42.6521317  71.3033968 109.3135271  42.5353701  72.2479400 109.2113961
  41.8313764  71.0007529 109.7021070  52.5397852  66.0284104 100.1591864
  53.3743456  65.5965302  99.9769339  52.3782195  65.8566117 101.0868758
  52.1943744  62.5316217 101.5248203  52.1392548  62.3660488 100.5836647
  51.5689799  63.2392250 101.6810393  36.9836259  57.7684281 115.3509625
  37.6295123  57.2583235 115.8396851  36.7753410  58.5052963 115.9253051
  49.5089651  64.8365129 120.8501766  50.3780811  65.0105781 120.4888401
  49.0296403  65.6559546 120.7277495  43.6775831  71.9562230 112.5291200
  44.5803078  71.9885840 112.8457695  43.4513201  71.0262681 112.5437535
  45.4329433  70.7093216 109.1901278  44.4825064  70.7095078 109.0765650
  45.7361920  69.9625951 108.6737313  49.3191989  48.6267103 105.3579458
  48.5524385  48.0725589 105.5036141  49.7302694  48.6988971 106.2193610
  41.3233750  54.9151898 119.4484640  42.1865212  54.5588703 119.6587964
  40.7499161  54.5765793 120.1360044  61.1682127  76.5453755 110.2547041
  61.8060537  76.4260502 109.5510381  61.0502970  77.4934599 110.3134993
  57.9771833  76.4981183 110.1908565  57.6390345  76.3822248 109.3029100
  58.8461601  76.0972348 110.1709571  53.8358649  78.3516659 106.1805456
  53.2723514  78.2606596 105.4121744  53.7211044  77.5316564 106.6607949
  58.4591616  77.6516035 116.1494771  58.4480257  77.2568833 115.2775274
  58.6212256  76.9182107 116.7428542  51.3823081  79.8467851 109.0189677
  52.1744373  79.5058675 108.6035976  51.6219731  79.9562826 109.9391830
  59.4158208  82.0187627 101.4919921  58.7646187  82.6041707 101.1053935
  60.2102570  82.5493822 101.5514959  53.3413835  79.1076764 101.8907055
  54.1144711  78.5605751 101.7519931  53.6939234  79.9721013 102.1021517
  55.1798877  80.4353146 115.0973955  54.8888743  81.3398777 114.9820621
  55.8155862  80.4769674 115.8118024  56.1055084  77.8129995 111.6875314
  56.7018656  77.5886017 110.9732277  56.1630056  77.0714740 112.2900762
  55.6780113  75.2669430  99.5225505  55.9305633  74.7450951  98.7608968
  54.7404672  75.1035576  99.6252189  60.7223395  74.2705209 107.3300249
  61.5086485  73.8524632 106.9790666  60.9862100  75.1751301 107.4981897
  60.8933473  79.7078059 102.0288905  60.2579306  79.7812685 102.7409810
  60.5630879  80.2971658 101.3507985  66.1231823  74.2080442 108.2333227
  66.8556994  73.6379659 108.4671057  65.3671178  73.8202042 108.6739733
  55.3976401  77.1697536 101.7249880  55.2812659  76.4942440 102.3930965
  55.5078661  76.6829910 100.9082033  57.7407942  76.6307683 105.4296570
  57.3766149  76.1038304 106.1409491  58.5975058  76.2406152 105.2563055
  63.6457243  67.9202016 112.6927836  63.3140568  68.7897427 112.4689051
  63.0502856  67.6038300 113.3721866  57.3813429  71.6597583 100.4257918
  57.5487832  72.5277819 100.7928389  57.1910598  71.8224865  99.5019207
  60.1388762  80.1214562 112.0923748  59.8389486  81.0239601 111.9839556
  59.7939822  79.8546745 112.9444901  53.5901244  76.5728359 108.1260453
  52.6651740  76.4404573 108.3338145  53.8385657  77.3522578 108.6230395
  63.5385906  72.6397102 109.7721186  62.6302784  72.5712510 109.4779947
  63.4873502  73.1169047 110.6003011  57.3602650  74.1155240 101.4104585
  57.2402275  74.5612291 102.2490065  56.6655238  74.4640558 100.8518123
  50.9510055  76.2161632 108.9604242  51.0802436  76.4696111 109.8743654
  50.2707506  76.8089340 108.6408897  55.1209542  86.8858882 105.0594716
  55.0433572  87.8366707 105.1383197  54.5171186  86.5404755 105.7169642
  57.6126772  74.0586748 117.7156083  56.8360106  74.6180668 117.7058948
  58.2517335  74.5443531 118.2370953  65.4047553  70.8413540 111.5499060
  64.7621933  71.1346074 110.9038854  64.9002481  70.7266461 112.3552256
  63.0587716  74.5876714 102.2384919  63.9705572  74.8204100 102.0632617
  62.5497363  75.1713758 101.6759998  55.8673144  76.8672201 117.2774050
  56.6087829  77.4057245 117.0008874  55.1610130  77.4938490 117.4345602
  61.3428484  79.0101341 115.8746212  61.7511840  78.5683752 115.1300844
  60.6205745  78.4353969 116.1280404  57.6959554  73.9473948 113.2479769
  58.5420749  74.3713362 113.3914418  57.6358192  73.2907573 113.9418332
  61.6657299  79.5702532 109.6298500  61.0366161  79.7348246 108.9274568
  61.2782961  79.9844142 110.4009464  65.5446530  80.5056970 106.9842864
  64.8597569  80.8855871 106.4339898  65.6290380  81.1152297 107.7174812
  60.8458999  71.6078317 114.9060942  60.6019931  72.3620377 114.3695218
  61.1218930  71.9863664 115.7408189  62.7997462  78.1516929 113.5838208
  63.0114357  78.7948689 112.9072589  62.7527210  77.3179246 113.1160138
  60.4023691  70.7634750 110.4874780  59.5408170  71.0616003 110.7791517
  60.4286126  70.9805149 109.5555813  57.2185260  79.3076940 106.8948586
  57.6823606  79.5864643 106.1053208  56.9542059  78.4060385 106.7121676
  54.1109342  78.8548422 109.8328349  54.6810699  79.2835690 109.1945833
  54.7017453  78.5731006 110.5312534  56.1554147  75.4300093 103.7038151
  56.8578190  75.8821136 104.1712077  55.8234775  74.7883911 104.3318044
  54.6034508  74.0211849 118.0789360  53.9733169  74.7028130 118.3124757
  54.4970596  73.9094931 117.1342498  49.8979480  73.6883645 109.0055284
  49.1078534  73.9441174 108.5295395  50.3890728  74.5031983 109.1107325
  63.9143290  81.0288884 111.7560565  64.7360734  80.6269072 111.4743247
  63.9105693  80.9257119 112.7076681  51.8494226  74.0528224 105.9638761
  51.0525389  74.1646919 106.4822257  51.6219818  74.3914877 105.0979651
  57.6799893  80.5772928 113.9121276  57.7444326  81.0393335 114.7479447
  56.9710817  79.9470293 114.0403585  48.1817183  73.9414136 111.4370275
  48.4325222  74.8261146 111.7027851  48.7176732  73.7618737 110.6645367
  72.0049283  77.3727633 108.1045537  71.2512991  76.8035031 107.9489541
  72.1396824  77.3390297 109.0516171  57.3947911  82.2441035 103.7800256
  57.2593586  83.0892571 104.2085104  57.9357724  82.4460313 103.0166190
  53.8815251  68.3232615 120.4414611  53.4882196  67.7698814 121.1162255
  54.6981391  68.6343193 120.8321129  50.8477309  79.7616473 104.3528181
  51.3601829  80.5559723 104.5033746  51.5000021  79.0642764 104.2861782
  52.6572193  82.8782229 106.4350934  52.8338822  83.8000194 106.2471918
  53.4529027  82.5640649 106.8645314  56.7983212  69.7390494 118.0334868
  57.5392925  70.3397647 117.9539330  57.0301135  68.9968132 117.4752910
  51.9424550  74.9246861 116.3113097  51.8278065  74.0232119 116.6120196
  51.0869068  75.1710558 115.9597914  59.0216388  82.8664602 117.9100598
  58.5780242  82.0800980 117.5921502  59.6833601  83.0543752 117.2444489
  53.7803509  84.3960403 112.4361276  54.3310934  84.2677467 111.6638270
  52.9414985  84.6955292 112.0856169  61.1197626  83.1467402 115.9381999
  61.1016101  83.9676283 115.4462268  62.0417546  83.0221477 116.1632140
  57.5770680  80.6611531 116.7805508  58.1099017  79.8999819 116.5504816
  57.0484761  80.3685183 117.5229662  60.7440375  65.7671597 112.3099149
  60.4004644  66.6573239 112.2338260  61.1119337  65.5773255 111.4468734
  48.8126225  78.0905128 105.1287752  49.6501447  78.5002136 104.9121459
  48.9904493  77.1504570 105.0987945  60.7090657  75.7580208 100.8171584
  60.1937281  76.5284813 101.0559972  60.4367966  75.0845344 101.4404646
  58.2937768  70.6029909 105.8756823  57.4379365  70.2136759 105.6962462
  58.7064720  70.6821870 105.0156608  59.8236915  68.1376252 110.2748383
  59.3201711  68.1006387 109.4616188  60.1167522  69.0468995 110.3345039
  56.0679801  68.2214982 109.2814564  56.9332798  68.0257791 108.9220454
  56.1357310  67.9925334 110.2083921  65.6824932  78.5112563 102.7524758
  64.9054374  78.1723722 102.3079920  66.3616413  78.5165186 102.0779723
  60.4976961  73.6307300 102.6431366  60.1927096  73.9453449 103.4941509
  61.4507403  73.7088720 102.6858699  58.9423392  79.7897524 104.2924320
  58.4144754  79.0550283 103.9797557  58.4410895  80.5672200 104.0464288
  63.9216238  77.9846544 109.4091366  63.2639913  78.6745805 109.4971495
  64.7256638  78.3742976 109.7525352  53.6742120  70.4517190 106.6530931
  54.2485872  70.2292371 105.9204124  54.2613102  70.5205884 107.4059532
  62.7321697  76.3390917 107.4595308  63.2453579  76.9720909 107.9617017
  63.3822921  75.7392112 107.0938668  54.0011707  72.4821651 100.6726816
  53.1649019  72.8196337 100.9936091  53.8616477  72.3470631  99.7353953
  55.9764788  67.3258439 105.3806001  55.3229200  67.0107456 104.7562615
  55.9345262  66.7034179 106.1065824  57.0875993  77.6077734  97.2959293
  56.1803054  77.3766987  97.4950442  57.5847025  76.8115353  97.4833274
  59.9944072  86.3175241 100.2155979  59.3205770  86.6206938 100.8240937
  60.3809893  87.1204321  99.8661436  59.2102528  73.8140372 109.7053648
  58.2925090  74.0355319 109.5475336  59.6262672  73.8886683 108.8465356
  59.9937576  75.2131788 104.8356328  60.7409395  75.7253185 104.5263451
  60.2629165  74.8915841 105.6960722  58.2664226  77.7090329 101.8183283
  57.3575445  77.4249362 101.9155753  58.2959310  78.1289407 100.9586590
  63.4983493  81.3196918 105.5874450  63.0445821  80.4787828 105.6439641
  62.8677460  81.9558317 105.9249230  62.4416413  72.2488904 106.8175118
  61.7039170  71.7366290 107.1485360  62.6943187  71.8089286 106.0058395
  61.9416433  83.1573415 106.5224268  62.2339407  83.7178472 105.8036634
  62.4515053  83.4501976 107.2777428  62.5428040  65.0265156 107.4116887
  62.8486917  64.1662520 107.1242802  63.2680645  65.6182776 107.2115881
  48.8352396  75.4295843 105.7998485  48.6376796  74.8365204 105.0749552
  48.2799060  75.1248053 106.5174424  56.8149120  75.3218949 107.9193078
  56.8697730  74.3692786 107.8435555  56.0040322  75.4778388 108.4034377
  57.9640314  79.2499072  99.1571361  57.5259744  78.5334931  98.6976999
  58.7050755  79.4775187  98.5956453  54.7541480  73.9396009 105.6783457
  53.9409346  74.2390180 106.0848649  55.2500474  73.5451698 106.3957939
  56.9050058  83.9353766 107.6117722  56.8626237  84.1614612 106.6826254
  57.8212757  83.7017141 107.7603523  60.3515692  74.4037834 114.5098351
  60.7065079  74.6309307 115.3692817  60.9987823  74.7356210 113.8875606
  66.0813429  77.5256269 105.2147680  65.9431327  77.7157865 104.2868869
  65.7249647  78.2875652 105.6715731  54.2455555  71.5114365 111.2944692
  54.8854934  71.3703124 110.5967655  53.4133085  71.2248878 110.9183294
  66.1082808  79.5932796 110.2258951  66.5419315  79.5008086 111.0742005
  66.8214389  79.5690297 109.5878967  55.0215859  80.8116795 107.4079684
  55.8156457  80.3167115 107.2062259  54.3107551  80.2834658 107.0447390
  59.8410703  83.1934891 111.7592052  59.8947725  83.7625827 112.5269768
  58.9725485  83.3636776 111.3946089  51.3298622  74.9559877 103.4839437
  50.3996210  74.8944332 103.7009399  51.4256094  74.4335829 102.6876078
  51.2484171  71.4814690 106.0717679  51.5090989  72.3960023 105.9626839
  52.0701344  71.0139132 106.2214292  52.7209097  72.8952447 113.2416503
  53.3932150  72.6869809 112.5929152  51.8938883  72.6974533 112.8021736
  66.9698358  79.6356497 112.7591837  67.1634248  80.5402308 113.0051112
  66.8698976  79.1763916 113.5930422  58.6234669  69.5214388 115.2582164
  57.9762584  70.2204337 115.1646641  59.3935684  69.9550532 115.6258412
  62.0313466  79.7863240 118.3332717  61.8798973  79.5573792 117.4162801
  62.0218146  80.7433841 118.3464062  58.7998803  77.3595153 113.3178984
  59.7290863  77.5106312 113.1447951  58.3789833  77.4479173 112.4627630
  57.5987135  81.3845817 111.0877521  57.4598220  81.0164601 111.9603460
  56.8101731  81.8993456 110.9161479  58.1935287  86.4854913 102.4303058
  58.3687042  86.0142957 103.2448681  57.5068075  87.1120680 102.6584319
  59.1492350  80.7627420 108.4766359  58.8142182  80.7228190 109.3724009
  58.6496296  80.0972136 108.0036769  53.1236594  76.1695050 114.0018940
  52.9856392  75.4375289 114.6030479  54.0341517  76.0803950 113.7203128
  62.0851541  78.1083454  98.7503419  61.4680712  77.3830282  98.6536472
  61.6168030  78.8692814  98.4070493  55.7518894  75.8815009 113.4902620
  56.4618513  75.2408201 113.4489238  55.7088203  76.1327904 114.4128801
  63.7405673  82.8182362 116.4109199  63.6818219  82.1341583 115.7439782
  64.1425192  83.5601352 115.9589825  54.4647828  72.8680227 115.3098260
  53.9285185  72.4170965 115.9619856  53.8764537  73.0026136 114.5668724
  52.7596372  89.6344276 109.2042918  52.9992970  90.2662800 109.8821937
  51.9165568  89.2832316 109.4908277  53.8750087  72.3268878  97.8724723
  52.9979554  72.2057679  97.5086970  54.3507840  71.5354957  97.6203612
  63.7423080  80.7821946 114.6423179  62.8549859  80.4447868 114.7649578
  64.3121631  80.0504978 114.8791944  45.3952228  77.1146038 107.9666230
  46.0823267  76.8007768 107.3787246  45.2400356  78.0187403 107.6933482
  50.1986950  72.0036235 112.3951254  50.1145138  71.3961904 111.6601664
  49.3769656  72.4945253 112.3960750  57.2724234  85.4423399 111.6084422
  57.1994405  86.2478370 112.1203727  56.8301627  85.6415364 110.7832444
  57.0614013  84.6795169 105.1187244  56.2781535  85.2216849 105.2125468
  57.7606759  85.1969148 105.5181485  60.3710664  70.4889798 107.7621449
  60.8679363  69.7359760 107.4422519  59.5997645  70.5254115 107.1964658
  68.2240421  76.1930164 109.4039741  68.2130297  77.0754879 109.0333674
  67.3557800  75.8401715 109.2094278  59.7322917  85.3410233 113.7642581
  60.4450890  85.9757698 113.6918482  59.2412946  85.4374099 112.9482583
  61.4540444  79.2461485 105.3359872  60.5196723  79.3662948 105.1664577
  61.6317113  78.3433952 105.0719882  56.9545632  72.6307181 107.4893134
  56.5843420  72.0778222 108.1774039  57.4504725  72.0265315 106.9368134
  64.8412996  75.0878805 105.8709907  65.3073448  75.9206796 105.7970209
  65.2920496  74.6223786 106.5755165  54.7834831  83.0904676 114.5848152
  55.4844290  83.7241159 114.7377546  54.3129946  83.4319408 113.8243791
  62.9089227  81.4322626 102.8696059  63.1849071  81.3179221 103.7789933
  62.0393725  81.0340111 102.8308232  62.8129658  67.4559392 109.9100808
  61.8992738  67.6863618 110.0783015  63.2422760  67.5397836 110.7614840
  62.5836117  75.6449284 112.4100702  61.9307567  75.8925191 111.7553155
  62.9616497  74.8313422 112.0763179  59.5443291  85.6808977 106.5128872
  59.7265685  84.8630633 106.9756625  60.3676277  85.8976669 106.0753762
  59.8785456  84.6077162 103.7743921  60.4073223  84.0969616 103.1614083
  60.1413676  84.2919692 104.6389454  58.6323690  76.3869095 118.8966739
  57.9564327  76.2863224 119.5669114  59.4551324  76.2308308 119.3602736
  50.3802549  82.6241031 111.5179254  50.9655986  81.8784719 111.6507159
  50.1827387  82.9344988 112.4015918  53.2341204  85.6592279 106.5341697
  52.5651579  86.1438406 106.0505737  53.0954074  85.9061499 107.4485075
  44.9720204  75.1946631 110.2383697  45.0104303  74.6610222 111.0320816
  44.4660496  74.6681837 109.6194675  57.3746473  87.6936022 113.1324355
  57.9264781  87.8567644 113.8973440  57.7152666  88.2840460 112.4604380
  52.3510966  70.0411172 113.7346240  52.4152292  70.9026003 113.3223637
  52.2878086  69.4285174 113.0018598  51.8263238  72.1134304 117.3819274
  52.4535277  71.7311382 117.9956798  50.9691157  71.8948506 117.7474967
  62.2257347  82.5197280 118.9873009  62.7697251  83.1327238 118.4927964
  61.6444192  83.0776858 119.5040022  48.6028781  73.9210734 103.3137629
  48.8982222  73.0121412 103.2604683  47.7016817  73.8998473 102.9918631
  60.5114860  85.6417998 110.1188037  60.3865999  84.8407737 109.6098983
  61.1693951  86.1364191 109.6302007  52.1323028  71.9966730 109.2965177
  51.4109614  72.6102698 109.1572651  52.9216284  72.5324495 109.2181823
  62.5749768  83.4427018 111.7467587  61.6280104  83.3232369 111.6745914
  62.9232541  82.5549516 111.8293849  54.9349342  69.3321157 115.5705829
  55.4583744  69.5783453 116.3332139  54.7161675  70.1641191 115.1508967
  50.3316623  71.6024831 103.4376954  50.0029329  70.7222210 103.2552060
  50.6855994  71.5472500 104.3253343  59.5796202  83.2379734 107.9471940
  59.4321164  82.3096441 108.1279510  60.4049695  83.2599825 107.4629015
  53.4458446  71.8897801 103.8052432  53.7854518  72.4183722 103.0831040
  53.8930566  72.2278207 104.5810998  63.1830324  84.0608293 109.0336812
  64.1076871  83.8551154 108.8961263  63.0145627  83.8124694 109.9426154
  56.1401887  70.2734852 113.2555500  55.7998707  69.4742665 113.6576180
  55.4340893  70.5736563 112.6832333  56.7918359  67.3584164 111.7082823
  57.6144428  66.8844642 111.5861713  57.0356422  68.1374648 112.2081509
  55.4326593  70.3872423 102.0045724  56.1534956  70.7653675 101.5009441
  54.8091897  71.1061299 102.1080702  59.5757716  71.0917572 102.9404057
  59.7921330  71.9742209 102.6392885  59.0951783  70.7003785 102.2109699
  54.3156937  74.0503285 109.5174801  54.1701518  74.3643588 110.4099083
  53.8382141  74.6688185 108.9645700  56.1753320  71.0405833 109.5655691
  56.1614889  70.1446926 109.2287989  56.8925748  71.0476497 110.1993977
  58.0279451  71.4743173 111.6108818  57.7697229  72.3960244 111.6093149
  57.4964491  71.0773608 112.3009282  62.9725640  84.5793960 104.3898904
  63.1462517  84.0140383 103.6372756  63.4654531  85.3794855 104.2078394
  48.7902600  76.5908629 112.4562463  48.2456068  77.3668437 112.5882737
  49.6681949  76.9379434 112.2981584  55.5790216  69.9220213 104.8343261
  55.7006127  68.9936859 105.0334149  55.2892259  69.9358899 103.9221576
  58.4481407  67.6075124 107.9709981  58.4703103  67.6714457 107.0161960
  58.8649466  66.7679632 108.1650487  68.8265031  77.3430383 106.0089203
  69.2696177  76.5937708 105.6108327  67.9491541  77.3340519 105.6262935
  49.5768621  75.7178525 115.3492619  48.8350357  75.8661161 115.9357250
  49.2561366  75.9786791 114.4859369  65.8592235  81.3460430 103.0183133
  66.3843559  81.6847703 102.2932453  65.7714588  80.4107445 102.8346267
  57.5212284  85.2594504 115.1473009  57.8299410  85.0143650 116.0195709
  58.3187766  85.4641142 114.6591880  57.5432896  87.4132413 107.3778386
  57.1037886  86.9208792 108.0711243  58.2941013  86.8705381 107.1370461
  50.0225235  83.6043954 107.3803014  50.8483255  83.3047726 107.0001658
  49.6719287  82.8351577 107.8292803  54.9906768  82.9570422 109.4500688
  54.3686778  82.2941127 109.1502916  55.6611635  82.9831554 108.7674335
  48.2233840  81.5230281 108.3391948  47.3865748  81.0952455 108.1575949
  48.1957486  81.7162724 109.2762739  55.0631296  71.4352210 119.0433194
  55.1119451  72.3114333 118.6610963  55.6053810  70.8929603 118.4704837
  65.5486141  81.9793334 118.3234331  64.7581685  81.9617473 117.7838830
  65.3119496  82.5181627 119.0783367  65.6684016  78.8285800 115.6367059
  65.7182021  78.6635808 116.5782582  65.5597940  77.9613059 115.2464940
  54.5520275  81.5074346 102.9259148  54.7008396  82.1909810 102.2725821
  55.3586719  81.4879436 103.4408604  62.9587779  74.8116728 116.9526366
  63.8597642  74.6723193 116.6610364  63.0335753  74.9771183 117.8924543
  57.2930584  72.1883583 115.7979552  56.4233894  72.4817149 115.5262141
  57.5290065  72.7724028 116.5186816  67.1702213  81.2482742 115.8809081
  66.8787022  81.6112722 116.7172542  66.5574345  80.5349750 115.7022413
  68.3697896  78.8135621 108.4011651  69.2044787  79.2525425 108.5649211
  68.5057024  78.3374275 107.5819897  65.4189402  76.3715356 114.3489139
  65.8943523  76.5643003 113.5407990  64.4954967  76.4274542 114.1032522
  52.3072908  77.5339523 103.9320217  52.0618950  76.6301853 104.1300427
  52.4768823  77.5356674 102.9899695  59.9969618  68.4063200 113.3144973
  60.5151562  69.1424227 112.9891461  59.6424751  68.7127193 114.1491732
  51.5768556  73.2667881 101.4306379  50.8837801  73.3412236 100.7746415
  51.3320308  72.5028225 101.9527895  60.2482212  64.8263482 108.8345869
  60.5283966  64.1586671 109.4606296  61.0332819  65.0192578 108.3220533
  58.0515681  84.0022476 100.3970896  57.4789648  84.6212663  99.9441367
  58.6248474  84.5521838 100.9310818  64.1191071  73.2481116 112.5817444
  65.0708493  73.3479214 112.6029668  63.9494521  72.4559385 113.0915529
  62.1405450  70.3336700 112.7676845  61.5455382  70.6141712 112.0723334
  61.8555147  70.8230600 113.5393586  61.2712940  84.2859626 101.5279478
  62.2043614  84.2205188 101.7312353  61.1836153  85.1215893 101.0694011
  66.5979148  76.4687236 111.6959744  66.5655468  75.5303237 111.8819428
  67.2079772  76.5471273 110.9625569  58.4362479  75.3383289  97.7386948
  59.3821584  75.2089497  97.8075366  58.0576724  74.5997951  98.2156376
  66.7473637  73.2598279 111.7418027  66.2312685  72.4756736 111.5547956
  67.6313585  72.9316996 111.9064547  64.4084364  67.0039295 107.7013840
  64.2109185  66.6954383 108.5857172  65.0184069  67.7300934 107.8311770
  72.4155698  77.5303243 110.8365781  73.1459087  77.2688531 111.3973484
  71.8062644  76.7931965 110.8767849  70.4970995  75.6711105 111.4340232
  69.7704159  75.5367070 110.8256724  70.0818282  75.9787934 112.2396950
  58.3201172  79.3901035 119.1987605  59.2404181  79.5679634 119.3927652
  58.2850755  78.4457080 119.0467304  56.6205396  73.2633265  97.6741833
  55.7136852  72.9666378  97.7504547  56.8981377  72.9663083  96.8076120
  47.5383337  74.5839629 108.1240880  47.2186121  73.7304937 107.8315254
  46.9916765  74.7988207 108.8798847  51.3163244  77.3002070 111.8410386
  51.5349254  78.2319178 111.8598420  51.7289018  76.9410044 112.6265190
  58.2367462  67.8070155 103.8286075  57.4268190  67.4617240 104.2041321
  58.9251879  67.4977699 104.4173686  60.1658010  66.8848202 105.4510371
  60.7189049  67.3043655 106.1100394  60.4028097  65.9583950 105.4933327
  56.1891110  72.8735276 121.2313135  56.0887836  73.8229632 121.1625226
  55.9712652  72.5453514 120.3589205  55.3904181  70.1220201  97.8153813
  56.2523345  70.4475099  98.0749630  55.5754525  69.3351696  97.3026878
  47.4071597  78.2042540 110.0934001  46.7135068  77.7896493 109.5803956
  48.1544588  78.2463077 109.4967420  63.5436817  68.9948727 104.9589036
  62.9635486  69.6533531 104.5767088  63.2772750  68.1726072 104.5476453
  61.9940384  68.3953785 107.1610356  62.4940162  68.5070319 106.3524675
  62.6375992  68.0914838 107.8011164  56.0522380  76.3032414 120.0478197
  55.5689461  77.1032774 120.2542086  56.1383319  76.3140359 119.0945641
  49.3208339  78.1360794 107.9700016  49.2979027  78.2348481 107.0181899
  49.6308976  78.9825945 108.2917182  51.9795717  80.1936949 112.0846631
  52.9338971  80.1620891 112.0176562  51.7808241  79.7327573 112.8996857
  52.5695099  78.7638065 114.6517428  53.3887988  79.2582144 114.6752266
  52.8431907  77.8470033 114.6234996  62.3261695  71.1548817 104.0145384
  61.4387550  71.4398468 103.7965579  62.7415685  70.9942581 103.1672661
  65.6776232  71.1795338 107.7299723  66.4536622  71.6691791 108.0024340
  64.9524366  71.6053393 108.1871593  68.1148790  71.8922958 108.7873664
  68.7093281  71.6518694 108.0766972  68.1875374  71.1730088 109.4147200
  50.3345946  85.7356569 109.1016828  50.2000414  84.9756969 108.5354827
  49.9178008  86.4597468 108.6345617  61.4704909  80.9193492  98.1093404
  62.1740759  81.1243495  98.7251059  60.7467558  81.4870254  98.3742487
  62.3002719  76.6703353 104.2295674  62.2437921  77.1271905 103.3903306
  62.8531062  75.9094038 104.0518517  66.1107525  72.4593085 105.0545793
  65.8544459  72.0589721 105.8854001  65.4860393  73.1736879 104.9295933
  70.4219863  75.1989158 107.5617085  69.8619421  75.2682348 108.3348647
  69.8163366  75.0230143 106.8416581  53.4915072  86.6325886 109.3135271
  53.3747456  87.5771318 109.2113961  52.6707518  86.3299447 109.7021070
  63.3791606  81.3576021 100.1591864  64.2137210  80.9257220  99.9769339
  63.2175949  81.1858035 101.0868758  63.0337499  77.8608135 101.5248203
  62.9786302  77.6952406 100.5836647  62.4083554  78.5684167 101.6810393
  47.8230013  73.0976199 115.3509625  48.4688877  72.5875153 115.8396851
  47.6147165  73.8344881 115.9253051  60.3483406  80.1657046 120.8501766
  61.2174565  80.3397699 120.4888401  59.8690157  80.9851463 120.7277495
  56.3433624  67.3616244 101.1033522  56.3312294  68.3058084 101.2601792
  57.2357046  67.1786389 100.8092983  54.5169586  87.2854147 112.5291200
  55.4196833  87.3177758 112.8457695  54.2906956  86.3554598 112.5437535
  56.2723188  86.0385134 109.1901278  55.3218819  86.0386996 109.0765650
  56.5755674  85.2917869 108.6737313  60.1585743  63.9559020 105.3579458
  59.3918139  63.4017507 105.5036141  60.5696448  64.0280889 106.2193610
  52.1627504  70.2443816 119.4484640  53.0258966  69.8880621 119.6587964
  51.5892915  69.9057711 120.1360044  72.0075881  91.8745672 110.2547041
  72.6454291  91.7552420 109.5510381  71.8896724  92.8226516 110.3134993
  68.8165588  91.8273100 110.1908565  68.4784099  91.7114165 109.3029100
  69.6855356  91.4264266 110.1709571  64.6752403  93.6808577 106.1805456
  64.1117269  93.5898514 105.4121744  64.5604798  92.8608481 106.6607949
  69.2985371  92.9807952 116.1494771  69.2874011  92.5860750 115.2775274
  69.4606010  92.2474025 116.7428542  62.2216835  95.1759769 109.0189677
  63.0138127  94.8350593 108.6035976  62.4613485  95.2854744 109.9391830
  66.0192632  95.7645064 115.0973955  65.7282498  96.6690695 114.9820621
  66.6549616  95.8061592 115.8118024  66.9448839  93.1421913 111.6875314
  67.5412411  92.9177935 110.9732277  67.0023810  92.4006658 112.2900762
  71.5617150  89.5997126 107.3300249  72.3480239  89.1816549 106.9790666
  71.8255854  90.5043218 107.4981897  76.9625577  89.5372359 108.2333227
  77.6950749  88.9671576 108.4671057  76.2064933  89.1493960 108.6739733
  68.5801697  91.9599601 105.4296570  68.2159904  91.4330222 106.1409491
  69.4368813  91.5698070 105.2563055  74.4850997  83.2493934 112.6927836
  74.1534322  84.1189345 112.4689051  73.8896611  82.9330218 113.3721866
  70.9782517  95.4506480 112.0923748  70.6783240  96.3531518 111.9839556
  70.6333576  95.1838663 112.9444901  64.4294998  91.9020276 108.1260453
  63.5045495  91.7696490 108.3338145  64.6779412  92.6814496 108.6230395
  74.3779661  87.9689020 109.7721186  73.4696538  87.9004428 109.4779947
  74.3267256  88.4460965 110.6003011  61.7903809  91.5453550 108.9604242
  61.9196191  91.7988029 109.8743654  61.1101261  92.1381258 108.6408897
  65.9603297 102.2150800 105.0594716  65.8827326 103.1658625 105.1383197
  65.3564940 101.8696672 105.7169642  68.4520526  89.3878665 117.7156083
  67.6753861  89.9472585 117.7058948  69.0911090  89.8735448 118.2370953
  76.2441307  86.1705458 111.5499060  75.6015687  86.4637991 110.9038854
  75.7396236  86.0558378 112.3552256  66.7066899  92.1964119 117.2774050
  67.4481583  92.7349163 117.0008874  66.0003884  92.8230407 117.4345602
  72.1822238  94.3393259 115.8746212  72.5905594  93.8975670 115.1300844
  71.4599500  93.7645887 116.1280404  68.5353308  89.2765866 113.2479769
  69.3814504  89.7005279 113.3914418  68.4751946  88.6199490 113.9418332
  72.5051053  94.8994450 109.6298500  71.8759916  95.0640164 108.9274568
  72.1176715  95.3136059 110.4009464  71.6852754  86.9370234 114.9060942
  71.4413686  87.6912295 114.3695218  71.9612684  87.3155582 115.7408189
  73.6391217  93.4808847 113.5838208  73.8508112  94.1240607 112.9072589
  73.5920965  92.6471163 113.1160138  71.2417446  86.0926667 110.4874780
  70.3801925  86.3907921 110.7791517  71.2679880  86.3097066 109.5555813
  68.0579015  94.6368858 106.8948586  68.5217360  94.9156561 106.1053208
  67.7935813  93.7352302 106.7121676  64.9503096  94.1840339 109.8328349
  65.5204453  94.6127608 109.1945833  65.5411208  93.9022924 110.5312534
  65.4428263  89.3503767 118.0789360  64.8126923  90.0320048 118.3124757
  65.3364350  89.2386848 117.1342498  60.7373235  89.0175563 109.0055284
  59.9472289  89.2733091 108.5295395  61.2284482  89.8323901 109.1107325
  74.7537045  96.3580802 111.7560565  75.5754488  95.9560989 111.4743247
  74.7499447  96.2549036 112.7076681  62.6887980  89.3820142 105.9638761
  61.8919144  89.4938836 106.4822257  62.4613573  89.7206794 105.0979651
  68.5193648  95.9064845 113.9121276  68.5838080  96.3685253 114.7479447
  67.8104572  95.2762210 114.0403585  59.0210938  89.2706053 111.4370275
  59.2718976  90.1553063 111.7027851  59.5570486  89.0910655 110.6645367
  68.2341666  97.5732953 103.7800256  68.0987340  98.4184489 104.2085104
  68.7751478  97.7752230 103.0166190  64.7209005  83.6524533 120.4414611
  64.3275951  83.0990731 121.1162255  65.5375146  83.9635111 120.8321129
  61.6871063  95.0908391 104.3528181  62.1995584  95.8851641 104.5033746
  62.3393776  94.3934681 104.2861782  63.4965948  98.2074147 106.4350934
  63.6732576  99.1292112 106.2471918  64.2922781  97.8932566 106.8645314
  67.6376966  85.0682412 118.0334868  68.3786680  85.6689565 117.9539330
  67.8694889  84.3260050 117.4752910  62.7818304  90.2538779 116.3113097
  62.6671819  89.3524036 116.6120196  61.9262822  90.5002476 115.9597914
  69.8610142  98.1956519 117.9100598  69.4173996  97.4092898 117.5921502
  70.5227356  98.3835670 117.2444489  64.6197263  99.7252321 112.4361276
  65.1704688  99.5969384 111.6638270  63.7808739 100.0247210 112.0856169
  71.9591380  98.4759319 115.9381999  71.9409855  99.2968200 115.4462268
  72.8811300  98.3513395 116.1632140  68.4164434  95.9903449 116.7805508
  68.9492771  95.2291737 116.5504816  67.8878515  95.6977101 117.5229662
  71.5834129  81.0963515 112.3099149  71.2398399  81.9865156 112.2338260
  71.9513092  80.9065172 111.4468734  59.6519980  93.4197045 105.1287752
  60.4895202  93.8294054 104.9121459  59.8298248  92.4796487 105.0987945
  69.1331523  85.9321827 105.8756823  68.2773119  85.5428677 105.6962462
  69.5458475  86.0113787 105.0156608  70.6630670  83.4668170 110.2748383
  70.1595465  83.4298305 109.4616188  70.9561276  84.3760913 110.3345039
  66.9073555  83.5506900 109.2814564  67.7726552  83.3549708 108.9220454
  66.9751064  83.3217251 110.2083921  74.7609993  93.3138462 109.4091366
  74.1033667  94.0037723 109.4971495  75.5650392  93.7034894 109.7525352
  64.5135875  85.7809108 106.6530931  65.0879626  85.5584289 105.9204124
  65.1006857  85.8497802 107.4059532  73.5715452  91.6682834 107.4595308
  74.0847334  92.3012826 107.9617017  74.2216676  91.0684030 107.0938668
  66.8158542  82.6550356 105.3806001  66.1622955  82.3399374 104.7562615
  66.7739016  82.0326097 106.1065824  70.0496283  89.1432290 109.7053648
  69.1318844  89.3647237 109.5475336  70.4656426  89.2178600 108.8465356
  70.8331330  90.5423706 104.8356328  71.5803149  91.0545103 104.5263451
  71.1022920  90.2207758 105.6960722  73.2810168  87.5780822 106.8175118
  72.5432924  87.0658208 107.1485360  73.5336941  87.1381204 106.0058395
  73.3821795  80.3557074 107.4116887  73.6880672  79.4954437 107.1242802
  74.1074400  80.9474694 107.2115881  59.6746151  90.7587761 105.7998485
  59.4770551  90.1657121 105.0749552  59.1192815  90.4539971 106.5174424
  67.6542875  90.6510867 107.9193078  67.7091484  89.6984703 107.8435555
  66.8434077  90.8070306 108.4034377  65.5935235  89.2687927 105.6783457
  64.7803100  89.5682097 106.0848649  66.0894229  88.8743615 106.3957939
  67.7443812  99.2645684 107.6117722  67.7019991  99.4906530 106.6826254
  68.6606511  99.0309058 107.7603523  71.1909446  89.7329751 114.5098351
  71.5458834  89.9601224 115.3692817  71.8381577  90.0648128 113.8875606
  65.0849309  86.8406282 111.2944692  65.7248689  86.6995041 110.5967655
  64.2526840  86.5540796 110.9183294  76.9476563  94.9224714 110.2258951
  77.3813069  94.8300003 111.0742005  77.6608143  94.8982215 109.5878967
  65.8609613  96.1408713 107.4079684  66.6550212  95.6459033 107.2062259
  65.1501306  95.6126576 107.0447390  62.0877926  86.8106607 106.0717679
  62.3484743  87.7251940 105.9626839  62.9095098  86.3431050 106.2214292
  63.5602851  88.2244364 113.2416503  64.2325904  88.0161727 112.5929152
  62.7332638  88.0266450 112.8021736  77.8092112  94.9648415 112.7591837
  78.0028002  95.8694225 113.0051112  77.7092730  94.5055834 113.5930422
  69.4628423  84.8506305 115.2582164  68.8156338  85.5496255 115.1646641
  70.2329438  85.2842449 115.6258412  72.8707221  95.1155157 118.3332717
  72.7192727  94.8865709 117.4162801  72.8611900  96.0725759 118.3464062
  69.6392557  92.6887070 113.3178984  70.5684617  92.8398230 113.1447951
  69.2183587  92.7771091 112.4627630  68.4380889  96.7137735 111.0877521
  68.2991975  96.3456519 111.9603460  67.6495485  97.2285374 110.9161479
  63.9630348  91.4986967 114.0018940  63.8250146  90.7667206 114.6030479
  64.8735272  91.4095867 113.7203128  66.5912649  91.2106927 113.4902620
  67.3012267  90.5700119 113.4489238  66.5481957  91.4619822 114.4128801
  74.5799428  98.1474280 116.4109199  74.5211974  97.4633500 115.7439782
  74.9818946  98.8893270 115.9589825  65.3041583  88.1972145 115.3098260
  64.7678940  87.7462883 115.9619856  64.7158291  88.3318053 114.5668724
  63.5990126 104.9636194 109.2042918  63.8386725 105.5954718 109.8821937
  62.7559323 104.6124234 109.4908277  74.5816835  96.1113864 114.6423179
  73.6943614  95.7739786 114.7649578  75.1515386  95.3796895 114.8791944
  56.2345982  92.4437956 107.9666230  56.9217022  92.1299686 107.3787246
  56.0794111  93.3479320 107.6933482  61.0380704  87.3328152 112.3951254
  60.9538893  86.7253822 111.6601664  60.2163411  87.8237171 112.3960750
  68.1117988 100.7715316 111.6084422  68.0388160 101.5770288 112.1203727
  67.6695381 100.9707282 110.7832444  67.9007768 100.0087086 105.1187244
  67.1175290 100.5508767 105.2125468  68.6000513 100.5261066 105.5181485
  71.2104418  85.8181716 107.7621449  71.7073118  85.0651678 107.4422519
  70.4391400  85.8546032 107.1964658  79.0634175  91.5222081 109.4039741
  79.0524052  92.4046797 109.0333674  78.1951555  91.1693632 109.2094278
  70.5716672 100.6702150 113.7642581  71.2844644 101.3049615 113.6918482
  70.0806700 100.7666016 112.9482583  67.7939387  87.9599099 107.4893134
  67.4237174  87.4070139 108.1774039  68.2898479  87.3557232 106.9368134
  65.6228585  98.4196594 114.5848152  66.3238045  99.0533077 114.7377546
  65.1523700  98.7611325 113.8243791  73.6523413  82.7851309 109.9100808
  72.7386493  83.0155536 110.0783015  74.0816514  82.8689753 110.7614840
  73.4229871  90.9741201 112.4100702  72.7701322  91.2217109 111.7553155
  73.8010251  90.1605339 112.0763179  69.4717444  91.7161012 118.8966739
  68.7958081  91.6155142 119.5669114  70.2945078  91.5600226 119.3602736
  61.2196303  97.9532949 111.5179254  61.8049740  97.2076637 111.6507159
  61.0221142  98.2636906 112.4015918  64.0734959 100.9884196 106.5341697
  63.4045334 101.4730324 106.0505737  63.9347828 101.2353417 107.4485075
  55.8113958  90.5238549 110.2383697  55.8498058  89.9902140 111.0320816
  55.3054251  89.9973755 109.6194675  68.2140227 103.0227940 113.1324355
  68.7658535 103.1859561 113.8973440  68.5546421 103.6132378 112.4604380
  63.1904720  85.3703090 113.7346240  63.2546047  86.2317920 113.3223637
  63.1271841  84.7577091 113.0018598  62.6656993  87.4426222 117.3819274
  63.2929032  87.0603299 117.9956798  61.8084912  87.2240424 117.7474967
  73.0651102  97.8489197 118.9873009  73.6091006  98.4619156 118.4927964
  72.4837946  98.4068776 119.5040022  59.4422536  89.2502651 103.3137629
  59.7375977  88.3413330 103.2604683  58.5410571  89.2290391 102.9918631
  62.9716783  87.3258648 109.2965177  62.2503368  87.9394616 109.1572651
  63.7610038  87.8616413 109.2181823  65.7743096  84.6613074 115.5705829
  66.2977498  84.9075371 116.3332139  65.5555430  85.4933109 115.1508967
  61.1710377  86.9316749 103.4376954  60.8423083  86.0514128 103.2552060
  61.5249748  86.8764418 104.3253343  66.9795641  85.6026769 113.2555500
  66.6392462  84.8034582 113.6576180  66.2734648  85.9028480 112.6832333
  67.6312113  82.6876082 111.7082823  68.4538182  82.2136560 111.5861713
  67.8750177  83.4666566 112.2081509  70.4151470  86.4209489 102.9404057
  70.6315085  87.3034127 102.6392885  69.9345538  86.0295703 102.2109699
  65.1550692  89.3795202 109.5174801  65.0095273  89.6935506 110.4099083
  64.6775896  89.9980103 108.9645700  67.0147075  86.3697750 109.5655691
  67.0008644  85.4738844 109.2287989  67.7319503  86.3768414 110.1993977
  68.8673205  86.8035091 111.6108818  68.6090983  87.7252161 111.6093149
  68.3358246  86.4065525 112.3009282  59.6296354  91.9200547 112.4562463
  59.0849822  92.6960355 112.5882737  60.5075704  92.2671351 112.2981584
  66.4183971  85.2512131 104.8343261  66.5399882  84.3228777 105.0334149
  66.1286013  85.2650817 103.9221576  69.2875161  82.9367041 107.9709981
  69.3096858  83.0006374 107.0161960  69.7043220  82.0971550 108.1650487
  60.4162376  91.0470443 115.3492619  59.6744112  91.1953079 115.9357250
  60.0955120  91.3078709 114.4859369  68.3606039 100.5886421 115.1473009
  68.6693165 100.3435568 116.0195709  69.1581521 100.7933060 114.6591880
  68.3826651 102.7424331 107.3778386  67.9431641 102.2500710 108.0711243
  69.1334768 102.1997299 107.1370461  60.8618990  98.9335872 107.3803014
  61.6877009  98.6339644 107.0001658  60.5113042  98.1643494 107.8292803
  65.8300523  98.2862340 109.4500688  65.2080532  97.6233045 109.1502916
  66.5005390  98.3123472 108.7674335  59.0627595  96.8522198 108.3391948
  58.2259503  96.4244373 108.1575949  59.0351240  97.0454642 109.2762739
  65.9025050  86.7644128 119.0433194  65.9513206  87.6406251 118.6610963
  66.4447564  86.2221521 118.4704837  76.3879896  97.3085251 118.3234331
  75.5975440  97.2909390 117.7838830  76.1513250  97.8473545 119.0783367
  76.5077771  94.1577718 115.6367059  76.5575776  93.9927725 116.5782582
  76.3991694  93.2904977 115.2464940  65.3914030  96.8366263 102.9259148
  65.5402150  97.5201728 102.2725821  66.1980473  96.8171353 103.4408604
  73.7981533  90.1408646 116.9526366  74.6991396  90.0015111 116.6610364
  73.8729508  90.3063101 117.8924543  68.1324339  87.5175501 115.7979552
  67.2627648  87.8109067 115.5262141  68.3683819  88.1015946 116.5186816
  78.0095968  96.5774659 115.8809081  77.7180776  96.9404640 116.7172542
  77.3968099  95.8641668 115.7022413  76.2583156  91.7007274 114.3489139
  76.7337278  91.8934920 113.5407990  75.3348721  91.7566460 114.1032522
  70.8363373  83.7355117 113.3144973  71.3545316  84.4716144 112.9891461
  70.4818505  84.0419111 114.1491732  71.0875967  80.1555400 108.8345869
  71.3677720  79.4878589 109.4606296  71.8726574  80.3484496 108.3220533
  74.9584825  88.5773034 112.5817444  75.9102248  88.6771132 112.6029668
  74.7888275  87.7851303 113.0915529  72.9799204  85.6628617 112.7676845
  72.3849137  85.9433630 112.0723334  72.6948901  86.1522518 113.5393586
  77.4372903  91.7979154 111.6959744  77.4049223  90.8595154 111.8819428
  78.0473526  91.8763190 110.9625569  77.5867391  88.5890197 111.7418027
  77.0706440  87.8048654 111.5547956  78.4707340  88.2608914 111.9064547
  75.2478118  82.3331213 107.7013840  75.0502939  82.0246301 108.5857172
  75.8577824  83.0592852 107.8311770  81.3364750  91.0003023 111.4340232
  80.6097913  90.8658988 110.8256724  80.9212037  91.3079852 112.2396950
  69.1594926  94.7192953 119.1987605  70.0797936  94.8971552 119.3927652
  69.1244509  93.7748998 119.0467304  58.3777091  89.9131546 108.1240880
  58.0579876  89.0596855 107.8315254  57.8310519  90.1280125 108.8798847
  62.1556999  92.6293987 111.8410386  62.3743009  93.5611095 111.8598420
  62.5682773  92.2701962 112.6265190  69.0761217  83.1362073 103.8286075
  68.2661945  82.7909158 104.2041321  69.7645633  82.8269616 104.4173686
  71.0051765  82.2140120 105.4510371  71.5582803  82.6335573 106.1100394
  71.2421851  81.2875868 105.4933327  67.0284864  88.2027193 121.2313135
  66.9281591  89.1521550 121.1625226  66.8106406  87.8745432 120.3589205
  58.2465351  93.5334458 110.0934001  57.5528823  93.1188411 109.5803956
  58.9938342  93.5754994 109.4967420  74.3830572  84.3240645 104.9589036
  73.8029241  84.9825449 104.5767088  74.1166505  83.5017989 104.5476453
  72.8334138  83.7245702 107.1610356  73.3333917  83.8362237 106.3524675
  73.4769746  83.4206755 107.8011164  66.8916134  91.6324332 120.0478197
  66.4083216  92.4324692 120.2542086  66.9777073  91.6432277 119.0945641
  60.1602094  93.4652712 107.9700016  60.1372782  93.5640399 107.0181899
  60.4702730  94.3117863 108.2917182  62.8189472  95.5228867 112.0846631
  63.7732725  95.4912809 112.0176562  62.6201995  95.0619490 112.8996857
  63.4088854  94.0929983 114.6517428  64.2281743  94.5874061 114.6752266
  63.6825661  93.1761951 114.6234996  73.1655450  86.4840735 104.0145384
  72.2781305  86.7690386 103.7965579  73.5809439  86.3234498 103.1672661
  76.5169986  86.5087256 107.7299723  77.2930376  86.9983709 108.0024340
  75.7918120  86.9345310 108.1871593  78.9542545  87.2214875 108.7873664
  79.5487036  86.9810611 108.0766972  79.0269128  86.5022006 109.4147200
  61.1739700 101.0648486 109.1016828  61.0394168 100.3048887 108.5354827
  60.7571763 101.7889386 108.6345617  76.9501280  87.7885003 105.0545793
  76.6938214  87.3881639 105.8854001  76.3254148  88.5028797 104.9295933
  81.2613617  90.5281076 107.5617085  80.7013175  90.5974265 108.3348647
  80.6557121  90.3522061 106.8416581  64.3308826 101.9617803 109.3135271
  64.2141210 102.9063236 109.2113961  63.5101273 101.6591365 109.7021070
  58.6623768  88.4268117 115.3509625  59.3082632  87.9167071 115.8396851
  58.4540919  89.1636798 115.9253051  71.1877160  95.4948964 120.8501766
  72.0568320  95.6689616 120.4888401  70.7083912  96.3143381 120.7277495
  65.3563340 102.6146065 112.5291200  66.2590587 102.6469675 112.8457695
  65.1300710 101.6846516 112.5437535  67.1116942 101.3677052 109.1901278
  66.1612573 101.3678913 109.0765650  67.4149429 100.6209786 108.6737313
  70.9979498  79.2850938 105.3579458  70.2311894  78.7309425 105.5036141
  71.4090203  79.3572807 106.2193610  63.0021259  85.5735734 119.4484640
  63.8652721  85.2172539 119.6587964  62.4286670  85.2349629 120.1360044
  82.8469636 107.2037590 110.2547041  83.4848046 107.0844337 109.5510381
  82.7290479 108.1518434 110.3134993  79.6559342 107.1565018 110.1908565
  79.3177854 107.0406083 109.3029100  80.5249110 106.7556183 110.1709571
  80.1379125 108.3099870 116.1494771  80.1267766 107.9152668 115.2775274
  80.2999765 107.5765943 116.7428542  76.8586386 111.0936982 115.0973955
  76.5676252 111.9982613 114.9820621  77.4943371 111.1353509 115.8118024
  77.7842593 108.4713830 111.6875314  78.3806165 108.2469853 110.9732277
  77.8417565 107.7298576 112.2900762  87.8019332 104.8664277 108.2333227
  88.5344503 104.2963494 108.4671057  87.0458687 104.4785878 108.6739733
  85.3244752  98.5785851 112.6927836  84.9928077  99.4481262 112.4689051
  84.7290365  98.2622135 113.3721866  81.8176271 110.7798397 112.0923748
  81.5176994 111.6823436 111.9839556  81.4727331 110.5130580 112.9444901
  85.2173415 103.2980937 109.7721186  84.3090293 103.2296346 109.4779947
  85.1661011 103.7752882 110.6003011  79.2914281 104.7170583 117.7156083
  78.5147615 105.2764503 117.7058948  79.9304844 105.2027366 118.2370953
  87.0835062 101.4997376 111.5499060  86.4409442 101.7929909 110.9038854
  86.5789990 101.3850296 112.3552256  77.5460653 107.5256036 117.2774050
  78.2875338 108.0641080 117.0008874  76.8397639 108.1522325 117.4345602
  83.0215993 109.6685177 115.8746212  83.4299349 109.2267587 115.1300844
  82.2993254 109.0937804 116.1280404  79.3747063 104.6057784 113.2479769
  80.2208258 105.0297197 113.3914418  79.3145701 103.9491408 113.9418332
  83.3444808 110.2286367 109.6298500  82.7153670 110.3932082 108.9274568
  82.9570470 110.6427977 110.4009464  87.2234039 111.1640805 106.9842864
  86.5385078 111.5439707 106.4339898  87.3077889 111.7736132 107.7174812
  82.5246508 102.2662152 114.9060942  82.2807440 103.0204212 114.3695218
  82.8006439 102.6447500 115.7408189  84.4784971 108.8100764 113.5838208
  84.6901866 109.4532524 112.9072589  84.4314719 107.9763081 113.1160138
  76.2822017 104.6795685 118.0789360  75.6520678 105.3611965 118.3124757
  76.1758105 104.5678766 117.1342498  85.5930799 111.6872720 111.7560565
  86.4148243 111.2852907 111.4743247  85.5893202 111.5840954 112.7076681
  79.3587402 111.2356763 113.9121276  79.4231835 111.6977170 114.7479447
  78.6498326 110.6054128 114.0403585  69.8604692 104.5997971 111.4370275
  70.1112731 105.4844981 111.7027851  70.3964241 104.4202573 110.6645367
  93.6836792 108.0311468 108.1045537  92.9300500 107.4618866 107.9489541
  93.8184333 107.9974133 109.0516171  75.5602760  98.9816450 120.4414611
  75.1669705  98.4282649 121.1162255  76.3768900  99.2927029 120.8321129
  74.3359702 113.5366065 106.4350934  74.5126331 114.4584030 106.2471918
  75.1316536 113.2224484 106.8645314  78.4770721 100.3974329 118.0334868
  79.2180434 100.9981483 117.9539330  78.7088644  99.6551967 117.4752910
  73.6212059 105.5830697 116.3113097  73.5065574 104.6815954 116.6120196
  72.7656577 105.8294393 115.9597914  80.7003897 113.5248437 117.9100598
  80.2567751 112.7384816 117.5921502  81.3621110 113.7127588 117.2444489
  75.4591018 115.0544239 112.4361276  76.0098443 114.9261302 111.6638270
  74.6202494 115.3539128 112.0856169  82.7985135 113.8051237 115.9381999
  82.7803610 114.6260118 115.4462268  83.7205055 113.6805312 116.1632140
  79.2558189 111.3195366 116.7805508  79.7886526 110.5583655 116.5504816
  78.7272270 111.0269018 117.5229662  77.7467310  98.8798817 109.2814564
  78.6120307  98.6841626 108.9220454  77.8144819  98.6509169 110.2083921
  85.6003747 108.6430379 109.4091366  84.9427422 109.3329641 109.4971495
  86.4044147 109.0326811 109.7525352  84.4109206 106.9974752 107.4595308
  84.9241088 107.6304744 107.9617017  85.0610430 106.3975948 107.0938668
  80.8890037 104.4724208 109.7053648  79.9712598 104.6939155 109.5475336
  81.3050181 104.5470518 108.8465356  85.1771002 111.9780754 105.5874450
  84.7233330 111.1371663 105.6439641  84.5464969 112.6142152 105.9249230
  83.6203942 113.8157250 106.5224268  83.9126916 114.3762307 105.8036634
  84.1302562 114.1085811 107.2777428  78.5837567 114.5937601 107.6117722
  78.5413746 114.8198448 106.6826254  79.5000266 114.3600976 107.7603523
  82.0303201 105.0621669 114.5098351  82.3852588 105.2893142 115.3692817
  82.6775332 105.3940046 113.8875606  75.9243064 102.1698200 111.2944692
  76.5642443 102.0286959 110.5967655  75.0920594 101.8832713 110.9183294
  87.7870317 110.2516632 110.2258951  88.2206824 110.1591921 111.0742005
  88.5001898 110.2274132 109.5878967  81.5198212 113.8518726 111.7592052
  81.5735234 114.4209662 112.5269768  80.6512994 114.0220611 111.3946089
  74.3996606 103.5536282 113.2416503  75.0719659 103.3453644 112.5929152
  73.5726392 103.3558368 112.8021736  88.6485867 110.2940332 112.7591837
  88.8421757 111.1986143 113.0051112  88.5486485 109.8347751 113.5930422
  80.3022178 100.1798223 115.2582164  79.6550093 100.8788173 115.1646641
  81.0723193 100.6134367 115.6258412  83.7100975 110.4447075 118.3332717
  83.5586482 110.2157627 117.4162801  83.7005655 111.4017677 118.3464062
  80.4786312 108.0178988 113.3178984  81.4078372 108.1690148 113.1447951
  80.0577342 108.1063009 112.4627630  79.2774644 112.0429652 111.0877521
  79.1385729 111.6748437 111.9603460  78.4889240 112.5577292 110.9161479
  80.8279859 111.4211255 108.4766359  80.4929691 111.3812025 109.3724009
  80.3283804 110.7555971 108.0036769  74.8024103 106.8278885 114.0018940
  74.6643901 106.0959124 114.6030479  75.7129026 106.7387785 113.7203128
  77.4306403 106.5398844 113.4902620  78.1406022 105.8992037 113.4489238
  77.3875712 106.7911739 114.4128801  85.4193182 113.4766198 116.4109199
  85.3605728 112.7925418 115.7439782  85.8212701 114.2185188 115.9589825
  76.1435337 103.5264062 115.3098260  75.6072694 103.0754801 115.9619856
  75.5552046 103.6609971 114.5668724  74.4383881 120.2928112 109.2042918
  74.6780479 120.9246636 109.8821937  73.5953077 119.9416152 109.4908277
  85.4210589 111.4405782 114.6423179  84.5337368 111.1031703 114.7649578
  85.9909140 110.7088813 114.8791944  67.0739737 107.7729873 107.9666230
  67.7610776 107.4591603 107.3787246  66.9187865 108.6771238 107.6933482
  71.8774459 102.6620070 112.3951254  71.7932647 102.0545740 111.6601664
  71.0557165 103.1529088 112.3960750  78.9511743 116.1007234 111.6084422
  78.8781914 116.9062206 112.1203727  78.5089136 116.2999200 110.7832444
  78.7401522 115.3379004 105.1187244  77.9569044 115.8800684 105.2125468
  79.4394268 115.8552984 105.5181485  89.9027930 106.8513999 109.4039741
  89.8917806 107.7338714 109.0333674  89.0345309 106.4985550 109.2094278
  81.4110426 115.9994068 113.7642581  82.1238399 116.6341533 113.6918482
  80.9200455 116.0957934 112.9482583  83.1327953 109.9045321 105.3359872
  82.1984232 110.0246783 105.1664577  83.3104622 109.0017787 105.0719882
  86.5200505 105.7462640 105.8709907  86.9860957 106.5790632 105.7970209
  86.9708005 105.2807622 106.5755165  76.4622340 113.7488512 114.5848152
  77.1631799 114.3824994 114.7377546  75.9917455 114.0903243 113.8243791
  84.2623626 106.3033119 112.4100702  83.6095076 106.5509026 111.7553155
  84.6404006 105.4897257 112.0763179  80.3111199 107.0452930 118.8966739
  79.6351836 106.9447059 119.5669114  81.1338833 106.8892144 119.3602736
  72.0590058 113.2824867 111.5179254  72.6443495 112.5368554 111.6507159
  71.8614896 113.5928823 112.4015918  66.6507713 105.8530467 110.2383697
  66.6891812 105.3194057 111.0320816  66.1448005 105.3265672 109.6194675
  79.0533982 118.3519857 113.1324355  79.6052290 118.5151479 113.8973440
  79.3940175 118.9424295 112.4604380  74.0298475 100.6995007 113.7346240
  74.0939801 101.5609838 113.3223637  73.9665595 100.0869009 113.0018598
  73.5050747 102.7718140 117.3819274  74.1322786 102.3895217 117.9956798
  72.6478666 102.5532342 117.7474967  83.9044856 113.1781115 118.9873009
  84.4484760 113.7911073 118.4927964  83.3231701 113.7360693 119.5040022
  82.1902369 116.3001833 110.1188037  82.0653508 115.4991573 109.6098983
  82.8481460 116.7948026 109.6302007  84.2537277 114.1010853 111.7467587
  83.3067613 113.9816204 111.6745914  84.6020050 113.2133351 111.8293849
  76.6136851  99.9904992 115.5705829  77.1371253 100.2367289 116.3332139
  76.3949184 100.8225027 115.1508967  81.2583711 113.8963569 107.9471940
  81.1108673 112.9680277 108.1279510  82.0837204 113.9183660 107.4629015
  84.8617833 114.7192128 109.0336812  85.7864380 114.5134989 108.8961263
  84.6933136 114.4708529 109.9426154  77.8189396 100.9318687 113.2555500
  77.4786216 100.1326500 113.6576180  77.1128402 101.2320398 112.6832333
  77.8540829 101.6989668 109.5655691  77.8402398 100.8030761 109.2287989
  78.5713257 101.7060332 110.1993977  79.7066960 102.1327008 111.6108818
  79.4484738 103.0544079 111.6093149  79.1752000 101.7357443 112.3009282
  84.6513149 115.2377795 104.3898904  84.8250026 114.6724218 103.6372756
  85.1442040 116.0378690 104.2078394  70.4690109 107.2492465 112.4562463
  69.9243577 108.0252273 112.5882737  71.3469458 107.5963269 112.2981584
  71.2556130 106.3762361 115.3492619  70.5137866 106.5244996 115.9357250
  70.9348875 106.6370626 114.4859369  79.1999793 115.9178339 115.1473009
  79.5086919 115.6727486 116.0195709  79.9975275 116.1224978 114.6591880
  71.7012744 114.2627790 107.3803014  72.5270764 113.9631561 107.0001658
  71.3506796 113.4935412 107.8292803  76.6694277 113.6154258 109.4500688
  76.0474287 112.9524963 109.1502916  77.3399144 113.6415390 108.7674335
  69.9021349 112.1814116 108.3391948  69.0653257 111.7536290 108.1575949
  69.8744995 112.3746559 109.2762739  76.7418805 102.0936046 119.0433194
  76.7906960 102.9698169 118.6610963  77.2841319 101.5513439 118.4704837
  87.2273650 112.6377169 118.3234331  86.4369194 112.6201308 117.7838830
  86.9907005 113.1765463 119.0783367  87.3471525 109.4869635 115.6367059
  87.3969530 109.3219643 116.5782582  87.2385449 108.6196894 115.2464940
  84.6375288 105.4700563 116.9526366  85.5385151 105.3307028 116.6610364
  84.7123262 105.6355018 117.8924543  78.9718093 102.8467418 115.7979552
  78.1021403 103.1400984 115.5262141  79.2077574 103.4307863 116.5186816
  88.8489722 111.9066577 115.8809081  88.5574531 112.2696557 116.7172542
  88.2361854 111.1933585 115.7022413  90.0485405 109.4719457 108.4011651
  90.8832296 109.9109261 108.5649211  90.1844533 108.9958110 107.5819897
  87.0976911 107.0299192 114.3489139  87.5731032 107.2226838 113.5407990
  86.1742476 107.0858377 114.1032522  85.7978580 103.9064952 112.5817444
  86.7496002 104.0063049 112.6029668  85.6282030 103.1143220 113.0915529
  83.8192959 100.9920535 112.7676845  83.2242891 101.2725548 112.0723334
  83.5342656 101.4814436 113.5393586  88.2766657 107.1271071 111.6959744
  88.2442977 106.1887072 111.8819428  88.8867281 107.2055108 110.9625569
  88.4261146 103.9182115 111.7418027  87.9100194 103.1340571 111.5547956
  89.3101094 103.5900831 111.9064547  94.0943207 108.1887078 110.8365781
  94.8246596 107.9272366 111.3973484  93.4850153 107.4515800 110.8767849
  92.1758504 106.3294941 111.4340232  91.4491668 106.1950906 110.8256724
  91.7605791 106.6371769 112.2396950  79.9988681 110.0484870 119.1987605
  80.9191690 110.2263469 119.3927652  79.9638264 109.1040916 119.0467304
  69.2170846 105.2423464 108.1240880  68.8973630 104.3888772 107.8315254
  68.6704274 105.4572042 108.8798847  72.9950753 107.9585905 111.8410386
  73.2136763 108.8903013 111.8598420  73.4076527 107.5993880 112.6265190
  77.8678619 103.5319111 121.2313135  77.7675345 104.4813468 121.1625226
  77.6500161 103.2037350 120.3589205  69.0859106 108.8626376 110.0934001
  68.3922577 108.4480328 109.5803956  69.8332097 108.9046912 109.4967420
  77.7309889 106.9616250 120.0478197  77.2476970 107.7616610 120.2542086
  77.8170828 106.9724195 119.0945641  73.6583226 110.8520784 112.0846631
  74.6126480 110.8204727 112.0176562  73.4595750 110.3911408 112.8996857
  74.2482608 109.4221900 114.6517428  75.0675497 109.9165979 114.6752266
  74.5219416 108.5053869 114.6234996  87.3563741 101.8379174 107.7299723
  88.1324131 102.3275626 108.0024340  86.6311875 102.2637228 108.1871593
  72.0133455 116.3940404 109.1016828  71.8787923 115.6340805 108.5354827
  71.5965517 117.1181304 108.6345617  83.9790228 107.3287189 104.2295674
  83.9225430 107.7855740 103.3903306  84.5318571 106.5677873 104.0518517
  75.1702581 117.2909721 109.3135271  75.0534965 118.2355153 109.2113961
  74.3495027 116.9883282 109.7021070  69.5017522 103.7560034 115.3509625
  70.1476386 103.2458988 115.8396851  69.2934674 104.4928716 115.9253051
  82.0270915 110.8240882 120.8501766  82.8962074 110.9981534 120.4888401
  81.5477666 111.6435299 120.7277495  76.1957095 117.9437983 112.5291200
  77.0984342 117.9761593 112.8457695  75.9694465 117.0138434 112.5437535
  77.9510697 116.6968969 109.1901278  77.0006328 116.6970831 109.0765650
  78.2543183 115.9501704 108.6737313  73.8415013 100.9027651 119.4484640
  74.7046475 100.5464456 119.6587964  73.2680424 100.5641546 120.1360044
  93.6863390 122.5329508 110.2547041  94.3241800 122.4136255 109.5510381
  93.5684233 123.4810352 110.3134993  90.4953097 122.4856936 110.1908565
  90.1571608 122.3698001 109.3029100  91.3642865 122.0848101 110.1709571
  91.9339471 128.0063380 101.4919921  91.2827451 128.5917460 101.1053935
  92.7283834 128.5369575 101.5514959  85.8595098 125.0952517 101.8907055
  86.6325974 124.5481504 101.7519931  86.2120497 125.9596766 102.1021517
  88.6236348 123.8005748 111.6875314  89.2199920 123.5761770 110.9732277
  88.6811319 123.0590493 112.2900762  88.1961376 121.2545183  99.5225505
  88.4486897 120.7326705  98.7608968  87.2585935 121.0911329  99.6252189
  93.2404659 120.2580962 107.3300249  94.0267748 119.8400385 106.9790666
  93.5043363 121.1627054 107.4981897  93.4114736 125.6953812 102.0288905
  92.7760569 125.7688438 102.7409810  93.0812143 126.2847411 101.3507985
  98.6413086 120.1956195 108.2333227  99.3738258 119.6255412 108.4671057
  97.8852442 119.8077795 108.6739733  87.9157665 123.1573289 101.7249880
  87.7993923 122.4818193 102.3930965  88.0259925 122.6705663 100.9082033
  90.2589206 122.6183436 105.4296570  89.8947413 122.0914057 106.1409491
  91.1156322 122.2281905 105.2563055  96.1638506 113.9077769 112.6927836
  95.8321831 114.7773180 112.4689051  95.5684120 113.5914053 113.3721866
  96.0567170 118.6272855 109.7721186  95.1484047 118.5588264 109.4779947
  96.0054765 119.1044800 110.6003011  89.8783914 120.1030993 101.4104585
  89.7583539 120.5488044 102.2490065  89.1836502 120.4516311 100.8518123
  87.6390806 132.8734635 105.0594716  87.5614835 133.8242460 105.1383197
  87.0352449 132.5280508 105.7169642  97.9228816 116.8289293 111.5499060
  97.2803196 117.1221827 110.9038854  97.4183745 116.7142214 112.3552256
  95.5768980 120.5752467 102.2384919  96.4886836 120.8079853 102.0632617
  95.0678627 121.1589511 101.6759998  90.2140817 119.9349701 113.2479769
  91.0602013 120.3589115 113.3914418  90.1539455 119.2783326 113.9418332
  92.9204955 116.7510503 110.4874780  92.0589434 117.0491756 110.7791517
  92.9467389 116.9680902 109.5555813  89.7366524 125.2952693 106.8948586
  90.2004869 125.5740396 106.1053208  89.4723322 124.3936138 106.7121676
  88.6735410 121.4175846 103.7038151  89.3759453 121.8696889 104.1712077
  88.3416038 120.7759664 104.3318044  89.9129175 128.2316788 103.7800256
  89.7774849 129.0768324 104.2085104  90.4538987 128.4336066 103.0166190
  85.1753457 128.8657983 106.4350934  85.3520085 129.7875947 106.2471918
  85.9710290 128.5516402 106.8645314  84.4605813 120.9122614 116.3113097
  84.3459328 120.0107872 116.6120196  83.6050331 121.1586311 115.9597914
  93.2621638 111.7547350 112.3099149  92.9185908 112.6448992 112.2338260
  93.6300601 111.5649008 111.4468734  93.2271921 121.7455961 100.8171584
  92.7118544 122.5160566 101.0559972  92.9549229 121.0721097 101.4404646
  90.8119032 116.5905662 105.8756823  89.9560628 116.2012512 105.6962462
  91.2245984 116.6697623 105.0156608  92.3418179 114.1252005 110.2748383
  91.8382974 114.0882140 109.4616188  92.6348785 115.0344748 110.3345039
  88.5861064 114.2090735 109.2814564  89.4514061 114.0133544 108.9220454
  88.6538573 113.9801087 110.2083921  98.2006195 124.4988316 102.7524758
  97.4235638 124.1599475 102.3079920  98.8797676 124.5040939 102.0779723
  93.0158224 119.6183053 102.6431366  92.7108360 119.9329202 103.4941509
  93.9688666 119.6964473 102.6858699  91.4604656 125.7773277 104.2924320
  90.9326017 125.0426036 103.9797557  90.9592159 126.5547953 104.0464288
  86.1923384 116.4392943 106.6530931  86.7667135 116.2168124 105.9204124
  86.7794366 116.5081637 107.4059532  95.2502961 122.3266670 107.4595308
  95.7634842 122.9596662 107.9617017  95.9004185 121.7267865 107.0938668
  88.4946051 113.3134192 105.3806001  87.8410464 112.9983209 104.7562615
  88.4526525 112.6909932 106.1065824  89.6057256 123.5953487  97.2959293
  88.6984318 123.3642740  97.4950442  90.1028288 122.7991106  97.4833274
  92.5125335 132.3050994 100.2155979  91.8387034 132.6082691 100.8240937
  92.8991157 133.1080074  99.8661436  91.7283792 119.8016125 109.7053648
  90.8106353 120.0231072 109.5475336  92.1443935 119.8762436 108.8465356
  92.5118839 121.2007541 104.8356328  93.2590658 121.7128938 104.5263451
  92.7810429 120.8791594 105.6960722  90.7845490 123.6966082 101.8183283
  89.8756709 123.4125115 101.9155753  90.8140573 124.1165160 100.9586590
  96.0164757 127.3072671 105.5874450  95.5627084 126.4663581 105.6439641
  95.3858724 127.9434070 105.9249230  94.9597677 118.2364657 106.8175118
  94.2220433 117.7242043 107.1485360  95.2124450 117.7965039 106.0058395
  94.4597696 129.1449168 106.5224268  94.7520671 129.7054225 105.8036634
  94.9696317 129.4377729 107.2777428  95.0609304 111.0140909 107.4116887
  95.3668181 110.1538273 107.1242802  95.7861909 111.6058529 107.2115881
  89.3330384 121.3094702 107.9193078  89.3878993 120.3568539 107.8435555
  88.5221586 121.4654141 108.4034377  90.4821577 125.2374825  99.1571361
  90.0441007 124.5210684  98.6976999  91.2232018 125.4650940  98.5956453
  87.2722744 119.9271762 105.6783457  86.4590609 120.2265933 106.0848649
  87.7681738 119.5327451 106.3957939  89.4231321 129.9229519 107.6117722
  89.3807500 130.1490365 106.6826254  90.3394020 129.6892894 107.7603523
  98.5994692 123.5132022 105.2147680  98.4612591 123.7033618 104.2868869
  98.2430911 124.2751405 105.6715731  86.7636818 117.4990118 111.2944692
  87.4036198 117.3578877 110.5967655  85.9314349 117.2124631 110.9183294
  87.5397122 126.7992548 107.4079684  88.3337721 126.3042868 107.2062259
  86.8288815 126.2710411 107.0447390  85.2390360 118.8828200 113.2416503
  85.9113413 118.6745562 112.5929152  84.4120147 118.6850286 112.8021736
  91.1415932 115.5090141 115.2582164  90.4943847 116.2080090 115.1646641
  91.9116947 115.9426285 115.6258412  90.7116550 132.4730666 102.4303058
  90.8868306 132.0018710 103.2448681  90.0249338 133.0996433 102.6584319
  91.6673613 126.7503173 108.4766359  91.3323446 126.7103943 109.3724009
  91.1677559 126.0847889 108.0036769  85.6417857 122.1570803 114.0018940
  85.5037655 121.4251042 114.6030479  86.5522781 122.0679703 113.7203128
  94.6032805 124.0959207  98.7503419  93.9861976 123.3706035  98.6536472
  94.1349293 124.8568567  98.4070493  88.2700158 121.8690762 113.4902620
  88.9799776 121.2283954 113.4489238  88.2269466 122.1203657 114.4128801
  86.9829092 118.8555980 115.3098260  86.4466449 118.4046718 115.9619856
  86.3945800 118.9901889 114.5668724  82.7168213 117.9911988 112.3951254
  82.6326402 117.3837657 111.6601664  81.8950920 118.4821006 112.3960750
  89.5795277 130.6670922 105.1187244  88.7962799 131.2092602 105.2125468
  90.2788022 131.1844901 105.5181485  92.8891927 116.4765551 107.7621449
  93.3860627 115.7235513 107.4422519  92.1178909 116.5129868 107.1964658
  93.9721708 125.2337238 105.3359872  93.0377986 125.3538701 105.1664577
  94.1498376 124.3309705 105.0719882  89.4726896 118.6182934 107.4893134
  89.1024683 118.0653975 108.1774039  89.9685988 118.0141068 106.9368134
  97.3594259 121.0754558 105.8709907  97.8254711 121.9082549 105.7970209
  97.8101760 120.6099539 106.5755165  95.4270490 127.4198379 102.8696059
  95.7030334 127.3054974 103.7789933  94.5574989 127.0215864 102.8308232
  95.3310922 113.4435145 109.9100808  94.4174002 113.6739372 110.0783015
  95.7604023 113.5273589 110.7614840  92.0624554 131.6684730 106.5128872
  92.2446949 130.8506386 106.9756625  92.8857540 131.8852422 106.0753762
  92.3966720 130.5952915 103.7743921  92.9254486 130.0845370 103.1614083
  92.6594939 130.2795445 104.6389454  82.8983812 128.6116784 111.5179254
  83.4837249 127.8660472 111.6507159  82.7008651 128.9220741 112.4015918
  85.7522468 131.6468032 106.5341697  85.0832843 132.1314159 106.0505737
  85.6135337 131.8937252 107.4485075  77.4901467 121.1822384 110.2383697
  77.5285567 120.6485975 111.0320816  76.9841760 120.6557590 109.6194675
  84.8692229 116.0286925 113.7346240  84.9333556 116.8901756 113.3223637
  84.8059350 115.4160927 113.0018598  84.3444502 118.1010057 117.3819274
  84.9716541 117.7187135 117.9956798  83.4872421 117.8824259 117.7474967
  87.4530605 115.3196910 115.5705829  87.9765007 115.5659206 116.3332139
  87.2342939 116.1516944 115.1508967  92.0977465 129.2255487 107.9471940
  91.9502428 128.2972194 108.1279510  92.9230959 129.2475578 107.4629015
  85.9639709 117.8773554 103.8052432  86.3035782 118.4059475 103.0831040
  86.4111830 118.2153960 104.5810998  88.6583150 116.2610605 113.2555500
  88.3179971 115.4618418 113.6576180  87.9522157 116.5612316 112.6832333
  89.3099622 113.3459917 111.7082823  90.1325691 112.8720395 111.5861713
  89.5537686 114.1250401 112.2081509  92.0938979 117.0793325 102.9404057
  92.3102594 117.9617962 102.6392885  91.6133047 116.6879538 102.2109699
  86.8338201 120.0379038 109.5174801  86.6882782 120.3519341 110.4099083
  86.3563404 120.6563938 108.9645700  88.6934584 117.0281586 109.5655691
  88.6796152 116.1322679 109.2287989  89.4107012 117.0352250 110.1993977
  90.5460714 117.4618926 111.6108818  90.2878492 118.3835997 111.6093149
  90.0145755 117.0649361 112.3009282  95.4906903 130.5669713 104.3898904
  95.6643781 130.0016136 103.6372756  95.9835794 131.3670608 104.2078394
  88.0971480 115.9095966 104.8343261  88.2187391 114.9812612 105.0334149
  87.8073522 115.9234652 103.9221576  90.9662670 113.5950877 107.9709981
  90.9884367 113.6590210 107.0161960  91.3830729 112.7555385 108.1650487
 101.3446294 123.3306136 106.0089203 101.7877440 122.5813461 105.6108327
 100.4672805 123.3216272 105.6262935  96.4782076 129.8836478 101.4895802
  97.1732980 130.5043170 101.7083117  96.8205226 129.0331829 101.7648180
  82.0949885 121.7054278 115.3492619  81.3531621 121.8536914 115.9357250
  81.7742629 121.9662544 114.4859369  98.3773499 127.3336183 103.0183133
  98.9024823 127.6723456 102.2932453  98.2895851 126.3983198 102.8346267
  87.5088032 128.9446175 109.4500688  86.8868041 128.2816880 109.1502916
  88.1792899 128.9707307 108.7674335  87.0701539 127.4950099 102.9259148
  87.2189659 128.1785563 102.2725821  87.8767982 127.4755189 103.4408604
  92.5150881 114.3938953 113.3144973  93.0332825 115.1299980 112.9891461
  92.1606014 114.7002946 114.1491732  92.7663476 110.8139235 108.8345869
  93.0465229 110.1462424 109.4606296  93.5514083 111.0068331 108.3220533
  90.5696944 129.9898229 100.3970896  89.9970911 130.6088416  99.9441367
  91.1429738 130.5397591 100.9310818  94.6586713 116.3212453 112.7676845
  94.0636646 116.6017465 112.0723334  94.3736410 116.8106353 113.5393586
  93.7894204 130.2735379 101.5279478  94.7224877 130.2080941 101.7312353
  93.7017417 131.1091646 101.0694011  96.4182221 129.5901250  98.4883425
  96.3395852 129.2561113  99.3819183  97.2391887 130.0823018  98.4874898
  90.9543743 121.3259042  97.7386948  91.9002847 121.1965250  97.8075366
  90.5757988 120.5873704  98.2156376  96.9265627 112.9915048 107.7013840
  96.7290448 112.6830136 108.5857172  97.5365333 113.7176687 107.8311770
  90.7548726 113.7945908 103.8286075  89.9449454 113.4492993 104.2041321
  91.4433142 113.4853452 104.4173686  92.6839274 112.8723955 105.4510371
  93.2370312 113.2919408 106.1100394  92.9209360 111.9459703 105.4933327
  96.0618081 114.9824480 104.9589036  95.4816750 115.6409284 104.5767088
  95.7954014 114.1601825 104.5476453  94.5121647 114.3829538 107.1610356
  95.0121426 114.4946072 106.3524675  95.1557255 114.0790591 107.8011164
  84.4976981 126.1812702 112.0846631  85.4520234 126.1496644 112.0176562
  84.2989504 125.7203326 112.8996857  94.8442959 117.1424570 104.0145384
  93.9568814 117.4274221 103.7965579  95.2596948 116.9818334 103.1672661
  98.1957495 117.1671091 107.7299723  98.9717885 117.6567544 108.0024340
  97.4705629 117.5929146 108.1871593 100.6330054 117.8798711 108.7873664
 101.2274544 117.6394447 108.0766972 100.7056637 117.1605841 109.4147200
  82.8527209 131.7232322 109.1016828  82.7181677 130.9632722 108.5354827
  82.4359272 132.4473221 108.6345617  93.9886172 126.9069245  98.1093404
  94.6922023 127.1119248  98.7251059  93.2648821 127.4746007  98.3742487
  94.8183983 122.6579106 104.2295674  94.7619184 123.1147658 103.3903306
  95.3712325 121.8969791 104.0518517  98.6288789 118.4468838 105.0545793
  98.3725723 118.0465474 105.8854001  98.0041657 119.1612632 104.9295933
 102.9401126 121.1864911 107.5617085 102.3800684 121.2558101 108.3348647
 102.3344630 121.0105896 106.8416581  95.8972870 127.3451774 100.1591864
  96.7318474 126.9132973  99.9769339  95.7357213 127.1733788 101.0868758
  95.5518762 123.8483888 101.5248203  95.4967566 123.6828159 100.5836647
  94.9264817 124.5559921 101.6810393  80.3411277 119.0851952 115.3509625
  80.9870141 118.5750906 115.8396851  80.1328428 119.8220634 115.9253051
  92.6767007 109.9434773 105.3579458  91.9099403 109.3893260 105.5036141
  93.0877712 110.0156642 106.2193610  99.0355131 136.5837101  99.5225505
  99.2880651 136.0618622  98.7608968  98.0979690 136.4203246  99.6252189
 100.7388447 132.9765254 100.4257918 100.9062850 133.8445490 100.7928389
 100.5485616 133.1392535  99.5019207  97.3586725 133.7989322 100.6726816
  96.5224037 134.1364008 100.9936091  97.2191495 133.6638301  99.7353953
  99.3339806 128.6426109 105.3806001  98.6804218 128.3275127 104.7562615
  99.2920280 128.0201850 106.1065824 100.4451011 138.9245405  97.2959293
  99.5378072 138.6934658  97.4950442 100.9422043 138.1283024  97.4833274
  94.6873640 136.2727547 103.4839437  93.7571228 136.2112003 103.7009399
  94.7831112 135.7503500 102.6876078  97.2325105 133.6436549  97.8724723
  96.3554572 133.5225350  97.5086970  97.7082858 132.8522627  97.6203612
  91.9603799 135.2378404 103.3137629  92.2557240 134.3289083 103.2604683
  91.0591835 135.2166144 102.9918631  93.6891641 132.9192502 103.4376954
  93.3604347 132.0389881 103.2552060  94.0431011 132.8640171 104.3253343
  98.7901611 131.7040093 102.0045724  99.5109974 132.0821346 101.5009441
  98.1666915 132.4228970 102.1080702  98.9365234 131.2387884 104.8343261
  99.0581145 130.3104530 105.0334149  98.6467277 131.2526570 103.9221576
  94.9343574 134.5835552 101.4306379  94.2412819 134.6579907 100.7746415
  94.6895326 133.8195895 101.9527895 101.7937497 136.6550960  97.7386948
 102.7396602 136.5257168  97.8075366 101.4151742 135.9165622  98.2156376
  99.9780414 134.5800936  97.6741833  99.0711870 134.2834049  97.7504547
 100.2556395 134.2830754  96.8076120 101.5942480 129.1237826 103.8286075
 100.7843208 128.7784911 104.2041321 102.2826897 128.8145369 104.4173686
  98.7479199 131.4387871  97.8153813  99.6098363 131.7642770  98.0749630
  98.9329543 130.6519367  97.3026878  99.7008642 128.6783914 101.1033522
  99.6887312 129.6225754 101.2601792 100.5932064 128.4954060 100.8092983
 103.5160761 125.2726691 105.3579458 102.7493157 124.7185178 105.5036141
 103.9271466 125.3448560 106.2193610  28.6500865   7.5640124  96.9792347
  29.2879275   7.4446872  96.2755687  28.5321708   8.5120968  97.0380299
  25.4590571   7.5167552  96.9153872  25.1209083   7.4008617  96.0274407
  26.3280339   7.1158717  96.8954878  21.3177387   9.3703029  92.9050763
  20.7542252   9.2792966  92.1367051  21.2029782   8.5502933  93.3853255
  18.8641819  10.8654220  95.7434983  19.6563111  10.5245045  95.3281283
  19.1038469  10.9749195  96.6637137  26.8976945  13.0373996  88.2165228
  26.2464925  13.6228077  87.8299242  27.6921308  13.5680191  88.2760265
  20.8232573  10.1263134  88.6152362  21.5963449   9.5792121  88.4765238
  21.1757971  10.9907383  88.8266824  23.5873822   8.8316364  98.4120621
  24.1837394   8.6072387  97.6977584  23.6448794   8.0901110  99.0146069
  23.1598850   6.2855800  86.2470812  23.4124371   5.7637321  85.4854275
  22.2223409   6.1221945  86.3497496  28.2042133   5.2891578  94.0545555
  28.9905222   4.8711001  93.7035972  28.4680838   6.1937670  94.2227204
  28.3752211  10.7264428  88.7534212  27.7398044  10.7999055  89.4655117
  28.0449617  11.3158027  88.0753291  33.6050560   5.2266811  94.9578534
  34.3375732   4.6566028  95.1916363  32.8489916   4.8388412  95.3985039
  22.8795139   8.1883906  88.4495187  22.7631397   7.5128809  89.1176271
  22.9897399   7.7016280  87.6327340  25.2226680   7.6494053  92.1541876
  24.8584887   7.1224674  92.8654798  26.0793796   7.2592522  91.9808362
  27.6207500  11.1400931  98.8169055  27.3208223  12.0425970  98.7084862
  27.2758560  10.8733115  99.6690208  21.0719982   7.5914728  94.8505760
  20.1470478   7.4590942  95.0583451  21.3204395   8.3708948  95.3475702
  31.0204644   3.6583472  96.4966492  30.1121521   3.5898880  96.2025253
  30.9692240   4.1355417  97.3248318  24.8421388   5.1341610  88.1349892
  24.7221013   5.5798661  88.9735372  24.1473976   5.4826928  87.5763430
  22.6028280  17.9045252  91.7840023  22.5252310  18.8553077  91.8628503
  21.9989924  17.5591124  92.4414949  32.8866290   1.8599910  98.2744366
  32.2440671   2.1532443  97.6284161  32.3821219   1.7452830  99.0797563
  30.5406454   5.6063083  88.9630226  31.4524310   5.8390470  88.7877923
  30.0316101   6.1900127  88.4005304  29.1476036  10.5888902  96.3543807
  28.5184899  10.7534616  95.6519875  28.7601698  11.0030511  97.1254771
  33.0265268  11.5243340  93.7088171  32.3416306  11.9042241  93.1585204
  33.1109118  12.1338666  94.4420119  30.2816200   9.1703299 100.3083514
  30.4933095   9.8135058  99.6317895  30.2345948   8.3365615  99.8405444
  24.7003998  10.3263310  93.6193892  25.1642344  10.6051013  92.8298515
  24.4360796   9.4246754  93.4366983  21.5928079   9.8734791  96.5573655
  22.1629436  10.3022060  95.9191140  22.1836191   9.5917376  97.2557841
  23.6372884   6.4486462  90.4283457  24.3396928   6.9007506  90.8957384
  23.3053513   5.8070281  91.0563350  31.3962028  12.0475254  98.4805872
  32.2179472  11.6455441  98.1988553  31.3924431  11.9443488  99.4321987
  25.1618631  11.5959297 100.6366582  25.2263064  12.0579704 101.4724754
  24.4529555  10.9656662 100.7648892  39.4868021   8.3914002  94.8290843
  38.7331729   7.8221401  94.6734848  39.6215562   8.3576667  95.7761478
  24.8766649  13.2627405  90.5045563  24.7412324  14.1078940  90.9330410
  25.4176461  13.4646682  89.7411496  18.3296046  10.7802843  91.0773488
  18.8420567  11.5746093  91.2279052  18.9818759  10.0829133  91.0107089
  20.1390931  13.8968599  93.1596241  20.3157559  14.8186564  92.9717225
  20.9347765  13.5827018  93.5890621  21.2622246  15.4146773  99.1606583
  21.8129672  15.2863836  98.3883577  20.4233722  15.7141662  98.8101476
  28.6016363  14.1653771 102.6627306  28.5834839  14.9862652 102.1707575
  29.5236283  14.0407846 102.8877447  28.1909395   6.7766578  87.5416891
  27.6756019   7.5471182  87.7805279  27.9186704   6.1031714  88.1649953
  33.1643669   9.5298932  89.4770065  32.3873112   9.1910092  89.0325227
  33.8435150   9.5351556  88.8025030  27.9795698   4.6493670  89.3676672
  27.6745834   4.9639819  90.2186815  28.9326141   4.7275090  89.4104005
  26.4242130  10.8083893  91.0169626  25.8963492  10.0736653  90.7042864
  25.9229633  11.5858569  90.7709595  31.4034976   9.0032914  96.1336673
  30.7458651   9.6932175  96.2216801  32.2075375   9.3929346  96.4770659
  30.2140435   7.3577286  94.1840614  30.7272317   7.9907278  94.6862324
  30.8641659   6.7578482  93.8183974  24.5694730   8.6264103  84.0204599
  23.6621792   8.3953357  84.2195748  25.0665762   7.8301723  84.2078581
  27.4762809  17.3361611  86.9401285  26.8024508  17.6393307  87.5486243
  27.8628631  18.1390691  86.5906743  26.6921266   4.8326742  96.4298955
  25.7743827   5.0541689  96.2720643  27.1081410   4.9073052  95.5710662
  27.4756314   6.2318158  91.5601635  28.2228133   6.7439555  91.2508757
  27.7447903   5.9102210  92.4206029  25.7482964   8.7276698  88.5428589
  24.8394183   8.4435731  88.6401059  25.7778048   9.1475777  87.6831896
  30.9802231  12.3383288  92.3119757  30.5264558  11.4974198  92.3684947
  30.3496198  12.9744686  92.6494537  29.9235151   3.2675274  93.5420424
  29.1857908   2.7552660  93.8730667  30.1761924   2.8275655  92.7303701
  29.4235171  14.1759784  93.2469575  29.7158145  14.7364842  92.5281941
  29.9333791  14.4688345  94.0022734  24.2967858   6.3405319  94.6438385
  24.3516468   5.3879155  94.5680861  23.4859060   6.4964758  95.1279683
  25.4459052  10.2685442  85.8816668  25.0078482   9.5521301  85.4222305
  26.1869493  10.4961557  85.3201759  24.3868796  14.9540136  94.3363028
  24.3444974  15.1800982  93.4071560  25.3031495  14.7203510  94.4848829
  33.5632166   8.5442639  91.9392987  33.4250065   8.7344235  91.0114176
  33.2068385   9.3062022  92.3961038  33.5901546  10.6119166  96.9504258
  34.0238053  10.5194455  97.7987312  34.3033127  10.5876666  96.3124274
  22.5034596  11.8303165  94.1324991  23.2975195  11.3353485  93.9307566
  21.7926289  11.3021028  93.7692697  27.3229441  14.2121260  98.4837359
  27.3766463  14.7812196  99.2515075  26.4544222  14.3823145  98.1191396
  34.4517096  10.6542867  99.4837143  34.6452986  11.5588677  99.7296418
  34.3517714  10.1950286 100.3175728  26.2817541   8.3781522 100.0424290
  27.2109601   8.5292682  99.8693258  25.8608571   8.4665543  99.1872937
  25.0805872  12.4032187  97.8122828  24.9416958  12.0350971  98.6848766
  24.2920469  12.9179826  97.6406786  25.6754024  17.5041283  89.1548365
  25.8505780  17.0329326  89.9693987  24.9886812  18.1307049  89.3829625
  26.6311088  11.7813789  95.2011666  26.2960920  11.7414559  96.0969316
  26.1315033  11.1158505  94.7282076  29.5670279   9.1269824  85.4748726
  28.9499450   8.4016652  85.3781778  29.0986768   9.8879184  85.1315800
  31.2224411  13.8368732 103.1354506  31.1636957  13.1527952 102.4685089
  31.6243929  14.5787722 102.6835132  20.2415110  20.6530646  95.9288225
  20.4811708  21.2849170  96.6067243  19.3984306  20.3018686  96.2153584
  31.2241818  11.8008316 101.3668486  30.3368597  11.4634238 101.4894884
  31.7940369  11.0691347 101.6037251  24.7542972  16.4609768  98.3329729
  24.6813143  17.2664740  98.8449033  24.3120365  16.6601734  97.5077750
  24.5432751  15.6981538  91.8432550  23.7600273  16.2403218  91.9370775
  25.2425496  16.2155518  92.2426792  35.7059159   7.2116533  96.1285047
  35.6949035   8.0941249  95.7578980  34.8376538   6.8588084  95.9339584
  27.2141655  16.3596602 100.4887887  27.9269627  16.9944067 100.4163789
  26.7231684  16.4560468  99.6727889  28.9359182  10.2647855  92.0605179
  28.0015461  10.3849317  91.8909883  29.1135850   9.3620322  91.7965189
  32.3231733   6.1065174  92.5955213  32.7892186   6.9393166  92.5215516
  32.7739234   5.6410156  93.3000472  22.2653569  14.1091046 101.3093458
  22.9663028  14.7427529 101.4622852  21.7948684  14.4505777 100.5489098
  30.3907964  12.4508996  89.5941365  30.6667808  12.3365590  90.5035239
  29.5212463  12.0526480  89.5553538  30.0654855   6.6635653  99.1346009
  29.4126305   6.9111561  98.4798461  30.4435235   5.8499791  98.8008486
  27.0262028  16.6995346  93.2374179  27.2084423  15.8817002  93.7001931
  27.8495015  16.9163039  92.7999069  27.3604194  15.6263531  90.4989227
  27.8891960  15.1155986  89.8859390  27.6232414  15.3106062  91.3634760
  17.8621287  13.6427401  98.2424561  18.4474724  12.8971089  98.3752465
  17.6646125  13.9531357  99.1261225  20.7159942  16.6778648  93.2587003
  20.0470317  17.1624776  92.7751043  20.5772812  16.9247869  94.1730382
  24.8565211  18.7122392  99.8569662  25.4083519  18.8754013 100.6218747
  25.1971404  19.3026829  99.1849687  27.9933598  16.6604367  96.8433344
  27.8684737  15.8594107  96.3344289  28.6512689  17.1550561  96.3547314
  30.0568506  14.4613387  98.4712894  29.1098842  14.3418738  98.3991221
  30.4051279  13.5735885  98.5539155  27.0614939  14.2566104  94.6717246
  26.9139902  13.3282811  94.8524816  27.8868433  14.2786194  94.1874321
  30.6649061  15.0794662  95.7582119  31.5895609  14.8737524  95.6206570
  30.4964365  14.8311063  96.6671460  30.4544378  15.5980330  91.1144210
  30.6281255  15.0326752  90.3618063  30.9473269  16.3981225  90.9323700
  36.3083769   8.3616753  92.7334510  36.7514915   7.6124078  92.3353633
  35.4310279   8.3526889  92.3508242  31.4419550  14.9147094  88.2141109
  32.1370455  15.5353787  88.4328423  31.7842700  14.0642445  88.4893487
  33.3410973  12.3646800  89.7428439  33.8662297  12.7034072  89.0177759
  33.2533326  11.4293815  89.5591574  25.0031022  16.2780873 101.8718316
  25.3118148  16.0330020 102.7441016  25.8006504  16.4827512 101.3837186
  25.0251634  18.4318783  94.1023693  24.5856624  17.9395162  94.7956549
  25.7759751  17.8891751  93.8615768  17.5043973  14.6230324  94.1048321
  18.3301993  14.3234096  93.7246964  17.1538025  13.8537946  94.5538109
  22.4725506  13.9756792  96.1745994  21.8505515  13.3127497  95.8748222
  23.1430373  14.0017924  95.4919642  15.7052578  12.5416650  95.0637254
  14.8684486  12.1138825  94.8821256  15.6776223  12.7349094  96.0008045
  33.0304879  12.9979703 105.0479637  32.2400423  12.9803842 104.5084137
  32.7938234  13.5367997 105.8028674  33.1502754   9.8472170 102.3612366
  33.2000759   9.6822177 103.3027889  33.0416678   8.9799429 101.9710247
  22.0339013  12.5260715  89.6504455  22.1827133  13.2096180  88.9971128
  22.8405456  12.5065805  90.1653911  34.6520951  12.2669111 102.6054387
  34.3605759  12.6299092 103.4417848  34.0393082  11.5536119 102.4267720
  35.8516633   9.8321991  95.1256958  36.6863525  10.2711795  95.2894518
  35.9875762   9.3560644  94.3065203  32.9008139   7.3901726 101.0734445
  33.3762261   7.5829372 100.2653297  31.9773705   7.4460912 100.8277829
  19.7891646   8.5525893  90.6565524  19.5437688   7.6488223  90.8545734
  19.9587560   8.5543043  89.7145002  25.5334418  15.0208846  87.1216202
  24.9608386  15.6399033  86.6686674  26.1067212  15.5708207  87.6556124
  31.6009808   4.2667486  99.3062751  32.5527231   4.3665584  99.3274975
  31.4313259   3.4745754  99.8160835  28.7531678  15.3045996  88.2524785
  29.6862351  15.2391558  88.4557660  28.6654891  16.1402263  87.7939317
  31.3819695  14.6211866  85.2128732  31.3033326  14.2871730  86.1064490
  32.2029362  15.1133634  85.2120204  34.0797886   7.4873606  98.4205051
  34.0474206   6.5489606  98.6064735  34.6898510   7.5657642  97.6870876
  25.9181217   6.3569659  84.4632255  26.8640322   6.2275867  84.5320673
  25.5395462   5.6184320  84.9401683  34.2292375   4.2784649  98.4663334
  33.7131423   3.4943106  98.2793263  35.1132323   3.9503366  98.6309853
  39.8974436   8.5489612  97.5611088  40.6277824   8.2874901  98.1218791
  39.2881381   7.8118334  97.6013155  37.9789733   6.6897475  98.1585539
  37.2522897   6.5553440  97.5502030  37.5637020   6.9974304  98.9642257
  31.0255555   0.0135097  91.6834342  30.4454224   0.6719901  91.3012395
  30.7591488  -0.8087559  91.2721760  16.8027077   9.1547164  94.6945323
  16.7797765   9.2534851  93.7427206  17.1127714  10.0012314  95.0162489
  29.8080433   2.1735187  90.7390690  28.9206288   2.4584838  90.5210885
  30.2234422   2.0128950  89.8917967  33.1594969   2.1981708  94.4545030
  33.9355359   2.6878160  94.7269646  32.4343104   2.6239762  94.9116899
  35.5967528   2.9109327  95.5118970  36.1912019   2.6705063  94.8012279
  35.6694112   2.1916458  96.1392507  17.8164684  16.7542938  95.8262135
  17.6819152  15.9943339  95.2600133  17.3996746  17.4783838  95.3590924
  28.9523647  11.9379862  84.8338710  29.6559497  12.1429864  85.4496366
  28.2286295  12.5056624  85.0987794  29.7821457   7.6889723  90.9540981
  29.7256658   8.1458274  90.1148613  30.3349799   6.9280408  90.7763823
  33.5926263   3.4779455  91.7791100  33.3363197   3.0776090  92.6099308
  32.9679131   4.1923249  91.6541239  37.9038601   6.2175528  94.2862391
  37.3438159   6.2868717  95.0593954  37.2982104   6.0416513  93.5661888
  20.9733810  17.6512255  96.0380578  20.8566194  18.5957688  95.9359268
  20.1526256  17.3485817  96.4266377  30.8610344  12.3762391  86.8837170
  31.6955948  11.9443589  86.7014645  30.6994687  12.2044405  87.8114065
  30.5156236   8.8794504  88.2493510  30.4605040   8.7138776  87.3081954
  29.8902292   9.5870537  88.4055699  21.9988324  18.3040517  99.2536506
  22.9015570  18.3364127  99.5703001  21.7725694  17.3740968  99.2682842
  23.7541926  17.0571504  95.9146585  22.8037557  17.0573365  95.8010957
  24.0574412  16.3104238  95.3982619  39.4894619  22.8932042  96.9792347
  40.1273029  22.7738789  96.2755687  39.3715462  23.8412886  97.0380299
  36.2984325  22.8459470  96.9153872  35.9602837  22.7300535  96.0274407
  37.1674094  22.4450635  96.8954878  32.1571141  24.6994946  92.9050763
  31.5936006  24.6084883  92.1367051  32.0423536  23.8794851  93.3853255
  36.7804108  23.9994322 102.8740077  36.7692749  23.6047120 102.0020581
  36.9424748  23.2660394 103.4673849  29.7035573  26.1946138  95.7434983
  30.4956865  25.8536963  95.3281283  29.9432223  26.3041113  96.6637137
  37.7370700  28.3665914  88.2165228  37.0858680  28.9519995  87.8299242
  38.5315063  28.8972109  88.2760265  31.6626327  25.4555051  88.6152362
  32.4357203  24.9084038  88.4765238  32.0151726  26.3199301  88.8266824
  33.5011370  26.7831434 101.8219261  33.2101236  27.6877064 101.7065928
  34.1368354  26.8247961 102.5363331  34.4267576  24.1608282  98.4120621
  35.0231149  23.9364305  97.6977584  34.4842548  23.4193028  99.0146069
  33.9992605  21.6147717  86.2470812  34.2518126  21.0929239  85.4854275
  33.0617164  21.4513863  86.3497496  39.0435888  20.6183496  94.0545555
  39.8298977  20.2002919  93.7035972  39.3074592  21.5229588  94.2227204
  39.2145965  26.0556346  88.7534212  38.5791798  26.1290973  89.4655117
  38.8843371  26.6449945  88.0753291  44.4444315  20.5558729  94.9578534
  45.1769487  19.9857946  95.1916363  43.6883671  20.1680329  95.3985039
  33.7188894  23.5175823  88.4495187  33.6025152  22.8420727  89.1176271
  33.8291154  23.0308197  87.6327340  36.0620435  22.9785971  92.1541876
  35.6978642  22.4516591  92.8654798  36.9187550  22.5884440  91.9808362
  41.9669735  14.2680303  99.4173142  41.6353060  15.1375714  99.1934357
  41.3715349  13.9516587 100.0967173  35.7025922  18.0075870  87.1503225
  35.8700324  18.8756107  87.5173696  35.5123091  18.1703152  86.2264514
  38.4601255  26.4692849  98.8169055  38.1601978  27.3717888  98.7084862
  38.1152314  26.2025032  99.6690208  31.9113736  22.9206646  94.8505760
  30.9864233  22.7882860  95.0583451  32.1598149  23.7000865  95.3475702
  41.8598399  18.9875389  96.4966492  40.9515276  18.9190798  96.2025253
  41.8085994  19.4647334  97.3248318  35.6815142  20.4633528  88.1349892
  35.5614768  20.9090578  88.9735372  34.9867731  20.8118845  87.5763430
  29.2722547  22.5639919  95.6849549  29.4014928  22.8174398  96.5988960
  28.5919999  23.1567627  95.3654204  33.4422035  33.2337169  91.7840023
  33.3646064  34.1844995  91.8628503  32.8383678  32.8883042  92.4414949
  35.9339264  20.4065035 104.4401390  35.1572598  20.9658955 104.4304254
  36.5729827  20.8921818 104.9616260  43.7260045  17.1891828  98.2744366
  43.0834425  17.4824361  97.6284161  43.2214973  17.0744748  99.0797563
  41.3800209  20.9355001  88.9630226  42.2918065  21.1682388  88.7877923
  40.8709856  21.5192045  88.4005304  34.1885637  23.2150488 104.0019357
  34.9300321  23.7535532 103.7254180  33.4822622  23.8416777 104.1590908
  39.6640976  25.3579629 102.5991518  40.0724332  24.9162039 101.8546151
  38.9418238  24.7832256 102.8525711  36.0172046  20.2952235  99.9725075
  36.8633241  20.7191649 100.1159724  35.9570684  19.6385860 100.6663638
  39.9869791  25.9180819  96.3543807  39.3578653  26.0826533  95.6519875
  39.5995453  26.3322429  97.1254771  43.8659023  26.8535257  93.7088171
  43.1810061  27.2334159  93.1585204  43.9502872  27.4630584  94.4420119
  39.1671492  17.9556604 101.6306249  38.9232423  18.7098664 101.0940524
  39.4431422  18.3341951 102.4653496  41.1209954  24.4995216 100.3083514
  41.3326850  25.1426976  99.6317895  41.0739703  23.6657533  99.8405444
  38.7236183  17.1113037  97.2120086  37.8620662  17.4094290  97.5036824
  38.7498618  17.3283436  96.2801119  35.5397753  25.6555227  93.6193892
  36.0036098  25.9342930  92.8298515  35.2754551  24.7538672  93.4366983
  32.4321834  25.2026709  96.5573655  33.0023191  25.6313977  95.9191140
  33.0229946  24.9209294  97.2557841  34.4766639  21.7778380  90.4283457
  35.1790682  22.2299423  90.8957384  34.1447267  21.1362199  91.0563350
  32.9247000  20.3690136 104.8034667  32.2945661  21.0506417 105.0370064
  32.8183088  20.2573218 103.8587805  28.2191973  20.0361932  95.7300591
  27.4291027  20.2919461  95.2540701  28.7103220  20.8510270  95.8352631
  42.2355782  27.3767172  98.4805872  43.0573226  26.9747359  98.1988553
  42.2318185  27.2735406  99.4321987  30.1706718  20.4006512  92.6884068
  29.3737881  20.5125206  93.2067563  29.9432310  20.7393164  91.8224958
  36.0012386  26.9251215 100.6366582  36.0656818  27.3871622 101.4724754
  35.2923310  26.2948580 100.7648892  26.5029676  20.2892423  98.1615582
  26.7537714  21.1739433  98.4273158  27.0389224  20.1097024  97.3890673
  50.3261775  23.7205920  94.8290843  49.5725484  23.1513318  94.6734848
  50.4609317  23.6868585  95.7761478  35.7160403  28.5919322  90.5045563
  35.5806078  29.4370858  90.9330410  36.2570216  28.7938600  89.7411496
  29.1689801  26.1094760  91.0773488  29.6814321  26.9038011  91.2279052
  29.8212514  25.4121051  91.0107089  30.9784686  29.2260517  93.1596241
  31.1551314  30.1478481  92.9717225  31.7741519  28.9118936  93.5890621
  35.1195704  16.0868781 104.7580174  35.8605417  16.6875934 104.6784637
  35.3513627  15.3446419 104.1998217  30.2637042  21.2725149 103.0358404
  30.1490557  20.3710406 103.3365503  29.4081560  21.5188845 102.6843221
  37.3428880  29.2142889 104.6345905  36.8992734  28.4279267 104.3166809
  38.0046093  29.4022039 103.9689795  32.1016001  30.7438691  99.1606583
  32.6523426  30.6155754  98.3883577  31.2627477  31.0433580  98.8101476
  39.4410118  29.4945689 102.6627306  39.4228593  30.3154570 102.1707575
  40.3630038  29.3699764 102.8877447  35.8983172  27.0089818 103.5050814
  36.4311509  26.2478107 103.2750122  35.3697253  26.7163470 104.2474969
  39.0652867  12.1149884  99.0344456  38.7217136  13.0051526  98.9583567
  39.4331830  11.9251542  98.1714041  27.1338718  24.4383415  91.8533058
  27.9713940  24.8480423  91.6366766  27.3116985  23.4982857  91.8233252
  39.0303150  22.1058495  87.5416891  38.5149773  22.8763100  87.7805279
  38.7580458  21.4323632  88.1649953  36.6150261  16.9508196  92.6002129
  35.7591857  16.5615047  92.4207768  37.0277213  17.0300157  91.7401915
  38.1449407  14.4854539  96.9993689  37.6414203  14.4484675  96.1861495
  38.4380014  15.3947282  97.0590346  34.3892293  14.5693269  96.0059871
  35.2545290  14.3736078  95.6465760  34.4569802  14.3403621  96.9329228
  44.0037424  24.8590850  89.4770065  43.2266867  24.5202010  89.0325227
  44.6828905  24.8643473  88.8025030  38.8189453  19.9785587  89.3676672
  38.5139588  20.2931737  90.2186815  39.7719895  20.0567007  89.4104005
  37.2635885  26.1375811  91.0169626  36.7357246  25.4028570  90.7042864
  36.7623387  26.9150487  90.7709595  42.2428731  24.3324831  96.1336673
  41.5852405  25.0224093  96.2216801  43.0469130  24.7221263  96.4770659
  31.9954612  16.7995477  93.3776238  32.5698364  16.5770659  92.6449431
  32.5825595  16.8684172  94.1304839  41.0534190  22.6869204  94.1840614
  41.5666071  23.3199196  94.6862324  41.7035413  22.0870400  93.8183974
  32.3224199  18.8299938  87.3972123  31.4861512  19.1674625  87.7181398
  32.1828969  18.6948918  86.4599260  34.2977280  13.6736726  92.1051307
  33.6441692  13.3585743  91.4807922  34.2557754  13.0512466  92.8311130
  35.4088485  23.9556021  84.0204599  34.5015547  23.7245275  84.2195748
  35.9059517  23.1593640  84.2078581  38.3156564  32.6653528  86.9401285
  37.6418263  32.9685225  87.5486243  38.7022386  33.4682609  86.5906743
  37.5315020  20.1618660  96.4298955  36.6137582  20.3833607  96.2720643
  37.9475164  20.2364970  95.5710662  38.3150068  21.5610075  91.5601635
  39.0621887  22.0731472  91.2508757  38.5841658  21.2394128  92.4206029
  36.5876718  24.0568616  88.5428589  35.6787938  23.7727649  88.6401059
  36.6171802  24.4767695  87.6831896  41.8195986  27.6675205  92.3119757
  41.3658313  26.8266115  92.3684947  41.1889952  28.3036604  92.6494537
  40.7628905  18.5967191  93.5420424  40.0251662  18.0844578  93.8730667
  41.0155679  18.1567573  92.7303701  40.2628925  29.5051702  93.2469575
  40.5551899  30.0656759  92.5281941  40.7727546  29.7980263  94.0022734
  40.8640533  11.3743443  94.1362194  41.1699409  10.5140807  93.8488109
  41.5893137  11.9661064  93.9361188  27.1564889  21.7774130  92.5243792
  26.9589289  21.1843491  91.7994858  26.6011553  21.4726340  93.2419730
  35.1361612  21.6697237  94.6438385  35.1910222  20.7171073  94.5680861
  34.3252814  21.8256676  95.1279683  36.2852806  25.5977360  85.8816668
  35.8472236  24.8813219  85.4222305  37.0263247  25.8253474  85.3201759
  33.0753972  20.2874296  92.4028764  32.2621838  20.5868467  92.8093956
  33.5712966  19.8929985  93.1203246  35.2262550  30.2832053  94.3363028
  35.1838729  30.5092900  93.4071560  36.1425249  30.0495428  94.4848829
  38.6728184  20.7516121 101.2343658  39.0277572  20.9787594 102.0938123
  39.3200315  21.0834498 100.6120913  44.4025921  23.8734557  91.9392987
  44.2643820  24.0636153  91.0114176  44.0462140  24.6353939  92.3961038
  32.5668047  17.8592652  98.0189999  33.2067426  17.7181411  97.3212962
  31.7345578  17.5727165  97.6428601  44.4295301  25.9411084  96.9504258
  44.8631807  25.8486373  97.7987312  45.1426881  25.9168584  96.3124274
  33.3428351  27.1595082  94.1324991  34.1368949  26.6645402  93.9307566
  32.6320043  26.6312945  93.7692697  38.1623195  29.5413178  98.4837359
  38.2160218  30.1104114  99.2515075  37.2937977  29.7115063  98.1191396
  29.6511114  21.3038164  90.2084744  28.7208703  21.2422619  90.4254706
  29.7468586  20.7814117  89.4121385  29.5696663  17.8292977  92.7962985
  29.8303481  18.7438310  92.6872146  30.3913836  17.3617419  92.9459598
  31.0421589  19.2430734  99.9661810  31.7144642  19.0348096  99.3174459
  30.2151375  19.0452820  99.5267042  45.2910850  25.9834784  99.4837143
  45.4846740  26.8880595  99.7296418  45.1911468  25.5242203 100.3175728
  36.9447161  15.8692675 101.9827471  36.2975076  16.5682625 101.8891947
  37.7148176  16.3028819 102.3503719  40.3525959  26.1341527 105.0578024
  40.2011465  25.9052079 104.1408108  40.3430638  27.0912128 105.0709369
  37.1211295  23.7073440 100.0424290  38.0503355  23.8584599  99.8693258
  36.7002325  23.7957461  99.1872937  35.9199627  27.7324104  97.8122828
  35.7810713  27.3642889  98.6848766  35.1314223  28.2471744  97.6406786
  36.5147779  32.8333201  89.1548365  36.6899535  32.3621244  89.9693987
  35.8280567  33.4598967  89.3829625  37.4704842  27.1105707  95.2011666
  37.1354675  27.0706477  96.0969316  36.9708788  26.4450423  94.7282076
  31.4449086  22.5173337 100.7264247  31.3068884  21.7853576 101.3275786
  32.3554010  22.4282237 100.4448435  40.4064034  24.4561741  85.4748726
  39.7893204  23.7308569  85.3781778  39.9380522  25.2171102  85.1315800
  34.0731387  22.2293296 100.2147927  34.7831005  21.5886488 100.1734545
  34.0300695  22.4806191 101.1374107  42.0618165  29.1660650 103.1354506
  42.0030712  28.4819870 102.4685089  42.4637684  29.9079640 102.6835132
  32.7860321  19.2158514 102.0343566  32.2497678  18.7649253 102.6865163
  32.1977029  19.3504423 101.2914031  31.0808864  35.9822563  95.9288225
  31.3205462  36.6141088  96.6067243  30.2378061  35.6310603  96.2153584
  32.1962580  18.6747166  84.5970030  31.3192046  18.5535966  84.2332276
  32.6720333  17.8833244  84.3448918  42.0635573  27.1300234 101.3668486
  41.1762351  26.7926155 101.4894884  42.6334124  26.3983265 101.6037251
  23.7164720  23.4624325  94.6911537  24.4035760  23.1486055  94.1032552
  23.5612848  24.3665690  94.4178788  28.5199442  18.3514522  99.1196561
  28.4357631  17.7440191  98.3846971  27.6982148  18.8423540  99.1206057
  35.5936726  31.7901686  98.3329729  35.5206898  32.5956657  98.8449033
  35.1514119  31.9893652  97.5077750  35.3826506  31.0273456  91.8432550
  34.5994028  31.5695136  91.9370775  36.0819251  31.5447436  92.2426792
  38.6923156  16.8368085  94.4866756  39.1891855  16.0838048  94.1667826
  37.9210137  16.8732402  93.9209965  46.5452913  22.5408451  96.1285047
  46.5342789  23.4233166  95.7578980  45.6770293  22.1880002  95.9339584
  38.0535410  31.6888520 100.4887887  38.7663382  32.3235985 100.4163789
  37.5625438  31.7852386  99.6727889  39.7752937  25.5939773  92.0605179
  38.8409215  25.7141235  91.8909883  39.9529605  24.6912239  91.7965189
  35.2758125  18.9785468  94.2138440  34.9055912  18.4256509  94.9019346
  35.7717217  18.3743602  93.6613440  43.1625488  21.4357092  92.5955213
  43.6285940  22.2685083  92.5215516  43.6132988  20.9702073  93.3000472
  33.1047323  29.4382963 101.3093458  33.8056783  30.0719446 101.4622852
  32.6342438  29.7797695 100.5489098  41.2301719  27.7800913  89.5941365
  41.5061563  27.6657508  90.5035239  40.3606218  27.3818398  89.5553538
  41.1342151  13.8037679  96.6346115  40.2205230  14.0341906  96.8028322
  41.5635252  13.8876123  97.4860147  40.9048609  21.9927571  99.1346009
  40.2520059  22.2403478  98.4798461  41.2828989  21.1791709  98.8008486
  37.8655783  32.0287264  93.2374179  38.0478178  31.2108920  93.7001931
  38.6888769  32.2454956  92.7999069  38.1997948  30.9555449  90.4989227
  38.7285715  30.4447904  89.8859390  38.4626168  30.6397979  91.3634760
  36.9536182  22.7347382 105.6212046  36.2776819  22.6341511 106.2914421
  37.7763816  22.5786596 106.0848043  28.7015041  28.9719318  98.2424561
  29.2868478  28.2263006  98.3752465  28.5039880  29.2823275  99.1261225
  31.5553696  32.0070566  93.2587003  30.8864072  32.4916693  92.7751043
  31.4166566  32.2539786  94.1730382  23.2932696  21.5424919  96.9629004
  23.3316795  21.0088509  97.7566122  22.7872989  21.0160124  96.3439981
  35.6958965  34.0414309  99.8569662  36.2477273  34.2045931 100.6218747
  36.0365158  34.6318747  99.1849687  30.6723458  16.3889459 100.4591546
  30.7364785  17.2504290 100.0468944  30.6090578  15.7763461  99.7263905
  30.1475731  18.4612592 104.1064581  30.7747770  18.0789669 104.7202105
  29.2903650  18.2426794 104.4720273  40.5469839  28.8675567 105.7118316
  41.0909743  29.4805525 105.2173271  39.9656684  29.4255145 106.2285329
  26.9241274  20.2689021  90.0382935  27.2194715  19.3599699  89.9849989
  26.0229309  20.2476760  89.7163938  38.8327352  31.9896285  96.8433344
  38.7078492  31.1886025  96.3344289  39.4906443  32.4842478  96.3547314
  30.4535521  18.3445017  96.0210484  29.7322106  18.9580985  95.8817957
  31.2428776  18.8802782  95.9427130  40.8962261  29.7905305  98.4712894
  39.9492596  29.6710656  98.3991221  41.2445034  28.9027803  98.5539155
  33.2561834  15.6799444 102.2951136  33.7796236  15.9261740 103.0577445
  33.0374167  16.5119479 101.8754273  28.6529115  17.9503118  90.1622261
  28.3241821  17.0700497  89.9797367  29.0068486  17.8950787  91.0498650
  37.9008694  29.5858021  94.6717246  37.7533656  28.6574729  94.8524816
  38.7262187  29.6078112  94.1874321  31.7670938  18.2376088  90.5297738
  32.1067011  18.7662010  89.8076347  32.2143059  18.5756494  91.3056305
  41.5042816  30.4086580  95.7582119  42.4289363  30.2029441  95.6206570
  41.3358119  30.1602981  96.6671460  34.4614379  16.6213139  99.9800806
  34.1211199  15.8220952 100.3821486  33.7553385  16.9214850  99.4077640
  35.1130851  13.7062451  98.4328129  35.9356920  13.2322930  98.3107020
  35.3568914  14.4852935  98.9326816  33.7539085  16.7350710  88.7291031
  34.4747448  17.1131963  88.2254748  33.1304390  17.4539587  88.8326009
  37.8970208  17.4395859  89.6649363  38.1133823  18.3220497  89.3638192
  37.4164275  17.0482072  88.9355005  32.6369430  20.3981572  96.2420108
  32.4914010  20.7121875  97.1344390  32.1594633  21.0166472  95.6891007
  34.4965813  17.3884120  96.2900998  34.4827381  16.4925213  95.9533296
  35.2138241  17.3954784  96.9239284  36.3491943  17.8221460  98.3354125
  36.0909721  18.7438531  98.3338455  35.8176984  17.4251895  99.0254589
  41.2938132  30.9272247  91.1144210  41.4675010  30.3618670  90.3618063
  41.7867023  31.7273142  90.9323700  27.1115092  22.9386916  99.1807769
  26.5668560  23.7146724  99.3128044  27.9894442  23.2857721  99.0226891
  33.9002708  16.2698500  91.5588568  34.0218620  15.3415146  91.7579455
  33.6104751  16.2837186  90.6466883  36.7693899  13.9553411  94.6955288
  36.7915596  14.0192744  93.7407267  37.1861958  13.1157919  94.8895794
  47.1477523  23.6908670  92.7334510  47.5908669  22.9415996  92.3353633
  46.2704033  23.6818807  92.3508242  42.2813305  30.2439012  88.2141109
  42.9764209  30.8645704  88.4328423  42.6236455  29.3934363  88.4893487
  27.8981114  22.0656813 102.0737926  27.1562850  22.2139448 102.6602556
  27.5773858  22.3265078 101.2104675  44.1804728  27.6938717  89.7428439
  44.7056052  28.0325990  89.0177759  44.0927080  26.7585733  89.5591574
  35.8424776  31.6072791 101.8718316  36.1511903  31.3621938 102.7441016
  36.6400258  31.8119429 101.3837186  35.8645388  33.7610701  94.1023693
  35.4250379  33.2687079  94.7956549  36.6153505  33.2183668  93.8615768
  28.3437727  29.9522241  94.1048321  29.1695747  29.6526013  93.7246964
  27.9931779  29.1829864  94.5538109  33.3119261  29.3048710  96.1745994
  32.6899270  28.6419415  95.8748222  33.9824127  29.3309842  95.4919642
  26.5446332  27.8708568  95.0637254  25.7078241  27.4430742  94.8821256
  26.5169978  28.0641011  96.0008045  33.3843788  17.7830498 105.7678500
  33.4331943  18.6592620 105.3856270  33.9266302  17.2407891 105.1950144
  43.8698634  28.3271621 105.0479637  43.0794177  28.3095760 104.5084137
  43.6331988  28.8659915 105.8028674  43.9896509  25.1764087 102.3612366
  44.0394514  25.0114095 103.3027889  43.8810432  24.3091346 101.9710247
  32.8732767  27.8552633  89.6504455  33.0220888  28.5388097  88.9971128
  33.6799211  27.8357723  90.1653911  41.2800271  21.1595015 103.6771673
  42.1810134  21.0201480 103.3855670  41.3548246  21.3249470 104.6169850
  35.6143076  18.5361870 102.5224859  34.7446386  18.8295436 102.2507447
  35.8502557  19.1202315 103.2432123  45.4914706  27.5961029 102.6054387
  45.1999514  27.9591009 103.4417848  44.8786837  26.8828037 102.4267720
  46.6910388  25.1613909  95.1256958  47.5257279  25.6003713  95.2894518
  46.8269517  24.6852562  94.3065203  43.7401894  22.7193643 101.0734445
  44.2156015  22.9121290 100.2653297  42.8167459  22.7752829 100.8277829
  30.6285400  23.8817811  90.6565524  30.3831442  22.9780141  90.8545734
  30.7981315  23.8834961  89.7145002  38.3182110  14.7541487 100.0390279
  38.8364054  15.4902514  99.7136768  37.9637243  15.0605480 100.8737038
  29.8981048  19.6146168  88.1551685  29.2050293  19.6890523  87.4991721
  29.6532800  18.8506512  88.6773202  38.5694704  11.1741770  95.5591176
  38.8496458  10.5064959  96.1851602  39.3545311  11.3670865  95.0465840
  36.3728173  30.3500763  87.1216202  35.8002140  30.9690951  86.6686674
  36.9460967  30.9000125  87.6556124  42.4403563  19.5959404  99.3062751
  43.3920986  19.6957501  99.3274975  42.2707013  18.8037672  99.8160835
  40.4617942  16.6814987  99.4922152  39.8667874  16.9619999  98.7968641
  40.1767639  17.1708888 100.2638893  39.5925433  30.6337914  88.2524785
  40.5256106  30.5683475  88.4557660  39.5048646  31.4694180  87.7939317
  42.2213449  29.9503784  85.2128732  42.1427081  29.6163648  86.1064490
  43.0423116  30.4425552  85.2120204  44.9191641  22.8165523  98.4205051
  44.8867961  21.8781524  98.6064735  45.5292264  22.8949560  97.6870876
  36.7574971  21.6861576  84.4632255  37.7034076  21.5567784  84.5320673
  36.3789216  20.9476238  84.9401683  45.0686129  19.6076567  98.4663334
  44.5525178  18.8235023  98.2793263  45.9526078  19.2795283  98.6309853
  42.7296856  13.3517582  94.4259147  42.5321677  13.0432670  95.3102479
  43.3396562  14.0779221  94.5557076  50.7368190  23.8781530  97.5611088
  51.4671579  23.6166818  98.1218791  50.1275136  23.1410252  97.6013155
  48.8183488  22.0189393  98.1585539  48.0916651  21.8845358  97.5502030
  48.4030774  22.3266221  98.9642257  36.6413664  25.7379322 105.9232912
  37.5616673  25.9157921 106.1172958  36.6063247  24.7935368 105.7712611
  34.9417889  19.6111553  84.3987140  34.0349344  19.3144665  84.4749854
  35.2193870  19.3141371  83.5321426  25.8595829  20.9317916  94.8486186
  25.5398613  20.0783224  94.5560560  25.3129257  21.1466494  95.6044154
  29.6375737  23.6480357  98.5655693  29.8561746  24.5797465  98.5843727
  30.0501510  23.2888331  99.3510497  36.5579954  14.1548442  90.5531381
  35.7480683  13.8095527  90.9286627  37.2464371  13.8455986  91.1418993
  38.4870503  13.2326489  92.1755678  39.0401541  13.6521943  92.8345701
  38.7240589  12.3062237  92.2178634  34.5103602  19.2213563 107.9558442
  34.4100329  20.1707920 107.8870533  34.2925144  18.8931802 107.0834512
  33.7116673  16.4698488  84.5399119  34.5735837  16.7953386  84.7994937
  33.8967017  15.6829984  84.0272185  25.7284089  24.5520827  96.8179308
  25.0347560  24.1374780  96.3049262  26.4757080  24.5941364  96.2212727
  41.8649310  15.3427014  91.6834342  41.2847979  16.0011818  91.3012395
  41.5985242  14.5204359  91.2721760  40.3152876  14.7432072  93.8855662
  40.8152654  14.8548607  93.0769981  40.9588484  14.4393125  94.5256471
  34.3734872  22.6510702 106.7723503  33.8901954  23.4511062 106.9787392
  34.4595811  22.6618646 105.8190947  27.6420832  24.4839081  94.6945323
  27.6191520  24.5826769  93.7427206  27.9521468  25.3304232  95.0162489
  30.3008209  26.5415236  98.8091937  31.2551463  26.5099179  98.7421869
  30.1020733  26.0805860  99.6242163  30.8907592  25.1116352 101.3762735
  31.7100481  25.6060431 101.3997572  31.1644399  24.1948320 101.3480302
  40.6474188  17.5027105  90.7390690  39.7600043  17.7876755  90.5210885
  41.0628177  17.3420868  89.8917967  43.9988724  17.5273626  94.4545030
  44.7749114  18.0170078  94.7269646  43.2736858  17.9531680  94.9116899
  46.4361282  18.2401245  95.5118970  47.0305773  17.9996981  94.8012279
  46.5087866  17.5208375  96.1392507  28.6558438  32.0834856  95.8262135
  28.5212906  31.3235257  95.2600133  28.2390500  32.8075756  95.3590924
  39.7917401  27.2671779  84.8338710  40.4953251  27.4721782  85.4496366
  39.0680050  27.8348541  85.0987794  40.6215211  23.0181641  90.9540981
  40.5650413  23.4750192  90.1148613  41.1743554  22.2572325  90.7763823
  44.4320017  18.8071372  91.7791100  44.1756952  18.4068008  92.6099308
  43.8072885  19.5215166  91.6541239  48.7432355  21.5467446  94.2862391
  48.1831913  21.6160635  95.0593954  48.1375859  21.3708430  93.5661888
  31.8127564  32.9804173  96.0380578  31.6959948  33.9249605  95.9359268
  30.9920010  32.6777734  96.4266377  41.7004099  27.7054309  86.8837170
  42.5349703  27.2735507  86.7014645  41.5388442  27.5336322  87.8114065
  41.3549991  24.2086422  88.2493510  41.2998795  24.0430693  87.3081954
  40.7296046  24.9162455  88.4055699  26.1442506  19.4454486 102.0754932
  26.7901369  18.9353440 102.5642157  25.9359657  20.1823168 102.6498357
  38.6695898  26.5135334 107.5747073  39.5387058  26.6875986 107.2133707
  38.1902649  27.3329751 107.4522802  34.6646116  13.7094531  87.8278828
  34.6524786  14.6536371  87.9847099  35.5569538  13.5264676  87.5338289
  32.8382078  33.6332435  99.2536506  33.7409325  33.6656045  99.5703001
  32.6119448  32.7032886  99.2682842  34.5935680  32.3863421  95.9146585
  33.6431311  32.3865283  95.8010957  34.8968166  31.6396156  95.3982619
  38.4798236  10.3037307  92.0824765  37.7130632   9.7495794  92.2281447
  38.8908941  10.3759176  92.9438917  47.6197863  39.3286239 102.8740077
  47.6086504  38.9339038 102.0020581  47.7818502  38.5952312 103.4673849
  40.5429328  41.5238056  95.7434983  41.3350620  41.1828880  95.3281283
  40.7825978  41.6333031  96.6637137  42.5020082  40.7846969  88.6152362
  43.2750958  40.2375956  88.4765238  42.8545480  41.6491218  88.8266824
  44.3405124  42.1123351 101.8219261  44.0494990  43.0168982 101.7065928
  44.9762108  42.1539879 102.5363331  49.8829642  35.9475413  94.0545555
  50.6692731  35.5294837  93.7035972  50.1468347  36.8521506  94.2227204
  55.2838069  35.8850647  94.9578534  56.0163241  35.3149863  95.1916363
  54.5277425  35.4972247  95.3985039  52.8063490  29.5972221  99.4173142
  52.4746814  30.4667632  99.1934357  52.2109103  29.2808505 100.0967173
  46.5419676  33.3367788  87.1503225  46.7094078  34.2048024  87.5173696
  46.3516845  33.4995070  86.2264514  42.7507491  38.2498564  94.8505760
  41.8257987  38.1174778  95.0583451  42.9991904  39.0292783  95.3475702
  52.6992153  34.3167307  96.4966492  51.7909030  34.2482715  96.2025253
  52.6479749  34.7939252  97.3248318  46.5208897  35.7925445  88.1349892
  46.4008522  36.2382496  88.9735372  45.8261485  36.1410763  87.5763430
  40.1116302  37.8931837  95.6849549  40.2408683  38.1466316  96.5988960
  39.4313753  38.4859545  95.3654204  46.7733019  35.7356953 104.4401390
  45.9966353  36.2950873 104.4304254  47.4123582  36.2213736 104.9616260
  54.5653799  32.5183745  98.2744366  53.9228180  32.8116279  97.6284161
  54.0608728  32.4036666  99.0797563  45.0279391  38.5442406 104.0019357
  45.7694075  39.0827450 103.7254180  44.3216377  39.1708695 104.1590908
  50.5034731  40.6871546 102.5991518  50.9118087  40.2453957 101.8546151
  49.7811992  40.1124174 102.8525711  46.8565801  35.6244153  99.9725075
  47.7026996  36.0483567 100.1159724  46.7964438  34.9677777 100.6663638
  50.0065246  33.2848522 101.6306249  49.7626178  34.0390582 101.0940524
  50.2825177  33.6633869 102.4653496  51.9603709  39.8287134 100.3083514
  52.1720604  40.4718894  99.6317895  51.9133457  38.9949450  99.8405444
  49.5629938  32.4404955  97.2120086  48.7014417  32.7386208  97.5036824
  49.5892372  32.6575353  96.2801119  43.7640755  35.6982054 104.8034667
  43.1339415  36.3798335 105.0370064  43.6576843  35.5865136 103.8587805
  39.0585727  35.3653850  95.7300591  38.2684781  35.6211379  95.2540701
  39.5496975  36.1802188  95.8352631  41.0100473  35.7298429  92.6884068
  40.2131636  35.8417124  93.2067563  40.7826065  36.0685082  91.8224958
  37.3423430  35.6184341  98.1615582  37.5931469  36.5031350  98.4273158
  37.8782979  35.4388942  97.3890673  43.0421498  30.0002820 107.1659918
  42.6488443  29.4469018 107.8407562  43.8587638  30.3113398 107.5566435
  40.0083555  41.4386678  91.0773488  40.5208076  42.2329928  91.2279052
  40.6606268  40.7412969  91.0107089  45.9589459  31.4160699 104.7580174
  46.6999172  32.0167852 104.6784637  46.1907381  30.6738337 104.1998217
  41.1030797  36.6017066 103.0358404  40.9884312  35.7002324 103.3365503
  40.2475314  36.8480763 102.6843221  48.1822634  44.5434807 104.6345905
  47.7386488  43.7571185 104.3166809  48.8439848  44.7313957 103.9689795
  42.9409755  46.0730608  99.1606583  43.4917181  45.9447672  98.3883577
  42.1021231  46.3725497  98.8101476  46.7376927  42.3381736 103.5050814
  47.2705263  41.5770024 103.2750122  46.2091008  42.0455388 104.2474969
  49.9046621  27.4441802  99.0344456  49.5610891  28.3343444  98.9583567
  50.2725584  27.2543460  98.1714041  37.9732472  39.7675332  91.8533058
  38.8107694  40.1772341  91.6366766  38.1510740  38.8274775  91.8233252
  47.4544015  32.2800114  92.6002129  46.5985612  31.8906964  92.4207768
  47.8670967  32.3592075  91.7401915  48.9843162  29.8146457  96.9993689
  48.4807957  29.7776592  96.1861495  49.2773769  30.7239200  97.0590346
  45.2286048  29.8985187  96.0059871  46.0939045  29.7027996  95.6465760
  45.2963557  29.6695539  96.9329228  53.0822485  39.6616749  96.1336673
  52.4246160  40.3516010  96.2216801  53.8862884  40.0513181  96.4770659
  42.8348367  32.1287395  93.3776238  43.4092119  31.9062576  92.6449431
  43.4219349  32.1976089  94.1304839  43.1617954  34.1591856  87.3972123
  42.3255266  34.4966542  87.7181398  43.0222724  34.0240836  86.4599260
  45.1371035  29.0028644  92.1051307  44.4835447  28.6877661  91.4807922
  45.0951509  28.3804384  92.8311130  48.3708775  35.4910577  96.4298955
  47.4531336  35.7125524  96.2720643  48.7868919  35.5656888  95.5710662
  51.6022660  33.9259109  93.5420424  50.8645417  33.4136495  93.8730667
  51.8549433  33.4859491  92.7303701  51.7034287  26.7035361  94.1362194
  52.0093164  25.8432725  93.8488109  52.4286892  27.2952981  93.9361188
  37.9958643  37.1066048  92.5243792  37.7983043  36.5135408  91.7994858
  37.4405307  36.8018258  93.2419730  47.1246561  40.9269277  85.8816668
  46.6865991  40.2105136  85.4222305  47.8657002  41.1545392  85.3201759
  43.9147727  35.6166214  92.4028764  43.1015592  35.9160385  92.8093956
  44.4106721  35.2221903  93.1203246  49.5121938  36.0808038 101.2343658
  49.8671326  36.3079512 102.0938123  50.1594070  36.4126415 100.6120913
  43.4061802  33.1884569  98.0189999  44.0461181  33.0473329  97.3212962
  42.5739332  32.9019083  97.6428601  40.4904869  36.6330082  90.2084744
  39.5602457  36.5714537  90.4254706  40.5862341  36.1106034  89.4121385
  40.4090418  33.1584894  92.7962985  40.6697235  34.0730228  92.6872146
  41.2307590  32.6909337  92.9459598  41.8815343  34.5722652  99.9661810
  42.5538397  34.3640014  99.3174459  41.0545130  34.3744738  99.5267042
  56.1304605  41.3126702  99.4837143  56.3240495  42.2172512  99.7296418
  56.0305223  40.8534121 100.3175728  47.7840915  31.1984593 101.9827471
  47.1368830  31.8974542 101.8891947  48.5541931  31.6320736 102.3503719
  51.1919713  41.4633445 105.0578024  51.0405220  41.2343996 104.1408108
  51.1824393  42.4204046 105.0709369  42.2842841  37.8465255 100.7264247
  42.1462639  37.1145493 101.3275786  43.1947764  37.7574155 100.4448435
  44.9125141  37.5585214 100.2147927  45.6224760  36.9178406 100.1734545
  44.8694449  37.8098109 101.1374107  52.9011920  44.4952567 103.1354506
  52.8424466  43.8111787 102.4685089  53.3031438  45.2371557 102.6835132
  43.6254075  34.5450432 102.0343566  43.0891432  34.0941170 102.6865163
  43.0370784  34.6796341 101.2914031  43.0356334  34.0039083  84.5970030
  42.1585800  33.8827884  84.2332276  43.5114087  33.2125162  84.3448918
  52.9029327  42.4592151 101.3668486  52.0156106  42.1218073 101.4894884
  53.4727878  41.7275182 101.6037251  34.5558474  38.7916243  94.6911537
  35.2429514  38.4777973  94.1032552  34.4006603  39.6957608  94.4178788
  39.3593196  33.6806440  99.1196561  39.2751385  33.0732109  98.3846971
  38.5375903  34.1715458  99.1206057  49.5316910  32.1660003  94.4866756
  50.0285610  31.4129965  94.1667826  48.7603892  32.2024320  93.9209965
  46.1151879  34.3077386  94.2138440  45.7449667  33.7548426  94.9019346
  46.6110972  33.7035520  93.6613440  43.9441078  44.7674881 101.3093458
  44.6450537  45.4011364 101.4622852  43.4736193  45.1089613 100.5489098
  51.9735905  29.1329597  96.6346115  51.0598985  29.3633823  96.8028322
  52.4029007  29.2168041  97.4860147  51.7442364  37.3219489  99.1346009
  51.0913814  37.5695396  98.4798461  52.1222743  36.5083627  98.8008486
  47.7929937  38.0639300 105.6212046  47.1170574  37.9633429 106.2914421
  48.6157571  37.9078513 106.0848043  39.5408796  44.3011236  98.2424561
  40.1262233  43.5554924  98.3752465  39.3433634  44.6115193  99.1261225
  34.1326450  36.8716836  96.9629004  34.1710550  36.3380427  97.7566122
  33.6266743  36.3452042  96.3439981  41.5117213  31.7181377 100.4591546
  41.5758539  32.5796208 100.0468944  41.4484333  31.1055378  99.7263905
  40.9869485  33.7904509 104.1064581  41.6141524  33.4081587 104.7202105
  40.1297404  33.5718711 104.4720273  51.3863594  44.1967485 105.7118316
  51.9303498  44.8097443 105.2173271  50.8050439  44.7547063 106.2285329
  37.7635028  35.5980938  90.0382935  38.0588469  34.6891617  89.9849989
  36.8623064  35.5768678  89.7163938  41.2929275  33.6736935  96.0210484
  40.5715861  34.2872903  95.8817957  42.0822531  34.2094700  95.9427130
  44.0955589  31.0091362 102.2951136  44.6189990  31.2553658 103.0577445
  43.8767922  31.8411396 101.8754273  39.4922870  33.2795036  90.1622261
  39.1635576  32.3992415  89.9797367  39.8462240  33.2242705  91.0498650
  42.6064693  33.5668006  90.5297738  42.9460765  34.0953927  89.8076347
  43.0536813  33.9048412  91.3056305  45.3008134  31.9505057  99.9800806
  44.9604954  31.1512870 100.3821486  44.5947140  32.2506768  99.4077640
  45.9524605  29.0354369  98.4328129  46.7750675  28.5614847  98.3107020
  46.1962669  29.8144853  98.9326816  44.5932840  32.0642628  88.7291031
  45.3141202  32.4423880  88.2254748  43.9698144  32.7831504  88.8326009
  48.7363963  32.7687777  89.6649363  48.9527577  33.6512414  89.3638192
  48.2558030  32.3773990  88.9355005  43.4763184  35.7273490  96.2420108
  43.3307765  36.0413793  97.1344390  42.9988388  36.3458390  95.6891007
  45.3359567  32.7176038  96.2900998  45.3221136  31.8217131  95.9533296
  46.0531995  32.7246701  96.9239284  47.1885698  33.1513378  98.3354125
  46.9303476  34.0730449  98.3338455  46.6570738  32.7543812  99.0254589
  37.9508846  38.2678834  99.1807769  37.4062314  39.0438642  99.3128044
  38.8288196  38.6149639  99.0226891  44.7396463  31.5990418  91.5588568
  44.8612374  30.6707064  91.7579455  44.4498505  31.6129104  90.6466883
  47.6087653  29.2845328  94.6955288  47.6309350  29.3484662  93.7407267
  48.0255712  28.4449837  94.8895794  38.7374868  37.3948730 102.0737926
  37.9956604  37.5431366 102.6602556  38.4167612  37.6556996 101.2104675
  37.3840087  43.2000486  95.0637254  36.5471995  42.7722660  94.8821256
  37.3563732  43.3932929  96.0008045  44.2237543  33.1122415 105.7678500
  44.2725698  33.9884538 105.3856270  44.7660057  32.5699808 105.1950144
  54.7092388  43.6563539 105.0479637  53.9187932  43.6387677 104.5084137
  54.4725743  44.1951832 105.8028674  54.8290263  40.5056005 102.3612366
  54.8788268  40.3406012 103.3027889  54.7204187  39.6383264 101.9710247
  52.1194026  36.4886933 103.6771673  53.0203888  36.3493398 103.3855670
  52.1942000  36.6541388 104.6169850  46.4536831  33.8653788 102.5224859
  45.5840140  34.1587354 102.2507447  46.6896311  34.4494233 103.2432123
  56.3308460  42.9252946 102.6054387  56.0393268  43.2882927 103.4417848
  55.7180591  42.2119955 102.4267720  54.5795648  38.0485561 101.0734445
  55.0549770  38.2413207 100.2653297  53.6561214  38.1044747 100.8277829
  41.4679155  39.2109728  90.6565524  41.2225197  38.3072058  90.8545734
  41.6375069  39.2126879  89.7145002  49.1575865  30.0833405 100.0390279
  49.6757809  30.8194432  99.7136768  48.8030998  30.3897398 100.8737038
  40.7374802  34.9438086  88.1551685  40.0444047  35.0182441  87.4991721
  40.4926554  34.1798430  88.6773202  49.4088459  26.5033687  95.5591176
  49.6890213  25.8356876  96.1851602  50.1939066  26.6962783  95.0465840
  53.2797317  34.9251321  99.3062751  54.2314740  35.0249419  99.3274975
  53.1100768  34.1329590  99.8160835  51.3011697  32.0106904  99.4922152
  50.7061629  32.2911917  98.7968641  51.0161393  32.5000805 100.2638893
  55.7585395  38.1457441  98.4205051  55.7261715  37.2073442  98.6064735
  56.3686019  38.2241478  97.6870876  55.9079884  34.9368484  98.4663334
  55.3918932  34.1526941  98.2793263  56.7919832  34.6087201  98.6309853
  53.5690610  28.6809500  94.4259147  53.3715432  28.3724588  95.3102479
  54.1790316  29.4071139  94.5557076  61.5761945  39.2073448  97.5611088
  62.3065333  38.9458736  98.1218791  60.9668890  38.4702170  97.6013155
  59.6577242  37.3481310  98.1585539  58.9310406  37.2137275  97.5502030
  59.2424529  37.6558139  98.9642257  47.4807418  41.0671240 105.9232912
  48.4010428  41.2449839 106.1172958  47.4457002  40.1227285 105.7712611
  36.6989583  36.2609834  94.8486186  36.3792368  35.4075142  94.5560560
  36.1523012  36.4758412  95.6044154  40.4769491  38.9772275  98.5655693
  40.6955501  39.9089382  98.5843727  40.8895265  38.6180249  99.3510497
  47.3973709  29.4840360  90.5531381  46.5874437  29.1387445  90.9286627
  48.0858126  29.1747904  91.1418993  49.3264257  28.5618407  92.1755678
  49.8795296  28.9813860  92.8345701  49.5634343  27.6354155  92.2178634
  45.3497356  34.5505480 107.9558442  45.2494083  35.4999837 107.8870533
  45.1318898  34.2223719 107.0834512  36.5677843  39.8812745  96.8179308
  35.8741315  39.4666698  96.3049262  37.3150834  39.9233282  96.2212727
  52.7043064  30.6718932  91.6834342  52.1241733  31.3303736  91.3012395
  52.4378997  29.8496277  91.2721760  51.1546631  30.0723990  93.8855662
  51.6546409  30.1840524  93.0769981  51.7982238  29.7685042  94.5256471
  45.2128626  37.9802619 106.7723503  44.7295708  38.7802979 106.9787392
  45.2989565  37.9910564 105.8190947  38.4814586  39.8130999  94.6945323
  38.4585274  39.9118686  93.7427206  38.7915223  40.6596150  95.0162489
  41.1401964  41.8707154  98.8091937  42.0945217  41.8391096  98.7421869
  40.9414487  41.4097778  99.6242163  41.7301346  40.4408270 101.3762735
  42.5494235  40.9352349 101.3997572  42.0038154  39.5240238 101.3480302
  51.4867942  32.8319022  90.7390690  50.5993797  33.1168673  90.5210885
  51.9021931  32.6712786  89.8917967  54.8382478  32.8565543  94.4545030
  55.6142868  33.3461996  94.7269646  54.1130613  33.2823598  94.9116899
  57.2755037  33.5693163  95.5118970  57.8699528  33.3288898  94.8012279
  57.3481621  32.8500293  96.1392507  55.2713772  34.1363290  91.7791100
  55.0150706  33.7359926  92.6099308  54.6466640  34.8507084  91.6541239
  36.9836260  34.7746404 102.0754932  37.6295124  34.2645358 102.5642157
  36.7753411  35.5115086 102.6498357  49.5089652  41.8427251 107.5747073
  50.3780812  42.0167904 107.2133707  49.0296404  42.6621668 107.4522802
  45.5039871  29.0386449  87.8278828  45.4918541  29.9828288  87.9847099
  46.3963293  28.8556594  87.5338289  49.3191990  25.6329225  92.0824765
  48.5524386  25.0787712  92.2281447  49.7302695  25.7051094  92.9438917
  41.3233751  31.9214021 106.1729946  42.1865213  31.5650826 106.3833271
  40.7499162  31.5827916 106.8605350  61.1682128  53.5515877  96.9792347
  61.8060538  53.4322625  96.2755687  61.0502971  54.4996721  97.0380299
  57.9771834  53.5043305  96.9153872  57.6390346  53.3884370  96.0274407
  58.8461603  53.1034471  96.8954878  58.4591617  54.6578157 102.8740077
  58.4480258  54.2630955 102.0020581  58.6212257  53.9244230 103.4673849
  55.1798879  57.4415269 101.8219261  54.8888745  58.3460900 101.7065928
  55.8155863  57.4831797 102.5363331  56.1055085  54.8192117  98.4120621
  56.7018658  54.5948140  97.6977584  56.1630057  54.0776863  99.0146069
  55.6780114  52.2731553  86.2470812  55.9305635  51.7513074  85.4854275
  54.7404673  52.1097698  86.3497496  60.7223397  51.2767331  94.0545555
  61.5086486  50.8586754  93.7035972  60.9862101  52.1813423  94.2227204
  57.7407944  53.6369806  92.1541876  57.3766151  53.1100427  92.8654798
  58.5975059  53.2468275  91.9808362  63.6457244  44.9264138  99.4173142
  63.3140569  45.7959549  99.1934357  63.0502858  44.6100422 100.0967173
  57.3602651  51.1217363  88.1349892  57.2402277  51.5674414  88.9735372
  56.6655240  51.4702681  87.5763430  57.6126773  51.0648870 104.4401390
  56.8360107  51.6242790 104.4304254  58.2517336  51.5505653 104.9616260
  65.4047554  47.8475663  98.2744366  64.7621934  48.1408196  97.6284161
  64.9002482  47.7328583  99.0797563  63.0587718  51.5938836  88.9630226
  63.9705574  51.8266223  88.7877923  62.5497365  52.1775880  88.4005304
  55.8673146  53.8734324 104.0019357  56.6087830  54.4119368 103.7254180
  55.1610131  54.5000612 104.1590908  61.3428485  56.0163464 102.5991518
  61.7511841  55.5745875 101.8546151  60.6205747  55.4416092 102.8525711
  57.6959555  50.9536071  99.9725075  58.5420750  51.3775484 100.1159724
  57.6358193  50.2969695 100.6663638  60.8459001  48.6140439 101.6306249
  60.6019932  49.3682500 101.0940524  61.1218931  48.9925787 102.4653496
  62.7997463  55.1579052 100.3083514  63.0114359  55.8010811  99.6317895
  62.7527212  54.3241368  99.8405444  60.4023692  47.7696872  97.2120086
  59.5408171  48.0678126  97.5036824  60.4286127  47.9867271  96.2801119
  54.1109343  55.8610544  96.5573655  54.6810700  56.2897813  95.9191140
  54.7017455  55.5793129  97.2557841  56.1554148  52.4362215  90.4283457
  56.8578191  52.8883259  90.8957384  55.8234776  51.7946034  91.0563350
  54.6034509  51.0273972 104.8034667  53.9733170  51.7090253 105.0370064
  54.4970597  50.9157053 103.8587805  57.6799895  57.5835050 100.6366582
  57.7444327  58.0455458 101.4724754  56.9710819  56.9532415 100.7648892
  72.0049284  54.3789755  94.8290843  71.2512993  53.8097154  94.6734848
  72.1396826  54.3452420  95.7761478  53.8815252  45.3294738 107.1659918
  53.4882198  44.7760936 107.8407562  54.6981392  45.6405316 107.5566435
  52.6572194  59.8844352  93.1596241  52.8338823  60.8062317  92.9717225
  53.4529028  59.5702771  93.5890621  56.7983213  46.7452617 104.7580174
  57.5392926  47.3459770 104.6784637  57.0301136  46.0030254 104.1998217
  51.9424551  51.9308984 103.0358404  51.8278066  51.0294241 103.3365503
  51.0869069  52.1772681 102.6843221  59.0216389  59.8726724 104.6345905
  58.5780243  59.0863103 104.3166809  59.6833602  60.0605875 103.9689795
  53.7803510  61.4022526  99.1606583  54.3310935  61.2739589  98.3883577
  52.9414986  61.7017415  98.8101476  61.1197627  60.1529524 102.6627306
  61.1016102  60.9738405 102.1707575  62.0417547  60.0283599 102.8877447
  57.5770681  57.6673654 103.5050814  58.1099018  56.9061942 103.2750122
  57.0484762  57.3747306 104.2474969  60.7440376  42.7733720  99.0344456
  60.4004645  43.6635361  98.9583567  61.1119339  42.5835377  98.1714041
  59.8236916  45.1438375  96.9993689  59.3201712  45.1068510  96.1861495
  60.1167523  46.0531118  97.0590346  60.4976962  50.6369423  89.3676672
  60.1927097  50.9515572  90.2186815  61.4507404  50.7150843  89.4104005
  59.2102529  50.8202495  96.4298955  58.2925091  51.0417442  96.2720643
  59.6262673  50.8948805  95.5710662  59.9937577  52.2193911  91.5601635
  60.7409396  52.7315308  91.2508757  60.2629167  51.8977963  92.4206029
  56.8149121  52.3281072  94.6438385  56.8697731  51.3754908  94.5680861
  56.0040323  52.4840511  95.1279683  60.3515693  51.4099956 101.2343658
  60.7065081  51.6371429 102.0938123  60.9987824  51.7418333 100.6120913
  58.6234670  46.5276510 101.9827471  57.9762585  47.2266460 101.8891947
  59.3935685  46.9612654 102.3503719  62.0313468  56.7925362 105.0578024
  61.8798974  56.5635914 104.1408108  62.0218147  57.7495964 105.0709369
  58.7998804  54.3657275 100.0424290  59.7290864  54.5168435  99.8693258
  58.3789834  54.4541296  99.1872937  55.7518896  52.8877132 100.2147927
  56.4618514  52.2470324 100.1734545  55.7088204  53.1390026 101.1374107
  63.7405674  59.8244485 103.1354506  63.6818221  59.1403705 102.4685089
  64.1425193  60.5663475 102.6835132  54.4647830  49.8742350 102.0343566
  53.9285187  49.4233088 102.6865163  53.8764538  50.0088258 101.2914031
  52.7596373  66.6406399  95.9288225  52.9992971  67.2724923  96.6067243
  51.9165570  66.2894439  96.2153584  63.7423082  57.7884069 101.3668486
  62.8549860  57.4509991 101.4894884  64.3121633  57.0567100 101.6037251
  57.2724235  62.4485521  98.3329729  57.1994407  63.2540493  98.8449033
  56.8301628  62.6477487  97.5077750  59.7322919  62.3472355 100.4887887
  60.4450891  62.9819820 100.4163789  59.2412947  62.4436221  99.6727889
  56.9545634  49.6369304  94.2138440  56.5843421  49.0840344  94.9019346
  57.4504726  49.0327437  93.6613440  54.7834832  60.0966799 101.3093458
  55.4844292  60.7303282 101.4622852  54.3129947  60.4381530 100.5489098
  62.5836118  52.6511406  99.1346009  61.9307568  52.8987314  98.4798461
  62.9616498  51.8375544  98.8008486  58.6323691  53.3931217 105.6212046
  57.9564328  53.2925347 106.2914421  59.4551325  53.2370431 106.0848043
  50.3802550  59.6303154  98.2424561  50.9655987  58.8846842  98.3752465
  50.1827389  59.9407111  99.1261225  53.2341205  62.6654401  93.2587003
  52.5651581  63.1500529  92.7751043  53.0954075  62.9123622  94.1730382
  57.3746474  64.6998145  99.8569662  57.9264782  64.8629766 100.6218747
  57.7152667  65.2902583  99.1849687  51.8263240  49.1196427 104.1064581
  52.4535279  48.7373504 104.7202105  50.9691159  48.9010629 104.4720273
  62.2257348  59.5259402 105.7118316  62.7697252  60.1389360 105.2173271
  61.6444193  60.0838981 106.2285329  54.9349343  46.3383279 102.2951136
  55.4583745  46.5845576 103.0577445  54.7161676  47.1703314 101.8754273
  56.1401888  47.2796974  99.9800806  55.7998708  46.4804787 100.3821486
  55.4340894  47.5798685  99.4077640  54.3156939  51.0565407  96.2420108
  54.1701519  51.3705710  97.1344390  53.8382142  51.6750308  95.6891007
  56.1753322  48.0467955  96.2900998  56.1614890  47.1509049  95.9533296
  56.8925750  48.0538619  96.9239284  58.0279452  48.4805296  98.3354125
  57.7697230  49.4022366  98.3338455  57.4964493  48.0835730  99.0254589
  57.5212285  62.2656626 101.8718316  57.8299412  62.0205773 102.7441016
  58.3187767  62.4703265 101.3837186  57.5432897  64.4194536  94.1023693
  57.1037888  63.9270915  94.7956549  58.2941014  63.8767504  93.8615768
  54.9906770  59.9632545  96.1745994  54.3686779  59.3003250  95.8748222
  55.6611636  59.9893677  95.4919642  55.0631297  48.4414333 105.7678500
  55.1119452  49.3176456 105.3856270  55.6053811  47.8991726 105.1950144
  65.5486143  58.9855456 105.0479637  64.7581686  58.9679595 104.5084137
  65.3119497  59.5243750 105.8028674  65.6684018  55.8347923 102.3612366
  65.7182023  55.6697930 103.3027889  65.5597941  54.9675182 101.9710247
  62.9587780  51.8178851 103.6771673  63.8597643  51.6785316 103.3855670
  63.0335755  51.9833306 104.6169850  57.2930585  49.1945705 102.5224859
  56.4233895  49.4879271 102.2507447  57.5290066  49.7786150 103.2432123
  67.1702215  58.2544864 102.6054387  66.8787023  58.6174845 103.4417848
  66.5574346  57.5411872 102.4267720  65.4189403  53.3777479 101.0734445
  65.8943524  53.5705125 100.2653297  64.4954968  53.4336665 100.8277829
  59.9969619  45.4125322 100.0390279  60.5151563  46.1486349  99.7136768
  59.6424752  45.7189316 100.8737038  64.1191072  50.2543239  99.3062751
  65.0708495  50.3541337  99.3274975  63.9494522  49.4621507  99.8160835
  62.1405451  47.3398822  99.4922152  61.5455383  47.6203835  98.7968641
  61.8555148  47.8292723 100.2638893  66.7473638  50.2660402  98.4663334
  66.2312687  49.4818859  98.2793263  67.6313587  49.9379119  98.6309853
  72.4155699  54.5365365  97.5611088  73.1459088  54.2750654  98.1218791
  71.8062645  53.7994087  97.6013155  70.4970997  52.6773228  98.1585539
  69.7704160  52.5429193  97.5502030  70.0818283  52.9850057  98.9642257
  58.3201173  56.3963158 105.9232912  59.2404182  56.5741757 106.1172958
  58.2850756  55.4519203 105.7712611  56.1891111  49.8797398 107.9558442
  56.0887838  50.8291755 107.8870533  55.9712653  49.5515637 107.0834512
  56.0522381  53.3094537 106.7723503  55.5689463  54.1094897 106.9787392
  56.1383320  53.3202482 105.8190947  51.9795718  57.1999072  98.8091937
  52.9338972  57.1683014  98.7421869  51.7808242  56.7389695  99.6242163
  52.5695101  55.7700188 101.3762735  53.3887990  56.2644266 101.3997572
  52.8431908  54.8532156 101.3480302  50.3345947  62.7418691  95.8262135
  50.2000415  61.9819092  95.2600133  49.9178009  63.4659591  95.3590924
  61.4704910  57.9255615  84.8338710  62.1740760  58.1305617  85.4496366
  60.7467559  58.4932377  85.0987794  53.4915073  63.6388008  96.0380578
  53.3747457  64.5833441  95.9359268  52.6707519  63.3361570  96.4266377
  63.0337500  54.8670257  88.2493510  62.9786304  54.7014529  87.3081954
  62.4083555  55.5746290  88.4055699  60.3483407  57.1719169 107.5747073
  61.2174567  57.3459821 107.2133707  59.8690158  57.9913586 107.4522802
  54.5169587  64.2916270  99.2536506  55.4196834  64.3239880  99.5703001
  54.2906957  63.3616721  99.2682842  56.2723189  63.0447257  95.9146585
  55.3218820  63.0449118  95.8010957  56.5755675  62.2979991  95.3982619
  52.1627506  47.2505939 106.1729946  53.0258967  46.8942743 106.3833271
  51.5892916  46.9119833 106.8605350  72.0075883  68.8807795  96.9792347
  72.6454293  68.7614542  96.2755687  71.8896726  69.8288639  97.0380299
  68.8165589  68.8335223  96.9153872  68.4784100  68.7176288  96.0274407
  69.6855357  68.4326388  96.8954878  64.6752405  70.6870700  92.9050763
  64.1117270  70.5960636  92.1367051  64.5604800  69.8670604  93.3853255
  69.2985372  69.9870075 102.8740077  69.2874013  69.5922873 102.0020581
  69.4606011  69.2536147 103.4673849  62.2216837  72.1821891  95.7434983
  63.0138129  71.8412716  95.3281283  62.4613487  72.2916866  96.6637137
  66.0192633  72.7707187 101.8219261  65.7282499  73.6752817 101.7065928
  66.6549617  72.8123714 102.5363331  66.9448840  70.1484035  98.4120621
  67.5412412  69.9240058  97.6977584  67.0023811  69.4068781  99.0146069
  71.5617151  66.6059249  94.0545555  72.3480240  66.1878672  93.7035972
  71.8255855  67.5105341  94.2227204  71.7327229  72.0432099  88.7534212
  71.0973061  72.1166726  89.4655117  71.4024635  72.6325698  88.0753291
  76.9625578  66.5434482  94.9578534  77.6950750  65.9733699  95.1916363
  76.2064934  66.1556082  95.3985039  68.5801698  68.9661724  92.1541876
  68.2159905  68.4392345  92.8654798  69.4368814  68.5760193  91.9808362
  74.4850999  60.2556056  99.4173142  74.1534323  61.1251467  99.1934357
  73.8896612  59.9392340 100.0967173  70.9782518  72.4568602  98.8169055
  70.6783241  73.3593641  98.7084862  70.6333578  72.1900785  99.6690208
  64.4295000  68.9082399  94.8505760  63.5045496  68.7758613  95.0583451
  64.6779413  69.6876618  95.3475702  74.3779662  64.9751142  96.4966492
  73.4696539  64.9066551  96.2025253  74.3267258  65.4523087  97.3248318
  61.7903811  68.5515673  95.6849549  61.9196192  68.8050151  96.5988960
  61.1101262  69.1443381  95.3654204  68.4520528  66.3940788 104.4401390
  67.6753862  66.9534708 104.4304254  69.0911091  66.8797571 104.9616260
  76.2441308  63.1767581  98.2744366  75.6015689  63.4700114  97.6284161
  75.7396237  63.0620501  99.0797563  73.8981472  66.9230754  88.9630226
  74.8099328  67.1558141  88.7877923  73.3891119  67.5067798  88.4005304
  66.7066900  69.2026241 104.0019357  67.4481584  69.7411285 103.7254180
  66.0003886  69.8292530 104.1590908  72.1822240  71.3455382 102.5991518
  72.5905596  70.9037792 101.8546151  71.4599501  70.7708009 102.8525711
  68.5353310  66.2827989  99.9725075  69.3814505  66.7067402 100.1159724
  68.4751947  65.6261613 100.6663638  72.5051054  71.9056572  96.3543807
  71.8759917  72.0702286  95.6519875  72.1176716  72.3198182  97.1254771
  76.3840286  72.8411010  93.7088171  75.6991324  73.2209912  93.1585204
  76.4684136  73.4506337  94.4420119  71.6852755  63.9432357 101.6306249
  71.4413687  64.6974417 101.0940524  71.9612686  64.3217704 102.4653496
  73.6391218  70.4870969 100.3083514  73.8508113  71.1302729  99.6317895
  73.5920966  69.6533286  99.8405444  71.2417447  63.0988790  97.2120086
  70.3801926  63.3970043  97.5036824  71.2679881  63.3159189  96.2801119
  68.0579016  71.6430980  93.6193892  68.5217362  71.9218683  92.8298515
  67.7935814  70.7414425  93.4366983  64.9503097  71.1902462  96.5573655
  65.5204454  71.6189730  95.9191140  65.5411209  70.9085047  97.2557841
  65.4428264  66.3565889 104.8034667  64.8126924  67.0382170 105.0370064
  65.3364352  66.2448971 103.8587805  60.7373236  66.0237685  95.7300591
  59.9472290  66.2795214  95.2540701  61.2284484  66.8386023  95.8352631
  74.7537046  73.3642925  98.4805872  75.5754490  72.9623112  98.1988553
  74.7499449  73.2611159  99.4321987  68.5193649  72.9126968 100.6366582
  68.5838082  73.3747375 101.4724754  67.8104573  72.2824333 100.7648892
  59.0210939  66.2768176  98.1615582  59.2718978  67.1615186  98.4273158
  59.5570488  66.0972777  97.3890673  82.8443039  69.7081673  94.8290843
  82.0906747  69.1389071  94.6734848  82.9790580  69.6744338  95.7761478
  64.7209007  60.6586655 107.1659918  64.3275952  60.1052854 107.8407562
  65.5375147  60.9697234 107.5566435  63.4965949  75.2136270  93.1596241
  63.6732577  76.1354234  92.9717225  64.2922783  74.8994689  93.5890621
  67.6376968  62.0744534 104.7580174  68.3786681  62.6751688 104.6784637
  67.8694890  61.3322172 104.1998217  62.7818306  67.2600902 103.0358404
  62.6671821  66.3586159 103.3365503  61.9262823  67.5064598 102.6843221
  69.8610143  75.2018642 104.6345905  69.4173997  74.4155021 104.3166809
  70.5227357  75.3897792 103.9689795  64.6197264  76.7314444  99.1606583
  65.1704690  76.6031507  98.3883577  63.7808740  77.0309333  98.8101476
  71.9591381  75.4821442 102.6627306  71.9409857  76.3030323 102.1707575
  72.8811301  75.3575517 102.8877447  68.4164436  72.9965571 103.5050814
  68.9492772  72.2353860 103.2750122  67.8878517  72.7039223 104.2474969
  71.5834130  58.1025637  99.0344456  71.2398400  58.9927279  98.9583567
  71.9513093  57.9127295  98.1714041  70.6630671  60.4730292  96.9993689
  70.1595466  60.4360428  96.1861495  70.9561278  61.3823035  97.0590346
  76.5218687  70.8466603  89.4770065  75.7448130  70.5077763  89.0325227
  77.2010168  70.8519226  88.8025030  69.7817148  72.1251564  91.0169626
  69.2538510  71.3904323  90.7042864  69.2804651  72.9026240  90.7709595
  74.7609994  70.3200584  96.1336673  74.1033669  71.0099846  96.2216801
  75.5650393  70.7097016  96.4770659  73.5715453  68.6744957  94.1840614
  74.0847335  69.3074949  94.6862324  74.2216677  68.0746153  93.8183974
  70.0496284  66.1494413  96.4298955  69.1318845  66.3709360  96.2720643
  70.4656428  66.2240723  95.5710662  70.8331332  67.5485828  91.5601635
  71.5803151  68.0607225  91.2508757  71.1022921  67.2269881  92.4206029
  74.3377249  73.6550958  92.3119757  73.8839576  72.8141868  92.3684947
  73.7071216  74.2912357  92.6494537  73.2810169  64.5842945  93.5420424
  72.5432926  64.0720331  93.8730667  73.5336942  64.1443326  92.7303701
  72.7810188  75.4927455  93.2469575  73.0733163  76.0532512  92.5281941
  73.2908809  75.7856016  94.0022734  73.3821796  57.3619197  94.1362194
  73.6880673  56.5016560  93.8488109  74.1074401  57.9536817  93.9361188
  67.7443814  76.2707806  94.3363028  67.7019992  76.4968653  93.4071560
  68.6606513  76.0371181  94.4848829  71.1909447  66.7391874 101.2343658
  71.5458835  66.9663347 102.0938123  71.8381579  67.0710251 100.6120913
  76.9207184  69.8610310  91.9392987  76.7825083  70.0511906  91.0114176
  76.5643403  70.6229692  92.3961038  65.0849311  63.8468405  98.0189999
  65.7248690  63.7057164  97.3212962  64.2526841  63.5602918  97.6428601
  76.9476564  71.9286837  96.9504258  77.3813071  71.8362126  97.7987312
  77.6608145  71.9044337  96.3124274  65.8609614  73.1470835  94.1324991
  66.6550213  72.6521155  93.9307566  65.1501307  72.6188698  93.7692697
  70.6804459  75.5288931  98.4837359  70.7341481  76.0979867  99.2515075
  69.8119240  75.6990816  98.1191396  63.5602852  65.2306487  99.9661810
  64.2325906  65.0223849  99.3174459  62.7332639  65.0328573  99.5267042
  77.8092114  71.9710537  99.4837143  78.0028004  72.8756348  99.7296418
  77.7092732  71.5117956 100.3175728  69.4628424  61.8568428 101.9827471
  68.8156339  62.5558378 101.8891947  70.2329440  62.2904572 102.3503719
  72.8707222  72.1217280 105.0578024  72.7192729  71.8927832 104.1408108
  72.8611902  73.0787882 105.0709369  69.6392559  69.6949193 100.0424290
  70.5684619  69.8460352  99.8693258  69.2183589  69.7833214  99.1872937
  68.4380890  73.7199857  97.8122828  68.2991976  73.3518642  98.6848766
  67.6495487  74.2347497  97.6406786  69.9886106  73.0981460  95.2011666
  69.6535938  73.0582230  96.0969316  69.4890051  72.4326176  94.7282076
  63.9630350  68.5049090 100.7264247  63.8250147  67.7729329 101.3275786
  64.8735273  68.4157990 100.4448435  66.5912650  68.2169049 100.2147927
  67.3012269  67.5762241 100.1734545  66.5481958  68.4681944 101.1374107
  74.5799429  75.1536403 103.1354506  74.5211975  74.4695623 102.4685089
  74.9818947  75.8955393 102.6835132  65.3041584  65.2034267 102.0343566
  64.7678941  64.7525006 102.6865163  64.7158293  65.3380176 101.2914031
  63.5990128  81.9698316  95.9288225  63.8386726  82.6016841  96.6067243
  62.7559324  81.6186357  96.2153584  74.5816836  73.1175987 101.3668486
  73.6943615  72.7801908 101.4894884  75.1515387  72.3859018 101.6037251
  56.2345983  69.4500078  94.6911537  56.9217023  69.1361808  94.1032552
  56.0794112  70.3541443  94.4178788  61.0380705  64.3390275  99.1196561
  60.9538894  63.7315944  98.3846971  60.2163412  64.8299293  99.1206057
  68.1117990  77.7777439  98.3329729  68.0388161  78.5832410  98.8449033
  67.6695383  77.9769405  97.5077750  67.9007769  77.0149209  91.8432550
  67.1175291  77.5570889  91.9370775  68.6000514  77.5323189  92.2426792
  71.2104419  62.8243838  94.4866756  71.7073119  62.0713801  94.1667826
  70.4391401  62.8608155  93.9209965  79.0634177  68.5284204  96.1285047
  79.0524053  69.4108919  95.7578980  78.1951556  68.1755755  95.9339584
  70.5716673  77.6764273 100.4887887  71.2844645  78.3111738 100.4163789
  70.0806702  77.7728139  99.6727889  72.2934200  71.5815526  92.0605179
  71.3590479  71.7016988  91.8909883  72.4710868  70.6787992  91.7965189
  75.6806751  67.4232845  92.5955213  76.1467204  68.2560837  92.5215516
  76.1314252  66.9577826  93.3000472  65.6228587  75.4258716 101.3093458
  66.3238046  76.0595199 101.4622852  65.1523702  75.7673448 100.5489098
  73.7482982  73.7676666  89.5941365  74.0242826  73.6533261  90.5035239
  72.8787481  73.3694151  89.5553538  73.6523414  59.7913432  96.6346115
  72.7386494  60.0217659  96.8028322  74.0816516  59.8751876  97.4860147
  73.4229873  67.9803324  99.1346009  72.7701323  68.2279231  98.4798461
  73.8010252  67.1667462  98.8008486  70.3837046  78.0163017  93.2374179
  70.5659441  77.1984673  93.7001931  71.2070032  78.2330709  92.7999069
  69.4717446  68.7223135 105.6212046  68.7958083  68.6217264 106.2914421
  70.2945079  68.5662349 106.0848043  61.2196305  74.9595071  98.2424561
  61.8049741  74.2138759  98.3752465  61.0221143  75.2699028  99.1261225
  64.0734960  77.9946319  93.2587003  63.4045335  78.4792446  92.7751043
  63.9347830  78.2415539  94.1730382  55.8113959  67.5300672  96.9629004
  55.8498059  66.9964262  97.7566122  55.3054252  67.0035877  96.3439981
  68.2140228  80.0290062  99.8569662  68.7658537  80.1921684 100.6218747
  68.5546422  80.6194500  99.1849687  62.6656994  64.4488345 104.1064581
  63.2929033  64.0665422 104.7202105  61.8084913  64.2302547 104.4720273
  73.0651103  74.8551320 105.7118316  73.6091007  75.4681278 105.2173271
  72.4837948  75.4130898 106.2285329  71.3508616  77.9772038  96.8433344
  71.2259755  77.1761778  96.3344289  72.0087707  78.4718231  96.3547314
  73.4143524  75.7781058  98.4712894  72.4673860  75.6586409  98.3991221
  73.7626297  74.8903556  98.5539155  65.7743098  61.6675197 102.2951136
  66.2977499  61.9137493 103.0577445  65.5555431  62.4995232 101.8754273
  70.4189957  75.5733774  94.6717246  70.2714920  74.6450482  94.8524816
  71.2443451  75.5953865  94.1874321  74.0224079  76.3962333  95.7582119
  74.9470627  76.1905194  95.6206570  73.8539383  76.1478734  96.6671460
  66.9795643  62.6088892  99.9800806  66.6392463  61.8096705 100.3821486
  66.2734649  62.9090603  99.4077640  65.1550693  66.3857325  96.2420108
  65.0095274  66.6997628  97.1344390  64.6775897  67.0042225  95.6891007
  67.0147076  63.3759873  96.2900998  67.0008645  62.4800966  95.9533296
  67.7319504  63.3830537  96.9239284  68.8673207  63.8097213  98.3354125
  68.6090985  64.7314284  98.3338455  68.3358247  63.4127648  99.0254589
  73.8119395  76.9148000  91.1144210  73.9856273  76.3494423  90.3618063
  74.3048287  77.7148895  90.9323700  59.6296355  68.9262669  99.1807769
  59.0849823  69.7022477  99.3128044  60.5075705  69.2733474  99.0226891
  79.6658787  69.6784423  92.7334510  80.1089933  68.9291749  92.3353633
  78.7885297  69.6694560  92.3508242  60.4162377  68.0532566 102.0737926
  59.6744113  68.2015201 102.6602556  60.0955121  68.3140831 101.2104675
  76.6985991  73.6814470  89.7428439  77.2237315  74.0201743  89.0177759
  76.6108344  72.7461486  89.5591574  68.3606040  77.5948544 101.8718316
  68.6693166  77.3497691 102.7441016  69.1581522  77.7995182 101.3837186
  60.8618991  75.9397994  94.1048321  61.6877011  75.6401766  93.7246964
  60.5113043  75.1705617  94.5538109  65.8300524  75.2924463  96.1745994
  65.2080533  74.6295168  95.8748222  66.5005391  75.3185595  95.4919642
  59.0627596  73.8584321  95.0637254  58.2259504  73.4306495  94.8821256
  59.0351241  74.0516764  96.0008045  65.9025051  63.7706251 105.7678500
  65.9513207  64.6468374 105.3856270  66.4447566  63.2283644 105.1950144
  76.3879897  74.3147374 105.0479637  75.5975441  74.2971513 104.5084137
  76.1513252  74.8535668 105.8028674  76.5077772  71.1639840 102.3612366
  76.5575777  70.9989848 103.3027889  76.3991696  70.2967099 101.9710247
  73.7981535  67.1470768 103.6771673  74.6991397  67.0077233 103.3855670
  73.8729509  67.3125223 104.6169850  68.1324340  64.5237623 102.5224859
  67.2627649  64.8171189 102.2507447  68.3683820  65.1078068 103.2432123
  78.0095969  73.5836782 102.6054387  77.7180777  73.9466762 103.4417848
  77.3968100  72.8703790 102.4267720  79.2091651  71.1489662  95.1256958
  80.0438543  71.5879466  95.2894518  79.3450780  70.6728315  94.3065203
  76.2583157  68.7069396 101.0734445  76.7337279  68.8997043 100.2653297
  75.3348723  68.7628582 100.8277829  70.8363374  60.7417240 100.0390279
  71.3545318  61.4778267  99.7136768  70.4818507  61.0481233 100.8737038
  71.0875968  57.1617523  95.5591176  71.3677722  56.4940712  96.1851602
  71.8726575  57.3546618  95.0465840  74.9584826  65.5835157  99.3062751
  75.9102249  65.6833254  99.3274975  74.7888277  64.7913425  99.8160835
  72.9799206  62.6690740  99.4922152  72.3849138  62.9495753  98.7968641
  72.6948902  63.1584641 100.2638893  77.4372904  68.8041276  98.4205051
  77.4049224  67.8657277  98.6064735  78.0473528  68.8825313  97.6870876
  77.5867393  65.5952320  98.4663334  77.0706441  64.8110776  98.2793263
  78.4707341  65.2671036  98.6309853  75.2478119  59.3393335  94.4259147
  75.0502941  59.0308423  95.3102479  75.8577825  60.0654974  94.5557076
  83.2549454  69.8657283  97.5611088  83.9852842  69.6042571  98.1218791
  82.6456399  69.1286005  97.6013155  81.3364751  68.0065146  98.1585539
  80.6097915  67.8721111  97.5502030  80.9212038  68.3141974  98.9642257
  69.1594927  71.7255075 105.9232912  70.0797937  71.9033674 106.1172958
  69.1244511  70.7811121 105.7712611  62.1557000  69.6356110  98.5655693
  62.3743010  70.5673218  98.5843727  62.5682774  69.2764084  99.3510497
  67.0284865  65.2089316 107.9558442  66.9281592  66.1583673 107.8870533
  66.8106407  64.8807555 107.0834512  58.2465352  70.5396581  96.8179308
  57.5528824  70.1250533  96.3049262  58.9938343  70.5817117  96.2212727
  74.3830573  61.3302767  91.6834342  73.8029242  61.9887571  91.3012395
  74.1166506  60.5080112  91.2721760  72.8334140  60.7307825  93.8855662
  73.3333918  60.8424360  93.0769981  73.4769747  60.4268878  94.5256471
  66.8916135  68.6386455 106.7723503  66.4083217  69.4386815 106.9787392
  66.9777074  68.6494399 105.8190947  62.8189473  72.5290989  98.8091937
  63.7732726  72.4974932  98.7421869  62.6201996  72.0681613  99.6242163
  63.4088855  71.0992105 101.3762735  64.2281744  71.5936184 101.3997572
  63.6825663  70.1824074 101.3480302  73.1655451  63.4902858  90.7390690
  72.2781306  63.7752508  90.5210885  73.5809440  63.3296621  89.8917967
  76.5169987  63.5149379  94.4545030  77.2930377  64.0045831  94.7269646
  75.7918122  63.9407433  94.9116899  78.9542546  64.2276998  95.5118970
  79.5487037  63.9872734  94.8012279  79.0269130  63.5084128  96.1392507
  61.1739702  78.0710609  95.8262135  61.0394170  77.3111010  95.2600133
  60.7571764  78.7951509  95.3590924  73.1396475  69.0057394  90.9540981
  73.0831676  69.4625945  90.1148613  73.6924817  68.2448078  90.7763823
  76.9501281  64.7947125  91.7791100  76.6938215  64.3943761  92.6099308
  76.3254149  65.5090919  91.6541239  81.2613619  67.5343199  94.2862391
  80.7013177  67.6036388  95.0593954  80.6557122  67.3584183  93.5661888
  64.3308828  78.9679926  96.0380578  64.2141212  79.9125358  95.9359268
  63.5101274  78.6653487  96.4266377  58.6623769  65.4330239 102.0754932
  59.3082633  64.9229193 102.5642157  58.4540920  66.1698921 102.6498357
  71.1877161  72.5011087 107.5747073  72.0568321  72.6751739 107.2133707
  70.7083913  73.3205504 107.4522802  65.3563342  79.6208188  99.2536506
  66.2590588  79.6531798  99.5703001  65.1300712  78.6908639  99.2682842
  67.1116944  78.3739174  95.9146585  66.1612575  78.3741036  95.8010957
  67.4149430  77.6271909  95.3982619  70.9979499  56.2913061  92.0824765
  70.2311895  55.7371547  92.2281447  71.4090204  56.3634929  92.9438917
  63.0021260  62.5797856 106.1729946  63.8652722  62.2234661 106.3833271
  62.4286671  62.2411751 106.8605350  85.3244753  75.5847974  99.4173142
  84.9928078  76.4543385  99.1934357  84.7290367  75.2684258 100.0967173
  75.5602761  75.9878573 107.1659918  75.1669707  75.4344772 107.8407562
  76.3768901  76.2989151 107.5566435  73.6212060  82.5892819 103.0358404
  73.5065575  81.6878077 103.3365503  72.7656578  82.8356516 102.6843221
  82.4227885  73.4317555  99.0344456  82.0792154  74.3219197  98.9583567
  82.7906848  73.2419213  98.1714041  77.7467311  75.8860940  96.0059871
  78.6120308  75.6903749  95.6465760  77.8144820  75.6571292  96.9329228
  75.3529630  78.1163148  93.3776238  75.9273382  77.8938329  92.6449431
  75.9400613  78.1851842  94.1304839  77.6552298  74.9904397  92.1051307
  77.0016710  74.6753414  91.4807922  77.6132772  74.3680137  92.8311130
  84.2215551  72.6911114  94.1362194  84.5274427  71.8308478  93.8488109
  84.9468155  73.2828734  93.9361188  75.9243065  79.1760323  98.0189999
  76.5642444  79.0349082  97.3212962  75.0920596  78.8894836  97.6428601
  72.9271681  79.1460648  92.7962985  73.1878499  80.0605981  92.6872146
  73.7488854  78.6785090  92.9459598  71.8774460  79.6682193  99.1196561
  71.7932649  79.0607862  98.3846971  71.0557166  80.1591211  99.1206057
  84.4917169  75.1205350  96.6346115  83.5780248  75.3509576  96.8028322
  84.9210270  75.2043794  97.4860147  73.5050749  79.7780262 104.1064581
  74.1322788  79.3957340 104.7202105  72.6478668  79.5594464 104.4720273
  76.6136852  76.9967115 102.2951136  77.1371254  77.2429411 103.0577445
  76.3949185  77.8287149 101.8754273  75.1245956  79.5543759  90.5297738
  75.4642029  80.0829680  89.8076347  75.5718077  79.8924165  91.3056305
  77.8189397  77.9380810  99.9800806  77.4786217  77.1388623 100.3821486
  77.1128403  78.2382521  99.4077640  78.4705869  75.0230122  98.4328129
  79.2931938  74.5490600  98.3107020  78.7143932  75.8020606  98.9326816
  77.2577726  77.5866171  91.5588568  77.3793638  76.6582817  91.7579455
  76.9679769  77.6004857  90.6466883  80.1268917  75.2721081  94.6955288
  80.1490614  75.3360415  93.7407267  80.5436976  74.4325590  94.8895794
  71.2556132  83.3824483 102.0737926  70.5137868  83.5307119 102.6602556
  70.9348876  83.6432749 101.2104675  81.6757128  76.0709158 100.0390279
  82.1939072  76.8070185  99.7136768  81.3212261  76.3773151 100.8737038
  81.9269722  72.4909440  95.5591176  82.2071476  71.8232629  96.1851602
  82.7120329  72.6838536  95.0465840  83.8192960  77.9982657  99.4922152
  83.2242892  78.2787670  98.7968641  83.5342657  78.4876558 100.2638893
  86.0871874  74.6685253  94.4259147  85.8896695  74.3600341  95.3102479
  86.6971580  75.3946892  94.5557076  79.9988682  87.0546993 105.9232912
  80.9191691  87.2325592 106.1172958  79.9638265  86.1103038 105.7712611
  79.9154972  75.4716113  90.5531381  79.1055701  75.1263198  90.9286627
  80.6039389  75.1623657  91.1418993  81.8445521  74.5494160  92.1755678
  82.3976559  74.9689613  92.8345701  82.0815607  73.6229908  92.2178634
  77.8678620  80.5381233 107.9558442  77.7675347  81.4875590 107.8870533
  77.6500162  80.2099472 107.0834512  83.6727894  76.0599743  93.8855662
  84.1727672  76.1716277  93.0769981  84.3163502  75.7560796  94.5256471
  69.5017524  80.7622157 102.0754932  70.1476387  80.2521111 102.5642157
  69.2934675  81.4990839 102.6498357  82.0270916  87.8303004 107.5747073
  82.8962076  88.0043657 107.2133707  81.5477667  88.6497421 107.4522802
  81.8373254  71.6204978  92.0824765  81.0705649  71.0663465  92.2281447
  82.2483959  71.6926847  92.9438917  73.8415015  77.9089774 106.1729946
  74.7046476  77.5526579 106.3833271  73.2680425  77.5703669 106.8605350
  91.9339472 105.0125503  88.2165228  91.2827452 105.5979583  87.8299242
  92.7283835 105.5431697  88.2760265  89.6057257 100.6015609  84.0204599
  88.6984319 100.3704863  84.2195748  90.1028289  99.8053229  84.2078581
  95.4270491 104.4260502  89.5941365  95.7030335 104.3117096  90.5035239
  94.5574990 104.0277986  89.5553538  95.4906904 107.5731836  91.1144210
  95.6643782 107.0078258  90.3618063  95.9835796 108.3732731  90.9323700
  96.4782077 106.8898600  88.2141109  97.1732982 107.5105293  88.4328423
  96.8205227 106.0393951  88.4893487  87.0701540 104.5012221  89.6504455
  87.2189660 105.1847686  88.9971128  87.8767983 104.4817311  90.1653911
  93.7894205 107.2797502  88.2524785  94.7224878 107.2143064  88.4557660
  93.7017418 108.1153769  87.7939317 104.5257146 114.8683548  96.9792347
 105.1635556 114.7490295  96.2755687 104.4077989 115.8164392  97.0380299
 101.3346852 114.8210976  96.9153872 100.9965364 114.7052041  96.0274407
 102.2036621 114.4202141  96.8954878  97.1933668 116.6746453  92.9050763
  96.6298533 116.5836389  92.1367051  97.0786063 115.8546357  93.3853255
 101.8166635 115.9745828 102.8740077 101.8055276 115.5798626 102.0020581
 101.9787275 115.2411900 103.4673849  94.7398100 118.1697644  95.7434983
  95.5319392 117.8288469  95.3281283  94.9794750 118.2792619  96.6637137
 102.7733227 120.3417420  88.2165228 102.1221207 120.9271501  87.8299242
 103.5677590 120.8723615  88.2760265  96.6988854 117.4306557  88.6152362
  97.4719730 116.8835544  88.4765238  97.0514253 118.2950807  88.8266824
  98.5373897 118.7582940 101.8219261  98.2463763 119.6628570 101.7065928
  99.1730881 118.7999467 102.5363331  99.4630103 116.1359788  98.4120621
 100.0593676 115.9115811  97.6977584  99.5205075 115.3944534  99.0146069
 104.0798415 112.5935002  94.0545555 104.8661504 112.1754425  93.7035972
 104.3437119 113.4981094  94.2227204 104.2508492 118.0307852  88.7534212
 103.6154325 118.1042479  89.4655117 103.9205898 118.6201451  88.0753291
 109.4806842 112.5310235  94.9578534 110.2132014 111.9609452  95.1916363
 108.7246197 112.1431836  95.3985039  98.7551421 115.4927329  88.4495187
  98.6387679 114.8172233  89.1176271  98.8653680 115.0059703  87.6327340
 101.0982961 114.9537477  92.1541876 100.7341169 114.4268098  92.8654798
 101.9550077 114.5635946  91.9808362 103.4963782 118.4444355  98.8169055
 103.1964505 119.3469394  98.7084862 103.1514841 118.1776538  99.6690208
  96.9476263 114.8958152  94.8505760  96.0226760 114.7634366  95.0583451
  97.1960676 115.6752371  95.3475702 106.8960925 110.9626895  96.4966492
 105.9877803 110.8942304  96.2025253 106.8448521 111.4398840  97.3248318
  94.3085074 114.5391426  95.6849549  94.4377455 114.7925904  96.5988960
  93.6282525 115.1319134  95.3654204  98.4784561 125.2088676  91.7840023
  98.4008591 126.1596501  91.8628503  97.8746205 124.8634548  92.4414949
 100.9701791 112.3816541 104.4401390 100.1935125 112.9410461 104.4304254
 101.6092354 112.8673324 104.9616260 108.7622572 109.1643334  98.2744366
 108.1196952 109.4575867  97.6284161 108.2577500 109.0496254  99.0797563
  99.2248164 115.1901994 104.0019357  99.9662848 115.7287038 103.7254180
  98.5185149 115.8168283 104.1590908 104.7003503 117.3331135 102.5991518
 105.1086859 116.8913545 101.8546151 103.9780765 116.7583762 102.8525711
 101.0534573 112.2703742  99.9725075 101.8995768 112.6943155 100.1159724
 100.9933211 111.6137366 100.6663638 105.0232318 117.8932325  96.3543807
 104.3941180 118.0578040  95.6519875 104.6357980 118.3073935  97.1254771
 108.9021550 118.8286763  93.7088171 108.2172588 119.2085665  93.1585204
 108.9865399 119.4382090  94.4420119 104.2034019 109.9308110 101.6306249
 103.9594950 110.6850170 101.0940524 104.4793949 110.3093458 102.4653496
 106.1572481 116.4746722 100.3083514 106.3689377 117.1178482  99.6317895
 106.1102230 115.6409039  99.8405444 100.5760280 117.6306733  93.6193892
 101.0398625 117.9094436  92.8298515 100.3117078 116.7290178  93.4366983
  97.4684361 117.1778215  96.5573655  98.0385718 117.6065483  95.9191140
  98.0592473 116.8960800  97.2557841  99.5129166 113.7529886  90.4283457
 100.2153209 114.2050930  90.8957384  99.1809794 113.1113705  91.0563350
  97.9609527 112.3441642 104.8034667  97.3308188 113.0257923 105.0370064
  97.8545615 112.2324724 103.8587805  93.2554500 112.0113439  95.7300591
  92.4653554 112.2670967  95.2540701  93.7465747 112.8261776  95.8352631
 107.2718309 119.3518678  98.4805872 108.0935753 118.9498865  98.1988553
 107.2680712 119.2486912  99.4321987  95.2069245 112.3758018  92.6884068
  94.4100408 112.4876712  93.2067563  94.9794837 112.7144670  91.8224958
 101.0374913 118.9002721 100.6366582 101.1019345 119.3623128 101.4724754
 100.3285837 118.2700086 100.7648892 115.3624302 115.6957426  94.8290843
 114.6088011 115.1264824  94.6734848 115.4971844 115.6620091  95.7761478
 100.7522930 120.5670828  90.5045563 100.6168605 121.4122364  90.9330410
 101.2932743 120.7690106  89.7411496  97.2390270 106.6462408 107.1659918
  96.8457216 106.0928607 107.8407562  98.0556410 106.9572987 107.5566435
  94.2052328 118.0846267  91.0773488  94.7176848 118.8789517  91.2279052
  94.8575041 117.3872557  91.0107089  96.0147212 121.2012023  93.1596241
  96.1913841 122.1229987  92.9717225  96.8104046 120.8870442  93.5890621
 100.1558231 108.0620287 104.7580174 100.8967944 108.6627441 104.6784637
 100.3876154 107.3197925 104.1998217  95.2999569 113.2476655 103.0358404
  95.1853084 112.3461912 103.3365503  94.4444087 113.4940351 102.6843221
 102.3791407 121.1894395 104.6345905 101.9355261 120.4030774 104.3166809
 103.0408620 121.3773545 103.9689795  97.1378528 122.7190197  99.1606583
  97.6885953 122.5907260  98.3883577  96.2990004 123.0185086  98.8101476
 104.4772645 121.4697195 102.6627306 104.4591120 122.2906076 102.1707575
 105.3992565 121.3451270 102.8877447 100.9345699 118.9841324 103.5050814
 101.4674036 118.2229613 103.2750122 100.4059780 118.6914976 104.2474969
  99.4254820 106.5444775  96.0059871 100.2907817 106.3487584  95.6465760
  99.4932329 106.3155127  96.9329228 109.0399951 116.8342356  89.4770065
 108.2629394 116.4953516  89.0325227 109.7191432 116.8394979  88.8025030
 102.2998412 118.1127317  91.0169626 101.7719773 117.3780076  90.7042864
 101.7985914 118.8901993  90.7709595 107.2791258 116.3076337  96.1336673
 106.6214932 116.9975599  96.2216801 108.0831657 116.6972769  96.4770659
  97.0317139 108.7746983  93.3776238  97.6060891 108.5522165  92.6449431
  97.6188122 108.8435678  94.1304839 106.0896716 114.6620710  94.1840614
 106.6028598 115.2950702  94.6862324 106.7397940 114.0621906  93.8183974
  97.3586726 110.8051444  87.3972123  96.5224039 111.1426131  87.7181398
  97.2191496 110.6700424  86.4599260 103.3519091 124.6405034  86.9401285
 102.6780789 124.9436731  87.5486243 103.7384913 125.4434115  86.5906743
 102.5677547 112.1370166  96.4298955 101.6500109 112.3585113  96.2720643
 102.9837691 112.2116476  95.5710662 103.3512595 113.5361581  91.5601635
 104.0984414 114.0482978  91.2508757 103.6204185 113.2145634  92.4206029
 101.6239245 116.0320122  88.5428589 100.7150465 115.7479155  88.6401059
 101.6534329 116.4519201  87.6831896 106.8558513 119.6426712  92.3119757
 106.4020840 118.8017621  92.3684947 106.2252479 120.2788110  92.6494537
 105.7991432 110.5718698  93.5420424 105.0614189 110.0596084  93.8730667
 106.0518206 110.1319079  92.7303701 105.2991452 121.4803208  93.2469575
 105.5914426 122.0408265  92.5281941 105.8090073 121.7731769  94.0022734
 100.1724139 113.6448743  94.6438385 100.2272749 112.6922579  94.5680861
  99.3615341 113.8008182  95.1279683 101.3215333 117.5728866  85.8816668
 100.8834763 116.8564725  85.4222305 102.0625774 117.8004980  85.3201759
  98.1116499 112.2625802  92.4028764  97.2984365 112.5619973  92.8093956
  98.6075493 111.8681491  93.1203246 100.2625077 122.2583559  94.3363028
 100.2201256 122.4844406  93.4071560 101.1787776 122.0246934  94.4848829
 103.7090711 112.7267627 101.2343658 104.0640099 112.9539100 102.0938123
 104.3562842 113.0586004 100.6120913 109.4388448 115.8486063  91.9392987
 109.3006346 116.0387659  91.0114176 109.0824667 116.6105446  92.3961038
  97.6030574 109.8344158  98.0189999  98.2429953 109.6932917  97.3212962
  96.7708105 109.5478671  97.6428601 109.4657827 117.9162590  96.9504258
 109.8994334 117.8237879  97.7987312 110.1789408 117.8920090  96.3124274
  98.3790878 119.1346588  94.1324991  99.1731476 118.6396908  93.9307566
  97.6682570 118.6064451  93.7692697 103.1985722 121.5164684  98.4837359
 103.2522745 122.0855620  99.2515075 102.3300504 121.6866569  98.1191396
  94.6059190 109.8044483  92.7962985  94.8666008 110.7189816  92.6872146
  95.4276363 109.3368925  92.9459598  96.0784116 111.2182240  99.9661810
  96.7507169 111.0099602  99.3174459  95.2513902 111.0204326  99.5267042
 110.3273377 117.9586290  99.4837143 110.5209267 118.8632101  99.7296418
 110.2273995 117.4993709 100.3175728 105.3888486 118.1093033 105.0578024
 105.2373992 117.8803585 104.1408108 105.3793165 119.0663635 105.0709369
 102.1573822 115.6824946 100.0424290 103.0865882 115.8336105  99.8693258
 101.7364852 115.7708967  99.1872937 100.9562154 119.7075610  97.8122828
 100.8173240 119.3394395  98.6848766 100.1676750 120.2223250  97.6406786
 101.5510306 124.8084707  89.1548365 101.7262062 124.3372750  89.9693987
 100.8643094 125.4350473  89.3829625 102.5067369 119.0857213  95.2011666
 102.1717202 119.0457983  96.0969316 102.0071315 118.4201929  94.7282076
  96.4811613 114.4924843 100.7264247  96.3431411 113.7605082 101.3275786
  97.3916536 114.4033743 100.4448435  99.1093914 114.2044802 100.2147927
  99.8193532 113.5637995 100.1734545  99.0663222 114.4557697 101.1374107
 107.0980692 121.1412156 103.1354506 107.0393239 120.4571376 102.4685089
 107.5000211 121.8831146 102.6835132  97.8222848 111.1910020 102.0343566
  97.2860205 110.7400759 102.6865163  97.2339556 111.3255929 101.2914031
  96.1171391 127.9574070  95.9288225  96.3567989 128.5892594  96.6067243
  95.2740588 127.6062110  96.2153584  97.2325107 110.6498672  84.5970030
  96.3554573 110.5287472  84.2332276  97.7082860 109.8584750  84.3448918
 107.0998100 119.1051740 101.3668486 106.2124878 118.7677661 101.4894884
 107.6696651 118.3734771 101.6037251  93.5561969 110.3266028  99.1196561
  93.4720158 109.7191697  98.3846971  92.7344675 110.8175046  99.1206057
 100.6299253 123.7653192  98.3329729 100.5569425 124.5708163  98.8449033
 100.1876646 123.9645158  97.5077750 100.4189033 123.0024962  91.8432550
  99.6356555 123.5446642  91.9370775 101.1181778 123.5198942  92.2426792
 103.7285683 108.8119591  94.4866756 104.2254382 108.0589554  94.1667826
 102.9572664 108.8483908  93.9209965 111.5815440 114.5159957  96.1285047
 111.5705316 115.3984672  95.7578980 110.7132820 114.1631508  95.9339584
 103.0897937 123.6640026 100.4887887 103.8025909 124.2987491 100.4163789
 102.5987965 123.7603892  99.6727889 104.8115463 117.5691279  92.0605179
 103.8771742 117.6892741  91.8909883 104.9892132 116.6663745  91.7965189
 100.3120652 110.9536974  94.2138440  99.9418439 110.4008015  94.9019346
 100.8079744 110.3495108  93.6613440 108.1988015 113.4108598  92.5955213
 108.6648467 114.2436590  92.5215516 108.6495515 112.9453580  93.3000472
  98.1409850 121.4134469 101.3093458  98.8419310 122.0470952 101.4622852
  97.6704965 121.7549201 100.5489098 106.2664246 119.7552419  89.5941365
 106.5424090 119.6409014  90.5035239 105.3968745 119.3569904  89.5553538
 105.9411136 113.9679077  99.1346009 105.2882586 114.2154984  98.4798461
 106.3191516 113.1543215  98.8008486 102.9018310 124.0038770  93.2374179
 103.0840704 123.1860426  93.7001931 103.7251296 124.2206462  92.7999069
 103.2360475 122.9306955  90.4989227 103.7648242 122.4199410  89.8859390
 103.4988695 122.6149485  91.3634760 101.9898709 114.7098888 105.6212046
 101.3139346 114.6093017 106.2914421 102.8126343 114.5538102 106.0848043
  93.7377568 120.9470824  98.2424561  94.3231005 120.2014512  98.3752465
  93.5402407 121.2574781  99.1261225  96.5916223 123.9822072  93.2587003
  95.9226599 124.4668200  92.7751043  96.4529093 124.2291292  94.1730382
 100.7321492 126.0165815  99.8569662 101.2839800 126.1797437 100.6218747
 101.0727685 126.6070253  99.1849687  95.1838258 110.4364098 104.1064581
  95.8110297 110.0541175 104.7202105  94.3266177 110.2178300 104.4720273
 105.5832366 120.8427073 105.7118316 106.1272270 121.4557031 105.2173271
 105.0019211 121.4006651 106.2285329 103.8689879 123.9647791  96.8433344
 103.7441019 123.1637531  96.3344289 104.5268970 124.4593984  96.3547314
  95.4898047 110.3196523  96.0210484  94.7684633 110.9332491  95.8817957
  96.2791303 110.8554288  95.9427130 105.9324788 121.7656811  98.4712894
 104.9855123 121.6462162  98.3991221 106.2807561 120.8779309  98.5539155
  98.2924361 107.6550950 102.2951136  98.8158763 107.9013246 103.0577445
  98.0736694 108.4870985 101.8754273 102.9371221 121.5609527  94.6717246
 102.7896183 120.6326235  94.8524816 103.7624714 121.5829618  94.1874321
  96.8033465 110.2127594  90.5297738  97.1429538 110.7413516  89.8076347
  97.2505586 110.5508000  91.3056305 106.5405343 122.3838086  95.7582119
 107.4651890 122.1780947  95.6206570 106.3720646 122.1354487  96.6671460
  97.6731957 112.3733078  96.2420108  97.5276537 112.6873381  97.1344390
  97.1957160 112.9917978  95.6891007  99.5328339 109.3635626  96.2900998
  99.5189908 108.4676719  95.9533296 100.2500768 109.3706290  96.9239284
 106.3300659 122.9023753  91.1144210 106.5037536 122.3370176  90.3618063
 106.8229550 123.7024648  90.9323700  92.1477619 114.9138422  99.1807769
  91.6031087 115.6898230  99.3128044  93.0256969 115.2609227  99.0226891
 112.1840050 115.6660176  92.7334510 112.6271196 114.9167502  92.3353633
 111.3066560 115.6570313  92.3508242 107.3175831 122.2190518  88.2141109
 108.0126736 122.8397210  88.4328423 107.6598982 121.3685869  88.4893487
  92.9343641 114.0408319 102.0737926  92.1925377 114.1890954 102.6602556
  92.6136385 114.3016584 101.2104675 109.2167255 119.6690223  89.7428439
 109.7418579 120.0077496  89.0177759 109.1289607 118.7337239  89.5591574
 100.8787303 123.5824297 101.8718316 101.1874430 123.3373444 102.7441016
 101.6762785 123.7870935 101.3837186 100.9007915 125.7362207  94.1023693
 100.4612906 125.2438585  94.7956549 101.6516032 125.1935174  93.8615768
  93.3800254 121.9273747  94.1048321  94.2058274 121.6277519  93.7246964
  93.0294306 121.1581370  94.5538109  98.3481787 121.2800216  96.1745994
  97.7261797 120.6170921  95.8748222  99.0186654 121.3061348  95.4919642
  91.5808859 119.8460074  95.0637254  90.7440768 119.4182248  94.8821256
  91.5532505 120.0392517  96.0008045  98.4206315 109.7582004 105.7678500
  98.4694470 110.6344127 105.3856270  98.9628829 109.2159397 105.1950144
 108.9061161 120.3023127 105.0479637 108.1156704 120.2847266 104.5084137
 108.6694515 120.8411421 105.8028674 109.0259036 117.1515593 102.3612366
 109.0757041 116.9865601 103.3027889 108.9172959 116.2842852 101.9710247
  97.9095294 119.8304139  89.6504455  98.0583415 120.5139603  88.9971128
  98.7161738 119.8109229  90.1653911 106.3162798 113.1346521 103.6771673
 107.2172661 112.9952986 103.3855670 106.3910773 113.3000976 104.6169850
 100.6505603 110.5113376 102.5224859  99.7808913 110.8046942 102.2507447
 100.8865084 111.0953821 103.2432123 110.5277233 119.5712535 102.6054387
 110.2362041 119.9342515 103.4417848 109.9149364 118.8579543 102.4267720
 111.7272915 117.1365415  95.1256958 112.5619806 117.5755219  95.2894518
 111.8632044 116.6604068  94.3065203 108.7764421 114.6945150 101.0734445
 109.2518542 114.8872796 100.2653297 107.8529986 114.7504335 100.8277829
  95.6647927 115.8569317  90.6565524  95.4193969 114.9531647  90.8545734
  95.8343842 115.8586467  89.7145002 101.4090700 122.3252269  87.1216202
 100.8364667 122.9442457  86.6686674 101.9823494 122.8751631  87.6556124
 107.4766090 111.5710910  99.3062751 108.4283513 111.6709007  99.3274975
 107.3069540 110.7789178  99.8160835 104.6287960 122.6089420  88.2524785
 105.5618633 122.5434981  88.4557660 104.5411173 123.4445686  87.7939317
 107.2575976 121.9255290  85.2128732 107.1789608 121.5915154  86.1064490
 108.0785643 122.4177058  85.2120204 109.9554168 114.7917029  98.4205051
 109.9230488 113.8533030  98.6064735 110.5654791 114.8701066  97.6870876
 110.1048656 111.5828073  98.4663334 109.5887705 110.7986529  98.2793263
 110.9888605 111.2546789  98.6309853 115.7730717 115.8533036  97.5611088
 116.5034106 115.5918324  98.1218791 115.1637663 115.1161758  97.6013155
 113.8546015 113.9940899  98.1585539 113.1279178 113.8596864  97.5502030
 113.4393301 114.3017727  98.9642257 101.6776191 117.7130828 105.9232912
 102.5979200 117.8909427 106.1172958 101.6425774 116.7686874 105.7712611
  94.6738263 115.6231863  98.5655693  94.8924273 116.5548971  98.5843727
  95.0864037 115.2639837  99.3510497  99.5466129 111.1965069 107.9558442
  99.4462856 112.1459426 107.8870533  99.3287671 110.8683308 107.0834512
  99.4097399 114.6262208 106.7723503  98.9264481 115.4262568 106.9787392
  99.4958338 114.6370153 105.8190947  92.6783358 116.4590587  94.6945323
  92.6554047 116.5578275  93.7427206  92.9883995 117.3055738  95.0162489
  95.3370736 118.5166742  98.8091937  96.2913990 118.4850685  98.7421869
  95.1383260 118.0557366  99.6242163  95.9270118 117.0867858 101.3762735
  96.7463007 117.5811937 101.3997572  96.2006926 116.1699827 101.3480302
 109.0351251 109.5025132  94.4545030 109.8111641 109.9921584  94.7269646
 108.3099385 109.9283186  94.9116899 111.4723809 110.2152751  95.5118970
 112.0668300 109.9748487  94.8012279 111.5450393 109.4959881  96.1392507
  93.6920965 124.0586362  95.8262135  93.5575433 123.2986763  95.2600133
  93.2753027 124.7827262  95.3590924 104.8279928 119.2423285  84.8338710
 105.5315778 119.4473288  85.4496366 104.1042577 119.8100047  85.0987794
 105.6577738 114.9933147  90.9540981 105.6012940 115.4501698  90.1148613
 106.2106081 114.2323831  90.7763823 113.7794882 113.5218952  94.2862391
 113.2194440 113.5912141  95.0593954 113.1738386 113.3459936  93.5661888
  96.8490091 124.9555679  96.0380578  96.7322475 125.9001111  95.9359268
  96.0282537 124.6529240  96.4266377 106.7366626 119.6805815  86.8837170
 107.5712229 119.2487013  86.7014645 106.5750968 119.5087828  87.8114065
 106.3912518 116.1837928  88.2493510 106.3361322 116.0182199  87.3081954
 105.7658573 116.8913961  88.4055699 103.7058425 118.4886840 107.5747073
 104.5749585 118.6627492 107.2133707 103.2265176 119.3081257 107.4522802
  97.8744605 125.6083941  99.2536506  98.7771852 125.6407551  99.5703001
  97.6481975 124.6784392  99.2682842  99.6298207 124.3614927  95.9146585
  98.6793838 124.3616789  95.8010957  99.9330693 123.6147662  95.3982619
  95.5202524 108.5673609 106.1729946  96.3833985 108.2110414 106.3833271
  94.9467934 108.2287504 106.8605350 115.3650901 130.1975466  96.9792347
 116.0029311 130.0782213  96.2755687 115.2471744 131.1456310  97.0380299
 112.1740607 130.1502894  96.9153872 111.8359118 130.0343958  96.0274407
 113.0430375 129.7494059  96.8954878 108.0327423 132.0038370  92.9050763
 107.4692288 131.9128307  92.1367051 107.9179818 131.1838275  93.3853255
 105.5791855 133.4989562  95.7434983 106.3713146 133.1580386  95.3281283
 105.8188505 133.6084537  96.6637137 107.5382608 132.7598475  88.6152362
 108.3113484 132.2127462  88.4765238 107.8908007 133.6242724  88.8266824
 110.3023858 131.4651706  98.4120621 110.8987430 131.2407728  97.6977584
 110.3598829 130.7236451  99.0146069 109.8748886 128.9191141  86.2470812
 110.1274407 128.3972662  85.4854275 108.9373445 128.7557287  86.3497496
 114.9192169 127.9226920  94.0545555 115.7055258 127.5046343  93.7035972
 115.1830873 128.8273012  94.2227204 120.3200596 127.8602153  94.9578534
 121.0525768 127.2901370  95.1916363 119.5639952 127.4723753  95.3985039
 109.5945175 130.8219247  88.4495187 109.4781433 130.1464151  89.1176271
 109.7047435 130.3351621  87.6327340 111.9376716 130.2829394  92.1541876
 111.5734923 129.7560015  92.8654798 112.7943832 129.8927863  91.9808362
 117.8426017 121.5723727  99.4173142 117.5109341 122.4419138  99.1934357
 117.2471630 121.2560011 100.0967173 111.5782203 125.3119294  87.1503225
 111.7456605 126.1799530  87.5173696 111.3879372 125.4746576  86.2264514
 107.7870018 130.2250070  94.8505760 106.8620514 130.0926284  95.0583451
 108.0354431 131.0044289  95.3475702 117.7354680 126.2918813  96.4966492
 116.8271557 126.2234221  96.2025253 117.6842276 126.7690758  97.3248318
 111.5571424 127.7676951  88.1349892 111.4371049 128.2134002  88.9735372
 110.8624012 128.1162269  87.5763430 105.1478829 129.8683343  95.6849549
 105.2771210 130.1217822  96.5988960 104.4676280 130.4611051  95.3654204
 119.6016326 124.4935251  98.2744366 118.9590707 124.7867785  97.6284161
 119.0971255 124.3788172  99.0797563 117.2556490 128.2398425  88.9630226
 118.1674346 128.4725811  88.7877923 116.7466137 128.8235469  88.4005304
 111.8928328 127.5995659  99.9725075 112.7389523 128.0235073 100.1159724
 111.8326965 126.9429284 100.6663638 114.5992465 124.4156461  97.2120086
 113.7376944 124.7137714  97.5036824 114.6254899 124.6326859  96.2801119
 111.4154034 132.9598651  93.6193892 111.8792380 133.2386354  92.8298515
 111.1510832 132.0582096  93.4366983 108.3078115 132.5070133  96.5573655
 108.8779472 132.9357401  95.9191140 108.8986227 132.2252717  97.2557841
 110.3522920 129.0821804  90.4283457 111.0546964 129.5342847  90.8957384
 110.0203549 128.4405622  91.0563350 104.0948254 127.3405356  95.7300591
 103.3047308 127.5962885  95.2540701 104.5859502 128.1553694  95.8352631
 106.0463000 127.7049935  92.6884068 105.2494163 127.8168630  93.2067563
 105.8188592 128.0436588  91.8224958 102.3785957 127.5935847  98.1615582
 102.6293996 128.4782857  98.4273158 102.9145506 127.4140448  97.3890673
 105.0446082 133.4138184  91.0773488 105.5570603 134.2081434  91.2279052
 105.6968795 132.7164475  91.0107089 106.8540967 136.5303940  93.1596241
 107.0307595 137.4521905  92.9717225 107.6497800 136.2162360  93.5890621
 106.1393323 128.5768572 103.0358404 106.0246839 127.6753830 103.3365503
 105.2837841 128.8232269 102.6843221 114.9409148 119.4193308  99.0344456
 114.5973418 120.3094950  98.9583567 115.3088111 119.2294966  98.1714041
 103.0094999 131.7426838  91.8533058 103.8470221 132.1523847  91.6366766
 103.1873267 130.8026281  91.8233252 114.9059431 129.4101919  87.5416891
 114.3906055 130.1806524  87.7805279 114.6336740 128.7367055  88.1649953
 112.4906542 124.2551620  92.6002129 111.6348139 123.8658470  92.4207768
 112.9033494 124.3343581  91.7401915 114.0205689 121.7897963  96.9993689
 113.5170484 121.7528098  96.1861495 114.3136296 122.6990706  97.0590346
 110.2648575 121.8736693  96.0059871 111.1301571 121.6779502  95.6465760
 110.3326084 121.6447045  96.9329228 114.6945734 127.2829011  89.3676672
 114.3895870 127.5975160  90.2186815 115.6476176 127.3610431  89.4104005
 113.1392166 133.4419235  91.0169626 112.6113528 132.7071994  90.7042864
 112.6379669 134.2193911  90.7709595 107.8710894 124.1038901  93.3776238
 108.4454646 123.8814082  92.6449431 108.4581876 124.1727595  94.1304839
 116.9290471 129.9912628  94.1840614 117.4422353 130.6242620  94.6862324
 117.5791695 129.3913823  93.8183974 108.1980481 126.1343362  87.3972123
 107.3617793 126.4718048  87.7181398 108.0585251 125.9992342  86.4599260
 110.1733561 120.9780150  92.1051307 109.5197974 120.6629167  91.4807922
 110.1314036 120.3555890  92.8311130 111.2844766 131.2599445  84.0204599
 110.3771828 131.0288698  84.2195748 111.7815798 130.4637064  84.2078581
 113.4071302 127.4662083  96.4298955 112.4893863 127.6877030  96.2720643
 113.8231445 127.5408394  95.5710662 114.1906350 128.8653499  91.5601635
 114.9378169 129.3774896  91.2508757 114.4597939 128.5437552  92.4206029
 112.4633000 131.3612040  88.5428589 111.5544219 131.0771072  88.6401059
 112.4928084 131.7811118  87.6831896 116.6385187 125.9010615  93.5420424
 115.9007944 125.3888001  93.8730667 116.8911960 125.4610997  92.7303701
 116.7396814 118.6786867  94.1362194 117.0455691 117.8184231  93.8488109
 117.4649419 119.2704487  93.9361188 103.0321170 129.0817554  92.5243792
 102.8345570 128.4886915  91.7994858 102.4767834 128.7769764  93.2419730
 111.0117894 128.9740660  94.6438385 111.0666504 128.0214497  94.5680861
 110.2009096 129.1300099  95.1279683 112.1609088 132.9020783  85.8816668
 111.7228518 132.1856642  85.4222305 112.9019528 133.1296898  85.3201759
 108.9510254 127.5917720  92.4028764 108.1378119 127.8911891  92.8093956
 109.4469248 127.1973409  93.1203246 108.4424328 125.1636076  98.0189999
 109.0823708 125.0224835  97.3212962 107.6101859 124.8770589  97.6428601
 109.2184632 134.4638506  94.1324991 110.0125231 133.9688826  93.9307566
 108.5076325 133.9356369  93.7692697 105.5267396 128.6081588  90.2084744
 104.5964984 128.5466043  90.4254706 105.6224868 128.0857540  89.4121385
 105.4452945 125.1336401  92.7962985 105.7059762 126.0481734  92.6872146
 106.2670117 124.6660843  92.9459598 106.9177870 126.5474158  99.9661810
 107.5900924 126.3391520  99.3174459 106.0907657 126.3496244  99.5267042
 112.8203442 123.1736099 101.9827471 112.1731357 123.8726048 101.8891947
 113.5904458 123.6072243 102.3503719 113.3461124 134.4149131  95.2011666
 113.0110956 134.3749901  96.0969316 112.8465069 133.7493847  94.7282076
 107.3205368 129.8216761 100.7264247 107.1825165 129.0897000 101.3275786
 108.2310291 129.7325661 100.4448435 116.2820315 131.7605165  85.4748726
 115.6649486 131.0351993  85.3781778 115.8136804 132.5214525  85.1315800
 109.9487668 129.5336720 100.2147927 110.6587287 128.8929912 100.1734545
 109.9056976 129.7849615 101.1374107 108.6616602 126.5201938 102.0343566
 108.1253959 126.0692676 102.6865163 108.0733311 126.6547847 101.2914031
 108.0718861 125.9790589  84.5970030 107.1948327 125.8579390  84.2332276
 108.5476614 125.1876668  84.3448918  99.5921001 130.7667749  94.6911537
 100.2792041 130.4529479  94.1032552  99.4369130 131.6709114  94.4178788
 104.3955723 125.6557946  99.1196561 104.3113912 125.0483615  98.3846971
 103.5738430 126.1466964  99.1206057 114.5679437 124.1411509  94.4866756
 115.0648137 123.3881471  94.1667826 113.7966419 124.1775826  93.9209965
 115.6509218 132.8983196  92.0605179 114.7165497 133.0184659  91.8909883
 115.8285886 131.9955663  91.7965189 111.1514406 126.2828892  94.2138440
 110.7812194 125.7299932  94.9019346 111.6473498 125.6787026  93.6613440
 119.0381769 128.7400516  92.5955213 119.5042221 129.5728507  92.5215516
 119.4889270 128.2745497  93.3000472 117.0098432 121.1081103  96.6346115
 116.0961512 121.3385329  96.8028322 117.4391534 121.1919547  97.4860147
 104.5771323 136.2762742  98.2424561 105.1624759 135.5306430  98.3752465
 104.3796161 136.5866699  99.1261225  99.1688977 128.8468342  96.9629004
  99.2073077 128.3131933  97.7566122  98.6629270 128.3203548  96.3439981
 106.5479740 123.6932883 100.4591546 106.6121066 124.5547714 100.0468944
 106.4846860 123.0806885  99.7263905 106.0232012 125.7656015 104.1064581
 106.6504051 125.3833093 104.7202105 105.1659931 125.5470217 104.4720273
 102.7997555 127.5732445  90.0382935 103.0950996 126.6643123  89.9849989
 101.8985591 127.5520184  89.7163938 106.3291802 125.6488441  96.0210484
 105.6078388 126.2624409  95.8817957 107.1185058 126.1846206  95.9427130
 109.1318115 122.9842868 102.2951136 109.6552517 123.2305164 103.0577445
 108.9130449 123.8162902 101.8754273 104.5285397 125.2546542  90.1622261
 104.1998103 124.3743921  89.9797367 104.8824767 125.1994211  91.0498650
 107.6427220 125.5419512  90.5297738 107.9823292 126.0705433  89.8076347
 108.0899340 125.8799918  91.3056305 110.3370661 123.9256563  99.9800806
 109.9967481 123.1264376 100.3821486 109.6309667 124.2258274  99.4077640
 110.9887132 121.0105875  98.4328129 111.8113202 120.5366353  98.3107020
 111.2325196 121.7896359  98.9326816 109.6295367 124.0394134  88.7291031
 110.3503729 124.4175386  88.2254748 109.0060671 124.7583010  88.8326009
 113.7726490 124.7439283  89.6649363 113.9890104 125.6263920  89.3638192
 113.2920557 124.3525496  88.9355005 108.5125711 127.7024996  96.2420108
 108.3670292 128.0165299  97.1344390 108.0350915 128.3209896  95.6891007
 110.3722094 124.6927544  96.2900998 110.3583663 123.7968637  95.9533296
 111.0894522 124.6998208  96.9239284 112.2248225 125.1264884  98.3354125
 111.9666003 126.0481955  98.3338455 111.6933265 124.7295319  99.0254589
 102.9871373 130.2430340  99.1807769 102.4424841 131.0190148  99.3128044
 103.8650723 130.5901145  99.0226891 109.7758990 123.5741924  91.5588568
 109.8974901 122.6458570  91.7579455 109.4861032 123.5880610  90.6466883
 112.6450180 121.2596834  94.6955288 112.6671877 121.3236168  93.7407267
 113.0618239 120.4201343  94.8895794 103.7737395 129.3700236 102.0737926
 103.0319131 129.5182872 102.6602556 103.4530139 129.6308502 101.2104675
 104.2194009 137.2565665  94.1048321 105.0452029 136.9569437  93.7246964
 103.8688061 136.4873288  94.5538109 109.1875542 136.6092133  96.1745994
 108.5655551 135.9462838  95.8748222 109.8580409 136.6353265  95.4919642
 102.4202614 135.1751992  95.0637254 101.5834522 134.7474166  94.8821256
 102.3926259 135.3684435  96.0008045 108.7489049 135.1596057  89.6504455
 108.8977169 135.8431521  88.9971128 109.5555492 135.1401147  90.1653911
 106.5041682 131.1861234  90.6565524 106.2587724 130.2823564  90.8545734
 106.6737596 131.1878385  89.7145002 114.1938392 122.0584911 100.0390279
 114.7120336 122.7945938  99.7136768 113.8393525 122.3648904 100.8737038
 105.7737329 126.9189592  88.1551685 105.0806574 126.9933947  87.4991721
 105.5289081 126.1549936  88.6773202 114.4450986 118.4785193  95.5591176
 114.7252740 117.8108382  96.1851602 115.2301593 118.6714289  95.0465840
 116.3374224 123.9858410  99.4922152 115.7424156 124.2663423  98.7968641
 116.0523920 124.4752311 100.2638893 112.6331253 128.9905000  84.4632255
 113.5790358 128.8611208  84.5320673 112.2545498 128.2519662  84.9401683
 118.6053137 120.6561006  94.4259147 118.4077959 120.3476094  95.3102479
 119.2152843 121.3822645  94.5557076 110.8174170 126.9154976  84.3987140
 109.9105625 126.6188089  84.4749854 111.0950151 126.6184794  83.5321426
 101.7352110 128.2361340  94.8486186 101.4154895 127.3826648  94.5560560
 101.1885539 128.4509918  95.6044154 105.5132018 130.9523781  98.5655693
 105.7318028 131.8840889  98.5843727 105.9257792 130.5931755  99.3510497
 112.4336236 121.4591866  90.5531381 111.6236964 121.1138951  90.9286627
 113.1220653 121.1499410  91.1418993 114.3626784 120.5369913  92.1755678
 114.9157823 120.9565366  92.8345701 114.5996870 119.6105661  92.2178634
 109.5872955 123.7741912  84.5399119 110.4492119 124.0996810  84.7994937
 109.7723299 122.9873407  84.0272185 101.6040370 131.8564251  96.8179308
 100.9103842 131.4418204  96.3049262 102.3513361 131.8984788  96.2212727
 117.7405591 122.6470438  91.6834342 117.1604260 123.3055242  91.3012395
 117.4741524 121.8247783  91.2721760 116.1909158 122.0475496  93.8855662
 116.6908936 122.1592030  93.0769981 116.8344765 121.7436549  94.5256471
 103.5177113 131.7882505  94.6945323 103.4947801 131.8870192  93.7427206
 103.8277749 132.6347656  95.0162489 106.1764491 133.8458660  98.8091937
 107.1307744 133.8142602  98.7421869 105.9777014 133.3849284  99.6242163
 116.5230469 124.8070528  90.7390690 115.6356324 125.0920179  90.5210885
 116.9384458 124.6464292  89.8917967 119.8745005 124.8317049  94.4545030
 120.6505395 125.3213502  94.7269646 119.1493139 125.2575104  94.9116899
 122.3117564 125.5444669  95.5118970 122.9062055 125.3040405  94.8012279
 122.3844148 124.8251799  96.1392507 104.5314720 139.3878280  95.8262135
 104.3969188 138.6278680  95.2600133 104.1146782 140.1119179  95.3590924
 116.4971493 130.3225064  90.9540981 116.4406694 130.7793616  90.1148613
 117.0499835 129.5615749  90.7763823 120.3076299 126.1114796  91.7791100
 120.0513233 125.7111432  92.6099308 119.6829167 126.8258590  91.6541239
 117.2306272 131.5129846  88.2493510 117.1755076 131.3474117  87.3081954
 116.6052327 132.2205878  88.4055699 102.0198787 126.7497910 102.0754932
 102.6657651 126.2396864 102.5642157 101.8115938 127.4866592 102.6498357
 110.5402398 121.0137955  87.8278828 110.5281068 121.9579794  87.9847099
 111.4325820 120.8308100  87.5338289 114.3554517 117.6080731  92.0824765
 113.5886913 117.0539218  92.2281447 114.7665222 117.6802600  92.9438917
  39.4894620  -0.1005835  83.7037654  40.1273030  -0.2199088  83.0000994
  39.3715463   0.8475009  83.7625606  36.2984327  -0.1478407  83.6399179
  35.9602838  -0.2637343  82.7519713  37.1674095  -0.5487242  83.6200185
  32.1571142   1.7057069  79.6296070  31.5936008   1.6147006  78.8612357
  32.0423537   0.8856974  80.1098562  36.7804110   1.0056444  89.5985384
  36.7692751   0.6109243  88.7265888  36.9424749   0.2722517  90.1919156
  29.7035574   3.2008261  82.4680290  30.4956866   2.8599085  82.0526589
  29.9432225   3.3103236  83.3882443  37.7370701   5.3728037  74.9410534
  37.0858681   5.9582117  74.5544548  38.5315064   5.9034232  75.0005572
  31.6626328   2.4617174  75.3397669  32.4357204   1.9146161  75.2010545
  32.0151727   3.3261423  75.5512130  33.5011371   3.7893556  88.5464568
  33.2101237   4.6939187  88.4311234  34.1368355   3.8310084  89.2608638
  34.4267578   1.1670405  85.1365928  35.0231150   0.9426427  84.4222891
  34.4842549   0.4255150  85.7391376  33.9992606  -1.3790160  72.9716119
  34.2518127  -1.9008639  72.2099582  33.0617165  -1.5424015  73.0742802
  39.0435889  -2.3754382  80.7790862  39.8298978  -2.7934958  80.4281279
  39.3074593  -1.4708289  80.9472510  39.2145966   3.0618469  75.4779519
  38.5791799   3.1353095  76.1900423  38.8843373   3.6512068  74.7998598
  44.4444316  -2.4379148  81.6823840  45.1769488  -3.0079932  81.9161670
  43.6883672  -2.8257548  82.1230346  33.7188895   0.5237946  75.1740494
  33.6025153  -0.1517151  75.8421578  33.8291155   0.0370320  74.3572647
  36.0620436  -0.0151907  78.8787183  35.6978643  -0.5421286  79.5900104
  36.9187552  -0.4053438  78.7053668  38.4601256   3.4754972  85.5414362
  38.1601979   4.3780011  85.4330169  38.1152315   3.2087155  86.3935515
  31.9113737  -0.0731231  81.5751066  30.9864234  -0.2055017  81.7828758
  32.1598151   0.7062988  82.0721009  41.8598400  -4.0062488  83.2211799
  40.9515277  -4.0747080  82.9270560  41.8085996  -3.5290543  84.0493625
  35.6815144  -2.5304350  74.8595198  35.5614769  -2.0847299  75.6980678
  34.9867732  -2.1819032  74.3008736  33.4422036  10.2399292  78.5085329
  33.3646065  11.1907117  78.5873810  32.8383679   9.8945165  79.1660256
  35.9339266  -2.5872843  91.1646696  35.1572600  -2.0278922  91.1549561
  36.5729829  -2.1016060  91.6861566  43.7260046  -5.8046050  84.9989673
  43.0834426  -5.5113517  84.3529468  43.2214975  -5.9193129  85.8042870
  41.3800210  -2.0582877  75.6875532  42.2918066  -1.8255490  75.5123230
  40.8709857  -1.4745832  75.1250611  34.1885638   0.2212611  90.7264663
  34.9300322   0.7597655  90.4499487  33.4822623   0.8478900  90.8836215
  39.6640977   2.3641751  89.3236825  40.0724334   1.9224162  88.5791457
  38.9418239   1.7894379  89.5771018  36.0172048  -2.6985642  86.6970382
  36.8633243  -2.2746228  86.8405031  35.9570685  -3.3552018  87.3908945
  39.9869792   2.9242942  83.0789114  39.3578655   3.0888656  82.3765182
  39.5995454   3.3384551  83.8500078  43.8659024   3.8597380  80.4333477
  43.1810062   4.2396281  79.8830511  43.9502873   4.4692706  81.1665425
  39.1671493  -5.0381274  88.3551555  38.9232425  -4.2839213  87.8185831
  39.4431423  -4.6595926  89.1898802  41.1209956   1.5057339  87.0328821
  41.3326851   2.1489099  86.3563202  41.0739704   0.6719655  86.5650751
  38.7236185  -5.8824841  83.9365393  37.8620664  -5.5843587  84.2282131
  38.7498619  -5.6654442  83.0046426  35.5397754   2.6617350  80.3439199
  36.0036100   2.9405053  79.5543821  35.2754552   1.7600795  80.1612289
  32.4321835   2.2088832  83.2818962  33.0023192   2.6376100  82.6436447
  33.0229947   1.9271416  83.9803148  34.4766640  -1.2159498  77.1528764
  35.1790683  -0.7638454  77.6202690  34.1447269  -1.8575679  77.7808657
  42.2355784   4.3829294  85.2051178  43.0573227   3.9809482  84.9233860
  42.2318186   4.2797528  86.1567294  36.0012387   3.9313338  87.3611889
  36.0656820   4.3933745  88.1970061  35.2923311   3.3010702  87.4894199
  50.3261777   0.7268043  81.5536150  49.5725485   0.1575441  81.3980154
  50.4609318   0.6930707  82.5006785  35.7160405   5.5981445  77.2290869
  35.5806079   6.4432981  77.6575717  36.2570217   5.8000723  76.4656803
  29.1689802   3.1156883  77.8018794  29.6814323   3.9100133  77.9524359
  29.8212515   2.4183173  77.7352396  30.9784687   6.2322639  79.8841547
  31.1551315   7.1540604  79.6962531  31.7741520   5.9181059  80.3135927
  37.3428881   6.2205012  91.3591211  36.8992735   5.4341390  91.0412116
  38.0046095   6.4084162  90.6935102  32.1016002   7.7500813  85.8851890
  32.6523427   7.6217876  85.1128884  31.2627478   8.0495702  85.5346783
  39.4410119   6.5007811  89.3872613  39.4228594   7.3216692  88.8952882
  40.3630039   6.3761887  89.6122754  35.8983173   4.0151941  90.2296121
  36.4311510   3.2540229  89.9995429  35.3697254   3.7225593  90.9720275
  39.0303151  -0.8879382  74.2662198  38.5149774  -0.1174777  74.5050585
  38.7580459  -1.5614246  74.8895259  44.0037425   1.8652973  76.2015371
  43.2266868   1.5264132  75.7570533  44.6828906   1.8705596  75.5270336
  38.8189454  -3.0152290  76.0921979  38.5139590  -2.7006141  76.9432122
  39.7719896  -2.9370870  76.1349312  37.2635886   3.1437933  77.7414933
  36.7357248   2.4090693  77.4288170  36.7623389   3.9212610  77.4954901
  42.2428732   1.3386954  82.8581979  41.5852406   2.0286215  82.9462108
  43.0469131   1.7283386  83.2015966  41.0534191  -0.3068673  80.9085921
  41.5666073   0.3261318  81.4107631  41.7035415  -0.9067478  80.5429281
  35.4088486   0.9618144  70.7449906  34.5015548   0.7307397  70.9441055
  35.9059518   0.1655763  70.9323887  38.3156565   9.6715651  73.6646592
  37.6418264   9.9747348  74.2731550  38.7022387  10.4744731  73.3152049
  37.5315022  -2.8319218  83.1544261  36.6137583  -2.6104271  82.9965950
  37.9475165  -2.7572907  82.2955969  38.3150069  -1.4327802  78.2846942
  39.0621888  -0.9206405  77.9754064  38.5841659  -1.7543749  79.1451335
  36.5876720   1.0630739  75.2673896  35.6787939   0.7789771  75.3646366
  36.6171803   1.4829817  74.4077203  41.8195987   4.6737328  79.0365064
  41.3658314   3.8328238  79.0930254  41.1889954   5.3098726  79.3739844
  40.7628907  -4.3970686  80.2665731  40.0251663  -4.9093300  80.5975974
  41.0155680  -4.8370304  79.4549008  40.2628926   6.5113825  79.9714882
  40.5551901   7.0718882  79.2527247  40.7727547   6.8042386  80.7268041
  35.1361614  -1.3240641  81.3683691  35.1910223  -2.2766804  81.2926168
  34.3252816  -1.1681202  81.8524990  36.2852807   2.6039482  72.6061975
  35.8472237   1.8875341  72.1467612  37.0263248   2.8315597  72.0447066
  35.2262551   7.2894176  81.0608335  35.1838730   7.5155022  80.1316867
  36.1425250   7.0557550  81.2094136  38.6728185  -2.2421757  87.9588964
  39.0277573  -2.0150284  88.8183430  39.3200316  -1.9103380  87.3366219
  44.4025922   0.8796679  78.6638293  44.2643821   1.0698275  77.7359482
  44.0462141   1.6416062  79.1206344  44.4295302   2.9473206  83.6749565
  44.8631808   2.8548495  84.5232619  45.1426882   2.9230707  83.0369581
  33.3428352   4.1657205  80.8570298  34.1368951   3.6707525  80.6552873
  32.6320045   3.6375068  80.4938003  38.1623197   6.5475300  85.2082665
  38.2160219   7.1166237  85.9760381  37.2937978   6.7177185  84.8436702
  45.2910851   2.9896907  86.2082450  45.4846741   3.8942717  86.4541725
  45.1911470   2.5304326  87.0421035  40.3525960   3.1403650  91.7823331
  40.2011466   2.9114201  90.8653414  40.3430639   4.0974251  91.7954676
  37.1211296   0.7135562  86.7669597  38.0503356   0.8646722  86.5938564
  36.7002326   0.8019583  85.9118244  35.9199628   4.7386227  84.5368135
  35.7810714   4.3705011  85.4094073  35.1314224   5.2533866  84.3652093
  36.5147780   9.8395323  75.8793671  36.6899536   9.3683366  76.6939294
  35.8280568  10.4661089  76.1074932  37.4704843   4.1167830  81.9256973
  37.1354676   4.0768599  82.8214622  36.9708789   3.4512545  81.4527383
  31.4449087  -0.4764540  87.4509554  31.3068885  -1.2084302  88.0521093
  32.3554011  -0.5655640  87.1693741  40.4064035   1.4623864  72.1994032
  39.7893206   0.7370692  72.1027085  39.9380523   2.2233224  71.8561106
  34.0731388  -0.7644581  86.9393233  34.7831007  -1.4051389  86.8979852
  34.0300696  -0.5131686  87.8619414  42.0618167   6.1722772  89.8599813
  42.0030713   5.4881992  89.1930396  42.4637685   6.9141762  89.4080439
  31.0808865  12.9884686  82.6533531  31.3205464  13.6203210  83.3312550
  30.2378062  12.6372726  82.9398891  42.0635574   4.1362356  88.0913792
  41.1762353   3.7988278  88.2140191  42.6334125   3.4045387  88.3282558
  35.5936727   8.7963808  85.0575035  35.5206899   9.6018780  85.5694340
  35.1514120   8.9955774  84.2323057  35.3826507   8.0335579  78.5677857
  34.5994029   8.5757259  78.6616081  36.0819252   8.5509558  78.9672098
  46.5452914  -0.4529426  82.8530354  46.5342791   0.4295289  82.4824287
  45.6770294  -0.8057876  82.6584891  38.0535411   8.6950643  87.2133194
  38.7663383   9.3298107  87.1409096  37.5625439   8.7914509  86.3973196
  39.7752938   2.6001895  78.7850486  38.8409216   2.7203358  78.6155190
  39.9529606   1.6974362  78.5210496  43.1625489  -1.5580786  79.3200520
  43.6285941  -0.7252794  79.2460823  43.6132990  -2.0235804  80.0245778
  33.1047324   6.4445086  88.0338765  33.8056784   7.0781569  88.1868159
  32.6342439   6.7859818  87.2734404  41.2301720   4.7863036  76.3186672
  41.5061564   4.6719630  77.2280546  40.3606219   4.3880521  76.2798845
  40.9048610  -1.0010307  85.8591315  40.2520061  -0.7534399  85.2043768
  41.2828990  -1.8146168  85.5253793  37.8655784   9.0349387  79.9619486
  38.0478179   8.2171043  80.4247238  38.6888770   9.2517079  79.5244376
  38.1997950   7.9617572  77.2234534  38.7285716   7.4510026  76.6104696
  38.4626169   7.6460102  78.0880067  36.9536183  -0.2590496  92.3457352
  36.2776820  -0.3596366  93.0159728  37.7763817  -0.4151282  92.8093350
  28.7015042   5.9781441  84.9669868  29.2868479   5.2325129  85.0997772
  28.5039881   6.2885398  85.8506531  31.5553698   9.0132688  79.9832310
  30.8864073   9.4978816  79.4996350  31.4166567   9.2601909  80.8975689
  35.6958966  11.0476432  86.5814968  36.2477274  11.2108053  87.3464054
  36.0365160  11.6380870  85.9094993  40.5469841   5.8737689  92.4363623
  41.0909745   6.4867648  91.9418578  39.9656685   6.4317268  92.9530636
  38.8327354   8.9958407  83.5678651  38.7078493   8.1948147  83.0589596
  39.4906445   9.4904601  83.0792620  40.8962262   6.7967428  85.1958201
  39.9492597   6.6772779  85.1236527  41.2445035   5.9089926  85.2784462
  37.9008695   6.5920144  81.3962553  37.7533658   5.6636851  81.5770123
  38.7262189   6.6140234  80.9119628  41.5042817   7.4148702  82.4827426
  42.4289365   7.2091564  82.3451877  41.3358120   7.1665104  83.3916767
  41.2938133   7.9334370  77.8389517  41.4675011   7.3680792  77.0863369
  41.7867025   8.7335265  77.6569007  47.1477524   0.6970793  79.4579817
  47.5908670  -0.0521882  79.0598940  46.2704035   0.6880929  79.0753549
  42.2813306   7.2501134  74.9386415  42.9764210   7.8707827  75.1573730
  42.6236456   6.3996486  75.2138793  44.1804729   4.7000840  76.4673746
  44.7056053   5.0388113  75.7423066  44.0927081   3.7647855  76.2836881
  35.8424778   8.6134914  88.5963623  36.1511904   8.3684060  89.4686322
  36.6400260   8.8181552  88.1082493  35.8645390  10.7672823  80.8268999
  35.4250380  10.2749202  81.5201856  36.6153507  10.2245791  80.5861074
  28.3437729   6.9584364  80.8293627  29.1695749   6.6588136  80.4492271
  27.9931781   6.1891986  81.2783416  33.3119262   6.3110832  82.8991301
  32.6899271   5.6481537  82.5993529  33.9824129   6.3371964  82.2164949
  26.5446334   4.8770690  81.7882561  25.7078242   4.4492865  81.6066562
  26.5169979   5.0703134  82.7253352  43.8698635   5.3333744  91.7724944
  43.0794179   5.3157882  91.2329443  43.6331990   5.8722037  92.5273981
  43.9896510   2.1826210  89.0857673  44.0394515   2.0176217  90.0273195
  43.8810433   1.3153469  88.6955553  32.8732769   4.8614756  76.3749761
  33.0220889   5.5450220  75.7216434  33.6799212   4.8419846  76.8899217
  41.2800272  -1.8342862  90.4016979  42.1810135  -1.9736397  90.1100977
  41.3548247  -1.6688407  91.3415157  45.4914707   4.6023151  89.3299694
  45.1999515   4.9653132  90.1663155  44.8786838   3.8890160  89.1513026
  46.6910389   2.1676031  81.8502264  47.5257281   2.6065835  82.0139825
  46.8269518   1.6914684  81.0310510  43.7401895  -0.2744234  87.7979752
  44.2156017  -0.0816588  86.9898603  42.8167460  -0.2185048  87.5523136
  30.6285402   0.8879933  77.3810830  30.3831444  -0.0157737  77.5791041
  30.7981316   0.8897084  76.4390308  36.3728174   7.3562886  73.8461509
  35.8002141   7.9753073  73.3931981  36.9460968   7.9062248  74.3801431
  42.4403564  -3.3978474  86.0308058  43.3920987  -3.2980376  86.0520282
  42.2707014  -4.1900205  86.5406142  40.4617944  -6.3122891  86.2167459
  39.8667876  -6.0317878  85.5213947  40.1767640  -5.8228990  86.9884200
  39.5925434   7.6400036  74.9770091  40.5256107   7.5745598  75.1802967
  39.5048647   8.4756303  74.5184624  42.2213451   6.9565907  71.9374039
  42.1427082   6.6225770  72.8309797  43.0423117   7.4487674  71.9365511
  44.9191642  -0.1772354  85.1450357  44.8867962  -1.1156353  85.3310041
  45.5292266  -0.0988317  84.4116182  36.7574973  -1.3076301  71.1877561
  37.7034077  -1.4370093  71.2565979  36.3789218  -2.0461639  71.6646990
  45.0686130  -3.3861311  85.1908641  44.5525179  -4.1702854  85.0038569
  45.9526079  -3.7142594  85.3555160  50.7368192   0.8843653  84.2856394
  51.4671580   0.6228941  84.8464097  50.1275137   0.1472375  84.3258462
  48.8183489  -0.9748485  84.8830845  48.0916652  -1.1092520  84.2747337
  48.4030776  -0.6671656  85.6887563  36.6413665   2.7441445  92.6478218
  37.5616675   2.9220044  92.8418265  36.6063248   1.7997490  92.4957918
  29.6375738   0.6542480  85.2901000  29.8561748   1.5859587  85.3089033
  30.0501512   0.2950454  86.0755803  41.8649311  -7.6510863  78.4079649
  41.2847980  -6.9926059  78.0257701  41.5985244  -8.4733519  77.9967066
  34.3734873  -0.3427176  93.4968810  33.8901955   0.4573184  93.7032699
  34.4595812  -0.3319231  92.5436254  27.6420833   1.4901204  81.4190629
  27.6191521   1.5888891  80.4672513  27.9521469   2.3366355  81.7407796
  30.3008211   3.5477359  85.5337244  31.2551464   3.5161301  85.4667175
  30.1020734   3.0867983  86.3487470  30.8907593   2.1178475  88.1008042
  31.7100482   2.6122554  88.1242879  31.1644400   1.2010443  88.0725609
  40.6474189  -5.4910773  77.4635997  39.7600044  -5.2061122  77.2456192
  41.0628178  -5.6517009  76.6163274  43.9988725  -5.4664252  81.1790336
  44.7749115  -4.9767799  81.4514953  43.2736859  -5.0406198  81.6362206
  46.4361284  -4.7536633  82.2364277  47.0305775  -4.9940897  81.5257585
  46.5087867  -5.4729502  82.8637813  28.6558439   9.0896978  82.5507442
  28.5212907   8.3297379  81.9845440  28.2390502   9.8137878  82.0836231
  39.7917402   4.2733902  71.5584017  40.4953253   4.4783904  72.1741673
  39.0680051   4.8410664  71.8233101  40.6215213   0.0243763  77.6786287
  40.5650414   0.4812315  76.8393920  41.1743555  -0.7365552  77.5009130
  44.4320019  -4.1866505  78.5036407  44.1756953  -4.5869869  79.3344614
  43.8072887  -3.4722711  78.3786546  48.7432356  -1.4470432  81.0107698
  48.1831914  -1.3777242  81.7839260  48.1375860  -1.6229447  80.2907194
  31.8127565   9.9866295  82.7625884  31.6959949  10.9311728  82.6604575
  30.9920012   9.6839857  83.1511684  41.7004100   4.7116431  73.6082477
  42.5349704   4.2797630  73.4259952  41.5388443   4.5398445  74.5359372
  41.3549992   1.2148544  74.9738816  41.2998796   1.0492816  74.0327261
  40.7296047   1.9224577  75.1301006  38.6695899   3.5197456  94.2992379
  39.5387059   3.6938109  93.9379014  38.1902651   4.3391873  94.1768109
  32.8382079  10.6394557  85.9781813  33.7409326  10.6718168  86.2948308
  32.6119450   9.7095008  85.9928149  34.5935681   9.3925544  82.6391891
  33.6431312   9.3927405  82.5256264  34.8968168   8.6458278  82.1227926
  42.9964897  17.0348987  79.6296070  42.4329762  16.9438924  78.8612357
  42.8817292  16.2148891  80.1098562  47.6197864  16.3348362  89.5985384
  47.6086505  15.9401160  88.7265888  47.7818504  15.6014435  90.1919156
  40.5429329  18.5300178  82.4680290  41.3350621  18.1891003  82.0526589
  40.7825979  18.6395153  83.3882443  44.3405125  19.1185474  88.5464568
  44.0494991  20.0231105  88.4311234  44.9762110  19.1602001  89.2608638
  45.2661332  16.4962322  85.1365928  45.8624904  16.2718345  84.4222891
  45.3236304  15.7547068  85.7391376  55.2838071  12.8912769  81.6823840
  56.0163243  12.3211986  81.9161670  54.5277426  12.5034370  82.1230346
  52.8063491   6.6034343  86.1418449  52.4746816   7.4729754  85.9179664
  52.2109104   6.2870627  86.8212479  46.5419677  10.3429910  73.8748531
  46.7094080  11.2110147  74.2419002  46.3516846  10.5057192  72.9509821
  49.2995010  18.8046889  85.5414362  48.9995734  19.7071928  85.4330169
  48.9546070  18.5379073  86.3935515  42.7507492  15.2560686  81.5751066
  41.8257988  15.1236900  81.7828758  42.9991905  16.0354905  82.0721009
  52.6992154  11.3229430  83.2211799  51.7909032  11.2544838  82.9270560
  52.6479750  11.8001374  84.0493625  40.1116303  14.8993960  82.4094855
  40.2408684  15.1528439  83.3234267  39.4313754  15.4921668  82.0899510
  46.7733020  12.7419075  91.1646696  45.9966354  13.3012995  91.1549561
  47.4123583  13.2275858  91.6861566  54.5653801   9.5245868  84.9989673
  53.9228181   9.8178401  84.3529468  54.0608729   9.4098788  85.8042870
  45.0279392  15.5504529  90.7264663  45.7694077  16.0889572  90.4499487
  44.3216378  16.1770817  90.8836215  50.5034732  17.6933669  89.3236825
  50.9118088  17.2516080  88.5791457  49.7811993  17.1186296  89.5771018
  46.8565802  12.6306276  86.6970382  47.7026997  13.0545689  86.8405031
  46.7964440  11.9739900  87.3908945  50.0065247  10.2910644  88.3551555
  49.7626179  11.0452705  87.8185831  50.2825178  10.6695992  89.1898802
  51.9603710  16.8349256  87.0328821  52.1720605  17.4781016  86.3563202
  51.9133458  16.0011573  86.5650751  49.5629939   9.4467077  83.9365393
  48.7014418   9.7448331  84.2282131  49.5892374   9.6637476  83.0046426
  43.2715590  17.5380749  83.2818962  43.8416947  17.9668018  82.6436447
  43.8623701  17.2563334  83.9803148  43.7640756  12.7044177  91.5279973
  43.1339417  13.3860458  91.7615370  43.6576844  12.5927258  90.5833112
  39.0585729  12.3715973  82.4545898  38.2684782  12.6273501  81.9786008
  39.5496976  13.1864311  82.5597938  53.0749538  19.7121212  85.2051178
  53.8966982  19.3101399  84.9233860  53.0711941  19.6089446  86.1567294
  41.0100474  12.7360552  79.4129374  40.2131637  12.8479246  79.9312870
  40.7826066  13.0747204  78.5470265  46.8406142  19.2605255  87.3611889
  46.9050574  19.7225662  88.1970061  46.1317065  18.6302620  87.4894199
  37.3423431  12.6246463  84.8860888  37.5931470  13.5093473  85.1518464
  37.8782980  12.4451065  84.1135980  61.1655531  16.0559960  81.5536150
  60.4119240  15.4867358  81.3980154  61.3003072  16.0222625  82.5006785
  43.0421499   7.0064943  93.8905224  42.6488444   6.4531141  94.5652869
  43.8587639   7.3175521  94.2811742  45.9589460   8.4222822  91.4825481
  46.6999173   9.0229975  91.4029943  46.1907383   7.6800459  90.9243524
  41.1030798  13.6079189  89.7603711  40.9884313  12.7064446  90.0610810
  40.2475316  13.8542886  89.4088527  48.1822636  21.5496929  91.3591211
  47.7386490  20.7633308  91.0412116  48.8439849  21.7376080  90.6935102
  42.9409757  23.0792731  85.8851890  43.4917182  22.9509794  85.1128884
  42.1021233  23.3787620  85.5346783  50.2803874  21.8299729  89.3872613
  50.2622349  22.6508610  88.8952882  51.2023794  21.7053804  89.6122754
  46.7376928  19.3443859  90.2296121  47.2705265  18.5832147  89.9995429
  46.2091009  19.0517510  90.9720275  49.9046623   4.4503925  85.7589763
  49.5610892   5.3405566  85.6828873  50.2725585   4.2605582  84.8959348
  47.4544016   9.2862236  79.3247436  46.5985613   8.8969087  79.1453075
  47.8670968   9.3654197  78.4647222  48.9843163   6.8208580  83.7238996
  48.4807959   6.7838715  82.9106801  49.2773770   7.7301322  83.7835653
  45.2286049   6.9047309  82.7305178  46.0939046   6.7090118  82.3711067
  45.2963558   6.6757661  83.6574534  42.8348368   9.1349517  80.1021544
  43.4092120   8.9124699  79.3694737  43.4219351   9.2038212  80.8550146
  43.1617955  11.1653978  74.1217430  42.3255267  11.5028665  74.4426704
  43.0222725  11.0302958  73.1844567  45.1371036   6.0090766  78.8296614
  44.4835448   5.6939783  78.2053229  45.0951510   5.3866507  79.5556437
  51.7034288   3.7097484  80.8607500  52.0093165   2.8494847  80.5733415
  52.4286893   4.3015104  80.6606494  37.9958644  14.1128170  79.2489098
  37.7983044  13.5197531  78.5240165  37.4405308  13.8080381  79.9665037
  43.9147728  12.6228337  79.1274070  43.1015594  12.9222507  79.5339262
  44.4106722  12.2284025  79.8448552  49.5121940  13.0870161  87.9588964
  49.8671327  13.3141634  88.8183430  50.1594071  13.4188538  87.3366219
  43.4061803  10.1946692  84.7435305  44.0461182  10.0535451  84.0458269
  42.5739333   9.9081205  84.3673907  40.4090419  10.1647017  79.5208292
  40.6697237  11.0792350  79.4117452  41.2307592   9.6971460  79.6704905
  41.8815345  11.5784774  86.6907117  42.5538398  11.3702136  86.0419765
  41.0545131  11.3806860  86.2512349  56.1304606  18.3188825  86.2082450
  56.3240496  19.2234635  86.4541725  56.0305224  17.8596244  87.0421035
  47.7840917   8.2046715  88.7072777  47.1368832   8.9036665  88.6137254
  48.5541932   8.6382859  89.0749026  51.1919715  18.4695567  91.7823331
  51.0405221  18.2406119  90.8653414  51.1824394  19.4266169  91.7954676
  47.9605051  16.0427480  86.7669597  48.8897111  16.1938640  86.5938564
  47.5396081  16.1311501  85.9118244  46.7593383  20.0678144  84.5368135
  46.6204468  19.6996929  85.4094073  45.9707979  20.5825784  84.3652093
  42.2842842  14.8527377  87.4509554  42.1462640  14.1207616  88.0521093
  43.1947765  14.7636277  87.1693741  44.9125142  14.5647337  86.9393233
  45.6224761  13.9240529  86.8979852  44.8694451  14.8160231  87.8619414
  52.9011921  21.5014690  89.8599813  52.8424467  20.8173910  89.1930396
  53.3031440  22.2433680  89.4080439  43.6254076  11.5512554  88.7588873
  43.0891433  11.1003293  89.4110469  43.0370785  11.6858463  88.0159337
  43.0356335  11.0101206  71.3215336  42.1585802  10.8890007  70.9577583
  43.5114088  10.2187284  71.0694225  52.9029328  19.4654274  88.0913792
  52.0156107  19.1280196  88.2140191  53.4727879  18.7337305  88.3282558
  34.5558476  15.7978366  81.4156844  35.2429515  15.4840096  80.8277859
  34.4006604  16.7019730  81.1424095  39.3593198  10.6868562  85.8441867
  39.2751386  10.0794232  85.1092277  38.5375904  11.1777580  85.8451364
  49.5316912   9.1722126  81.2112062  50.0285611   8.4192088  80.8913133
  48.7603893   9.2086442  80.6455272  57.3846669  14.8762491  82.8530354
  57.3736545  15.7587207  82.4824287  56.5164048  14.5234042  82.6584891
  48.8929165  24.0242560  87.2133194  49.6057138  24.6590025  87.1409096
  48.4019194  24.1206426  86.3973196  43.9441079  21.7737004  88.0338765
  44.6450538  22.4073487  88.1868159  43.4736194  22.1151735  87.2734404
  51.9735906   6.1391719  83.3591421  51.0598986   6.3695946  83.5273628
  52.4029008   6.2230163  84.2105454  51.7442365  14.3281611  85.8591315
  51.0913815  14.5757519  85.2043768  52.1222745  13.5145749  85.5253793
  47.7929938  15.0701422  92.3457352  47.1170575  14.9695551  93.0159728
  48.6157572  14.9140636  92.8093350  39.5408797  21.3073359  84.9669868
  40.1262234  20.5617047  85.0997772  39.3433635  21.6177315  85.8506531
  34.1326452  13.8778959  83.6874311  34.1710551  13.3442550  84.4811429
  33.6266745  13.3514164  83.0685288  46.5352721  26.3768350  86.5814968
  47.0871029  26.5399971  87.3464054  46.8758914  26.9672787  85.9094993
  41.5117214   8.7243499  87.1836853  41.5758540   9.5858330  86.7714251
  41.4484334   8.1117501  86.4509212  40.9869487  10.7966632  90.8309887
  41.6141525  10.4143709  91.4447412  40.1297405  10.5780834  91.1965580
  51.3863595  21.2029607  92.4363623  51.9303499  21.8159565  91.9418578
  50.8050440  21.7609186  92.9530636  37.7635029  12.6043061  76.7628242
  38.0588470  11.6953739  76.7095296  36.8623065  12.5830801  76.4409244
  41.2929276  10.6799058  82.7455791  40.5715862  11.2935025  82.6063264
  42.0822532  11.2156822  82.6672437  44.0955590   8.0153484  89.0196442
  44.6189992   8.2615781  89.7822752  43.8767923   8.8473519  88.5999580
  39.4922871  10.2857159  76.8867567  39.1635577   9.4054538  76.7042673
  39.8462242  10.2304827  77.7743957  42.6064694  10.5730129  77.2543045
  42.9460767  11.1016050  76.5321653  43.0536814  10.9110535  78.0301612
  45.3008135   8.9567179  86.7046113  44.9604955   8.1574992  87.1066793
  44.5947141   9.2568890  86.1322946  45.9524607   6.0416492  85.1573436
  46.7750676   5.5676970  85.0352326  46.1962670   6.8206975  85.6572122
  44.5932841   9.0704750  75.4536338  45.3141204   9.4486003  74.9500055
  43.9698145   9.7893627  75.5571316  43.4763185  12.7335612  82.9665415
  43.3307766  13.0475915  83.8589696  42.9988389  13.3520513  82.4136313
  45.3359568   9.7238160  83.0146304  45.3221137   8.8279254  82.6778602
  46.0531996   9.7308824  83.6484590  47.1885699  10.1575501  85.0599432
  46.9303477  11.0792571  85.0583762  46.6570739   9.7605935  85.7499896
  37.9508848  15.2740957  85.9053076  37.4062316  16.0500765  86.0373350
  38.8288197  15.6211761  85.7472197  44.7396464   8.6052541  78.2833874
  44.8612375   7.6769187  78.4824762  44.4498507   8.6191227  77.3712190
  47.6087655   6.2907451  81.4200594  47.6309351   6.3546784  80.4652574
  48.0255714   5.4511960  81.6141100  57.9871279  16.0262711  79.4579817
  58.4302425  15.2770036  79.0598940  57.1097789  16.0172847  79.0753549
  38.7374869  14.4010853  88.7983233  37.9956605  14.5493488  89.3847863
  38.4167614  14.6619119  87.9349982  46.6818532  23.9426831  88.5963623
  46.9905659  23.6975978  89.4686322  47.4794014  24.1473470  88.1082493
  44.1513016  21.6402750  82.8991301  43.5293026  20.9773455  82.5993529
  44.8217883  21.6663882  82.2164949  37.3840088  20.2062608  81.7882561
  36.5471996  19.7784783  81.6066562  37.3563734  20.3995052  82.7253352
  44.2237544  10.1184538  92.4923807  44.2725699  10.9946661  92.1101577
  44.7660058   9.5761931  91.9195450  54.7092389  20.6625661  91.7724944
  53.9187933  20.6449800  91.2329443  54.4725744  21.2013955  92.5273981
  54.8290264  17.5118128  89.0857673  54.8788269  17.3468135  90.0273195
  54.7204188  16.6445387  88.6955553  52.1194027  13.4949056  90.4016979
  53.0203890  13.3555520  90.1100977  52.1942001  13.6603510  91.3415157
  46.4536832  10.8715910  89.2470166  45.5840142  11.1649476  88.9752754
  46.6896313  11.4556355  89.9677429  56.3308461  19.9315069  89.3299694
  56.0393270  20.2945050  90.1663155  55.7180593  19.2182077  89.1513026
  54.5795650  15.0547684  87.7979752  55.0549771  15.2475330  86.9898603
  53.6561215  15.1106870  87.5523136  49.1575866   7.0895527  86.7635586
  49.6757810   7.8256554  86.4382075  48.8030999   7.3959521  87.5982345
  40.7374804  11.9500208  74.8796992  40.0444049  12.0244563  74.2237028
  40.4926556  11.1860552  75.4018509  49.4088460   3.5095810  82.2836483
  49.6890214   2.8418999  82.9096909  50.1939067   3.7024905  81.7711146
  53.2797319  11.9313444  86.0308058  54.2314741  12.0311541  86.0520282
  53.1100769  11.1391712  86.5406142  51.3011698   9.0169027  86.2167459
  50.7061630   9.2974040  85.5213947  51.0161395   9.5062928  86.9884200
  55.7585396  15.1519564  85.1450357  55.7261716  14.2135564  85.3310041
  56.3686020  15.2303600  84.4116182  55.9079885  11.9430607  85.1908641
  55.3918933  11.1589064  85.0038569  56.7919833  11.6149324  85.3555160
  53.5690612   5.6871623  81.1504453  53.3715433   5.3786711  82.0347785
  54.1790317   6.4133261  81.2802383  61.5761946  16.2135570  84.2856394
  62.3065335  15.9520858  84.8464097  60.9668892  15.4764292  84.3258462
  59.6577243  14.3543433  84.8830845  58.9310407  14.2199398  84.2747337
  59.2424530  14.6620262  85.6887563  47.4807420  18.0733363  92.6478218
  48.4010429  18.2511962  92.8418265  47.4457003  17.1289408  92.4957918
  36.6989585  13.2671956  81.5731493  36.3792369  12.4137264  81.2805867
  36.1523013  13.4820534  82.3289460  40.4769492  15.9834397  85.2901000
  40.6955502  16.9151505  85.3089033  40.8895266  15.6242372  86.0755803
  47.3973710   6.4902483  77.2776688  46.5874438   6.1449568  77.6531934
  48.0858127   6.1810026  77.8664299  49.3264258   5.5680529  78.9000985
  49.8795297   5.9875983  79.5591008  49.5634345   4.6416277  78.9423941
  45.3497358  11.5567603  94.6803748  45.2494085  12.5061960  94.6115840
  45.1318900  11.2285842  93.8079819  44.5510429   8.8052528  71.2644426
  45.4129593   9.1307426  71.5240243  44.7360773   8.0184024  70.7517492
  36.5677845  16.8874868  83.5424615  35.8741316  16.4728821  83.0294569
  37.3150836  16.9295404  82.9458034  52.7043065   7.6781055  78.4079649
  52.1241735   8.3365859  78.0257701  52.4378998   6.8558399  77.9967066
  51.1546632   7.0786112  80.6100969  51.6546410   7.1902647  79.8015288
  51.7982240   6.7747165  81.2501778  45.2128628  14.9864742  93.4968810
  44.7295709  15.7865102  93.7032699  45.2989567  14.9972687  92.5436254
  38.4814587  16.8193122  81.4190629  38.4585275  16.9180809  80.4672513
  38.7915224  17.6658272  81.7407796  41.1401965  18.8769277  85.5337244
  42.0945219  18.8453219  85.4667175  40.9414489  18.4159900  86.3487470
  41.7301347  17.4470393  88.1008042  42.5494236  17.9414471  88.1242879
  42.0038155  16.5302361  88.0725609  54.8382480   9.8627666  81.1790336
  55.6142870  10.3524118  81.4514953  54.1130614  10.2885720  81.6362206
  57.2755038  10.5755285  82.2364277  57.8699529  10.3351021  81.5257585
  57.3481622   9.8562416  82.8637813  59.5826111  13.8821486  81.0107698
  59.0225669  13.9514675  81.7839260  58.9769614  13.7062471  80.2907194
  36.9836262  11.7808526  88.8000239  37.6295125  11.2707480  89.2887464
  36.7753413  12.5177208  89.3743664  49.5089654  18.8489374  94.2992379
  50.3780813  19.0230026  93.9379014  49.0296405  19.6683791  94.1768109
  45.5039872   6.0448571  74.5524135  45.4918542   6.9890411  74.7092406
  46.3963294   5.8618717  74.2583596  43.6775834  25.9686475  85.9781813
  44.5803081  26.0010085  86.2948308  43.4513204  25.0386926  85.9928149
  49.3191991   2.6391348  78.8070072  48.5524387   2.0849834  78.9526754
  49.7302696   2.7113217  79.6684223  41.3233753   8.9276144  92.8975253
  42.1865214   8.5712948  93.1078577  40.7499163   8.5890038  93.5850657
  57.6126775  28.0710993  91.1646696  56.8360109  28.6304913  91.1549561
  58.2517338  28.5567776  91.6861566  55.8673147  30.8796446  90.7264663
  56.6087831  31.4181490  90.4499487  55.1610132  31.5062735  90.8836215
  54.6034511  28.0336094  91.5279973  53.9733171  28.7152375  91.7615370
  54.4970598  27.9219176  90.5833112  53.8815253  22.3356860  93.8905224
  53.4882199  21.7823059  94.5652869  54.6981394  22.6467439  94.2811742
  56.7983214  23.7514739  91.4825481  57.5392928  24.3521892  91.4029943
  57.0301137  23.0092377  90.9243524  51.9424552  28.9371107  89.7603711
  51.8278067  28.0356364  90.0610810  51.0869070  29.1834803  89.4088527
  60.7440377  19.7795842  85.7589763  60.4004647  20.6697484  85.6828873
  61.1119340  19.5897500  84.8959348  62.5428043  19.0389401  80.8607500
  62.8486920  18.1786765  80.5733415  63.2680648  19.6307022  80.6606494
  58.6234671  23.5338633  88.7072777  57.9762586  24.2328582  88.6137254
  59.3935686  23.9674777  89.0749026  58.6323692  30.3993340  92.3457352
  57.9564329  30.2987469  93.0159728  59.4551326  30.2432554  92.8093350
  51.8263241  26.1258550  90.8309887  52.4535280  25.7435627  91.4447412
  50.9691160  25.9072752  91.1965580  54.9349344  23.3445402  89.0196442
  55.4583746  23.5907698  89.7822752  54.7161678  24.1765437  88.5999580
  56.7918361  21.3708409  85.1573436  57.6144430  20.8968888  85.0352326
  57.0356425  22.1498893  85.6572122  49.5768624  29.7302771  88.7983233
  48.8350360  29.8785406  89.3847863  49.2561368  29.9911036  87.9349982
  55.0631298  25.4476456  92.4923807  55.1119454  26.3238578  92.1101577
  55.6053812  24.9053849  91.9195450  60.2482215  18.8387727  82.2836483
  60.5283968  18.1710917  82.9096909  61.0332822  19.0316823  81.7711146
  58.3201174  33.4025280  92.6478218  59.2404184  33.5803879  92.8418265
  58.2850757  32.4581326  92.4957918  56.1891112  26.8859521  94.6803748
  56.0887839  27.8353878  94.6115840  55.9712654  26.5577760  93.8079819
  56.0522382  30.3156660  93.4968810  55.5689464  31.1157020  93.7032699
  56.1383321  30.3264604  92.5436254  47.8230016  27.1100444  88.8000239
  48.4688880  26.5999398  89.2887464  47.6147167  27.8469126  89.3743664
  60.3483408  34.1781292  94.2992379  61.2174568  34.3521944  93.9379014
  59.8690160  34.9975708  94.1768109  52.1627507  24.2568061  92.8975253
  53.0258969  23.9004866  93.1078577  51.5892918  23.9181956  93.5850657
  64.7209008  37.6648778  93.8905224  64.3275953  37.1114976  94.5652869
  65.5375148  37.9759356  94.2811742  67.6376969  39.0806657  91.4825481
  68.3786682  39.6813810  91.4029943  67.8694892  38.3384295  90.9243524
  72.8707223  49.1279403  91.7823331  72.7192730  48.8989954  90.8653414
  72.8611903  50.0850004  91.7954676  74.5799430  52.1598525  89.8599813
  74.5211976  51.4757745  89.1930396  74.9818949  52.9017515  89.4080439
  63.5990129  58.9760439  82.6533531  63.8386727  59.6078963  83.3312550
  62.7559325  58.6248479  82.9398891  68.1117991  54.7839562  85.0575035
  68.0388162  55.5894533  85.5694340  67.6695384  54.9831527  84.2323057
  68.2140230  57.0352185  86.5814968  68.7658538  57.1983806  87.3464054
  68.5546423  57.6256623  85.9094993  73.0651104  51.8613442  92.4363623
  73.6091008  52.4743401  91.9418578  72.4837949  52.4193021  92.9530636
  76.3879898  51.3209497  91.7724944  75.5975442  51.3033635  91.2329443
  76.1513253  51.8597790  92.5273981  76.5077773  48.1701963  89.0857673
  76.5575778  48.0051970  90.0273195  76.3991697  47.3029222  88.6955553
  78.0095970  50.5898904  89.3299694  77.7180779  50.9528885  90.1663155
  77.3968102  49.8765913  89.1513026  83.2549455  46.8719406  84.2856394
  83.9852844  46.6104694  84.8464097  82.6456401  46.1348128  84.3258462
  64.3308829  55.9742048  82.7625884  64.2141213  56.9187481  82.6604575
  63.5101275  55.6715610  83.1511684  65.3563343  56.6270310  85.9781813
  66.2590590  56.6593921  86.2948308  65.1300713  55.6970761  85.9928149
  80.1379128  62.3224115  89.5985384  80.1267768  61.9276913  88.7265888
  80.2999767  61.5890188  90.1919156  76.8586389  65.1061227  88.5464568
  76.5676255  66.0106858  88.4311234  77.4943373  65.1477755  89.2608638
  85.3244754  52.5910096  86.1418449  84.9928079  53.4605507  85.9179664
  84.7290368  52.2746380  86.8212479  79.2914283  58.7294828  91.1646696
  78.5147618  59.2888748  91.1549561  79.9304847  59.2151611  91.6861566
  77.5460656  61.5380282  90.7264663  78.2875340  62.0765326  90.4499487
  76.8397641  62.1646570  90.8836215  83.0215995  63.6809422  89.3236825
  83.4299351  63.2391833  88.5791457  82.2993257  63.1062050  89.5771018
  82.5246511  56.2786397  88.3551555  82.2807443  57.0328458  87.8185831
  82.8006441  56.6571745  89.1898802  84.4784974  62.8225010  87.0328821
  84.6901869  63.4656769  86.3563202  84.4314722  61.9887326  86.5650751
  75.7896853  63.5256502  83.2818962  76.3598210  63.9543771  82.6436447
  76.3804965  63.2439087  83.9803148  76.2822020  58.6919930  91.5279973
  75.6520680  59.3736211  91.7615370  76.1758107  58.5803011  90.5833112
  85.5930802  65.6996965  85.2051178  86.4148245  65.2977152  84.9233860
  85.5893204  65.5965199  86.1567294  79.3587405  65.2481008  87.3611889
  79.4231837  65.7101415  88.1970061  78.6498329  64.6178373  87.4894199
  93.6836795  62.0435713  81.5536150  92.9300503  61.4743111  81.3980154
  93.8184336  62.0098378  82.5006785  75.5602762  52.9940696  93.8905224
  75.1669708  52.4406894  94.5652869  76.3768903  53.3051274  94.2811742
  78.4770723  54.4098575  91.4825481  79.2180437  55.0105728  91.4029943
  78.7088646  53.6676212  90.9243524  73.6212061  59.5954942  89.7603711
  73.5065576  58.6940199  90.0610810  72.7656579  59.8418639  89.4088527
  80.7003899  67.5372682  91.3591211  80.2567753  66.7509061  91.0412116
  81.3621113  67.7251833  90.6935102  82.7985137  67.8175482  89.3872613
  82.7803612  68.6384363  88.8952882  83.7205057  67.6929557  89.6122754
  79.2558191  65.3319612  90.2296121  79.7886528  64.5707900  89.9995429
  78.7272272  65.0393263  90.9720275  82.4227886  50.4379678  85.7589763
  82.0792156  51.3281319  85.6828873  82.7906849  50.2481335  84.8959348
  80.8890040  58.4848453  83.1544261  79.9712601  58.7063400  82.9965950
  81.3050183  58.5594763  82.2955969  82.0303203  59.0745914  87.9588964
  82.3852591  59.3017387  88.8183430  82.6775334  59.4064291  87.3366219
  87.7870320  64.2640877  83.6749565  88.2206826  64.1716166  84.5232619
  88.5001900  64.2398377  83.0369581  88.6485869  64.3064578  86.2082450
  88.8421759  65.2110388  86.4541725  88.5486487  63.8471997  87.0421035
  83.7100978  64.4571320  91.7823331  83.5586484  64.2281872  90.8653414
  83.7005657  65.4141922  91.7954676  80.4786314  62.0303233  86.7669597
  81.4078374  62.1814393  86.5938564  80.0577344  62.1187254  85.9118244
  74.8024105  60.8403130  87.4509554  74.6643903  60.1083369  88.0521093
  75.7129029  60.7512030  87.1693741  77.4306406  60.5523090  86.9393233
  78.1406024  59.9116282  86.8979852  77.3875714  60.8035984  87.8619414
  85.4193185  67.4890443  89.8599813  85.3605731  66.8049663  89.1930396
  85.8212703  68.2309433  89.4080439  76.1435340  57.5388307  88.7588873
  75.6072697  57.0879046  89.4110469  75.5552048  57.6734216  88.0159337
  85.4210592  65.4530027  88.0913792  84.5337371  65.1155949  88.2140191
  85.9909143  64.7213058  88.3282558  89.9027932  60.8638244  82.8530354
  89.8917809  61.7462960  82.4824287  89.0345312  60.5109795  82.6584891
  81.4110429  70.0118313  87.2133194  82.1238401  70.6465778  87.1409096
  80.9200457  70.1082179  86.3973196  84.2623628  60.3157364  85.8591315
  83.6095079  60.5633272  85.2043768  84.6404008  59.5021502  85.5253793
  80.3111201  61.0577175  92.3457352  79.6351838  60.9571305  93.0159728
  81.1338835  60.9016389  92.8093350  73.5050750  56.7842385  90.8309887
  74.1322789  56.4019462  91.4447412  72.6478669  56.5656587  91.1965580
  83.9044859  67.1905360  92.4363623  84.4484763  67.8035318  91.9418578
  83.3231703  67.7484939  92.9530636  84.2537280  68.1135098  85.1958201
  83.3067615  67.9940449  85.1236527  84.6020053  67.2257596  85.2784462
  79.1999796  69.9302584  88.5963623  79.5086922  69.6851731  89.4686322
  79.9975278  70.1349223  88.1082493  76.7418807  56.1060291  92.4923807
  76.7906963  56.9822414  92.1101577  77.2841321  55.5637684  91.9195450
  87.2273653  66.6501414  91.7724944  86.4369197  66.6325553  91.2329443
  86.9907007  67.1889708  92.5273981  87.3471528  63.4993881  89.0857673
  87.3969533  63.3343888  90.0273195  87.2385451  62.6321140  88.6955553
  84.6375290  59.4824809  90.4016979  85.5385153  59.3431273  90.1100977
  84.7123265  59.6479263  91.3415157  88.8489725  65.9190822  89.3299694
  88.5574533  66.2820803  90.1663155  88.2361856  65.2057830  89.1513026
  90.0485407  63.4843702  81.8502264  90.8832298  63.9233506  82.0139825
  90.1844536  63.0082355  81.0310510  87.0976913  61.0423437  87.7979752
  87.5731035  61.2351083  86.9898603  86.1742478  61.0982623  87.5523136
  81.6757130  53.0771280  86.7635586  82.1939073  53.8132307  86.4382075
  81.3212262  53.3835274  87.5982345  83.8192961  55.0044780  86.2167459
  83.2242894  55.2849793  85.5213947  83.5342658  55.4938681  86.9884200
  88.2766660  61.1395317  85.1450357  88.2442980  60.2011317  85.3310041
  88.8867283  61.2179353  84.4116182  94.0943210  62.2011323  84.2856394
  94.8246598  61.9396612  84.8464097  93.4850155  61.4640045  84.3258462
  92.1758507  60.3419186  84.8830845  91.4491670  60.2075151  84.2747337
  91.7605794  60.6496015  85.6887563  79.9988683  64.0609116  92.6478218
  80.9191693  64.2387715  92.8418265  79.9638266  63.1165161  92.4957918
  77.8678621  57.5443356  94.6803748  77.7675348  58.4937713  94.6115840
  77.6500163  57.2161595  93.8079819  77.7309891  60.9740495  93.4968810
  77.2476973  61.7740855  93.7032699  77.8170830  60.9848440  92.5436254
  74.2482611  63.4346146  88.1008042  75.0675500  63.9290224  88.1242879
  74.5219418  62.5178114  88.0725609  92.1007374  59.8697239  81.0107698
  91.5406932  59.9390428  81.7839260  91.4950878  59.6938224  80.2907194
  82.0270917  64.8365127  94.2992379  82.8962077  65.0105779  93.9379014
  81.5477669  65.6559544  94.1768109  73.8415016  54.9151897  92.8975253
  74.7046478  54.5588701  93.1078577  73.2680427  54.5765791  93.5850657
  96.1638509  67.9202014  86.1418449  95.8321834  68.7897425  85.9179664
  95.5684122  67.6038298  86.8212479  86.1082510  76.5728357  81.5751066
  85.1833006  76.4404571  81.7828758  86.3566923  77.3522576  82.0721009
  96.0567172  72.6397100  83.2211799  95.1484050  72.5712509  82.9270560
  96.0054768  73.1169045  84.0493625  97.9228819  70.8413539  84.9989673
  97.2803199  71.1346072  84.3529468  97.4183747  70.7266459  85.8042870
  92.9204957  70.7634748  83.9365393  92.0589436  71.0616001  84.2282131
  92.9467392  70.9805147  83.0046426  80.6998449  73.9414134  84.8860888
  80.9506488  74.8261144  85.1518464  81.2357998  73.7618735  84.1135980
 104.5230549  77.3727631  81.5536150 103.7694257  76.8035029  81.3980154
 104.6578090  77.3390296  82.5006785  86.3996517  68.3232613  93.8905224
  86.0063462  67.7698812  94.5652869  87.2162657  68.6343192  94.2811742
  89.3164478  69.7390492  91.4825481  90.0574191  70.3397645  91.4029943
  89.5482401  68.9968130  90.9243524  93.2621641  65.7671595  85.7589763
  92.9185910  66.6573237  85.6828873  93.6300603  65.5773253  84.8959348
  92.3418181  68.1376250  83.7238996  91.8382977  68.1006386  82.9106801
  92.6348788  69.0468993  83.7835653  88.5861067  68.2214980  82.7305178
  89.4514064  68.0257789  82.3711067  88.6538576  67.9925332  83.6574534
  95.0609306  65.0265154  80.8607500  95.3668183  64.1662518  80.5733415
  95.7861911  65.6182775  80.6606494  95.3310924  67.4559390  83.3591421
  94.4174004  67.6863617  83.5273628  95.7604026  67.5397834  84.2105454
  89.3099625  67.3584162  85.1573436  90.1325694  66.8844641  85.0352326
  89.5537688  68.1374646  85.6572122  88.6934586  71.0405831  83.0146304
  88.6796155  70.1446924  82.6778602  89.4107014  71.0476495  83.6484590
  90.9662673  67.6075122  81.4200594  90.9884369  67.6714455  80.4652574
  91.3830732  66.7679630  81.6141100  92.5150884  68.4063198  86.7635586
  93.0332828  69.1424225  86.4382075  92.1606017  68.7127191  87.5982345
  92.7663478  64.8263481  82.2836483  93.0465232  64.1586670  82.9096909
  93.5514085  65.0192576  81.7711146  94.6586716  70.3336698  86.2167459
  94.0636648  70.6141710  85.5213947  94.3736413  70.8230599  86.9884200
  99.2654903  73.2598278  85.1908641  98.7493951  72.4756734  85.0038569
 100.1494851  72.9316994  85.3555160  96.9265630  67.0039293  81.1504453
  96.7290451  66.6954381  82.0347785  97.5365335  67.7300932  81.2802383
 104.9336964  77.5303241  84.2856394 105.6640353  77.2688529  84.8464097
 104.3243910  76.7931963  84.3258462 103.0152261  75.6711104  84.8830845
 102.2885425  75.5367069  84.2747337 102.5999548  75.9787932  85.6887563
  88.7072376  72.8735274  94.6803748  88.6069102  73.8229631  94.6115840
  88.4893918  72.5453513  93.8079819  88.5703646  76.3032413  93.4968810
  88.0870727  77.1032773  93.7032699  88.6564585  76.3140357  92.5436254
  98.1957498  71.1795337  81.1790336  98.9717888  71.6691789  81.4514953
  97.4705632  71.6053391  81.6362206 100.6330056  71.8922956  82.2364277
 101.2274547  71.6518692  81.5257585 100.7056640  71.1730086  82.8637813
  98.6288791  72.4593083  78.5036407  98.3725725  72.0589719  79.3344614
  98.0041659  73.1736877  78.3786546  80.3411279  73.0976197  88.8000239
  80.9870143  72.5875151  89.2887464  80.1328431  73.8344879  89.3743664
  92.6767009  63.9559018  78.8070072  91.9099405  63.4017505  78.9526754
  93.0877714  64.0280887  79.6684223  84.6808770  70.2443814  92.8975253
  85.5440232  69.8880619  93.1078577  84.1074181  69.9057709  93.5850657
 115.3624304  92.7019549  81.5536150 114.6088012  92.1326947  81.3980154
 115.4971845  92.6682213  82.5006785 103.6057233  80.1555398  82.2836483
 103.8858986  79.4878587  82.9096909 104.3907840  80.3484494  81.7711146
 115.7730719  92.8595159  84.2856394 116.5034107  92.5980447  84.8464097
 115.1637664  92.1223881  84.3258462 113.8546016  91.0003021  84.8830845
 113.1279179  90.8658986  84.2747337 113.4393303  91.3079850  85.6887563
 115.3650902 107.2037588  83.7037654 116.0029312 107.0844336  83.0000994
 115.2471745 108.1518432  83.7625606 112.6560391 108.3099868  89.5985384
 112.6449032 107.9152666  88.7265888 112.8181031 107.5765941  90.1919156
 113.6126983 112.6771461  74.9410534 112.9614962 113.2625541  74.5544548
 114.4071345 113.2077655  75.0005572 120.3200598 104.8664275  81.6823840
 121.0525769 104.2963492  81.9161670 119.5639953 104.4785876  82.1230346
 117.8426018  98.5785849  86.1418449 117.5109343  99.4481260  85.9179664
 117.2471631  98.2622133  86.8212479 114.3357537 110.7798395  85.5414362
 114.0358260 111.6823434  85.4330169 113.9908597 110.5130579  86.3935515
 117.7354681 103.2980936  83.2211799 116.8271559 103.2296344  82.9270560
 117.6842277 103.7752881  84.0493625 119.6016328 101.4997374  84.9989673
 118.9590708 101.7929907  84.3529468 119.0971256 101.3850294  85.8042870
 115.5397259 109.6685175  89.3236825 115.9480615 109.2267586  88.5791457
 114.8174520 109.0937803  89.5771018 111.8928329 104.6057782  86.6970382
 112.7389524 105.0297195  86.8405031 111.8326967 103.9491406  87.3908945
 115.8626074 110.2286366  83.0789114 115.2334936 110.3932080  82.3765182
 115.4751736 110.6427975  83.8500078 119.7415305 111.1640804  80.4333477
 119.0566344 111.5439705  79.8830511 119.8259155 111.7736130  81.1665425
 115.0427774 102.2662150  88.3551555 114.7988706 103.0204211  87.8185831
 115.3187705 102.6447498  89.1898802 116.9966237 108.8100763  87.0328821
 117.2083132 109.4532522  86.3563202 116.9495985 107.9763079  86.5650751
 114.5992466 101.4218583  83.9365393 113.7376945 101.7199837  84.2282131
 114.6254901 101.6388982  83.0046426 118.1112065 111.6872718  85.2051178
 118.9329509 111.2852905  84.9233860 118.1074468 111.5840952  86.1567294
 126.2018058 108.0311466  81.5536150 125.4481766 107.4618865  81.3980154
 126.3365599 107.9974131  82.5006785 113.2185162 113.5248435  91.3591211
 112.7749017 112.7384814  91.0412116 113.8802376 113.7127586  90.6935102
 115.3166401 113.8051235  89.3872613 115.2984876 114.6260116  88.8952882
 116.2386321 113.6805310  89.6122754 111.7739455 111.3195365  90.2296121
 112.3067792 110.5583653  89.9995429 111.2453536 111.0269016  90.9720275
 114.9409150  96.4255431  85.7589763 114.5973419  97.3157072  85.6828873
 115.3088112  96.2357088  84.8959348 114.0205690  98.7960086  83.7238996
 113.5170486  98.7590221  82.9106801 114.3136297  99.7052828  83.7835653
 119.8793707 109.1696396  76.2015371 119.1023149 108.8307556  75.7570533
 120.5585188 109.1749020  75.5270336 118.1185013 108.6430378  82.8581979
 117.4608688 109.3329639  82.9462108 118.9225413 109.0326810  83.2015966
 116.9290472 106.9974750  80.9085921 117.4422354 107.6304742  81.4107631
 117.5791696 106.3975946  80.5429281 114.1912846 116.9759075  73.6646592
 113.5174545 117.2790771  74.2731550 114.5778668 117.7788155  73.3152049
 113.4071303 104.4724206  83.1544261 112.4893864 104.6939153  82.9965950
 113.8231447 104.5470516  82.2955969 117.6952268 111.9780752  79.0365064
 117.2414596 111.1371662  79.0930254 117.0646235 112.6142150  79.3739844
 116.1385208 113.8157248  79.9714882 116.4308182 114.3762306  79.2527247
 116.6483828 114.1085809  80.7268041 112.1609089 109.9082906  72.6061975
 111.7228519 109.1918765  72.1467612 112.9019530 110.1359021  72.0447066
 114.5484467 105.0621667  87.9588964 114.9033854 105.2893140  88.8183430
 115.1956598 105.3940044  87.3366219 120.2782204 108.1840103  78.6638293
 120.1400102 108.3741699  77.7359482 119.9218422 108.9459486  79.1206344
 120.3051583 110.2516630  83.6749565 120.7388090 110.1591919  84.5232619
 121.0183164 110.2274130  83.0369581 114.0379478 113.8518724  85.2082665
 114.0916500 114.4209660  85.9760381 113.1694259 114.0220609  84.8436702
 121.1667133 110.2940331  86.2082450 121.3603023 111.1986141  86.4541725
 121.0667751 109.8347750  87.0421035 116.2282241 110.4447073  91.7823331
 116.0767748 110.2157625  90.8653414 116.2186921 111.4017675  91.7954676
 112.9967578 108.0178986  86.7669597 113.9259638 108.1690146  86.5938564
 112.5758608 108.1063007  85.9118244 111.7955910 112.0429651  84.5368135
 111.6566995 111.6748435  85.4094073 111.0070506 112.5577290  84.3652093
 112.3904062 117.1438747  75.8793671 112.5655817 116.6726790  76.6939294
 111.7036850 117.7704513  76.1074932 113.3461125 111.4211253  81.9256973
 113.0110957 111.3812023  82.8214622 112.8465070 110.7555969  81.4527383
 117.9374448 113.4766196  89.8599813 117.8786994 112.7925416  89.1930396
 118.3393966 114.2185186  89.4080439 106.9565147 120.2928110  82.6533531
 107.1961745 120.9246634  83.3312550 106.1134343 119.9416150  82.9398891
 117.9391855 111.4405780  88.0913792 117.0518634 111.1031702  88.2140191
 118.5090406 110.7088811  88.3282558 111.4693009 116.1007232  85.0575035
 111.3963180 116.9062204  85.5694340 111.0270402 116.2999198  84.2323057
 122.4209196 106.8513997  82.8530354 122.4099072 107.7338713  82.4824287
 121.5526575 106.4985548  82.6584891 113.9291692 115.9994066  87.2133194
 114.6419664 116.6341531  87.1409096 113.4381721 116.0957932  86.3973196
 119.0381771 105.7462638  79.3200520 119.5042223 106.5790630  79.2460823
 119.4889271 105.2807620  80.0245778 108.9803606 113.7488510  88.0338765
 109.6813065 114.3824993  88.1868159 108.5098721 114.0903241  87.2734404
 117.1058002 112.0906460  76.3186672 117.3817846 111.9763054  77.2280546
 116.2362500 111.6923944  76.2798845 117.0098433  98.1143225  83.3591421
 116.0961513  98.3447452  83.5273628 117.4391535  98.1981669  84.2105454
 116.7804892 106.3033117  85.8591315 116.1276342 106.5509025  85.2043768
 117.1585272 105.4897255  85.5253793 113.7412066 116.3392810  79.9619486
 113.9234460 115.5214466  80.4247238 114.5645052 116.5560503  79.5244376
 114.0754231 115.2660995  77.2234534 114.6041998 114.7553450  76.6104696
 114.3382451 114.9503526  78.0880067 111.5715248 118.3519856  86.5814968
 112.1233556 118.5151477  87.3464054 111.9121441 118.9424294  85.9094993
 116.4226122 113.1781113  92.4363623 116.9666026 113.7911071  91.9418578
 115.8412967 113.7360692  92.9530636 114.7083635 116.3001831  83.5678651
 114.5834774 115.4991571  83.0589596 115.3662726 116.7948025  83.0792620
 116.7718543 114.1010851  85.1958201 115.8248879 113.9816202  85.1236527
 117.1201316 113.2133349  85.2784462 113.7764977 113.8963568  81.3962553
 113.6289939 112.9680275  81.5770123 114.6018470 113.9183658  80.9119628
 117.3799098 114.7192126  82.4827426 118.3045646 114.5134988  82.3451877
 117.2114402 114.4708527  83.3916767 117.1694415 115.2377794  77.8389517
 117.3431292 114.6724216  77.0863369 117.6623306 116.0378689  77.6569007
 123.0233806 108.0014217  79.4579817 123.4664952 107.2521542  79.0598940
 122.1460316 107.9924353  79.0753549 118.1569587 114.5544558  74.9386415
 118.8520492 115.1751251  75.1573730 118.4992737 113.7039909  75.2138793
 120.0561010 112.0044264  76.4673746 120.5812334 112.3431536  75.7423066
 119.9683363 111.0691279  76.2836881 111.7181059 115.9178337  88.5963623
 112.0268185 115.6727484  89.4686322 112.5156541 116.1224976  88.1082493
 111.7401671 118.0716247  80.8268999 111.3006661 117.5792626  81.5201856
 112.4909788 117.5289215  80.5861074 119.7454916 112.6377167  91.7724944
 118.9550460 112.6201306  91.2329443 119.5088271 113.1765461  92.5273981
 119.8652791 109.4869634  89.0857673 119.9150796 109.3219641  90.0273195
 119.7566715 108.6196893  88.6955553 117.1556554 105.4700562  90.4016979
 118.0566417 105.3307027  90.1100977 117.2304528 105.6355016  91.3415157
 121.3670988 111.9066575  89.3299694 121.0755797 112.2696556  90.1663155
 120.7543120 111.1933583  89.1513026 122.5666671 109.4719455  81.8502264
 123.4013562 109.9109259  82.0139825 122.7025799 108.9958108  81.0310510
 119.6158177 107.0299190  87.7979752 120.0912298 107.2226836  86.9898603
 118.6923742 107.0858376  87.5523136 114.1938393  99.0647033  86.7635586
 114.7120337  99.8008060  86.4382075 113.8393526  99.3711027  87.5982345
 118.3159846 103.9064950  86.0308058 119.2677268 104.0063048  86.0520282
 118.1463296 103.1143218  86.5406142 116.3374225 100.9920533  86.2167459
 115.7424157 101.2725546  85.5213947 116.0523922 101.4814434  86.9884200
 115.4681715 114.9443460  74.9770091 116.4012389 114.8789022  75.1802967
 115.3804928 115.7799727  74.5184624 118.0969732 114.2609330  71.9374039
 118.0183364 113.9269194  72.8309797 118.9179399 114.7531098  71.9365511
 120.7947923 107.1271070  85.1450357 120.7624243 106.1887070  85.3310041
 121.4048547 107.2055106  84.4116182 120.9442412 103.9182113  85.1908641
 120.4281460 103.1340570  85.0038569 121.8282360 103.5900830  85.3555160
 126.6124473 108.1887076  84.2856394 127.3427862 107.9272365  84.8464097
 126.0031419 107.4515798  84.3258462 124.6939770 106.3294939  84.8830845
 123.9672934 106.1950904  84.2747337 124.2787057 106.6371768  85.6887563
 112.5169947 110.0484869  92.6478218 113.4372956 110.2263468  92.8418265
 112.4819530 109.1040914  92.4957918 119.8745007 101.8379172  81.1790336
 120.6505397 102.3275624  81.4514953 119.1493141 102.2637226  81.6362206
 122.3117565 102.5506791  82.2364277 122.9062056 102.3102527  81.5257585
 122.3844149 101.8313922  82.8637813 115.6673684 111.5777326  71.5584017
 116.3709534 111.7827328  72.1741673 114.9436333 112.1454088  71.8233101
 124.6188638 105.8572992  81.0107698 124.0588196 105.9266181  81.7839260
 124.0132141 105.6813977  80.2907194 117.5760381 112.0159855  73.6082477
 118.4105985 111.5841053  73.4259952 117.4144724 111.8441869  74.5359372
 117.2306273 108.5191968  74.9738816 117.1755077 108.3536240  74.0327261
 116.6052329 109.2268001  75.1301006 114.5452181 110.8240880  94.2992379
 115.4143340 110.9981532  93.9379014 114.0658932 111.6435297  94.1768109
 108.7138361 117.9437981  85.9781813 109.6165608 117.9761591  86.2948308
 108.4875731 117.0138432  85.9928149 110.4691963 116.6968968  82.6391891
 109.5187594 116.6970829  82.5256264 110.7724449 115.9501702  82.1227926
 126.2044656 122.5329506  83.7037654 126.8423066 122.4136253  83.0000994
 126.0865499 123.4810350  83.7625606 123.0134363 122.4856934  83.6399179
 122.6752874 122.3697999  82.7519713 123.8824131 122.0848099  83.6200185
 118.8721178 124.3392410  79.6296070 118.3086043 124.2482347  78.8612357
 118.7573573 123.5192315  80.1098562 123.4954146 123.6391786  89.5985384
 123.4842786 123.2444584  88.7265888 123.6574785 122.9057858  90.1919156
 116.4185610 125.8343602  82.4680290 117.2106902 125.4934427  82.0526589
 116.6582260 125.9438577  83.3882443 118.3776364 125.0952515  75.3397669
 119.1507240 124.5481502  75.2010545 118.7301763 125.9596765  75.5512130
 120.2161407 126.4228898  88.5464568 119.9251273 127.3274528  88.4311234
 120.8518391 126.4645425  89.2608638 121.1417614 123.8005746  85.1365928
 121.7381186 123.5761769  84.4222891 121.1992585 123.0590492  85.7391376
 120.7142642 121.2545181  72.9716119 120.9668163 120.7326703  72.2099582
 119.7767201 121.0911327  73.0742802 125.7585925 120.2580960  80.7790862
 126.5449014 119.8400383  80.4281279 126.0224629 121.1627052  80.9472510
 131.1594352 120.1956193  81.6823840 131.8919524 119.6255410  81.9161670
 130.4033708 119.8077793  82.1230346 120.4338931 123.1573287  75.1740494
 120.3175189 122.4818191  75.8421578 120.5441191 122.6705661  74.3572647
 122.7770472 122.6183435  78.8787183 122.4128679 122.0914055  79.5900104
 123.6337588 122.2281904  78.7053668 128.6819772 113.9077767  86.1418449
 128.3503097 114.7773178  85.9179664 128.0865386 113.5914051  86.8212479
 122.4175959 117.6473334  73.8748531 122.5850361 118.5153571  74.2419002
 122.2273128 117.8100616  72.9509821 118.6263773 122.5604110  81.5751066
 117.7014270 122.4280324  81.7828758 118.8748187 123.3398329  82.0721009
 128.5748436 118.6272853  83.2211799 127.6665313 118.5588262  82.9270560
 128.5236031 119.1044798  84.0493625 122.3965180 120.1030992  74.8595198
 122.2764805 120.5488042  75.6980678 121.7017768 120.4516309  74.3008736
 115.9872584 122.2037384  82.4094855 116.1164966 122.4571862  83.3234267
 115.3070036 122.7965092  82.0899510 122.6489301 120.0462499  91.1646696
 121.8722636 120.6056419  91.1549561 123.2879865 120.5319282  91.6861566
 130.4410082 116.8289292  84.9989673 129.7984462 117.1221825  84.3529468
 129.9365011 116.7142212  85.8042870 128.0950246 120.5752465  75.6875532
 129.0068102 120.8079852  75.5123230 127.5859893 121.1589509  75.1250611
 120.9035674 122.8547952  90.7264663 121.6450358 123.3932996  90.4499487
 120.1972659 123.4814241  90.8836215 126.3791013 124.9977093  89.3236825
 126.7874369 124.5559503  88.5791457 125.6568275 124.4229720  89.5771018
 122.7322083 119.9349699  86.6970382 123.5783279 120.3589113  86.8405031
 122.6720721 119.2783324  87.3908945 125.8821529 117.5954068  88.3551555
 125.6382461 118.3496128  87.8185831 126.1581459 117.9739415  89.1898802
 125.4386221 116.7510501  83.9365393 124.5770700 117.0491754  84.2282131
 125.4648655 116.9680900  83.0046426 122.2547790 125.2952691  80.3439199
 122.7186135 125.5740394  79.5543821 121.9904588 124.3936136  80.1612289
 119.1471871 124.8424173  83.2818962 119.7173228 125.2711441  82.6436447
 119.7379983 124.5606758  83.9803148 121.1916676 121.4175844  77.1528764
 121.8940719 121.8696887  77.6202690 120.8597304 120.7759663  77.7808657
 119.6397038 120.0087600  91.5279973 119.0095698 120.6903881  91.7615370
 119.5333125 119.8970682  90.5833112 114.9342010 119.6759396  82.4545898
 114.1441064 119.9316925  81.9786008 115.4253257 120.4907734  82.5597938
 116.8856755 120.0403976  79.4129374 116.0887919 120.1522670  79.9312870
 116.6582348 120.3790628  78.5470265 122.7162423 126.5648679  87.3611889
 122.7806855 127.0269086  88.1970061 122.0073347 125.9346044  87.4894199
 113.2179713 119.9289887  84.8860888 113.4687751 120.8136897  85.1518464
 113.7539261 119.7494488  84.1135980 118.9177780 114.3108366  93.8905224
 118.5244726 113.7574565  94.5652869 119.7343921 114.6218945  94.2811742
 115.8839838 125.7492224  77.8018794 116.3964359 126.5435475  77.9524359
 116.5362551 125.0518515  77.7352396 117.6934723 128.8657981  79.8841547
 117.8701351 129.7875945  79.6962531 118.4891556 128.5516400  80.3135927
 121.8345741 115.7266245  91.4825481 122.5755455 116.3273398  91.4029943
 122.0663664 114.9843883  90.9243524 116.9787079 120.9122613  89.7603711
 116.8640594 120.0107870  90.0610810 116.1231597 121.1586309  89.4088527
 118.8166038 130.3836155  85.8851890 119.3673463 130.2553218  85.1128884
 117.9777514 130.6831044  85.5346783 122.6133209 126.6487282  90.2296121
 123.1461546 125.8875571  89.9995429 122.0847290 126.3560934  90.9720275
 125.7802904 111.7547348  85.7589763 125.4367174 112.6448990  85.6828873
 126.1481867 111.5649006  84.8959348 113.8488755 124.0780879  78.5778365
 114.6863977 124.4877887  78.3612073 114.0267022 123.1380321  78.5478559
 125.7453187 121.7455959  74.2662198 125.2299810 122.5160564  74.5050585
 125.4730495 121.0721096  74.8895259 123.3300298 116.5905660  79.3247436
 122.4741894 116.2012511  79.1453075 123.7427250 116.6697621  78.4647222
 124.8599445 114.1252003  83.7238996 124.3564240 114.0882139  82.9106801
 125.1530051 115.0344746  83.7835653 121.1042330 114.2090733  82.7305178
 121.9695327 114.0133542  82.3711067 121.1719839 113.9801085  83.6574534
 125.5339490 119.6183052  76.0921979 125.2289626 119.9329201  76.9432122
 126.4869932 119.6964471  76.1349312 123.9785922 125.7773275  77.7414933
 123.4507283 125.0426034  77.4288170 123.4773425 126.5547951  77.4954901
 118.7104650 116.4392941  80.1021544 119.2848401 116.2168123  79.3694737
 119.2975632 116.5081636  80.8550146 127.7684227 122.3266668  80.9085921
 128.2816108 122.9596660  81.4107631 128.4185451 121.7267864  80.5429281
 119.0374237 118.4697402  74.1217430 118.2011549 118.8072089  74.4426704
 118.8979006 118.3346382  73.1844567 121.0127317 113.3134190  78.8296614
 120.3591730 112.9983207  78.2053229 120.9707791 112.6909930  79.5556437
 122.1238522 123.5953485  70.7449906 121.2165584 123.3642739  70.9441055
 122.6209554 122.7991104  70.9323887 124.2465058 119.8016124  83.1544261
 123.3287619 120.0231071  82.9965950 124.6625201 119.8762434  82.2955969
 125.0300105 121.2007539  78.2846942 125.7771924 121.7128936  77.9754064
 125.2991695 120.8791592  79.1451335 123.3026756 123.6966080  75.2673896
 122.3937975 123.4125113  75.3646366 123.3321839 124.1165159  74.4077203
 127.4778943 118.2364655  80.2665731 126.7401699 117.7242042  80.5975974
 127.7305716 117.7965037  79.4549008 127.5790570 111.0140907  80.8607500
 127.8849447 110.1538271  80.5733415 128.3043175 111.6058528  80.6606494
 113.8714926 121.4171594  79.2489098 113.6739326 120.8240955  78.5240165
 113.3161590 121.1123804  79.9665037 121.8511650 121.3094701  81.3683691
 121.9060259 120.3568537  81.2926168 121.0402852 121.4654140  81.8524990
 123.0002843 125.2374824  72.6061975 122.5622273 124.5210683  72.1467612
 123.7413284 125.4650938  72.0447066 119.7904009 119.9271760  79.1274070
 118.9771875 120.2265931  79.5339262 120.2863004 119.5327449  79.8448552
 125.3878221 120.3913585  87.9588964 125.7427609 120.6185058  88.8183430
 126.0350352 120.7231962  87.3366219 119.2818084 117.4990116  84.7435305
 119.9217464 117.3578875  84.0458269 118.4495615 117.2124629  84.3673907
 120.0578388 126.7992546  80.8570298 120.8518987 126.3042866  80.6552873
 119.3470081 126.2710409  80.4938003 116.3661152 120.9435628  76.9330050
 115.4358740 120.8820083  77.1500012 116.4618624 120.4211581  76.1366692
 116.2846701 117.4690441  79.5208292 116.5453518 118.3835774  79.4117452
 117.1063873 117.0014883  79.6704905 117.7571626 118.8828198  86.6907117
 118.4294679 118.6745560  86.0419765 116.9301413 118.6850284  86.2512349
 123.6597198 115.5090139  88.7072777 123.0125113 116.2080089  88.6137254
 124.4298213 115.9426283  89.0749026 123.8361332 123.3470904  86.7669597
 124.7653392 123.4982063  86.5938564 123.4152362 123.4354925  85.9118244
 122.6349664 127.3721568  84.5368135 122.4960750 127.0040353  85.4094073
 121.8464260 127.8869208  84.3652093 124.1854879 126.7503171  81.9256973
 123.8504712 126.7103941  82.8214622 123.6858825 126.0847887  81.4527383
 118.1599123 122.1570801  87.4509554 118.0218921 121.4251040  88.0521093
 119.0704047 122.0679701  87.1693741 127.1214071 124.0959205  72.1994032
 126.5043242 123.3706033  72.1027085 126.6530559 124.8568566  71.8561106
 120.7881424 121.8690760  86.9393233 121.4981042 121.2283952  86.8979852
 120.7450732 122.1203655  87.8619414 119.5010358 118.8555978  88.7588873
 118.9647715 118.4046717  89.4110469 118.9127066 118.9901887  88.0159337
 118.9112617 118.3144630  71.3215336 118.0342083 118.1933430  70.9577583
 119.3870370 117.5230708  71.0694225 110.4314757 123.1021789  81.4156844
 111.1185797 122.7883519  80.8277859 110.2762886 124.0063154  81.1424095
 115.2349479 117.9911986  85.8441867 115.1507668 117.3837655  85.1092277
 114.4132186 118.4821004  85.8451364 125.4073193 116.4765549  81.2112062
 125.9041893 115.7235512  80.8913133 124.6360175 116.5129866  80.6455272
 126.4902974 125.2337237  78.7850486 125.5559252 125.3538699  78.6155190
 126.6679642 124.3309703  78.5210496 121.9908162 118.6182932  80.9383747
 121.6205949 118.0653973  81.6264653 122.4867254 118.0141066  80.3858747
 129.8775525 121.0754556  79.3200520 130.3435977 121.9082547  79.2460823
 130.3283026 120.6099537  80.0245778 127.8492188 113.4435143  83.3591421
 126.9355268 113.6739370  83.5273628 128.2785289 113.5273587  84.2105454
 127.6198646 121.6325035  85.8591315 126.9670097 121.8800942  85.2043768
 127.9979026 120.8189173  85.5253793 123.6686219 122.3744846  92.3457352
 122.9926856 122.2738975  93.0159728 124.4913853 122.2184060  92.8093350
 115.4165078 128.6116782  84.9669868 116.0018515 127.8660470  85.0997772
 115.2189917 128.9220739  85.8506531 110.0082733 121.1822383  83.6874311
 110.0466833 120.6485973  84.4811429 109.5023026 120.6557588  83.0685288
 117.3873495 116.0286923  87.1836853 117.4514822 116.8901754  86.7714251
 117.3240616 115.4160925  86.4509212 116.8625768 118.1010056  90.8309887
 117.4897807 117.7187133  91.4447412 116.0053687 117.8824258  91.1965580
 113.6391311 119.9086485  76.7628242 113.9344752 118.9997163  76.7095296
 112.7379346 119.8874224  76.4409244 117.1685558 117.9842481  82.7455791
 116.4472143 118.5978449  82.6063264 117.9578813 118.5200246  82.6672437
 119.9711871 115.3196908  89.0196442 120.4946273 115.5659204  89.7822752
 119.7524204 116.1516943  88.5999580 115.3679152 117.5900582  76.8867567
 115.0391858 116.7097961  76.7042673 115.7218523 117.5348251  77.7743957
 118.4820975 117.8773552  77.2543045 118.8217048 118.4059474  76.5321653
 118.9293096 118.2153958  78.0301612 121.1764416 116.2610603  86.7046113
 120.8361237 115.4618416  87.1066793 120.4703423 116.5612314  86.1322946
 121.8280888 113.3459915  85.1573436 122.6506957 112.8720394  85.0352326
 122.0718952 114.1250399  85.6572122 120.4689123 116.3748174  75.4536338
 121.1897485 116.7529427  74.9500055 119.8454427 117.0937051  75.5571316
 124.6120245 117.0793323  76.3894670 124.8283860 117.9617961  76.0883498
 124.1314313 116.6879536  75.6600312 119.3519467 120.0379036  82.9665415
 119.2064048 120.3519339  83.8589696 118.8744670 120.6563936  82.4136313
 121.2115850 117.0281584  83.0146304 121.1977418 116.1322677  82.6778602
 121.9288278 117.0352248  83.6484590 123.0641980 117.4618924  85.0599432
 122.8059758 118.3835995  85.0583762 122.5327021 117.0649359  85.7499896
 113.8265129 122.5784380  85.9053076 113.2818597 123.3544188  86.0373350
 114.7044479 122.9255185  85.7472197 120.6152746 115.9095964  78.2833874
 120.7368657 114.9812611  78.4824762 120.3254788 115.9234650  77.3712190
 123.4843936 113.5950875  81.4200594 123.5065633 113.6590208  80.4652574
 123.9011995 112.7555383  81.6141100 114.6131151 121.7054277  88.7983233
 113.8712887 121.8536912  89.3847863 114.2923895 121.9662542  87.9349982
 115.0587765 129.5919705  80.8293627 115.8845784 129.2923477  80.4492271
 114.7081817 128.8227328  81.2783416 120.0269298 128.9446174  82.8991301
 119.4049307 128.2816879  82.5993529 120.6974165 128.9707306  82.2164949
 113.2596370 127.5106032  81.7882561 112.4228278 127.0828206  81.6066562
 113.2320015 127.7038475  82.7253352 120.0993825 117.4227962  92.4923807
 120.1481981 118.2990084  92.1101577 120.6416339 116.8805355  91.9195450
 119.5882805 127.4950097  76.3749761 119.7370925 128.1785561  75.7216434
 120.3949248 127.4755187  76.8899217 127.9950308 120.7992479  90.4016979
 128.8960171 120.6598944  90.1100977 128.0698283 120.9646934  91.3415157
 122.3293114 118.1759334  89.2470166 121.4596423 118.4692900  88.9752754
 122.5652594 118.7599779  89.9677429 117.3435438 123.5215275  77.3810830
 117.0981480 122.6177605  77.5791041 117.5131352 123.5232425  76.4390308
 125.0332147 114.3938951  86.7635586 125.5514091 115.1299978  86.4382075
 124.6787280 114.7002944  87.5982345 116.6131085 119.2543632  74.8796992
 115.9200330 119.3287987  74.2237028 116.3682837 118.4903976  75.4018509
 125.2844742 110.8139234  82.2836483 125.5646495 110.1462423  82.9096909
 126.0695349 111.0068329  81.7711146 129.1553600 119.2356868  86.0308058
 130.1071023 119.3354965  86.0520282 128.9857050 118.4435136  86.5406142
 127.1767979 116.3212451  86.2167459 126.5817912 116.6017463  85.5213947
 126.8917676 116.8106352  86.9884200 123.4725009 121.3259040  71.1877561
 124.4184113 121.1965248  71.2565979 123.0939254 120.5873702  71.6646990
 131.7836166 119.2474031  85.1908641 131.2675215 118.4632487  85.0038569
 132.6676115 118.9192747  85.3555160 129.4446893 112.9915046  81.1504453
 129.2471714 112.6830134  82.0347785 130.0546599 113.7176685  81.2802383
 123.3563701 125.3776786  92.6478218 124.2766711 125.5555385  92.8418265
 123.3213284 124.4332832  92.4957918 121.6567926 119.2509017  71.1232447
 120.7499381 118.9542129  71.1995160 121.9343907 118.9538835  70.2566733
 112.5745866 120.5715380  81.5731493 112.2548651 119.7180688  81.2805867
 112.0279294 120.7863958  82.3289460 116.3525774 123.2877821  85.2901000
 116.5711784 124.2194929  85.3089033 116.7651548 122.9285795  86.0755803
 123.2729992 113.7945906  77.2776688 122.4630720 113.4492991  77.6531934
 123.9614408 113.4853450  77.8664299 125.2020540 112.8723953  78.9000985
 125.7551578 113.2919407  79.5591008 125.4390626 111.9459701  78.9423941
 121.2253639 118.8611027  94.6803748 121.1250366 119.8105384  94.6115840
 121.0075181 118.5329266  93.8079819 120.4266710 116.1095952  71.2644426
 121.2885874 116.4350850  71.5240243 120.6117055 115.3227448  70.7517492
 112.4434126 124.1918291  83.5424615 111.7497598 123.7772244  83.0294569
 113.1907117 124.2338828  82.9458034 128.5799347 114.9824478  78.4079649
 127.9998016 115.6409282  78.0257701 128.3135280 114.1601823  77.9967066
 127.0302913 114.3829536  80.6100969 127.5302692 114.4946071  79.8015288
 127.6738521 114.0790589  81.2501778 121.0884909 122.2908166  93.4968810
 120.6051991 123.0908526  93.7032699 121.1745848 122.3016110  92.5436254
 114.3570869 124.1236545  81.4190629 114.3341557 124.2224233  80.4672513
 114.6671505 124.9701696  81.7407796 117.0158247 126.1812700  85.5337244
 117.9701500 126.1496643  85.4667175 116.8170770 125.7203324  86.3487470
 117.6057629 124.7513816  88.1008042 118.4250518 125.2457895  88.1242879
 117.8794436 123.8345784  88.0725609 127.3624225 117.1424569  77.4635997
 126.4750080 117.4274219  77.2456192 127.7778214 116.9818332  76.6163274
 130.7138761 117.1671090  81.1790336 131.4899151 117.6567542  81.4514953
 129.9886895 117.5929144  81.6362206 133.1511320 117.8798709  82.2364277
 133.7455810 117.6394445  81.5257585 133.2237903 117.1605839  82.8637813
 115.3708475 131.7232320  82.5507442 115.2362943 130.9632721  81.9845440
 114.9540538 132.4473220  82.0836231 127.3365249 122.6579105  77.6786287
 127.2800450 123.1147656  76.8393920 127.8893591 121.8969789  77.5009130
 131.1470055 118.4468836  78.5036407 130.8906989 118.0465472  79.3344614
 130.5222923 119.1612630  78.3786546 128.0700028 123.8483886  74.9738816
 128.0148832 123.6828157  74.0327261 127.4446083 124.5559919  75.1301006
 112.8592543 119.0851950  88.8000239 113.5051407 118.5750904  89.2887464
 112.6509694 119.8220632  89.3743664 121.3796153 113.3491995  74.5524135
 121.3674823 114.2933835  74.7092406 122.2719575 113.1662140  74.2583596
 125.1948273 109.9434771  78.8070072 124.4280669 109.3893258  78.9526754
 125.6058978 110.0156640  79.6684223 117.1990034 116.2319567  92.8975253
 118.0621496 115.8756372  93.1078577 116.6255445 115.8933462  93.5850657
  50.3288376  -7.7651795  70.4282961  50.9666786  -7.8845048  69.7246301
  50.2109219  -6.8170951  70.4870913  47.1378082  -7.8124367  70.3644485
  46.7996594  -7.9283302  69.4765020  48.0067851  -8.2133202  70.3445491
  42.9964898  -5.9588891  66.3541376  42.4329763  -6.0498954  65.5857664
  42.8817293  -6.7788986  66.8343869  47.6197865  -6.6589515  76.3230691
  47.6086506  -7.0536717  75.4511194  47.7818505  -7.3923443  76.9164462
  40.5429330  -4.4637699  69.1925597  41.3350622  -4.8046874  68.7771896
  40.7825980  -4.3542724  70.1127750  48.5764457  -2.2917923  61.6655841
  47.9252437  -1.7063843  61.2789855  49.3708820  -1.7611728  61.7250879
  42.5020084  -5.2028786  62.0642975  43.2750960  -5.7499799  61.9255851
  42.8545483  -4.3384536  62.2757437  44.3405127  -3.8752404  75.2709875
  44.0494993  -2.9706773  75.1556541  44.9762111  -3.8335876  75.9853944
  45.2661333  -6.4975555  71.8611234  45.8624906  -6.7219533  71.1468197
  45.3236305  -7.2390810  72.4636682  44.8386362  -9.0436120  59.6961425
  45.0911883  -9.5654598  58.9344888  43.9010921  -9.2069974  59.7988109
  50.0539722  -4.6027491  62.2024825  49.4185555  -4.5292864  62.9145730
  49.7237128  -4.0133892  61.5243905  44.5582651  -7.1408014  61.8985800
  44.4418909  -7.8163110  62.5666885  44.6684911  -7.6275640  61.0817953
  46.9014192  -7.6797867  65.6032490  46.5372399  -8.2067246  66.3145411
  47.7581307  -8.0699398  65.4298975  49.2995012  -4.1890988  72.2659668
  48.9995735  -3.2865949  72.1575476  48.9546071  -4.4558805  73.1180821
  42.7507493  -7.7377191  68.2996373  41.8257990  -7.8700977  68.5074065
  42.9991906  -6.9582972  68.7966315  46.5208899 -10.1950309  61.5840505
  46.4008525  -9.7493259  62.4225985  45.8261488  -9.8464992  61.0254043
  44.2815792   2.5753332  65.2330636  44.2039821   3.5261157  65.3119117
  43.6777435   2.2299205  65.8905562  46.7733021 -10.2518802  77.8892003
  45.9966355  -9.6924882  77.8794868  47.4123584  -9.7662019  78.4106873
  45.0279394  -7.4433349  77.4509970  45.7694078  -6.9048305  77.1744794
  44.3216379  -6.8167060  77.6081522  50.5034733  -5.3004208  76.0482131
  50.9118089  -5.7421798  75.3036764  49.7811995  -5.8751581  76.3016324
  46.8565803 -10.3631602  73.4215688  47.7026998  -9.9392188  73.5650337
  46.7964441 -11.0197977  74.1154252  50.8263548  -4.7403018  69.8034420
  50.1972410  -4.5757304  69.1010488  50.4389210  -4.3261408  70.5745384
  54.7052780  -3.8048580  67.1578784  54.0203818  -3.4249679  66.6075817
  54.7896629  -3.1953253  67.8910732  51.9603711  -6.1588621  73.7574128
  52.1720607  -5.5156861  73.0808509  51.9133460  -6.9926304  73.2896058
  46.3791510  -5.0028610  67.0684505  46.8429855  -4.7240907  66.2789128
  46.1148308  -5.9045165  66.8857596  43.2715591  -5.4557128  70.0064269
  43.8416948  -5.0269860  69.3681753  43.8623703  -5.7374543  70.7048454
  45.3160396  -8.8805457  63.8774071  46.0184439  -8.4284414  64.3447997
  44.9841024  -9.5221638  64.5053964  53.0749539  -3.2816665  71.9296485
  53.8966983  -3.6836478  71.6479167  53.0711942  -3.3848431  72.8812601
  46.8406143  -3.7332622  74.0857195  46.9050575  -3.2712215  74.9215367
  46.1317067  -4.3635257  74.2139505  46.5554160  -2.0664515  63.9536176
  46.4199835  -1.2212979  64.3821024  47.0963973  -1.8645237  63.1902110
  40.0083558  -4.5489077  64.5264101  40.5208078  -3.7545826  64.6769666
  40.6606271  -5.2462786  64.4597702  41.8178443  -1.4323320  66.6086854
  41.9945071  -0.5105356  66.4207838  42.6135276  -1.7464901  67.0381234
  48.1822637  -1.4440948  78.0836518  47.7386491  -2.2304570  77.7657422
  48.8439850  -1.2561798  77.4180409  42.9409758   0.0854853  72.6097196
  43.4917183  -0.0428083  71.8374190  42.1021234   0.3849742  72.2592089
  50.2803875  -1.1638148  76.1117919  50.2622350  -0.3429267  75.6198188
  51.2023795  -1.2884073  76.3368060  46.7376929  -3.6494019  76.9541428
  47.2705266  -4.4105731  76.7240736  46.2091010  -3.9420367  77.6965582
  49.8696907  -8.5525342  60.9907504  49.3543530  -7.7820737  61.2295892
  49.5974215  -9.2260206  61.6140566  54.8431181  -5.7992987  62.9260678
  54.0660624  -6.1381828  62.4815840  55.5222662  -5.7940364  62.2515643
  48.1029642  -4.5208026  64.4660240  47.5751003  -5.2555267  64.1533477
  47.6017144  -3.7433350  64.2200208  53.0822488  -6.3259006  69.5827286
  52.4246162  -5.6359744  69.6707414  53.8862887  -5.9362574  69.9261272
  51.8927947  -7.9714633  67.6331228  52.4059828  -7.3384641  68.1352937
  52.5429170  -8.5713438  67.2674588  46.2482242  -6.7027816  57.4695213
  45.3409304  -6.9338563  57.6686362  46.7453274  -7.4990197  57.6569194
  49.1550321   2.0069691  60.3891899  48.4812020   2.3101388  60.9976857
  49.5416143   2.8098771  60.0397356  48.3708777 -10.4965178  69.8789568
  47.4531339 -10.2750231  69.7211256  48.7868921 -10.4218867  69.0201275
  49.1543825  -9.0973762  65.0092248  49.9015644  -8.5852365  64.6999370
  49.4235415  -9.4189709  65.8696642  47.4270475  -6.6015221  61.9919203
  46.5181695  -6.8856188  62.0891672  47.4565559  -6.1816143  61.1322510
  52.6589743  -2.9908632  65.7610370  52.2052070  -3.8317722  65.8175561
  52.0283709  -2.3547233  66.0985150  51.1022682  -1.1532135  66.6960188
  51.3945656  -0.5927078  65.9772554  51.6121303  -0.8603574  67.4513347
  45.9755369  -8.9886601  68.0928998  46.0303979  -9.9412764  68.0171475
  45.1646571  -8.8327161  68.5770296  47.1246563  -5.0606478  59.3307281
  46.6865993  -5.7770619  58.8712919  47.8657004  -4.8330363  58.7692373
  46.0656307  -0.3751784  67.7853642  46.0232486  -0.1490938  66.8562174
  46.9819006  -0.6088409  67.9339443  49.5121941  -9.9067716  74.6834271
  49.8671329  -9.6796243  75.5428737  50.1594072  -9.5749340  74.0611526
  55.2419678  -6.7849280  65.3883600  55.1037577  -6.5947685  64.4604789
  54.8855897  -6.0229898  65.8451651  55.2689058  -4.7172753  70.3994871
  55.7025564  -4.8097464  71.2477925  55.9820638  -4.7415253  69.7614887
  44.1822108  -3.4988755  67.5815604  44.9762706  -3.9938435  67.3798179
  43.4713800  -4.0270892  67.2183310  49.0016952  -1.1170659  71.9327972
  49.0553975  -0.5479723  72.7005688  48.1331734  -0.9468774  71.5682009
  56.1304607  -4.6749053  72.9327757  56.3240497  -3.7703242  73.1787032
  56.0305225  -5.1341634  73.7666342  51.1919716  -4.5242310  78.5068637
  51.0405222  -4.7531758  77.5898721  51.1824395  -3.5671709  78.5199982
  47.9605052  -6.9510397  73.4914904  48.8897112  -6.7999238  73.3183871
  47.5396082  -6.8626377  72.6363550  46.7593384  -2.9259733  71.2613441
  46.6204470  -3.2940949  72.1339380  45.9707980  -2.4112093  71.0897399
  47.3541536   2.1749364  62.6038978  47.5293292   1.7037407  63.4184601
  46.6674324   2.8015130  62.8320239  48.3098599  -3.5478130  68.6502279
  47.9748432  -3.5877360  69.5459929  47.8102545  -4.2133414  68.1772689
  42.2842843  -8.1410500  74.1754860  42.1462641  -8.8730261  74.7766399
  43.1947767  -8.2301600  73.8939048  51.2457791  -6.2022096  58.9239339
  50.6286961  -6.9275268  58.8272392  50.7774279  -5.4412736  58.5806413
  44.9125144  -8.4290541  73.6638540  45.6224762  -9.0697349  73.6225158
  44.8694452  -8.1777646  74.5864721  52.9011922  -1.4923188  76.5845119
  52.8424469  -2.1763967  75.9175702  53.3031441  -0.7504198  76.1325745
  41.9202621   5.3238726  69.3778838  42.1599219   5.9557250  70.0557857
  41.0771818   4.9726766  69.6644197  52.9029330  -3.5283604  74.8159099
  52.0156108  -3.8657682  74.9385498  53.4727881  -4.2600572  75.0527864
  46.4330483   1.1317849  71.7820342  46.3600655   1.9372820  72.2939647
  45.9907876   1.3309815  70.9568363  46.2220263   0.3689619  65.2923164
  45.4387785   0.9111299  65.3861388  46.9213008   0.8863598  65.6917405
  48.8929167   1.0304683  73.9378501  49.6057139   1.6652148  73.8654402
  48.4019195   1.1268549  73.1218503  50.6146694  -5.0644065  65.5095792
  49.6802972  -4.9442602  65.3400497  50.7923362  -5.9671598  65.2455802
  43.9441080  -1.2200874  74.7584072  44.6450540  -0.5864391  74.9113466
  43.4736195  -0.8786142  73.9979711  52.0695476  -2.8782924  63.0431979
  52.3455320  -2.9926329  63.9525853  51.1999975  -3.2765439  63.0044152
  51.7442366  -8.6656266  72.5836622  51.0913816  -8.4180359  71.9289075
  52.1222746  -9.4792128  72.2499099  48.7049540   1.3703427  66.6864792
  48.8871935   0.5525083  67.1492545  49.5282526   1.5871119  66.2489682
  49.0391705   0.2971612  63.9479841  49.5679472  -0.2135933  63.3350003
  49.3019925  -0.0185858  64.8125374  47.7929939  -7.9236455  79.0702659
  47.1170576  -8.0242326  79.7405034  48.6157573  -8.0797241  79.5338656
  39.5408798  -1.6864519  71.6915174  40.1262235  -2.4320831  71.8243078
  39.3433637  -1.3760562  72.5751838  42.3947453   1.3486729  66.7077617
  41.7257829   1.8332856  66.2241657  42.2560323   1.5955949  67.6220995
  46.5352722   3.3830472  73.3060275  47.0871030   3.5462094  74.0709360
  46.8758915   3.9734910  72.6340300  51.3863596  -1.7908270  79.1608929
  51.9303500  -1.1778312  78.6663884  50.8050441  -1.2328692  79.6775942
  49.6721109   1.3312448  70.2923957  49.5472249   0.5302188  69.7834903
  50.3300200   1.8258641  69.8037927  51.7356018  -0.8678532  71.9203507
  50.7886353  -0.9873181  71.8481834  52.0838791  -1.7556034  72.0029769
  48.7402451  -1.0725816  68.1207859  48.5927413  -2.0009109  68.3015430
  49.5655944  -1.0505725  67.6364935  52.3436573  -0.2497257  69.2072732
  53.2683120  -0.4554396  69.0697183  52.1751876  -0.4980856  70.1162074
  52.1331889   0.2688410  64.5634824  52.3068767  -0.2965167  63.8108676
  52.6260780   1.0689305  64.3814314  53.1207062  -0.4144825  61.6631722
  53.8157966   0.2061867  61.8819037  53.4630212  -1.2649474  61.9384100
  55.0198485  -2.9645120  63.1919053  55.5449809  -2.6257847  62.4668373
  54.9320837  -3.8998105  63.0082187  46.6818533   0.9488954  75.3208929
  46.9905660   0.7038101  76.1931629  47.4794015   1.1535592  74.8327800
  46.7039145   3.1026863  67.5514306  46.2644136   2.6103242  68.2447163
  47.4547262   2.5599831  67.3106381  39.1831484  -0.7061596  67.5538934
  40.0089504  -1.0057824  67.1737578  38.8325536  -1.4753973  68.0028723
  44.1513018  -1.3535127  69.6236608  43.5293027  -2.0164422  69.3238835
  44.8217884  -1.3273996  68.9410255  37.3840089  -2.7875269  68.5127868
  36.5471998  -3.2153095  68.3311869  37.3563735  -2.5942826  69.4498659
  54.7092391  -2.3312216  78.4970251  53.9187934  -2.3488077  77.9574750
  54.4725745  -1.7923923  79.2519287  54.8290266  -5.4819750  75.8102979
  54.8788271  -5.6469742  76.7518502  54.7204189  -6.3492491  75.4200860
  43.7126524  -2.8031204  63.0995068  43.8614645  -2.1195740  62.4461741
  44.5192968  -2.8226114  63.6144524  56.3308463  -3.0622808  76.0545001
  56.0393271  -2.6992828  76.8908462  55.7180594  -3.7755800  75.8758333
  57.5304145  -5.4969929  68.5747571  58.3651036  -5.0580124  68.7385131
  57.6663274  -5.9731275  67.7555817  54.5795651  -7.9390194  74.5225059
  55.0549772  -7.7462547  73.7143910  53.6561216  -7.8831008  74.2768442
  41.4679157  -6.7766026  64.1056137  41.2225199  -7.6803696  64.3036347
  41.6375072  -6.7748876  63.1635615  47.2121930  -0.3083074  60.5706816
  46.6395897   0.3107113  60.1177287  47.7854724   0.2416288  61.1046737
  50.4319190  -0.0245924  61.7015398  51.3649863  -0.0900362  61.9048273
  50.3442403   0.8110343  61.2429930  53.0607206  -0.7080053  58.6619345
  52.9820838  -1.0420190  59.5555103  53.8816873  -0.2158285  58.6610818
  47.5968728  -8.9722261  57.9122868  48.5427833  -9.1016053  57.9811286
  47.2182973  -9.7107599  58.3892296  47.4807421  -4.9204515  79.3723525
  48.4010430  -4.7425916  79.5663572  47.4457004  -5.8648469  79.2203224
  40.4769494  -7.0103480  72.0146306  40.6955503  -6.0786372  72.0334340
  40.8895267  -7.3695506  72.8001110  45.2128629  -8.0073136  80.2214117
  44.7295711  -7.2072775  80.4278006  45.2989568  -7.9965191  79.2681561
  38.4814589  -6.1744756  68.1435936  38.4585277  -6.0757069  67.1917819
  38.7915225  -5.3279605  68.4653102  41.1401966  -4.1168601  72.2582551
  42.0945220  -4.1484659  72.1912482  40.9414490  -4.5777977  73.0732776
  41.7301349  -5.5467485  74.8253348  42.5494238  -5.0523406  74.8488185
  42.0038156  -6.4635517  74.7970916  39.4952195   1.4251019  69.2752748
  39.3606663   0.6651420  68.7090746  39.0784257   2.1491919  68.8081537
  50.6311158  -3.3912058  58.2829324  51.3347008  -3.1862055  58.8986979
  49.9073807  -2.8235296  58.5478407  51.4608968  -7.6402197  64.4031594
  51.4044170  -7.1833645  63.5639226  52.0137311  -8.4011512  64.2254437
  42.6521321   2.3220336  69.4871191  42.5353705   3.2665768  69.3849881
  41.8313767   2.0193897  69.8756990  52.5397856  -2.9529529  60.3327784
  53.3743460  -3.3848330  60.1505259  52.3782199  -3.1247515  61.2604678
  52.1943748  -6.4497415  61.6984123  52.1392552  -6.6153144  60.7572567
  51.5689803  -5.7421382  61.8546313  49.5089655  -4.1448503  81.0237686
  50.3780815  -3.9707851  80.6624321  49.0296406  -3.3254087  80.9013415
  43.6775835   2.9748598  72.7027119  44.5803082   3.0072208  73.0193614
  43.4513205   2.0449049  72.7173455  45.4329437   1.7279584  69.3637198
  44.4825068   1.7281446  69.2501570  45.7361923   0.9812319  68.8473233
  61.1682131   7.5640123  70.4282961  61.8060541   7.4446870  69.7246301
  61.0502974   8.5120966  70.4870913  57.9771837   7.5167551  70.3644485
  57.6390349   7.4008615  69.4765020  58.8461605   7.1158716  70.3445491
  53.8358653   9.3703027  66.3541376  53.2723518   9.2792964  65.5857664
  53.7211048   8.5502931  66.8343869  58.4591620   8.6702402  76.3230691
  58.4480261   8.2755201  75.4511194  58.6212259   7.9368475  76.9164462
  51.3823085  10.8654219  69.1925597  52.1744377  10.5245043  68.7771896
  51.6219735  10.9749194  70.1127750  59.4158211  13.0373995  61.6655841
  58.7646191  13.6228075  61.2789855  60.2102574  13.5680190  61.7250879
  56.1055088   8.8316363  71.8611234  56.7018660   8.6072385  71.1468197
  56.1630060   8.0901108  72.4636682  55.6780116   6.2855798  59.6961425
  55.9305637   5.7637319  58.9344888  54.7404675   6.1221943  59.7988109
  60.7223399   5.2891576  67.5036169  61.5086488   4.8711000  67.1526586
  60.9862104   6.1937669  67.6717817  60.8933477  10.7264427  62.2024825
  60.2579310  10.7999053  62.9145730  60.5630883  11.3158025  61.5243905
  66.1231826   5.2266810  68.4069147  66.8556998   4.6566026  68.6406977
  65.3671182   4.8388410  68.8475653  55.3976405   8.1883904  61.8985800
  55.2812663   7.5128807  62.5666885  55.5078665   7.7016278  61.0817953
  57.7407946   7.6494051  65.6032490  57.3766153   7.1224672  66.3145411
  58.5975062   7.2592520  65.4298975  63.6457247  -1.0611616  72.8663756
  63.3140571  -0.1916205  72.6424971  63.0502860  -1.3775332  73.5457786
  57.3813433   2.6783951  60.5993838  57.5487835   3.5464187  60.9664309
  57.1910602   2.8411232  59.6755127  60.1388766  11.1400930  72.2659668
  59.8389489  12.0425968  72.1575476  59.7939826  10.8733113  73.1180821
  53.5901248   7.5914726  68.2996373  52.6651744   7.4590941  68.5074065
  53.8385661   8.3708946  68.7966315  63.5385910   3.6583470  69.9457106
  62.6302787   3.5898878  69.6515867  63.4873506   4.1355415  70.7738931
  57.3602654   5.1341608  61.5840505  57.2402279   5.5798659  62.4225985
  56.6655242   5.4826926  61.0254043  50.9510059   7.2348000  69.1340162
  51.0802440   7.4882479  70.0479574  50.2707510   7.8275708  68.8144817
  57.6126776   5.0773115  77.8892003  56.8360110   5.6367036  77.8794868
  58.2517339   5.5629898  78.4106873  65.4047556   1.8599908  71.7234980
  64.7621937   2.1532441  71.0774774  64.9002485   1.7452829  72.5288176
  63.0587720   5.6063081  62.4120839  63.9705576   5.8390468  62.2368536
  62.5497367   6.1900126  61.8495918  55.8673148   7.8858569  77.4509970
  56.6087832   8.4243613  77.1744794  55.1610134   8.5124858  77.6081522
  61.3428488  10.0287709  76.0482131  61.7511844   9.5870120  75.3036764
  60.6205749   9.4540337  76.3016324  57.6959558   4.9660316  73.4215688
  58.5420753   5.3899730  73.5650337  57.6358195   4.3093940  74.1154252
  61.6657302  10.5888900  69.8034420  61.0366165  10.7534614  69.1010488
  61.2782964  11.0030509  70.5745384  65.5446534  11.5243338  67.1578784
  64.8597572  11.9042239  66.6075817  65.6290384  12.1338664  67.8910732
  60.8459003   2.6264684  75.0796862  60.6019935   3.3806745  74.5431138
  61.1218934   3.0050032  75.9144109  62.7997466   9.1703297  73.7574128
  63.0114361   9.8135057  73.0808509  62.7527214   8.3365613  73.2896058
  60.4023695   1.7821117  70.6610700  59.5408174   2.0802371  70.9527437
  60.4286129   1.9991516  69.7291732  57.2185264  10.3263308  67.0684505
  57.6823610  10.6051011  66.2789128  56.9542062   9.4246753  66.8857596
  54.1109345   9.8734790  70.0064269  54.6810702  10.3022058  69.3681753
  54.7017457   9.5917374  70.7048454  56.1554150   6.4486460  63.8774071
  56.8578194   6.9007504  64.3447997  55.8234779   5.8070279  64.5053964
  54.6034512   5.0398217  78.2525280  53.9733172   5.7214498  78.4860677
  54.4970600   4.9281299  77.3078418  49.8979484   4.7070013  69.1791204
  49.1078538   4.9627542  68.7031315  50.3890732   5.5218351  69.2843245
  63.9143294  12.0475252  71.9296485  64.7360738  11.6455439  71.6479167
  63.9105697  11.9443486  72.8812601  51.8494230   5.0714592  66.1374681
  51.0525393   5.1833286  66.6558177  51.6219822   5.4101244  65.2715571
  48.1817187   4.9600503  71.6106195  48.4325226   5.8447513  71.8763771
  48.7176736   4.7805105  70.8381287  72.0049287   8.3914001  68.2781456
  71.2512995   7.8221399  68.1225461  72.1396828   8.3576665  69.2252091
  53.8815255  -0.6581017  80.6150531  53.4882200  -1.2114819  81.2898175
  54.6981395  -0.3470439  81.0057049  56.7983216   0.7576862  78.2070788
  57.5392929   1.3584015  78.1275250  57.0301138   0.0154500  77.6488830
  51.9424554   5.9433229  76.4849017  51.8278069   5.0418486  76.7856116
  51.0869071   6.1896926  76.1333834  59.0216391  13.8850969  78.0836518
  58.5780245  13.0987348  77.7657422  59.6833605  14.0730120  77.4180409
  61.1197629  14.1653769  76.1117919  61.1016105  14.9862650  75.6198188
  62.0417549  14.0407845  76.3368060  60.7440378  -3.2142035  72.4835069
  60.4004648  -2.3240393  72.4074180  61.1119341  -3.4040378  71.6204654
  48.8126229   9.1091495  65.3023671  49.6501451   9.5188504  65.0857379
  48.9904497   8.1690937  65.2723865  60.7090661   6.7766576  60.9907504
  60.1937285   7.5471181  61.2295892  60.4367970   6.1031712  61.6140566
  58.2937772   1.6216277  66.0492743  57.4379369   1.2323127  65.8698381
  58.7064724   1.7008238  65.1892528  59.8236919  -0.8437380  70.4484303
  59.3201714  -0.8807245  69.6352108  60.1167526   0.0655363  70.5080959
  56.0679805  -0.7598650  69.4550484  56.9332802  -0.9555842  69.0956374
  56.1357314  -0.9888299  70.3819841  65.6824935   9.5298931  62.9260678
  64.9054378   9.1910090  62.4815840  66.3616416   9.5351554  62.2515643
  60.4976964   4.6493668  62.8167286  60.1927100   4.9639817  63.6677429
  61.4507407   4.7275088  62.8594619  58.9423396  10.8083891  64.4660240
  58.4144758  10.0736651  64.1533477  58.4410899  11.5858568  64.2200208
  63.9216242   9.0032912  69.5827286  63.2639917   9.6932173  69.6707414
  64.7256641   9.3929344  69.9261272  53.6742124   1.4703558  66.8266851
  54.2485876   1.2478739  66.0940044  54.2613106   1.5392252  67.5795452
  62.7321701   7.3577285  67.6331228  63.2453583   7.9907276  68.1352937
  63.3822925   6.7578480  67.2674588  54.0011711   3.5008019  60.8462736
  53.1649023   3.8382705  61.1672011  53.8616481   3.3656998  59.9089873
  55.9764792  -1.6555193  65.5541920  55.3229204  -1.9706176  64.9298535
  55.9345266  -2.2779453  66.2801743  57.0875996   8.6264102  57.4695213
  56.1803058   8.3953355  57.6686362  57.5847028   7.8301721  57.6569194
  59.9944075  17.3361609  60.3891899  59.3205774  17.6393306  60.9976857
  60.3809897  18.1390689  60.0397356  59.2102532   4.8326740  69.8789568
  58.2925093   5.0541687  69.7211256  59.6262676   4.9073051  69.0201275
  59.9937580   6.2318156  65.0092248  60.7409399   6.7439553  64.6999370
  60.2629169   5.9102208  65.8696642  58.2664230   8.7276696  61.9919203
  57.3575449   8.4435729  62.0891672  58.2959314   9.1475775  61.1322510
  63.4983497  12.3383286  65.7610370  63.0445824  11.4974196  65.8175561
  62.8677464  12.9744684  66.0985150  62.4416417   3.2675272  66.9911038
  61.7039174   2.7552658  67.3221280  62.6943190   2.8275654  66.1794315
  62.5428044  -3.9548476  67.5852807  62.8486921  -4.8151113  67.2978722
  63.2680649  -3.3630856  67.3851801  48.8352400   6.4482211  65.9734405
  48.6376800   5.8551571  65.2485471  48.2799064   6.1434421  66.6910344
  56.8149124   6.3405317  68.0928998  56.8697734   5.3879153  68.0171475
  56.0040326   6.4964756  68.5770296  57.9640318  10.2685440  59.3307281
  57.5259748   9.5521299  58.8712919  58.7050759  10.4961555  58.7692373
  54.7541484   4.9582377  65.8519377  53.9409349   5.2576547  66.2584569
  55.2500478   4.5638066  66.5693859  60.3515695   5.4224201  74.6834271
  60.7065083   5.6495674  75.5428737  60.9987827   5.7542578  74.0611526
  66.0813432   8.5442637  65.3883600  65.9431331   8.7344233  64.4604789
  65.7249651   9.3062020  65.8451651  54.2455559   2.5300732  71.4680612
  54.8854938   2.3889491  70.7703575  53.4133089   2.2435246  71.0919214
  66.1082812  10.6119164  70.3994871  66.5419319  10.5194453  71.2477925
  66.8214393  10.5876665  69.7614887  51.3298626   5.9746245  63.6575357
  50.3996214   5.9130700  63.8745319  51.4256098   5.4522197  62.8611998
  51.2484175   2.5001057  66.2453599  51.5090992   3.4146391  66.1362759
  52.0701347   2.0325500  66.3950211  52.7209100   3.9138815  73.4152423
  53.3932154   3.7056177  72.7665072  51.8938887   3.7160901  72.9757655
  66.9698362  10.6542865  72.9327757  67.1634252  11.5588675  73.1787032
  66.8698980  10.1950284  73.7666342  58.6234672   0.5400755  75.4318084
  57.9762587   1.2390705  75.3382560  59.3935688   0.9736899  75.7994332
  62.0313470  10.8049608  78.5068637  61.8798977  10.5760159  77.5898721
  62.0218150  11.7620209  78.5199982  58.7998807   8.3781520  73.4914904
  59.7290867   8.5292680  73.3183871  58.3789837   8.4665541  72.6363550
  53.1236598   7.1881417  74.1754860  52.9856396   6.4561656  74.7766399
  54.0341521   7.0990318  73.8939048  62.0851545   9.1269822  58.9239339
  61.4680716   8.4016650  58.8272392  61.6168034   9.8879182  58.5806413
  55.7518898   6.9001377  73.6638540  56.4618517   6.2594569  73.6225158
  55.7088206   7.1514272  74.5864721  63.7405677  13.8368730  76.5845119
  63.6818223  13.1527950  75.9175702  64.1425195  14.5787720  76.1325745
  54.4647832   3.8866595  75.4834179  53.9285189   3.4357333  76.1355776
  53.8764541   4.0212504  74.7404644  53.8750091   3.3455246  58.0460643
  52.9979557   3.2244047  57.6822890  54.3507844   2.5541324  57.7939532
  63.7423084  11.8008314  74.8159099  62.8549863  11.4634236  74.9385498
  64.3121635  11.0691345  75.0527864  45.3952231   8.1332406  68.1402150
  46.0823271   7.8194136  67.5523166  45.2400360   9.0373770  67.8669402
  50.1986953   3.0222602  72.5687174  50.1145142   2.4148272  71.8337584
  49.3769660   3.5131621  72.5696670  60.3710667   1.5076166  67.9357369
  60.8679367   0.7546128  67.6158439  59.5997649   1.5440483  67.3700578
  68.2240425   7.2116531  69.5775661  68.2130301   8.0941247  69.2069594
  67.3557804   6.8588082  69.3830198  61.4540448  10.2647853  65.5095792
  60.5196727  10.3849316  65.3400497  61.6317116   9.3620320  65.2455802
  56.9545636   3.6493549  67.6629054  56.5843424   3.0964589  68.3509959
  57.4504729   3.0451682  67.1104054  64.8412999   6.1065172  66.0445827
  65.3073452   6.9393164  65.9706129  65.2920500   5.6410154  66.7491085
  62.9089230  12.4508994  63.0431979  63.1849074  12.3365588  63.9525853
  62.0393729  12.0526479  63.0044152  62.8129662  -1.5254241  70.0836728
  61.8992742  -1.2950014  70.2518935  63.2422764  -1.4415797  70.9350760
  62.5836121   6.6635651  72.5836622  61.9307571   6.9111559  71.9289075
  62.9616500   5.8499790  72.2499099  58.6323694   7.4055462  79.0702659
  57.9564331   7.3049592  79.7405034  59.4551328   7.2494676  79.5338656
  44.9720207   6.2132999  70.4119617  45.0104307   5.6796590  71.2056735
  44.4660500   5.6868205  69.7930595  52.3510970   1.0597540  73.9082160
  52.4152296   1.9212371  73.4959557  52.2878090   0.4471541  73.1754518
  51.8263242   3.1320672  77.5555194  52.4535281   2.7497750  78.1692718
  50.9691161   2.9134874  77.9210886  62.2257351  13.5383647  79.1608929
  62.7697255  14.1513606  78.6663884  61.6444196  14.0963226  79.6775942
  48.6028785   4.9397101  63.4873549  48.8982226   4.0307780  63.4340602
  47.7016821   4.9184841  63.1654551  52.1323032   3.0153098  69.4701097
  51.4109618   3.6289066  69.3308571  52.9216288   3.5510863  69.3917743
  54.9349346   0.3507524  75.7441749  55.4583747   0.5969821  76.5068058
  54.7161679   1.1827559  75.3244886  50.3316627   2.6211199  63.6112874
  50.0029333   1.7408578  63.4287980  50.6855997   2.5658868  64.4989263
  53.4458450   2.9084169  63.9788352  53.7854522   3.4370090  63.2566960
  53.8930570   3.2464575  64.7546918  56.1401891   1.2921220  73.4291420
  55.7998711   0.4929033  73.8312100  55.4340897   1.5922930  72.8568253
  56.7918362  -1.6229468  71.8818743  57.6144432  -2.0968990  71.7597633
  57.0356426  -0.8438984  72.3817429  55.4326597   1.4058790  62.1781644
  56.1534959   1.7840043  61.6745361  54.8091901   2.1247667  62.2816622
  59.5757720   2.1103939  63.1139977  59.7921334   2.9928577  62.8128805
  59.0951787   1.7190153  62.3845619  54.3156941   5.0689653  69.6910721
  54.1701522   5.3829956  70.5835003  53.8382145   5.6874553  69.1381620
  56.1753324   2.0592201  69.7391611  56.1614893   1.1633294  69.4023909
  56.8925752   2.0662864  70.3729897  58.0279455   2.4929541  71.7844738
  57.7697233   3.4146611  71.7829069  57.4964495   2.0959975  72.4745202
  62.9725644  15.5980328  64.5634824  63.1462521  15.0326750  63.8108676
  63.4654535  16.3981223  64.3814314  48.7902603   7.6094997  72.6298382
  48.2456071   8.3854805  72.7618657  49.6681953   7.9565801  72.4717504
  55.5790220   0.9406581  65.0079181  55.7006131   0.0123227  65.2070068
  55.2892262   0.9545267  64.0957496  58.4481410  -1.3738509  68.1445901
  58.4703107  -1.3099176  67.1897880  58.8649469  -2.2134000  68.3386407
  68.8265035   8.3616751  66.1825123  69.2696181   7.6124076  65.7844247
  67.9491545   8.3526887  65.7998855  63.9600816  14.9147092  61.6631722
  64.6551721  15.5353785  61.8819037  64.3023966  14.0642444  61.9384100
  49.5768625   6.7364893  75.5228539  48.8350361   6.8847529  76.1093170
  49.2561369   6.9973159  74.6595289  65.8592239  12.3646798  63.1919053
  66.3843563  12.7034071  62.4668373  65.7714592  11.4293813  63.0082187
  55.0631300   2.4538578  79.2169114  55.1119455   3.3300701  78.8346883
  55.6053814   1.9115971  78.6440757  65.5486145  12.9979701  78.4970251
  64.7581689  12.9803840  77.9574750  65.3119500  13.5367995  79.2519287
  65.6684020   9.8472168  75.8102979  65.7182025   9.6822175  76.7518502
  65.5597944   8.9799427  75.4200860  62.9587783   5.8303096  77.1262286
  63.8597645   5.6909561  76.8346284  63.0335757   5.9957551  78.0660463
  57.2930588   3.2069951  75.9715472  56.4233897   3.5003517  75.6998061
  57.5290068   3.7910396  76.6922736  67.1702217  12.2669109  76.0545001
  66.8787025  12.6299090  76.8908462  66.5574348  11.5536118  75.8758333
  68.3697899   9.8321989  68.5747571  69.2044791  10.2711793  68.7385131
  68.5057028   9.3560642  67.7555817  65.4189405   7.3901724  74.5225059
  65.8943527   7.5829370  73.7143910  64.4954971   7.4460910  74.2768442
  52.3072912   8.5525891  64.1056137  52.0618954   7.6488221  64.3036347
  52.4768826   8.5543042  63.1635615  59.9969622  -0.5750432  73.4880893
  60.5151566   0.1610594  73.1627381  59.6424755  -0.2686439  74.3227652
  51.5768559   4.2854249  61.6042298  50.8837804   4.3598604  60.9482334
  51.3320311   3.5214592  62.1263815  60.2482216  -4.1550150  69.0081789
  60.5283970  -4.8226961  69.6342216  61.0332823  -3.9621054  68.4956453
  58.0515684  15.0208844  60.5706816  57.4789652  15.6399031  60.1177287
  58.6248478  15.5708206  61.1046737  64.1191074   4.2667484  72.7553364
  65.0708497   4.3665582  72.7765588  63.9494525   3.4745753  73.2651449
  62.1405454   1.3523067  72.9412765  61.5455386   1.6328080  72.2459254
  61.8555150   1.8416968  73.7129506  61.2712944  15.3045994  61.7015398
  62.2043617  15.2391556  61.9048273  61.1836157  16.1402261  61.2429930
  63.9000961  14.6211864  58.6619345  63.8214592  14.2871728  59.5555103
  64.7210628  15.1133632  58.6610818  66.5979152   7.4873604  71.8695664
  66.5655472   6.5489605  72.0555348  67.2079776   7.5657640  71.1361489
  58.4362483   6.3569657  57.9122868  59.3821588   6.2275865  57.9811286
  58.0576728   5.6184319  58.3892296  66.7473641   4.2784647  71.9153947
  66.2312689   3.4943104  71.7283876  67.6313589   3.9503364  72.0800467
  64.4084367  -1.9774337  67.8749760  64.2109189  -2.2859249  68.7593092
  65.0184073  -1.2512698  68.0047690  72.4155702   8.5489611  71.0101701
  73.1459090   8.2874899  71.5709404  71.8062647   7.8118333  71.0503769
  70.4970999   6.6897473  71.6076152  69.7704163   6.5553438  70.9992644
  70.0818286   6.9974302  72.4132870  58.3201175  10.4087403  79.3723525
  59.2404185  10.5866002  79.5663572  58.2850759   9.4643448  79.2203224
  56.6205400   4.2819633  57.8477753  55.7136856   3.9852746  57.9240467
  56.8981381   3.9849451  56.9812039  47.5383340   5.6025997  68.2976800
  47.2186125   4.7491305  68.0051174  46.9916769   5.8174575  69.0534767
  51.3163248   8.3188438  72.0146306  51.5349258   9.2505545  72.0334340
  51.7289022   7.9596412  72.8001110  58.2367466  -1.1743477  64.0021995
  57.4268194  -1.5196392  64.3777241  58.9251883  -1.4835933  64.5909606
  60.1658014  -2.0965430  65.6246291  60.7189053  -1.6769977  66.2836314
  60.4028100  -3.0229682  65.6669247  56.1891113   3.8921643  81.4049055
  56.0887840   4.8416000  81.3361146  55.9712655   3.5639882  80.5325125
  55.3904185   1.1406568  57.9889732  56.2523349   1.4661467  58.2485550
  55.5754529   0.3538064  57.4762798  47.4071600   9.2228908  70.2669921
  46.7135072   8.8082861  69.7539876  48.1544591   9.2649445  69.6703340
  63.5436821   0.0135095  65.1324955  62.9635490   0.6719899  64.7503008
  63.2772754  -0.8087561  64.7212373  61.9940388  -0.5859847  67.3346276
  62.4940166  -0.4743313  66.5260595  62.6375996  -0.8898795  67.9747084
  56.0522383   7.3218782  80.2214117  55.5689465   8.1219142  80.4278006
  56.1383322   7.3326727  79.2681561  49.3208343   9.1547162  68.1435936
  49.2979031   9.2534849  67.1917819  49.6308980  10.0012313  68.4653102
  62.3261699   2.1735185  64.1881304  61.4387554   2.4584836  63.9701498
  62.7415688   2.0128949  63.3408581  65.6776235   2.1981706  67.9035643
  66.4536625   2.6878159  68.1760260  64.9524370   2.6239760  68.3607512
  68.1148794   2.9109325  68.9609584  68.7093285   2.6705061  68.2502892
  68.1875378   2.1916456  69.5883120  61.4704913  11.9379860  58.2829324
  62.1740763  12.1429862  58.8986979  60.7467561  12.5056622  58.5478407
  62.3002723   7.6889721  64.4031594  62.2437924   8.1458273  63.5639226
  62.8531065   6.9280406  64.2254437  66.1107529   3.4779453  65.2281713
  65.8544463   3.0776089  66.0589921  65.4860397   4.1923247  65.1031853
  70.4219867   6.2175526  67.7353005  69.8619425   6.2868716  68.5084567
  69.8163370   6.0416511  67.0152501  63.3791610  12.3762389  60.3327784
  64.2137214  11.9443588  60.1505259  63.2175953  12.2044403  61.2604678
  63.0337502   8.8794502  61.6984123  62.9786306   8.7138774  60.7572567
  62.4083558   9.5870535  61.8546313  47.8230017   4.1162567  75.5245545
  48.4688881   3.6061521  76.0132770  47.6147168   4.8531248  76.0988971
  60.3483409  11.1843414  81.0237686  61.2174569  11.3584067  80.6624321
  59.8690161  12.0037831  80.9013415  56.3433628  -1.6197389  61.2769441
  56.3312298  -0.6755549  61.4337712  57.2357050  -1.8027243  60.9828903
  60.1585747  -5.0254612  65.5315378  59.3918143  -5.5796125  65.6772061
  60.5696452  -4.9532743  66.3929530  52.1627508   1.2630184  79.6220559
  53.0258970   0.9066989  79.8323884  51.5892919   0.9244079  80.3095964
  72.0075885  22.8932040  70.4282961  72.6454295  22.7738788  69.7246301
  71.8896728  23.8412884  70.4870913  68.8165591  22.8459468  70.3644485
  68.4784103  22.7300533  69.4765020  69.6855360  22.4450633  70.3445491
  69.2985374  23.9994320  76.3230691  69.2874015  23.6047118  75.4511194
  69.4606014  23.2660393  76.9164462  70.2551966  28.3665912  61.6655841
  69.6039946  28.9519993  61.2789855  71.0496329  28.8972107  61.7250879
  64.1807593  25.4555050  62.0642975  64.9538469  24.9084037  61.9255851
  64.5332992  26.3199299  62.2757437  66.9448842  24.1608280  71.8611234
  67.5412415  23.9364303  71.1468197  67.0023814  23.4193026  72.4636682
  66.5173871  21.6147716  59.6961425  66.7699392  21.0929237  58.9344888
  65.5798430  21.4513861  59.7988109  71.5617154  20.6183494  67.5036169
  72.3480243  20.2002917  67.1526586  71.8255858  21.5229586  67.6717817
  71.7327231  26.0556344  62.2024825  71.0973064  26.1290971  62.9145730
  71.4024637  26.6449943  61.5243905  76.9625581  20.5558727  68.4069147
  77.6950753  19.9857944  68.6406977  76.2064937  20.1680328  68.8475653
  66.2370160  23.5175822  61.8985800  66.1206418  22.8420725  62.5666885
  66.3472419  23.0308196  61.0817953  68.5801701  22.9785969  65.6032490
  68.2159908  22.4516590  66.3145411  69.4368816  22.5884438  65.4298975
  74.4851001  14.2680301  72.8663756  74.1534326  15.1375712  72.6424971
  73.8896615  13.9516585  73.5457786  68.2207188  18.0075868  60.5993838
  68.3881590  18.8756105  60.9664309  68.0304357  18.1703150  59.6755127
  70.9782521  26.4692847  72.2659668  70.6783244  27.3717886  72.1575476
  70.6333580  26.2025031  73.1180821  74.3779664  18.9875388  69.9457106
  73.4696542  18.9190796  69.6515867  74.3267260  19.4647332  70.7738931
  68.1996408  20.4633526  61.5840505  68.0796034  20.9090577  62.4225985
  67.5048997  20.8118844  61.0254043  65.9603300  33.2337168  65.2330636
  65.8827330  34.1844993  65.3119117  65.3564944  32.8883040  65.8905562
  68.4520530  20.4065033  77.8892003  67.6753864  20.9658953  77.8794868
  69.0911093  20.8921816  78.4106873  76.2441311  17.1891826  71.7234980
  75.6015691  17.4824359  71.0774774  75.7396239  17.0744746  72.5288176
  73.8981475  20.9354999  62.4120839  74.8099331  21.1682386  62.2368536
  73.3891122  21.5192043  61.8495918  72.1822242  25.3579627  76.0482131
  72.5905598  24.9162037  75.3036764  71.4599504  24.7832254  76.3016324
  68.5353312  20.2952234  73.4215688  69.3814507  20.7191647  73.5650337
  68.4751950  19.6385858  74.1154252  72.5051057  25.9180818  69.8034420
  71.8759919  26.0826532  69.1010488  72.1176719  26.3322427  70.5745384
  76.3840289  26.8535255  67.1578784  75.6991327  27.2334157  66.6075817
  76.4684138  27.4630582  67.8910732  71.6852758  17.9556602  75.0796862
  71.4413689  18.7098663  74.5431138  71.9612688  18.3341950  75.9144109
  73.6391220  24.4995214  73.7574128  73.8508116  25.1426974  73.0808509
  73.5920969  23.6657531  73.2896058  71.2417449  17.1113035  70.6610700
  70.3801928  17.4094289  70.9527437  71.2679884  17.3283434  69.7291732
  68.0579019  25.6555226  67.0684505  68.5217364  25.9342929  66.2789128
  67.7935817  24.7538670  66.8857596  66.9947905  21.7778378  63.8774071
  67.6971948  22.2299422  64.3447997  66.6628533  21.1362197  64.5053964
  65.4428266  20.3690135  78.2525280  64.8126927  21.0506415  78.4860677
  65.3364354  20.2573216  77.3078418  74.7537048  27.3767170  71.9296485
  75.5754492  26.9747357  71.6479167  74.7499451  27.2735404  72.8812601
  68.5193652  26.9251213  74.0857195  68.5838084  27.3871620  74.9215367
  67.8104576  26.2948578  74.2139505  82.8443041  23.7205918  68.2781456
  82.0906750  23.1513316  68.1225461  82.9790583  23.6868583  69.2252091
  68.2341669  28.5919321  63.9536176  68.0987344  29.4370856  64.3821024
  68.7751482  28.7938598  63.1902110  64.7209009  14.6710900  80.6150531
  64.3275955  14.1177099  81.2898175  65.5375149  14.9821479  81.0057049
  61.6871067  26.1094759  64.5264101  62.1995587  26.9038009  64.6769666
  62.3393780  25.4121049  64.4597702  67.6376970  16.0868780  78.2070788
  68.3786683  16.6875933  78.1275250  67.8694893  15.3446417  77.6488830
  71.5834133  12.1149883  72.4835069  71.2398402  13.0051524  72.4074180
  71.9513096  11.9251540  71.6204654  71.5484416  22.1058494  60.9907504
  71.0331039  22.8763098  61.2295892  71.2761724  21.4323630  61.6140566
  69.1331527  16.9508194  66.0492743  68.2773123  16.5615045  65.8698381
  69.5458478  17.0300155  65.1892528  70.6630673  14.4854538  70.4484303
  70.1595469  14.4484673  69.6352108  70.9561280  15.3947280  70.5080959
  66.9073559  14.5693267  69.4550484  67.7726556  14.3736076  69.0956374
  66.9751068  14.3403619  70.3819841  76.5218690  24.8590848  62.9260678
  75.7448133  24.5202008  62.4815840  77.2010171  24.8643471  62.2515643
  71.3370719  19.9785586  62.8167286  71.0320854  20.2931735  63.6677429
  72.2901161  20.0567006  62.8594619  69.7817151  26.1375809  64.4660240
  69.2538512  25.4028569  64.1533477  69.2804653  26.9150485  64.2200208
  74.7609997  24.3324830  69.5827286  74.1033671  25.0224091  69.6707414
  75.5650396  24.7221261  69.9261272  73.5715456  22.6869202  67.6331228
  74.0847337  23.3199194  68.1352937  74.2216679  22.0870398  67.2674588
  64.8405465  18.8299936  60.8462736  64.0042778  19.1674623  61.1672011
  64.7010235  18.6948916  59.9089873  66.8158546  13.6736724  65.5541920
  66.1622958  13.3585741  64.9298535  66.7739020  13.0512465  66.2801743
  67.9269751  23.9556019  57.4695213  67.0196813  23.7245273  57.6686362
  68.4240783  23.1593639  57.6569194  70.8337830  32.6653526  60.3891899
  70.1599529  32.9685223  60.9976857  71.2203652  33.4682607  60.0397356
  70.0496286  20.1618658  69.8789568  69.1318848  20.3833605  69.7211256
  70.4656430  20.2364968  69.0201275  70.8331334  21.5610073  65.0092248
  71.5803153  22.0731471  64.6999370  71.1022924  21.2394126  65.8696642
  69.1057984  24.0568614  61.9919203  68.1969204  23.7727647  62.0891672
  69.1353068  24.4767693  61.1322510  74.3377252  27.6675204  65.7610370
  73.8839579  26.8266114  65.8175561  73.7071218  28.3036602  66.0985150
  73.2810171  18.5967190  66.9911038  72.5432928  18.0844576  67.3221280
  73.5336945  18.1567571  66.1794315  72.7810191  29.5051700  66.6960188
  73.0733165  30.0656757  65.9772554  73.2908812  29.7980261  67.4513347
  73.3821799  11.3743442  67.5852807  73.6880675  10.5140805  67.2978722
  74.1074403  11.9661062  67.3851801  68.8034072  25.5977358  59.3307281
  68.3653502  24.8813217  58.8712919  69.5444513  25.8253473  58.7692373
  67.7443816  30.2832051  67.7853642  67.7019995  30.5092898  66.8562174
  68.6606515  30.0495426  67.9339443  71.1909450  20.7516119  74.6834271
  71.5458838  20.9787592  75.5428737  71.8381581  21.0834496  74.0611526
  76.9207187  23.8734555  65.3883600  76.7825086  24.0636151  64.4604789
  76.5643406  24.6353938  65.8451651  76.9476567  25.9411082  70.3994871
  77.3813073  25.8486371  71.2477925  77.6608147  25.9168582  69.7614887
  65.8609617  27.1595080  67.5815604  66.6550215  26.6645401  67.3798179
  65.1501309  26.6312944  67.2183310  70.6804461  29.5413176  71.9327972
  70.7341484  30.1104112  72.7005688  69.8119243  29.7115061  71.5682009
  77.8092116  25.9834783  72.9327757  78.0028006  26.8880593  73.1787032
  77.7092734  25.5242202  73.7666342  69.4628427  15.8692673  75.4318084
  68.8156342  16.5682623  75.3382560  70.2329442  16.3028817  75.7994332
  72.8707225  26.1341525  78.5068637  72.7192731  25.9052077  77.5898721
  72.8611904  27.0912127  78.5199982  69.6392561  23.7073438  73.4914904
  70.5684621  23.8584598  73.3183871  69.2183591  23.7957459  72.6363550
  69.0329045  32.8333199  62.6038978  69.2080801  32.3621242  63.4184601
  68.3461833  33.4598965  62.8320239  69.9886108  27.1105705  68.6502279
  69.6535941  27.0706475  69.5459929  69.4890054  26.4450421  68.1772689
  72.9245300  24.4561739  58.9239339  72.3074470  23.7308568  58.8272392
  72.4561788  25.2171100  58.5806413  74.5799431  29.1660648  76.5845119
  74.5211978  28.4819868  75.9175702  74.9818950  29.9079638  76.1325745
  65.3041587  19.2158512  75.4834179  64.7678944  18.7649251  76.1355776
  64.7158295  19.3504421  74.7404644  64.7143846  18.6747164  58.0460643
  63.8373312  18.5535965  57.6822890  65.1901599  17.8833242  57.7939532
  74.5816839  27.1300232  74.8159099  73.6943617  26.7926154  74.9385498
  75.1515390  26.3983263  75.0527864  67.9007772  31.0273454  65.2923164
  67.1175294  31.5695134  65.3861388  68.6000517  31.5447434  65.6917405
  71.2104422  16.8368084  67.9357369  71.7073121  16.0838046  67.6158439
  70.4391403  16.8732400  67.3700578  79.0634179  22.5408449  69.5775661
  79.0524055  23.4233165  69.2069594  78.1951559  22.1880000  69.3830198
  72.2934202  25.5939771  65.5095792  71.3590481  25.7141233  65.3400497
  72.4710871  24.6912238  65.2455802  67.7939391  18.9785467  67.6629054
  67.4237178  18.4256507  68.3509959  68.2898483  18.3743600  67.1104054
  75.6806754  21.4357090  66.0445827  76.1467206  22.2685082  65.9706129
  76.1314254  20.9702072  66.7491085  73.7482985  27.7800911  63.0431979
  74.0242829  27.6657506  63.9525853  72.8787484  27.3818396  63.0044152
  73.6523417  13.8037677  70.0836728  72.7386496  14.0341904  70.2518935
  74.0816518  13.8876121  70.9350760  73.4229875  21.9927569  72.5836622
  72.7701325  22.2403477  71.9289075  73.8010255  21.1791707  72.2499099
  70.3837049  32.0287262  66.6864792  70.5659444  31.2108918  67.1492545
  71.2070035  32.2454954  66.2489682  70.7179214  30.9555447  63.9479841
  71.2466981  30.4447902  63.3350003  70.9807434  30.6397978  64.8125374
  71.3508618  31.9896283  70.2923957  71.2259758  31.1886023  69.7834903
  72.0087709  32.4842476  69.8037927  73.4143527  29.7905303  71.9203507
  72.4673862  29.6710654  71.8481834  73.7626300  28.9027801  72.0029769
  65.7743100  15.6799442  75.7441749  66.2977502  15.9261739  76.5068058
  65.5555433  16.5119477  75.3244886  70.4189960  29.5858019  68.1207859
  70.2714922  28.6574727  68.3015430  71.2443453  29.6078110  67.6364935
  64.2852204  18.2376086  63.9788352  64.6248277  18.7662008  63.2566960
  64.7324325  18.5756493  64.7546918  74.0224082  30.4086578  69.2072732
  74.9470629  30.2029439  69.0697183  73.8539385  30.1602979  70.1162074
  66.9795645  16.6213137  73.4291420  66.6392465  15.8220950  73.8312100
  66.2734651  16.9214848  72.8568253  67.6312117  13.7062450  71.8818743
  68.4538186  13.2322928  71.7597633  67.8750180  14.4852933  72.3817429
  66.2720351  16.7350708  62.1781644  66.9928714  17.1131961  61.6745361
  65.6485656  17.4539585  62.2816622  70.4151474  17.4395857  63.1139977
  70.6315089  18.3220495  62.8128805  69.9345541  17.0482070  62.3845619
  67.0147079  17.3884118  69.7391611  67.0008647  16.4925212  69.4023909
  67.7319507  17.3954782  70.3729897  68.8673209  17.8221458  71.7844738
  68.6090987  18.7438529  71.7829069  68.3358250  17.4251893  72.4745202
  73.8119398  30.9272246  64.5634824  73.9856276  30.3618668  63.8108676
  74.3048289  31.7273140  64.3814314  66.4183974  16.2698499  65.0079181
  66.5399886  15.3415145  65.2070068  66.1286017  16.2837185  64.0957496
  69.2875165  13.9553409  68.1445901  69.3096862  14.0192742  67.1897880
  69.7043224  13.1157918  68.3386407  79.6658789  23.6908669  66.1825123
  80.1089935  22.9415994  65.7844247  78.7885299  23.6818805  65.7998855
  74.7994570  30.2439010  61.6631722  75.4945475  30.8645703  61.8819037
  75.1417721  29.3934361  61.9384100  76.6985994  27.6938716  63.1919053
  77.2237318  28.0325988  62.4668373  76.6108346  26.7585731  63.0082187
  68.3826654  33.7610699  67.5514306  67.9431645  33.2687077  68.2447163
  69.1334771  33.2183666  67.3106381  65.9025054  17.7830496  79.2169114
  65.9513209  18.6592619  78.8346883  66.4447568  17.2407889  78.6440757
  76.3879900  28.3271619  78.4970251  75.5975443  28.3095758  77.9574750
  76.1513254  28.8659913  79.2519287  76.5077775  25.1764086  75.8102979
  76.5575780  25.0114093  76.7518502  76.3991698  24.3091345  75.4200860
  65.3914033  27.8552631  63.0995068  65.5402154  28.5388096  62.4461741
  66.1980477  27.8357721  63.6144524  73.7981537  21.1595014  77.1262286
  74.6991400  21.0201478  76.8346284  73.8729512  21.3249468  78.0660463
  68.1324342  18.5361868  75.9715472  67.2627652  18.8295434  75.6998061
  68.3683823  19.1202313  76.6922736  78.0095972  27.5961027  76.0545001
  77.7180780  27.9591008  76.8908462  77.3968103  26.8828035  75.8758333
  79.2091654  25.1613907  68.5747571  80.0438545  25.6003711  68.7385131
  79.3450783  24.6852560  67.7555817  76.2583160  22.7193642  74.5225059
  76.7337281  22.9121288  73.7143910  75.3348725  22.7752828  74.2768442
  70.8363376  14.7541485  73.4880893  71.3545320  15.4902512  73.1627381
  70.4818509  15.0605479  74.3227652  62.4162314  19.6146166  61.6042298
  61.7231559  19.6890521  60.9482334  62.1714066  18.8506510  62.1263815
  71.0875970  11.1741768  69.0081789  71.3677724  10.5064957  69.6342216
  71.8726577  11.3670863  68.4956453  68.8909439  30.3500762  60.5706816
  68.3183406  30.9690949  60.1177287  69.4642233  30.9000123  61.1046737
  74.9584829  19.5959402  72.7553364  75.9102252  19.6957499  72.7765588
  74.7888279  18.8037670  73.2651449  72.9799208  16.6814985  72.9412765
  72.3849140  16.9619998  72.2459254  72.6948905  17.1708886  73.7129506
  72.1106699  30.6337912  61.7015398  73.0437372  30.5683473  61.9048273
  72.0229912  31.4694179  61.2429930  74.7394715  29.9503782  58.6619345
  74.6608347  29.6163646  59.5555103  75.5604382  30.4425550  58.6610818
  77.4372907  22.8165521  71.8695664  77.4049227  21.8781522  72.0555348
  78.0473530  22.8949558  71.1361489  69.2756237  21.6861574  57.9122868
  70.2215342  21.5567783  57.9811286  68.8970482  20.9476236  58.3892296
  77.5867395  19.6076565  71.9153947  77.0706444  18.8235022  71.7283876
  78.4707344  19.2795282  72.0800467  75.2478122  13.3517580  67.8749760
  75.0502943  13.0432669  68.7593092  75.8577828  14.0779219  68.0047690
  83.2549456  23.8781528  71.0101701  83.9852845  23.6166816  71.5709404
  82.6456402  23.1410250  71.0503769  81.3364754  22.0189391  71.6076152
  80.6097917  21.8845356  70.9992644  80.9212040  22.3266219  72.4132870
  67.4599155  19.6111551  57.8477753  66.5530610  19.3144664  57.9240467
  67.7375136  19.3141369  56.9812039  69.0761220  14.1548441  64.0021995
  68.2661949  13.8095525  64.3777241  69.7645637  13.8455984  64.5909606
  71.0051769  13.2326487  65.6246291  71.5582807  13.6521941  66.2836314
  71.2421855  12.3062235  65.6669247  66.2297939  16.4698486  57.9889732
  67.0917103  16.7953384  58.2485550  66.4148283  15.6829982  57.4762798
  74.3830576  15.3427012  65.1324955  73.8029245  16.0011817  64.7503008
  74.1166508  14.5204357  64.7212373  72.8334142  14.7432070  67.3346276
  73.3333920  14.8548605  66.5260595  73.4769750  14.4393123  67.9747084
  73.1655454  17.5027103  64.1881304  72.2781309  17.7876753  63.9701498
  73.5809443  17.3420866  63.3408581  76.5169990  17.5273624  67.9035643
  77.2930380  18.0170076  68.1760260  75.7918124  17.9531678  68.3607512
  78.9542548  18.2401243  68.9609584  79.5487039  17.9996979  68.2502892
  79.0269132  17.5208374  69.5883120  72.3098667  27.2671778  58.2829324
  73.0134517  27.4721780  58.8986979  71.5861316  27.8348539  58.5478407
  73.1396477  23.0181639  64.4031594  73.0831679  23.4750190  63.5639226
  73.6924820  22.2572323  64.2254437  76.9501283  18.8071371  65.2281713
  76.6938218  18.4068006  66.0589921  76.3254151  19.5215165  65.1031853
  81.2613621  21.5467444  67.7353005  80.7013179  21.6160633  68.5084567
  80.6557125  21.3708429  67.0152501  74.2185365  27.7054307  60.3327784
  75.0530969  27.2735505  60.1505259  74.0569708  27.5336320  61.2604678
  73.8731257  24.2086420  61.6984123  73.8180061  24.0430691  60.7572567
  73.2477312  24.9162453  61.8546313  67.1827382  13.7094529  61.2769441
  67.1706052  14.6536369  61.4337712  68.0750804  13.5264674  60.9828903
  70.9979502  10.3037306  65.5315378  70.2311897   9.7495792  65.6772061
  71.4090207  10.3759174  66.3929530  63.0021263  16.5922102  79.6220559
  63.8652724  16.2358906  79.8323884  62.4286673  16.2535996  80.3095964
  80.1379129  39.3286238  76.3230691  80.1267770  38.9339036  75.4511194
  80.2999768  38.5952310  76.9164462  82.4010908  35.9475412  67.5036169
  83.1873997  35.5294835  67.1526586  82.6649612  36.8521504  67.6717817
  87.8019335  35.8850645  68.4069147  88.5344507  35.3149862  68.6406977
  87.0458691  35.4972245  68.8475653  85.3244756  29.5972219  72.8663756
  84.9928080  30.4667630  72.6424971  84.7290369  29.2808503  73.5457786
  79.0600942  33.3367786  60.5993838  79.2275344  34.2048023  60.9664309
  78.8698111  33.4995068  59.6755127  85.2173419  34.3167305  69.9457106
  84.3090296  34.2482714  69.6515867  85.1661015  34.7939250  70.7738931
  87.0835065  32.5183744  71.7234980  86.4409446  32.8116277  71.0774774
  86.5789994  32.4036664  72.5288176  84.7375229  36.2646917  62.4120839
  85.6493085  36.4974304  62.2368536  84.2284876  36.8483961  61.8495918
  83.0215997  40.6871545  76.0482131  83.4299353  40.2453955  75.3036764
  82.2993258  40.1124172  76.3016324  79.3747067  35.6244151  73.4215688
  80.2208262  36.0483565  73.5650337  79.3145704  34.9677776  74.1154252
  82.5246512  33.2848520  75.0796862  82.2807444  34.0390580  74.5431138
  82.8006443  33.6633867  75.9144109  84.4784975  39.8287132  73.7574128
  84.6901870  40.4718892  73.0808509  84.4314723  38.9949449  73.2896058
  82.0811204  32.4404953  70.6610700  81.2195683  32.7386206  70.9527437
  82.1073638  32.6575352  69.7291732  85.5930803  42.7059088  71.9296485
  86.4148247  42.3039275  71.6479167  85.5893206  42.6027322  72.8812601
  93.6836796  39.0497836  68.2781456  92.9300504  38.4805234  68.1225461
  93.8184337  39.0160501  69.2252091  78.4770725  31.4160697  78.2070788
  79.2180438  32.0167850  78.1275250  78.7088647  30.6738335  77.6488830
  82.7985138  44.8237605  76.1117919  82.7803614  45.6446486  75.6198188
  83.7205058  44.6991680  76.3368060  82.4227887  27.4441800  72.4835069
  82.0792157  28.3343442  72.4074180  82.7906850  27.2543458  71.6204654
  82.3878170  37.4350411  60.9907504  81.8724794  38.2055016  61.2295892
  82.1155479  36.7615547  61.6140566  79.9725281  32.2800112  66.0492743
  79.1166878  31.8906962  65.8698381  80.3852233  32.3592073  65.1892528
  81.5024428  29.8146455  70.4484303  80.9989223  29.7776591  69.6352108
  81.7955035  30.7239198  70.5080959  77.7467314  29.8985185  69.4550484
  78.6120311  29.7027994  69.0956374  77.8144823  29.6695537  70.3819841
  87.3612444  40.1882766  62.9260678  86.5841887  39.8493925  62.4815840
  88.0403925  40.1935389  62.2515643  82.1764473  35.3077503  62.8167286
  81.8714609  35.6223653  63.6677429  83.1294915  35.3858923  62.8594619
  85.6003751  39.6616747  69.5827286  84.9427426  40.3516009  69.6707414
  86.4044150  40.0513179  69.9261272  75.3529633  32.1287393  66.8266851
  75.9273385  31.9062574  66.0940044  75.9400615  32.1976088  67.5795452
  84.4109210  38.0161120  67.6331228  84.9241092  38.6491112  68.1352937
  85.0610434  37.4162315  67.2674588  75.6799220  34.1591854  60.8462736
  74.8436532  34.4966541  61.1672011  75.5403990  34.0240834  59.9089873
  77.6552301  29.0028642  65.5541920  77.0016713  28.6877659  64.9298535
  77.6132775  28.3804382  66.2801743  84.1203926  33.9259107  66.9911038
  83.3826683  33.4136494  67.3221280  84.3730699  33.4859489  66.1794315
  84.2215553  26.7035359  67.5852807  84.5274430  25.8432723  67.2978722
  84.9468158  27.2952980  67.3851801  82.0303204  36.0808037  74.6834271
  82.3852592  36.3079510  75.5428737  82.6775336  36.4126413  74.0611526
  87.7600941  39.2026473  65.3883600  87.6218840  39.3928069  64.4604789
  87.4037160  39.9645855  65.8451651  75.9243068  33.1884568  71.4680612
  76.5642447  33.0473327  70.7703575  75.0920598  32.9019081  71.0919214
  87.7870321  41.2703000  70.3994871  88.2206828  41.1778289  71.2477925
  88.5001902  41.2460500  69.7614887  88.6485871  41.3126700  72.9327757
  88.8421761  42.2172511  73.1787032  88.5486489  40.8534119  73.7666342
  80.3022181  31.1984591  75.4318084  79.6550096  31.8974540  75.3382560
  81.0723197  31.6320735  75.7994332  83.7100979  41.4633443  78.5068637
  83.5586486  41.2343995  77.5898721  83.7005659  42.4204044  78.5199982
  83.7639054  39.7853657  58.9239339  83.1468225  39.0600485  58.8272392
  83.2955543  40.5463017  58.5806413  85.4193186  44.4952566  76.5845119
  85.3605732  43.8111786  75.9175702  85.8212704  45.2371556  76.1325745
  75.5537600  34.0039081  58.0460643  74.6767066  33.8827882  57.6822890
  76.0295353  33.2125160  57.7939532  85.4210593  42.4592149  74.8159099
  84.5337372  42.1218071  74.9385498  85.9909144  41.7275181  75.0527864
  82.0498176  32.1660001  67.9357369  82.5466876  31.4129964  67.6158439
  81.2785158  32.2024318  67.3700578  89.9027934  37.8700367  69.5775661
  89.8917810  38.7525082  69.2069594  89.0345313  37.5171918  69.3830198
  86.5200508  36.7649008  66.0445827  86.9860961  37.5976999  65.9706129
  86.9708009  36.2993989  66.7491085  84.4917171  29.1329595  70.0836728
  83.5780251  29.3633822  70.2518935  84.9210273  29.2168039  70.9350760
  84.2623630  37.3219487  72.5836622  83.6095080  37.5695394  71.9289075
  84.6404009  36.5083625  72.2499099  74.0298479  31.7181375  73.9082160
  74.0939805  32.5796206  73.4959557  73.9665599  31.1055377  73.1754518
  73.8110541  33.6736933  69.4701097  73.0897127  34.2872901  69.3308571
  74.6003797  34.2094698  69.3917743  76.6136855  31.0091360  75.7441749
  77.1371256  31.2553656  76.5068058  76.3949188  31.8411395  75.3244886
  72.0104136  33.2795034  63.6112874  71.6816842  32.3992413  63.4287980
  72.3643506  33.2242703  64.4989263  77.8189400  31.9505055  73.4291420
  77.4786220  31.1512868  73.8312100  77.1128406  32.2506766  72.8568253
  78.4705871  29.0354367  71.8818743  79.2931941  28.5614846  71.7597633
  78.7143935  29.8144851  72.3817429  77.1114106  32.0642626  62.1781644
  77.8322468  32.4423879  61.6745361  76.4879410  32.7831503  62.2816622
  81.2545229  32.7687775  63.1139977  81.4708843  33.6512413  62.8128805
  80.7739296  32.3773988  62.3845619  77.8540833  32.7176036  69.7391611
  77.8402402  31.8217129  69.4023909  78.5713261  32.7246700  70.3729897
  79.7066964  33.1513376  71.7844738  79.4484742  34.0730447  71.7829069
  79.1752004  32.7543811  72.4745202  77.2577729  31.5990416  65.0079181
  77.3793640  30.6707062  65.2070068  76.9679771  31.6129102  64.0957496
  80.1268919  29.2845327  68.1445901  80.1490616  29.3484660  67.1897880
  80.5436978  28.4449835  68.3386407  90.5052544  39.0200586  66.1825123
  90.9483690  38.2707911  65.7844247  89.6279054  39.0110723  65.7998855
  87.2273654  43.6563537  78.4970251  86.4369198  43.6387676  77.9574750
  86.9907009  44.1951831  79.2519287  87.3471529  40.5056003  75.8102979
  87.3969534  40.3406011  76.7518502  87.2385453  39.6383262  75.4200860
  84.6375292  36.4886931  77.1262286  85.5385154  36.3493396  76.8346284
  84.7123266  36.6541386  78.0660463  88.8489726  42.9252945  76.0545001
  88.5574534  43.2882925  76.8908462  88.2361857  42.2119953  75.8758333
  90.0485408  40.4905825  68.5747571  90.8832300  40.9295629  68.7385131
  90.1844537  40.0144478  67.7555817  87.0976914  38.0485559  74.5225059
  87.5731036  38.2413206  73.7143910  86.1742480  38.1044745  74.2768442
  81.6757131  30.0833403  73.4880893  82.1939075  30.8194430  73.1627381
  81.3212264  30.3897396  74.3227652  81.9269725  26.5033685  69.0081789
  82.2071479  25.8356875  69.6342216  82.7120332  26.6962781  68.4956453
  85.7978583  34.9251319  72.7553364  86.7496006  35.0249417  72.7765588
  85.6282034  34.1329588  73.2651449  83.8192963  32.0106903  72.9412765
  83.2242895  32.2911915  72.2459254  83.5342659  32.5000804  73.7129506
  85.5788470  45.2795700  58.6619345  85.5002101  44.9455563  59.5555103
  86.3998137  45.7717468  58.6610818  88.2766661  38.1457439  71.8695664
  88.2442981  37.2073440  72.0555348  88.8867285  38.2241476  71.1361489
  88.4261150  34.9368483  71.9153947  87.9100198  34.1526939  71.7283876
  89.3101098  34.6087199  72.0800467  86.0871876  28.6809498  67.8749760
  85.8896698  28.3724586  68.7593092  86.6971582  29.4071137  68.0047690
  94.0943211  39.2073446  71.0101701  94.8246599  38.9458734  71.5709404
  93.4850156  38.4702168  71.0503769  92.1758508  37.3481309  71.6076152
  91.4491672  37.2137273  70.9992644  91.7605795  37.6558137  72.4132870
  79.9154975  29.4840358  64.0021995  79.1055703  29.1387443  64.3777241
  80.6039392  29.1747902  64.5909606  81.8445523  28.5618405  65.6246291
  82.3976562  28.9813858  66.2836314  82.0815609  27.6354153  65.6669247
  77.0691694  31.7990404  57.9889732  77.9310858  32.1245302  58.2485550
  77.2542038  31.0121900  57.4762798  85.2224330  30.6718930  65.1324955
  84.6422999  31.3303734  64.7503008  84.9560263  29.8496275  64.7212373
  83.6727897  30.0723988  67.3346276  84.1727675  30.1840522  66.5260595
  84.3163504  29.7685041  67.9747084  84.0049208  32.8319021  64.1881304
  83.1175063  33.1168671  63.9701498  84.4203197  32.6712784  63.3408581
  87.3563744  32.8565542  67.9035643  88.1324134  33.3461994  68.1760260
  86.6311879  33.2823596  68.3607512  89.7936303  33.5693161  68.9609584
  90.3880794  33.3288897  68.2502892  89.8662887  32.8500291  69.5883120
  83.1492422  42.5963695  58.2829324  83.8528272  42.8013698  58.8986979
  82.4255070  43.1640457  58.5478407  83.9790232  38.3473556  64.4031594
  83.9225433  38.8042108  63.5639226  84.5318574  37.5864241  64.2254437
  87.7895038  34.1363288  65.2281713  87.5331972  33.7359924  66.0589921
  87.1647906  34.8507082  65.1031853  92.1007376  36.8759362  67.7353005
  91.5406934  36.9452551  68.5084567  91.4950879  36.7000346  67.0152501
  85.0579119  43.0346224  60.3327784  85.8924723  42.6027423  60.1505259
  84.8963462  42.8628238  61.2604678  84.7125011  39.5378338  61.6984123
  84.6573815  39.3722609  60.7572567  84.0871067  40.2454371  61.8546313
  78.0221137  29.0386447  61.2769441  78.0099807  29.9828287  61.4337712
  78.9144559  28.8556592  60.9828903  81.8373256  25.6329223  65.5315378
  81.0705652  25.0787710  65.6772061  82.2483961  25.7051092  66.3929530
  90.9772883  54.6578155  76.3230691  90.9661524  54.2630954  75.4511194
  91.1393523  53.9244228  76.9164462  87.6980145  57.4415267  75.2709875
  87.4070011  58.3460898  75.1556541  88.3337129  57.4831795  75.9853944
  88.6236351  54.8192116  71.8611234  89.2199924  54.5948138  71.1468197
  88.6811323  54.0776861  72.4636682  98.6413090  51.2142563  68.4069147
  99.3738262  50.6441779  68.6406977  97.8852445  50.8264163  68.8475653
  96.1638510  44.9264137  72.8663756  95.8321835  45.7959548  72.6424971
  95.5684124  44.6100421  73.5457786  96.0567173  49.6459223  69.9457106
  95.1484051  49.5774631  69.6515867  96.0054769  50.1231168  70.7738931
  90.1308039  51.0648868  77.8892003  89.3541373  51.6242789  77.8794868
  90.7698602  51.5505651  78.4106873  97.9228820  47.8475661  71.7234980
  97.2803200  48.1408194  71.0774774  97.4183748  47.7328582  72.5288176
  88.3854412  53.8734322  77.4509970  89.1269096  54.4119366  77.1744794
  87.6791397  54.5000611  77.6081522  93.8609751  56.0163462  76.0482131
  94.2693107  55.5745873  75.3036764  93.1387013  55.4416090  76.3016324
  90.2140821  50.9536069  73.4215688  91.0602016  51.3775483  73.5650337
  90.1539459  50.2969693  74.1154252  94.1838566  56.5764653  69.8034420
  93.5547428  56.7410367  69.1010488  93.7964228  56.9906262  70.5745384
  98.0627798  57.5119091  67.1578784  97.3778836  57.8917992  66.6075817
  98.1471647  58.1214417  67.8910732  93.3640267  48.6140437  75.0796862
  93.1201198  49.3682498  74.5431138  93.6400197  48.9925785  75.9144109
  95.3178729  55.1579050  73.7574128  95.5295625  55.8010810  73.0808509
  95.2708478  54.3241366  73.2896058  92.9204958  47.7696870  70.6610700
  92.0589437  48.0678124  70.9527437  92.9467393  47.9867269  69.7291732
  96.4324557  58.0351005  71.9296485  97.2542001  57.6331192  71.6479167
  96.4286960  57.9319239  72.8812601  90.1981161  57.5835048  74.0857195
  90.2625593  58.0455456  74.9215367  89.4892085  56.9532413  74.2139505
 104.5230550  54.3789754  68.2781456 103.7694259  53.8097152  68.1225461
 104.6578092  54.3452418  69.2252091  86.3996518  45.3294736  80.6150531
  86.0063464  44.7760934  81.2898175  87.2162658  45.6405314  81.0057049
  89.3164479  46.7452615  78.2070788  90.0574192  47.3459768  78.1275250
  89.5482402  46.0030253  77.6488830  91.5397655  59.8726722  78.0836518
  91.0961509  59.0863101  77.7657422  92.2014868  60.0605873  77.4180409
  86.2984776  61.4022524  72.6097196  86.8492201  61.2739587  71.8374190
  85.4596252  61.7017413  72.2592089  93.6378893  60.1529522  76.1117919
  93.6197368  60.9738403  75.6198188  94.5598813  60.0283598  76.3368060
  90.0951947  57.6673652  76.9541428  90.6280284  56.9061940  76.7240736
  89.5666028  57.3747304  77.6965582  93.2621642  42.7733718  72.4835069
  92.9185911  43.6635360  72.4074180  93.6300605  42.5835376  71.6204654
  92.3418182  45.1438373  70.4484303  91.8382978  45.1068508  69.6352108
  92.6348789  46.0531116  70.5080959  98.2006199  55.5174684  62.9260678
  97.4235642  55.1785843  62.4815840  98.8797680  55.5227307  62.2515643
  96.4397506  54.9908665  69.5827286  95.7821180  55.6807926  69.6707414
  97.2437905  55.3805097  69.9261272  96.0164761  58.3259039  65.7610370
  95.5627088  57.4849949  65.8175561  95.3858727  58.9620437  66.0985150
  94.9597680  49.2551025  66.9911038  94.2220437  48.7428411  67.3221280
  95.2124454  48.8151407  66.1794315  95.0609308  42.0327277  67.5852807
  95.3668184  41.1724640  67.2978722  95.7861912  42.6244897  67.3851801
  92.8696959  51.4099954  74.6834271  93.2246347  51.6371427  75.5428737
  93.5169090  51.7418331  74.0611526  98.5994696  54.5318390  65.3883600
  98.4612594  54.7219986  64.4604789  98.2430915  55.2937773  65.8451651
  98.6264076  56.5994917  70.3994871  99.0600582  56.5070206  71.2477925
  99.3395656  56.5752418  69.7614887  92.3591970  60.1997011  71.9327972
  92.4128993  60.7687948  72.7005688  91.4906752  60.3698896  71.5682009
  85.2390364  49.9014568  73.4152423  85.9113417  49.6931930  72.7665072
  84.4120150  49.7036654  72.9757655  99.4879625  56.6418618  72.9327757
  99.6815515  57.5464428  73.1787032  99.3880243  56.1826037  73.7666342
  91.1415936  46.5276508  75.4318084  90.4943851  47.2266458  75.3382560
  91.9116951  46.9612652  75.7994332  94.5494734  56.7925361  78.5068637
  94.3980240  56.5635912  77.5898721  94.5399413  57.7495962  78.5199982
  91.3180070  54.3657273  73.4914904  92.2472130  54.5168433  73.3183871
  90.8971100  54.4541294  72.6363550  90.1168402  58.3907938  71.2613441
  89.9779488  58.0226722  72.1339380  89.3282998  58.9055577  71.0897399
  85.6417861  53.1757171  74.1754860  85.5037659  52.4437409  74.7766399
  86.5522785  53.0866071  73.8939048  88.2700162  52.8877130  73.6638540
  88.9799780  52.2470322  73.6225158  88.2269470  53.1390025  74.5864721
  96.2586940  59.8244483  76.5845119  96.1999487  59.1403703  75.9175702
  96.6606459  60.5663473  76.1325745  86.9829096  49.8742348  75.4834179
  86.4466453  49.4233086  76.1355776  86.3945804  50.0088257  74.7404644
  96.2604348  57.7884067  74.8159099  95.3731126  57.4509989  74.9385498
  96.8302899  57.0567098  75.0527864 100.7421688  53.1992284  69.5775661
 100.7311564  54.0817000  69.2069594  99.8739068  52.8463835  69.3830198
  93.9721711  56.2523606  65.5095792  93.0377990  56.3725069  65.3400497
  94.1498380  55.3496073  65.2455802  97.3594263  52.0940925  66.0445827
  97.8254715  52.9268917  65.9706129  97.8101763  51.6285907  66.7491085
  87.3016098  60.0966797  74.7584072  88.0025558  60.7303280  74.9113466
  86.8311213  60.4381529  73.9979711  95.4270494  58.4384747  63.0431979
  95.7030338  58.3241341  63.9525853  94.5574993  58.0402232  63.0044152
  95.3310926  44.4621512  70.0836728  94.4174005  44.6925739  70.2518935
  95.7604027  44.5459957  70.9350760  95.1017384  52.6511404  72.5836622
  94.4488834  52.8987312  71.9289075  95.4797764  51.8375543  72.2499099
  91.1504957  53.3931215  79.0702659  90.4745594  53.2925345  79.7405034
  91.9732591  53.2370429  79.5338656  84.8692233  47.0473293  73.9082160
  84.9333560  47.9088124  73.4959557  84.8059353  46.4347294  73.1754518
  94.7438614  59.5259400  79.1608929  95.2878518  60.1389359  78.6663884
  94.1625459  60.0838979  79.6775942  95.0931036  60.4489139  71.9203507
  94.1461371  60.3294490  71.8481834  95.4413809  59.5611637  72.0029769
  87.4530609  46.3383277  75.7441749  87.9765011  46.5845574  76.5068058
  87.2342942  47.1703312  75.3244886  95.7011591  61.0670413  69.2072732
  96.6258138  60.8613275  69.0697183  95.5326894  60.8186815  70.1162074
  88.6583154  47.2796973  73.4291420  88.3179974  46.4804786  73.8312100
  87.9522160  47.5798683  72.8568253  89.3099626  44.3646285  71.8818743
  90.1325695  43.8906763  71.7597633  89.5537689  45.1436769  72.3817429
  90.5460718  48.4805294  71.7844738  90.2878496  49.4022364  71.7829069
  90.0145759  48.0835728  72.4745202 101.3446298  54.3492504  66.1825123
 101.7877444  53.5999829  65.7844247 100.4672808  54.3402640  65.7998855
  98.3773503  58.3522551  63.1919053  98.9024827  58.6909824  62.4668373
  98.2895855  57.4169566  63.0082187  90.0393551  62.2656625  75.3208929
  90.3480678  62.0205771  76.1931629  90.8369033  62.4703263  74.8327800
  87.5812563  48.4414331  79.2169114  87.6300718  49.3176454  78.8346883
  88.1235077  47.8991724  78.6440757  98.0667409  58.9855455  78.4970251
  97.2762952  58.9679593  77.9574750  97.8300763  59.5243748  79.2519287
  98.1865284  55.8347921  75.8102979  98.2363289  55.6697928  76.7518502
  98.0779207  54.9675180  75.4200860  95.4769046  51.8178849  77.1262286
  96.3778909  51.6785314  76.8346284  95.5517021  51.9833304  78.0660463
  89.8111851  49.1945704  75.9715472  88.9415161  49.4879270  75.6998061
  90.0471332  49.7786149  76.6922736  99.6883481  58.2544862  76.0545001
  99.3968289  58.6174843  76.8908462  99.0755612  57.5411871  75.8758333
 100.8879163  55.8197742  68.5747571 101.7226054  56.2587546  68.7385131
 101.0238292  55.3436395  67.7555817  97.9370669  53.3777477  74.5225059
  98.4124790  53.5705123  73.7143910  97.0136234  53.4336663  74.2768442
  92.5150885  45.4125321  73.4880893  93.0332829  46.1486348  73.1627381
  92.1606018  45.7189314  74.3227652  92.7663479  41.8325603  69.0081789
  93.0465233  41.1648792  69.6342216  93.5514086  42.0254699  68.4956453
  96.6372338  50.2543237  72.7553364  97.5889761  50.3541335  72.7765588
  96.4675788  49.4621506  73.2651449  94.6586717  47.3398820  72.9412765
  94.0636649  47.6203833  72.2459254  94.3736414  47.8292721  73.7129506
  99.1160416  53.4749357  71.8695664  99.0836736  52.5365358  72.0555348
  99.7261039  53.5533394  71.1361489  99.2654904  50.2660400  71.9153947
  98.7493953  49.4818857  71.7283876 100.1494853  49.9379117  72.0800467
  96.9265631  44.0101416  67.8749760  96.7290452  43.7016504  68.7593092
  97.5365337  44.7363055  68.0047690 104.9336965  54.5365364  71.0101701
 105.6640354  54.2750652  71.5709404 104.3243911  53.7994086  71.0503769
 103.0152263  52.6773226  71.6076152 102.2885426  52.5429191  70.9992644
 102.5999549  52.9850055  72.4132870  88.7072377  49.8797396  81.4049055
  88.6069104  50.8291753  81.3361146  88.4893919  49.5515635  80.5325125
  96.0618085  46.0010848  65.1324955  95.4816754  46.6595652  64.7503008
  95.7954017  45.1788192  64.7212373  94.5121651  45.4015906  67.3346276
  95.0121429  45.5132440  66.5260595  95.1557259  45.0976958  67.9747084
  94.8442963  48.1610938  64.1881304  93.9568818  48.4460589  63.9701498
  95.2596952  48.0004702  63.3408581  98.1957499  48.1857459  67.9035643
  98.9717889  48.6753912  68.1760260  97.4705633  48.6115513  68.3607512
 100.6330057  48.8985078  68.9609584 101.2274548  48.6580814  68.2502892
 100.7056641  48.1792209  69.5883120  94.8183986  53.6765474  64.4031594
  94.7619188  54.1334026  63.5639226  95.3712329  52.9156159  64.2254437
  98.6288792  49.4655206  65.2281713  98.3725727  49.0651842  66.0589921
  98.0041660  50.1799000  65.1031853 102.9401130  52.2051279  67.7353005
 102.3800688  52.2744469  68.5084567 102.3344634  52.0292264  67.0152501
  95.8972874  58.3638142  60.3327784  96.7318478  57.9319341  60.1505259
  95.7357216  58.1920156  61.2604678  92.8664673  57.1719167  81.0237686
  93.7355833  57.3459820  80.6624321  92.3871424  57.9913584  80.9013415
  92.6767011  40.9621141  65.5315378  91.9099406  40.4079628  65.6772061
  93.0877716  41.0343010  66.3929530 104.5257149  68.8807793  70.4282961
 105.1635559  68.7614541  69.7246301 104.4077992  69.8288637  70.4870913
 101.8166638  69.9870073  76.3230691 101.8055279  69.5922871  75.4511194
 101.9787277  69.2536146  76.9164462 109.4806844  66.5434480  68.4069147
 110.2132016  65.9733697  68.6406977 108.7246200  66.1556081  68.8475653
 107.0032265  60.2556054  72.8663756 106.6715589  61.1251465  72.6424971
 106.4077878  59.9392338  73.5457786 106.8960928  64.9751141  69.9457106
 105.9877805  64.9066549  69.6515867 106.8448524  65.4523085  70.7738931
 100.9701794  66.3940786  77.8892003 100.1935128  66.9534706  77.8794868
 101.6092357  66.8797569  78.4106873 108.7622574  63.1767579  71.7234980
 108.1196955  63.4700112  71.0774774 108.2577503  63.0620499  72.5288176
  99.2248166  69.2026239  77.4509970  99.9662850  69.7411283  77.1744794
  98.5185152  69.8292528  77.6081522 104.7003506  71.3455380  76.0482131
 105.1086862  70.9037790  75.3036764 103.9780767  70.7708007  76.3016324
 105.0232320  71.9056571  69.8034420 104.3941183  72.0702285  69.1010488
 104.6357982  72.3198180  70.5745384 104.2034021  63.9432355  75.0796862
 103.9594953  64.6974416  74.5431138 104.4793952  64.3217703  75.9144109
 106.1572484  70.4870967  73.7574128 106.3689379  71.1302727  73.0808509
 106.1102232  69.6533284  73.2896058 103.7598713  63.0988788  70.6610700
 102.8983192  63.3970042  70.9527437 103.7861147  63.3159187  69.7291732
  97.2390273  60.6586654  80.6150531  96.8457218  60.1052852  81.2898175
  98.0556413  60.9697232  81.0057049 100.1558234  62.0744533  78.2070788
 100.8967947  62.6751686  78.1275250 100.3876156  61.3322170  77.6488830
 104.1015396  58.1025636  72.4835069 103.7579666  58.9927277  72.4074180
 104.4694359  57.9127293  71.6204654 101.6512790  62.9383947  66.0492743
 100.7954387  62.5490798  65.8698381 102.0639742  63.0175908  65.1892528
 103.1811937  60.4730291  70.4484303 102.6776732  60.4360426  69.6352108
 103.4742544  61.3823033  70.5080959  99.4254823  60.5569020  69.4550484
 100.2907819  60.3611829  69.0956374  99.4932332  60.3279372  70.3819841
  99.3339810  59.6612477  65.5541920  98.6804222  59.3461494  64.9298535
  99.2920284  59.0388218  66.2801743 102.5677550  66.1494411  69.8789568
 101.6500111  66.3709358  69.7211256 102.9837693  66.2240721  69.0201275
 105.9003062  57.3619195  67.5852807 106.2061939  56.5016558  67.2978722
 106.6255667  57.9536815  67.3851801 101.9809690  61.8568426  75.4318084
 101.3337605  62.5558376  75.3382560 102.7510706  62.2904570  75.7994332
 105.3888488  72.1217278  78.5068637 105.2373995  71.8927830  77.5898721
 105.3793168  73.0787880  78.5199982 103.7285685  62.8243837  67.9357369
 104.2254385  62.0713799  67.6158439 102.9572667  62.8608153  67.3700578
 106.1704680  59.7913430  70.0836728 105.2567760  60.0217657  70.2518935
 106.5997782  59.8751874  70.9350760 105.9411139  67.9803322  72.5836622
 105.2882589  68.2279230  71.9289075 106.3191518  67.1667460  72.2499099
 101.9898712  68.7223133  79.0702659 101.3139349  68.6217262  79.7405034
 102.8126345  68.5662347  79.5338656  98.2924363  61.6675195  75.7441749
  98.8158765  61.9137492  76.5068058  98.0736697  62.4995230  75.3244886
 100.1493380  59.6938203  71.8818743 100.9719450  59.2198681  71.7597633
 100.3931444  60.4728686  72.3817429  99.5328342  63.3759871  69.7391611
  99.5189911  62.4800965  69.4023909 100.2500770  63.3830535  70.3729897
 101.3854473  63.8097211  71.7844738 101.1272251  64.7314282  71.7829069
 100.8539513  63.4127646  72.4745202 101.8056428  59.9429162  68.1445901
 101.8278125  60.0068495  67.1897880 102.2224487  59.1033671  68.3386407
  98.4206317  63.7706249  79.2169114  98.4694473  64.6468372  78.8346883
  98.9628832  63.2283642  78.6440757 108.9061163  74.3147372  78.4970251
 108.1156707  74.2971511  77.9574750 108.6694518  74.8535666  79.2519287
 109.0259038  71.1639839  75.8102979 109.0757043  70.9989846  76.7518502
 108.9172962  70.2967098  75.4200860 106.3162801  67.1470767  77.1262286
 107.2172663  67.0077231  76.8346284 106.3910775  67.3125221  78.0660463
 110.5277235  73.5836780  76.0545001 110.2362043  73.9466761  76.8908462
 109.9149366  72.8703788  75.8758333 108.7764423  68.7069395  74.5225059
 109.2518545  68.8997041  73.7143910 107.8529989  68.7628581  74.2768442
 103.3544640  60.7417238  73.4880893 103.8726584  61.4778265  73.1627381
 102.9999773  61.0481232  74.3227652 103.6057234  57.1617521  69.0081789
 103.8858988  56.4940710  69.6342216 104.3907841  57.3546616  68.4956453
 107.4766092  65.5835155  72.7553364 108.4283515  65.6833252  72.7765588
 107.3069543  64.7913423  73.2651449 105.4980472  62.6690738  72.9412765
 104.9030404  62.9495751  72.2459254 105.2130168  63.1584639  73.7129506
 109.9554170  68.8041274  71.8695664 109.9230490  67.8657275  72.0555348
 110.5654794  68.8825311  71.1361489 110.1048659  65.5952318  71.9153947
 109.5887707  64.8110775  71.7283876 110.9888607  65.2671035  72.0800467
 107.7659385  59.3393333  67.8749760 107.5684207  59.0308422  68.7593092
 108.3759091  60.0654972  68.0047690 115.7730720  69.8657281  71.0101701
 116.5034108  69.6042569  71.5709404 115.1637665  69.1286003  71.0503769
 113.8546017  68.0065144  71.6076152 113.1279181  67.8721109  70.9992644
 113.4393304  68.3141973  72.4132870 101.6776193  71.7255074  79.3723525
 102.5979203  71.9033673  79.5663572 101.6425776  70.7811119  79.2203224
 101.5942484  60.1424194  64.0021995 100.7843212  59.7971279  64.3777241
 102.2826901  59.8331737  64.5909606 103.5233032  59.2202240  65.6246291
 104.0764071  59.6397694  66.2836314 103.7603118  58.2937988  65.6669247
  99.5466131  65.2089314  81.4049055  99.4462858  66.1583671  81.3361146
  99.3287673  64.8807553  80.5325125 106.9011839  61.3302766  65.1324955
 106.3210508  61.9887570  64.7503008 106.6347772  60.5080110  64.7212373
 105.3515406  60.7307823  67.3346276 105.8515184  60.8424358  66.5260595
 105.9951013  60.4268876  67.9747084  99.4097401  68.6386453  80.2214117
  98.9264483  69.4386813  80.4278006  99.4958340  68.6494398  79.2681561
 105.6836717  63.4902856  64.1881304 104.7962572  63.7752507  63.9701498
 106.0990706  63.3296619  63.3408581 109.0351253  63.5149377  67.9035643
 109.8111643  64.0045829  68.1760260 108.3099387  63.9407431  68.3607512
 111.4723812  64.2276996  68.9609584 112.0668303  63.9872732  68.2502892
 111.5450396  63.5084127  69.5883120 113.7794885  67.5343197  67.7353005
 113.2194443  67.6036386  68.5084567 113.1738388  67.3584182  67.0152501
 103.7058427  72.5011085  81.0237686 104.5749587  72.6751737  80.6624321
 103.2265179  73.3205502  80.9013415 103.5160765  56.2913059  65.5315378
 102.7493161  55.7371545  65.6772061 103.9271470  56.3634927  66.3929530
  95.5202526  62.5797855  79.6220559  96.3833988  62.2234659  79.8323884
  94.9467937  62.2411749  80.3095964 105.5791857  87.5113807  69.1925597
 106.3713149  87.1704632  68.7771896 105.8188507  87.6208782  70.1127750
 109.3178318  94.5504838  65.2330636 109.2402348  95.5012663  65.3119117
 108.7139962  94.2050711  65.8905562 111.8095548  81.7232704  77.8892003
 111.0328882  82.2826624  77.8794868 112.4486111  82.2089487  78.4106873
 110.0641921  84.5318157  77.4509970 110.8056605  85.0703201  77.1744794
 109.3578906  85.1584446  77.6081522 118.1112066  88.6934841  71.9296485
 118.9329510  88.2915028  71.6479167 118.1074469  88.5903075  72.8812601
 111.5916687  89.9086991  63.9536176 111.4562362  90.7538527  64.3821024
 112.1326500  90.1106269  63.1902110 108.0784027  75.9878571  80.6150531
 107.6850973  75.4344770  81.2898175 108.8950167  76.2989150  81.0057049
 106.8540969  90.5428186  66.6086854 107.0307598  91.4646150  66.4207838
 107.6497803  90.2286605  67.0381234 110.9951988  77.4036450  78.2070788
 111.7361701  78.0043603  78.1275250 111.2269911  76.6614088  77.6488830
 113.2185164  90.5310558  78.0836518 112.7749018  89.7446936  77.7657422
 113.8802377  90.7189708  77.4180409 116.1385209  90.8219371  66.6960188
 116.4308183  91.3824428  65.9772554 116.6483830  91.1147932  67.4513347
 111.1018834  91.5999722  67.7853642 111.0595013  91.8260568  66.8562174
 112.0181533  91.3663097  67.9339443 121.1667134  87.3002453  72.9327757
 121.3603024  88.2048264  73.1787032 121.0667752  86.8409872  73.7666342
 116.2282243  87.4509196  78.5068637 116.0767749  87.2219748  77.5898721
 116.2186922  88.4079797  78.5199982 112.3904063  94.1500870  62.6038978
 112.5655819  93.6788913  63.4184601 111.7036851  94.7766636  62.8320239
 117.9374449  90.4828319  76.5845119 117.8786996  89.7987539  75.9175702
 118.3393968  91.2247309  76.1325745 117.9391857  88.4467902  74.8159099
 117.0518635  88.1093824  74.9385498 118.5090408  87.7150934  75.0527864
 111.4693010  93.1069355  71.7820342 111.3963182  93.9124326  72.2939647
 111.0270403  93.3061321  70.9568363 111.2582790  92.3441125  65.2923164
 110.4750312  92.8862805  65.3861388 111.9575535  92.8615104  65.6917405
 113.7412067  93.3454933  66.6864792 113.9234461  92.5276589  67.1492545
 114.5645053  93.5622625  66.2489682 112.8292466  84.0515051  79.0702659
 112.1533103  83.9509180  79.7405034 113.6520100  83.8954265  79.5338656
 107.4309980  93.3238235  66.7077617 106.7620356  93.8084362  66.2241657
 107.2922850  93.5707455  67.6220995 116.4226123  90.1843236  79.1608929
 116.9666027  90.7973194  78.6663884 115.8412968  90.7422814  79.6775942
 113.7764978  90.9025690  68.1207859 113.6289940  89.9742398  68.3015430
 114.6018471  90.9245781  67.6364935 117.3799100  91.7254249  69.2072732
 118.3045647  91.5197110  69.0697183 117.2114403  91.4770650  70.1162074
 111.7401672  95.0778370  67.5514306 111.3006663  94.5854748  68.2447163
 112.4909789  94.5351337  67.3106381 109.1875544  90.6216379  69.6236608
 108.5655554  89.9587084  69.3238835 109.8580411  90.6477510  68.9410255
 119.7454918  89.6439290  78.4970251 118.9550461  89.6263429  77.9574750
 119.5088272  90.1827584  79.2519287 119.8652793  86.4931756  75.8102979
 119.9150798  86.3281764  76.7518502 119.7566716  85.6259015  75.4200860
 117.1556555  82.4762684  77.1262286 118.0566418  82.3369149  76.8346284
 117.2304530  82.6417139  78.0660463 121.3670990  88.9128698  76.0545001
 121.0755798  89.2758678  76.8908462 120.7543121  88.1995706  75.8758333
 119.6158178  84.0361312  74.5225059 120.0912299  84.2288959  73.7143910
 118.6923743  84.0920498  74.2768442 120.7947925  84.1333192  71.8695664
 120.7624245  83.1949193  72.0555348 121.4048548  84.2117229  71.1361489
 110.3859886  80.5381232  81.4049055 110.2856613  81.4875589  81.3361146
 110.1681428  80.2099471  80.5325125 110.4691964  93.7031090  69.3637198
 109.5187595  93.7032952  69.2501570 110.7724450  92.9563825  68.8473233
 126.2044658  99.5391629  70.4282961 126.8423068  99.4198376  69.7246301
 126.0865501 100.4872473  70.4870913 123.0134364  99.4919057  70.3644485
 122.6752875  99.3760121  69.4765020 123.8824132  99.0910222  70.3445491
 118.8721180 101.3454533  66.3541376 118.3086045 101.2544470  65.5857664
 118.7573575 100.5254438  66.8343869 123.4954147 100.6453908  76.3230691
 123.4842788 100.2506707  75.4511194 123.6574786  99.9119981  76.9164462
 124.4520738 105.0125501  61.6655841 123.8008718 105.5979581  61.2789855
 125.2465101 105.5431696  61.7250879 118.3776365 102.1014638  62.0642975
 119.1507241 101.5543625  61.9255851 118.7301764 102.9658887  62.2757437
 121.1417615 100.8067869  71.8611234 121.7381187 100.5823891  71.1468197
 121.1992586 100.0652614  72.4636682 120.7142643  98.2607304  59.6961425
 120.9668164  97.7388825  58.9344888 119.7767202  98.0973449  59.7988109
 125.7585926  97.2643082  67.5036169 126.5449015  96.8462506  67.1526586
 126.0224630  98.1689175  67.6717817 125.9296003 102.7015933  62.2024825
 125.2941836 102.7750559  62.9145730 125.5993410 103.2909532  61.5243905
 131.1594353  97.2018316  68.4069147 131.8919525  96.6317532  68.6406977
 130.4033709  96.8139916  68.8475653 120.4338932 100.1635410  61.8985800
 120.3175190  99.4880313  62.5666885 120.5441192  99.6767784  61.0817953
 122.7770473  99.6245557  65.6032490 122.4128680  99.0976178  66.3145411
 123.6337589  99.2344026  65.4298975 128.6819774  90.9139890  72.8663756
 128.3503098  91.7835301  72.6424971 128.0865387  90.5976174  73.5457786
 122.4175960  94.6535457  60.5993838 122.5850362  95.5215693  60.9664309
 122.2273129  94.8162739  59.6755127 125.1751293 103.1152436  72.2659668
 124.8752016 104.0177475  72.1575476 124.8302353 102.8484619  73.1180821
 128.5748437  95.6334976  69.9457106 127.6665314  95.5650384  69.6515867
 128.5236033  96.1106921  70.7738931 122.3965181  97.1093114  61.5840505
 122.2764806  97.5550165  62.4225985 121.7017769  97.4578432  61.0254043
 120.1572073 109.8796756  65.2330636 120.0796103 110.8304581  65.3119117
 119.5533717 109.5342629  65.8905562 122.6489303  97.0524621  77.8892003
 121.8722637  97.6118542  77.8794868 123.2879866  97.5381404  78.4106873
 130.4410083  93.8351414  71.7234980 129.7984464  94.1283947  71.0774774
 129.9365012  93.7204335  72.5288176 128.0950247  97.5814587  62.4120839
 129.0068103  97.8141974  62.2368536 127.5859894  98.1651632  61.8495918
 126.3791015 102.0039215  76.0482131 126.7874371 101.5621626  75.3036764
 125.6568276 101.4291843  76.3016324 122.7322085  96.9411822  73.4215688
 123.5783280  97.3651236  73.5650337 122.6720722  96.2845446  74.1154252
 126.7019829 102.5640406  69.8034420 126.0728692 102.7286120  69.1010488
 126.3145491 102.9782015  70.5745384 130.5809061 103.4994844  67.1578784
 129.8960099 103.8793745  66.6075817 130.6652911 104.1090170  67.8910732
 125.8821530  94.6016190  75.0796862 125.6382462  95.3558251  74.5431138
 126.1581461  94.9801538  75.9144109 127.8359993 101.1454803  73.7574128
 128.0476888 101.7886563  73.0808509 127.7889741 100.3117119  73.2896058
 125.4386222  93.7572623  70.6610700 124.5770701  94.0553877  70.9527437
 125.4648656  93.9743022  69.7291732 122.2547791 102.3014814  67.0684505
 122.7186137 102.5802517  66.2789128 121.9904589 101.3998259  66.8857596
 121.1916677  98.4237966  63.8774071 121.8940721  98.8759010  64.3447997
 120.8597306  97.7821785  64.5053964 114.9342011  96.6821519  69.1791204
 114.1441065  96.9379048  68.7031315 115.4253259  97.4969857  69.2843245
 128.9505821 104.0226758  71.9296485 129.7723264 103.6206946  71.6479167
 128.9468224 103.9194992  72.8812601 116.8856757  97.0466098  66.1374681
 116.0887920  97.1584793  66.6558177 116.6582349  97.3852751  65.2715571
 137.0411814 100.3665507  68.2781456 136.2875522  99.7972905  68.1225461
 137.1759355 100.3328171  69.2252091 122.4310442 105.2378909  63.9536176
 122.2956117 106.0830445  64.3821024 122.9720254 105.4398187  63.1902110
 118.9177781  91.3170489  80.6150531 118.5244727  90.7636687  81.2898175
 119.7343922  91.6281067  81.0057049 115.8839839 102.7554347  64.5264101
 116.3964360 103.5497597  64.6769666 116.5362552 102.0580638  64.4597702
 121.8345742  92.7328368  78.2070788 122.5755456  93.3335521  78.1275250
 122.0663665  91.9906006  77.6488830 124.0578918 105.8602476  78.0836518
 123.6142772 105.0738854  77.7657422 124.7196132 106.0481626  77.4180409
 126.1560156 106.1405275  76.1117919 126.1378632 106.9614156  75.6198188
 127.0780076 106.0159351  76.3368060 122.6133210 103.6549405  76.9541428
 123.1461547 102.8937693  76.7240736 122.0847292 103.3623057  77.6965582
 125.7802905  88.7609471  72.4835069 125.4367175  89.6511113  72.4074180
 126.1481868  88.5711129  71.6204654 113.8488756 101.0843001  65.3023671
 114.6863978 101.4940010  65.0857379 114.0267024 100.1442444  65.2723865
 125.7453188  98.7518082  60.9907504 125.2299812  99.5222687  61.2295892
 125.4730497  98.0783218  61.6140566 123.3300299  93.5967783  66.0492743
 122.4741896  93.2074633  65.8698381 123.7427251  93.6759744  65.1892528
 121.1042332  91.2152856  69.4550484 121.9695328  91.0195664  69.0956374
 121.1719841  90.9863208  70.3819841 130.7187462 101.5050437  62.9260678
 129.9416905 101.1661596  62.4815840 131.3978943 101.5103060  62.2515643
 125.5339491  96.6245174  62.8167286 125.2289627  96.9391323  63.6677429
 126.4869933  96.7026594  62.8594619 123.9785923 102.7835397  64.4660240
 123.4507285 102.0488157  64.1533477 123.4773426 103.5610074  64.2200208
 128.9578769 100.9784418  69.5827286 128.3002444 101.6683679  69.6707414
 129.7619168 101.3680850  69.9261272 118.7104651  93.4455064  66.8266851
 119.2848403  93.2230245  66.0940044 119.2975633  93.5143758  67.5795452
 127.7684228  99.3328791  67.6331228 128.2816110  99.9658782  68.1352937
 128.4185452  98.7329986  67.2674588 119.0374238  95.4759525  60.8462736
 118.2011550  95.8134211  61.1672011 118.8979008  95.3408505  59.9089873
 122.1238523 100.6015608  57.4695213 121.2165585 100.3704861  57.6686362
 122.6209555  99.8053227  57.6569194 125.0306602 109.3113115  60.3891899
 124.3568301 109.6144812  60.9976857 125.4172424 110.1142195  60.0397356
 124.2465059  96.8078246  69.8789568 123.3287620  97.0293193  69.7211256
 124.6625202  96.8824557  69.0201275 125.0300107  98.2069662  65.0092248
 125.7771926  98.7191059  64.6999370 125.2991696  97.8853715  65.8696642
 123.3026757 100.7028203  61.9919203 122.3937976 100.4187235  62.0891672
 123.3321841 101.1227281  61.1322510 128.5346024 104.3134792  65.7610370
 128.0808351 103.4725702  65.8175561 127.9039991 104.9496190  66.0985150
 127.4778944  95.2426778  66.9911038 126.7401701  94.7304164  67.3221280
 127.7305717  94.8027160  66.1794315 126.9778963 106.1511289  66.6960188
 127.2701938 106.7116346  65.9772554 127.4877584 106.4439850  67.4513347
 127.5790571  88.0203030  67.5852807 127.8849448  87.1600394  67.2978722
 128.3043176  88.6120650  67.3851801 113.8714927  98.4233717  65.9734405
 113.6739327  97.8303077  65.2485471 113.3161591  98.1185927  66.6910344
 121.8511651  98.3156823  68.0928998 121.9060261  97.3630660  68.0171475
 121.0402853  98.4716262  68.5770296 123.0002845 102.2436946  59.3307281
 122.5622275 101.5272805  58.8712919 123.7413285 102.4713061  58.7692373
 119.7904011  96.9333883  65.8519377 118.9771876  97.2328053  66.2584569
 120.2863005  96.5389572  66.5693859 125.3878222  97.3975707  74.6834271
 125.7427610  97.6247181  75.5428737 126.0350354  97.7294084  74.0611526
 131.1175959 100.5194143  65.3883600 130.9793858 100.7095739  64.4604789
 130.7612178 101.2813526  65.8451651 119.2818086  94.5052238  71.4680612
 119.9217465  94.3640998  70.7703575 118.4495616  94.2186752  71.0919214
 131.1445339 102.5870670  70.3994871 131.5781846 102.4945959  71.2477925
 131.8576920 102.5628171  69.7614887 124.8773234 106.1872764  71.9327972
 124.9310256 106.7563701  72.7005688 124.0088015 106.3574649  71.5682009
 116.3661153  97.9497751  63.6575357 115.4358741  97.8882206  63.8745319
 116.4618625  97.4273703  62.8611998 116.2846702  94.4752563  66.2453599
 116.5453519  95.3897897  66.1362759 117.1063874  94.0077006  66.3950211
 117.7571627  95.8890321  73.4152423 118.4294681  95.6807683  72.7665072
 116.9301414  95.6912407  72.9757655 132.0060889 102.6294371  72.9327757
 132.1996779 103.5340181  73.1787032 131.9061507 102.1701790  73.7666342
 123.6597199  92.5152261  75.4318084 123.0125114  93.2142211  75.3382560
 124.4298215  92.9488405  75.7994332 127.0675997 102.7801114  78.5068637
 126.9161504 102.5511665  77.5898721 127.0580677 103.7371715  78.5199982
 123.8361334 100.3533026  73.4914904 124.7653394 100.5044186  73.3183871
 123.4152364 100.4417047  72.6363550 123.2297817 109.4792787  62.6038978
 123.4049573 109.0080830  63.4184601 122.5430605 110.1058553  62.8320239
 124.1854881 103.7565294  68.6502279 123.8504713 103.7166063  69.5459929
 123.6858826 103.0910009  68.1772689 127.1214072 101.1021328  58.9239339
 126.5043243 100.3768156  58.8272392 126.6530561 101.8630688  58.5806413
 120.7881425  98.8752883  73.6638540 121.4981044  98.2346075  73.6225158
 120.7450733  99.1265778  74.5864721 128.7768204 105.8120236  76.5845119
 128.7180750 105.1279456  75.9175702 129.1787722 106.5539226  76.1325745
 119.5010359  95.8618101  75.4834179 118.9647716  95.4108839  76.1355776
 118.9127068  95.9964010  74.7404644 117.7958903 112.6282150  69.3778838
 118.0355501 113.2600674  70.0557857 116.9528099 112.2770190  69.6644197
 118.9112618  95.3206752  58.0460643 118.0342084  95.1995553  57.6822890
 119.3870371  94.5292830  57.7939532 128.7785611 103.7759820  74.8159099
 127.8912390 103.4385742  74.9385498 129.3484162 103.0442851  75.0527864
 122.0976544 107.6733043  65.2923164 121.3144066 108.2154723  65.3861388
 122.7969289 108.1907022  65.6917405 125.4073194  93.4827672  67.9357369
 125.9041894  92.7297634  67.6158439 124.6360176  93.5191989  67.3700578
 133.2602952  99.1868038  69.5775661 133.2492828 100.0692753  69.2069594
 132.3920331  98.8339588  69.3830198 124.7685448 108.3348107  73.9378501
 125.4813420 108.9695571  73.8654402 124.2775477 108.4311973  73.1218503
 126.4902975 102.2399359  65.5095792 125.5559254 102.3600822  65.3400497
 126.6679643 101.3371826  65.2455802 121.9908163  95.6245055  67.6629054
 121.6205951  95.0716095  68.3509959 122.4867255  95.0203188  67.1104054
 129.8775526  98.0816678  66.0445827 130.3435979  98.9144670  65.9706129
 130.3283027  97.6161660  66.7491085 127.9451757 104.4260500  63.0431979
 128.2211601 104.3117094  63.9525853 127.0756256 104.0277985  63.0044152
 127.8492189  90.4497265  70.0836728 126.9355269  90.6801492  70.2518935
 128.2785291  90.5335710  70.9350760 127.6198648  98.6387157  72.5836622
 126.9670098  98.8863065  71.9289075 127.9979027  97.8251296  72.2499099
 124.5805821 108.6746851  66.6864792 124.7628216 107.8568507  67.1492545
 125.4038807 108.8914543  66.2489682 124.9147987 107.6015036  63.9479841
 125.4435753 107.0907490  63.3350003 125.1776207 107.2857566  64.8125374
 123.6686221  99.3806968  79.0702659 122.9926858  99.2801098  79.7405034
 124.4913854  99.2246182  79.5338656 122.4109003 110.6873896  73.3060275
 122.9627311 110.8505517  74.0709360 122.7515197 111.2778334  72.6340300
 127.2619878 105.5135153  79.1608929 127.8059782 106.1265112  78.6663884
 126.6806723 106.0714732  79.6775942 113.6391312  96.9148607  63.4873549
 113.9344753  96.0059286  63.4340602 112.7379348  96.8936347  63.1654551
 125.5477391 108.6355871  70.2923957 125.4228530 107.8345611  69.7834903
 126.2056482 109.1302065  69.8037927 117.1685559  94.9904604  69.4701097
 116.4472145  95.6040572  69.3308571 117.9578815  95.5262369  69.3917743
 127.6112299 106.4364892  71.9203507 126.6642635 106.3170243  71.8481834
 127.9595072 105.5487390  72.0029769 119.9711872  92.3259030  75.7441749
 120.4946274  92.5721327  76.5068058 119.7524206  93.1579065  75.3244886
 124.6158732 106.2317608  68.1207859 124.4683695 105.3034315  68.3015430
 125.4412226 106.2537698  67.6364935 118.4820977  94.8835675  63.9788352
 118.8217049  95.4121596  63.2566960 118.9293097  95.2216081  64.7546918
 128.2192854 107.0546167  69.2072732 129.1439402 106.8489028  69.0697183
 128.0508158 106.8062568  70.1162074 121.1764418  93.2672726  73.4291420
 120.8361238  92.4680539  73.8312100 120.4703424  93.5674436  72.8568253
 120.4689124  93.3810296  62.1781644 121.1897486  93.7591549  61.6745361
 119.8454428  94.0999173  62.2816622 124.6120247  94.0855445  63.1139977
 124.8283861  94.9680083  62.8128805 124.1314314  93.6941659  62.3845619
 119.3519468  97.0441159  69.6910721 119.2064049  97.3581462  70.5835003
 118.8744672  97.6626059  69.1381620 121.2115851  94.0343707  69.7391611
 121.1977420  93.1384800  69.4023909 121.9288279  94.0414370  70.3729897
 123.0641982  94.4681047  71.7844738 122.8059760  95.3898117  71.7829069
 122.5327022  94.0711481  72.4745202 128.0088170 107.5731834  64.5634824
 128.1825048 107.0078256  63.8108676 128.5017062 108.3732729  64.3814314
 120.6152747  92.9158087  65.0079181 120.7368658  91.9874733  65.2070068
 120.3254789  92.9296773  64.0957496 133.8627562 100.3368257  66.1825123
 134.3058708  99.5875582  65.7844247 132.9854072 100.3278393  65.7998855
 128.9963343 106.8898598  61.6631722 129.6914248 107.5105291  61.8819037
 129.3386493 106.0393950  61.9384100 130.8954766 104.3398304  63.1919053
 131.4206090 104.6785577  62.4668373 130.8077119 103.4045319  63.0082187
 122.5574815 108.2532378  75.3208929 122.8661941 108.0081524  76.1931629
 123.3550297 108.4579016  74.8327800 122.5795427 110.4070287  67.5514306
 122.1400417 109.9146666  68.2447163 123.3303544 109.8643255  67.3106381
 120.0993826  94.4290084  79.2169114 120.1481982  95.3052207  78.8346883
 120.6416341  93.8867477  78.6440757 130.5848672 104.9731208  78.4970251
 129.7944216 104.9555346  77.9574750 130.3482027 105.5119501  79.2519287
 130.7046547 101.8223674  75.8102979 130.7544552 101.6573681  76.7518502
 130.5960471 100.9550933  75.4200860 119.5882806 104.5012220  63.0995068
 119.7370926 105.1847684  62.4461741 120.3949249 104.4817310  63.6144524
 127.9950310  97.8054602  77.1262286 128.8960172  97.6661067  76.8346284
 128.0698284  97.9709057  78.0660463 122.3293115  95.1821457  75.9715472
 121.4596424  95.4755023  75.6998061 122.5652595  95.7661902  76.6922736
 132.2064744 104.2420615  76.0545001 131.9149552 104.6050596  76.8908462
 131.5936875 103.5287624  75.8758333 133.4060426 101.8073495  68.5747571
 134.2407318 102.2463299  68.7385131 133.5419555 101.3312148  67.7555817
 130.4551932  99.3653230  74.5225059 130.9306054  99.5580876  73.7143910
 129.5317498  99.4212416  74.2768442 117.3435439 100.5277397  64.1056137
 117.0981481  99.6239727  64.3036347 117.5131353 100.5294548  63.1635615
 125.0332149  91.4001074  73.4880893 125.5514093  92.1362101  73.1627381
 124.6787282  91.7065067  74.3227652 116.6131086  96.2605755  61.6042298
 115.9200331  96.3350110  60.9482334 116.3682838  95.4966098  62.1263815
 123.0878211 106.9960350  60.5706816 122.5152178 107.6150537  60.1177287
 123.6611005 107.5459712  61.1046737 129.1553601  96.2418990  72.7553364
 130.1071024  96.3417088  72.7765588 128.9857052  95.4497259  73.2651449
 127.1767981  93.3274573  72.9412765 126.5817913  93.6079586  72.2459254
 126.8917677  93.8168474  73.7129506 126.3075471 107.2797500  61.7015398
 127.2406144 107.2143062  61.9048273 126.2198684 108.1153767  61.2429930
 128.9363488 106.5963371  58.6619345 128.8577119 106.2623234  59.5555103
 129.7573155 107.0885138  58.6610818 131.6341679  99.4625110  71.8695664
 131.6017999  98.5241111  72.0555348 132.2442303  99.5409147  71.1361489
 123.4725010  98.3321163  57.9122868 124.4184115  98.2027371  57.9811286
 123.0939255  97.5935825  58.3892296 131.7836168  96.2536153  71.9153947
 131.2675216  95.4694610  71.7283876 132.6676116  95.9254870  72.0800467
 129.4446894  89.9977169  67.8749760 129.2471716  89.6892257  68.7593092
 130.0546600  90.7238808  68.0047690 135.5333526  98.6648979  71.6076152
 134.8066690  98.5304944  70.9992644 135.1180813  98.9725808  72.4132870
 123.3563702 102.3838909  79.3723525 124.2766712 102.5617508  79.5663572
 123.3213285 101.4394954  79.2203224 121.6567927  96.2571139  57.8477753
 120.7499382  95.9604252  57.9240467 121.9343908  95.9600957  56.9812039
 112.5745867  97.5777503  68.2976800 112.2548652  96.7242811  68.0051174
 112.0279296  97.7926081  69.0534767 121.2253640  95.8673149  81.4049055
 121.1250367  96.8167506  81.3361146 121.0075182  95.5391388  80.5325125
 120.4266712  93.1158074  57.9889732 121.2885876  93.4412973  58.2485550
 120.6117056  92.3289570  57.4762798 128.5799348  91.9886601  65.1324955
 127.9998017  92.6471405  64.7503008 128.3135281  91.1663945  64.7212373
 127.0302915  91.3891659  67.3346276 127.5302693  91.5008193  66.5260595
 127.6738522  91.0852711  67.9747084 121.0884910  99.2970288  80.2214117
 120.6051992 100.0970648  80.4278006 121.1745849  99.3078233  79.2681561
 127.3624226  94.1486691  64.1881304 126.4750081  94.4336342  63.9701498
 127.7778215  93.9880455  63.3408581 130.7138762  94.1733212  67.9035643
 131.4899152  94.6629665  68.1760260 129.9886896  94.5991266  68.3607512
 133.1511321  94.8860831  68.9609584 133.7455812  94.6456567  68.2502892
 133.2237905  94.1667962  69.5883120 126.5067440 103.9131366  58.2829324
 127.2103290 104.1181368  58.8986979 125.7830088 104.4808128  58.5478407
 127.3365250  99.6641227  64.4031594 127.2800451 100.1209779  63.5639226
 127.8893592  98.9031912  64.2254437 131.1470056  95.4530959  65.2281713
 130.8906990  95.0527595  66.0589921 130.5222924  96.1674753  65.1031853
 135.4582394  98.1927032  67.7353005 134.8981952  98.2620222  68.5084567
 134.8525897  98.0168017  67.0152501 128.4154137 104.3513895  60.3327784
 129.2499741 103.9195094  60.1505259 128.2538480 104.1795909  61.2604678
 128.0700029 100.8546008  61.6984123 128.0148833 100.6890280  60.7572567
 127.4446084 101.5622041  61.8546313 125.3845936 103.1594920  81.0237686
 126.2537096 103.3335573  80.6624321 124.9052688 103.9789337  80.9013415
 117.1990035  93.2381690  79.6220559 118.0621497  92.8818495  79.8323884
 116.6255446  92.8995585  80.3095964 133.8528118 114.8210974  70.3644485
 133.5146630 114.7052039  69.4765020 134.7217887 114.4202139  70.3445491
 129.7114934 116.6746451  66.3541376 129.1479799 116.5836388  65.5857664
 129.5967329 115.8546355  66.8343869 134.3347901 115.9745826  76.3230691
 134.3236542 115.5798624  75.4511194 134.4968541 115.2411899  76.9164462
 127.2579366 118.1697642  69.1925597 128.0500658 117.8288467  68.7771896
 127.4976016 118.2792617  70.1127750 129.2170120 117.4306556  62.0642975
 129.9900996 116.8835543  61.9255851 129.5695519 118.2950805  62.2757437
 131.0555163 118.7582938  75.2709875 130.7645029 119.6628569  75.1556541
 131.6912147 118.7999465  75.9853944 131.9811369 116.1359786  71.8611234
 132.5774942 115.9115809  71.1468197 132.0386341 115.3944532  72.4636682
 131.5536398 113.5899222  59.6961425 131.8061918 113.0680743  58.9344888
 130.6160957 113.4265367  59.7988109 136.5979681 112.5935000  67.5036169
 137.3842770 112.1754423  67.1526586 136.8618385 113.4981092  67.6717817
 131.2732687 115.4927328  61.8985800 131.1568945 114.8172231  62.5666885
 131.3834946 115.0059702  61.0817953 133.6164227 114.9537475  65.6032490
 133.2522435 114.4268096  66.3145411 134.4731343 114.5635944  65.4298975
 133.2569714 109.9827374  60.5993838 133.4244117 110.8507611  60.9664309
 133.0666884 110.1454656  59.6755127 129.4657529 114.8958150  68.2996373
 128.5408026 114.7634364  68.5074065 129.7141942 115.6752369  68.7966315
 133.2358935 112.4385032  61.5840505 133.1158561 112.8842083  62.4225985
 132.5411524 112.7870350  61.0254043 126.8266340 114.5391424  69.1340162
 126.9558721 114.7925903  70.0479574 126.1463791 115.1319132  68.8144817
 133.4883057 112.3816539  77.8892003 132.7116391 112.9410459  77.8794868
 134.1273620 112.8673322  78.4106873 131.7429430 115.1901993  77.4509970
 132.4844114 115.7287036  77.1744794 131.0366415 115.8168281  77.6081522
 137.2184769 117.3331133  76.0482131 137.6268125 116.8913544  75.3036764
 136.4962031 116.7583761  76.3016324 133.5715839 112.2703740  73.4215688
 134.4177034 112.6943153  73.5650337 133.5114477 111.6137364  74.1154252
 136.7215285 109.9308108  75.0796862 136.4776216 110.6850169  74.5431138
 136.9975215 110.3093456  75.9144109 136.2779976 109.0864541  70.6610700
 135.4164455 109.3845795  70.9527437 136.3042411 109.3034940  69.7291732
 133.0941546 117.6306732  67.0684505 133.5579891 117.9094435  66.2789128
 132.8298344 116.7290176  66.8857596 129.9865627 117.1778213  70.0064269
 130.5566984 117.6065482  69.3681753 130.5773739 116.8960798  70.7048454
 132.0310432 113.7529884  63.8774071 132.7334475 114.2050928  64.3447997
 131.6991060 113.1113703  64.5053964 130.4790793 112.3441641  78.2525280
 129.8489454 113.0257922  78.4860677 130.3726881 112.2324722  77.3078418
 125.7735766 112.0113437  69.1791204 124.9834820 112.2670965  68.7031315
 126.2647013 112.8261775  69.2843245 127.7250511 112.3758016  66.1374681
 126.9281674 112.4876710  66.6558177 127.4976103 112.7144668  65.2715571
 133.5556179 118.9002719  74.0857195 133.6200611 119.3623126  74.9215367
 132.8467103 118.2700084  74.2139505 124.0573469 112.2643927  71.6106195
 124.3081507 113.1490937  71.8763771 124.5933017 112.0848529  70.8381287
 129.7571536 106.6462407  80.6150531 129.3638482 106.0928605  81.2898175
 130.5737676 106.9572985  81.0057049 126.7233594 118.0846265  64.5264101
 127.2358114 118.8789515  64.6769666 127.3756307 117.3872555  64.4597702
 128.5328478 121.2012021  66.6086854 128.7095107 122.1229986  66.4207838
 129.3285312 120.8870440  67.0381234 132.6739497 108.0620286  78.2070788
 133.4149210 108.6627439  78.1275250 132.9057420 107.3197923  77.6488830
 127.8180835 113.2476653  76.4849017 127.7034350 112.3461910  76.7856116
 126.9625353 113.4940350  76.1333834 129.6559794 122.7190195  72.6097196
 130.2067219 122.5907258  71.8374190 128.8171270 123.0185084  72.2592089
 133.4526965 118.9841323  76.9541428 133.9855302 118.2229611  76.7240736
 132.9241046 118.6914974  77.6965582 136.6196660 104.0901389  72.4835069
 136.2760929 104.9803030  72.4074180 136.9875623 103.9003046  71.6204654
 124.6882511 116.4134919  65.3023671 125.5257733 116.8231927  65.0857379
 124.8660778 115.4734361  65.2723865 136.5846943 114.0810000  60.9907504
 136.0693566 114.8514604  61.2295892 136.3124251 113.4075136  61.6140566
 134.1694054 108.9259700  66.0492743 133.3135650 108.5366551  65.8698381
 134.5821005 109.0051661  65.1892528 135.6993200 106.4606044  70.4484303
 135.1957996 106.4236179  69.6352108 135.9923807 107.3698786  70.5080959
 131.9436086 106.5444773  69.4550484 132.8089083 106.3487582  69.0956374
 132.0113595 106.3155125  70.3819841 136.3733246 111.9537092  62.8167286
 136.0683381 112.2683241  63.6677429 137.3263688 112.0318512  62.8594619
 134.8179678 118.1127315  64.4660240 134.2901039 117.3780075  64.1533477
 134.3167180 118.8901991  64.2200208 129.5498405 108.7746981  66.8266851
 130.1242157 108.5522163  66.0940044 130.1369388 108.8435676  67.5795452
 129.8767992 110.8051442  60.8462736 129.0405305 111.1426129  61.1672011
 129.7372762 110.6700422  59.9089873 131.8521073 105.6488230  65.5541920
 131.1985485 105.3337247  64.9298535 131.8101547 105.0263971  66.2801743
 132.9632278 115.9307525  57.4695213 132.0559340 115.6996779  57.6686362
 133.4603310 115.1345145  57.6569194 135.0858813 112.1370164  69.8789568
 134.1681375 112.3585111  69.7211256 135.5018957 112.2116474  69.0201275
 135.8693861 113.5361579  65.0092248 136.6165680 114.0482977  64.6999370
 136.1385451 113.2145632  65.8696642 134.1420511 116.0320120  61.9919203
 133.2331731 115.7479153  62.0891672 134.1715595 116.4519199  61.1322510
 124.7108682 113.7525634  65.9734405 124.5133081 113.1594995  65.2485471
 124.1555346 113.4477845  66.6910344 132.6905405 113.6448741  68.0928998
 132.7454015 112.6922577  68.0171475 131.8796607 113.8008180  68.5770296
 133.8396599 117.5728864  59.3307281 133.4016029 116.8564723  58.8712919
 134.5807040 117.8004979  58.7692373 130.6297765 112.2625801  65.8519377
 129.8165631 112.5619971  66.2584569 131.1256759 111.8681489  66.5693859
 136.2271977 112.7267625  74.6834271 136.5821365 112.9539098  75.5428737
 136.8744108 113.0586002  74.0611526 130.1211840 109.8344156  71.4680612
 130.7611219 109.6932915  70.7703575 129.2889371 109.5478669  71.0919214
 130.8972144 119.1346587  67.5815604 131.6912742 118.6396907  67.3798179
 130.1863836 118.6064450  67.2183310 127.2054907 113.2789668  63.6575357
 126.2752495 113.2174124  63.8745319 127.3012379 112.7565621  62.8611998
 127.1240456 109.8044481  66.2453599 127.3847274 110.7189814  66.1362759
 127.9457629 109.3368924  66.3950211 128.5965382 111.2182238  73.4152423
 129.2688435 111.0099600  72.7665072 127.7695168 111.0204324  72.9757655
 134.4990954 107.8444179  75.4318084 133.8518869 108.5434129  75.3382560
 135.2691969 108.2780323  75.7994332 134.6755088 115.6824944  73.4914904
 135.6047148 115.8336104  73.3183871 134.2546118 115.7708965  72.6363550
 133.4743420 119.7075609  71.2613441 133.3354506 119.3394393  72.1339380
 132.6858016 120.2223248  71.0897399 135.0248635 119.0857211  68.6502279
 134.6898468 119.0457981  69.5459929 134.5252581 118.4201927  68.1772689
 128.9992879 114.4924841  74.1754860 128.8612677 113.7605080  74.7766399
 129.9097802 114.4033741  73.8939048 131.6275180 114.2044801  73.6638540
 132.3374798 113.5637993  73.6225158 131.5844488 114.4557695  74.5864721
 130.3404114 111.1910018  75.4834179 129.8041471 110.7400757  76.1355776
 129.7520822 111.3255927  74.7404644 129.7506373 110.6498670  58.0460643
 128.8735839 110.5287471  57.6822890 130.2264126 109.8584748  57.7939532
 121.2708513 115.4375830  68.1402150 121.9579553 115.1237560  67.5523166
 121.1156641 116.3417194  67.8669402 126.0743235 110.3266026  72.5687174
 125.9901424 109.7191696  71.8337584 125.2525941 110.8175044  72.5696670
 136.2466949 108.8119590  67.9357369 136.7435648 108.0589552  67.6158439
 135.4753930 108.8483906  67.3700578 137.3296729 117.5691277  65.5095792
 136.3953008 117.6892739  65.3400497 137.5073398 116.6663744  65.2455802
 132.8301917 110.9536973  67.6629054 132.4599705 110.4008013  68.3509959
 133.3261010 110.3495106  67.1104054 134.5079975 114.7098886  79.0702659
 133.8320612 114.6093016  79.7405034 135.3307609 114.5538100  79.5338656
 126.2558834 120.9470823  71.6915174 126.8412271 120.2014511  71.8243078
 126.0583673 121.2574779  72.5751838 120.8476489 113.5176423  70.4119617
 120.8860588 112.9840014  71.2056735 120.3416782 112.9911628  69.7930595
 128.2267251 108.3640963  73.9082160 128.2908578 109.2255794  73.4959557
 128.1634371 107.7514965  73.1754518 127.7019524 110.4364096  77.5555194
 128.3291563 110.0541173  78.1692718 126.8447443 110.2178298  77.9210886
 124.4785066 112.2440525  63.4873549 124.7738508 111.3351203  63.4340602
 123.5773102 112.2228265  63.1654551 128.0079313 110.3196522  69.4701097
 127.2865899 110.9332489  69.3308571 128.7972569 110.8554286  69.3917743
 130.8105627 107.6550948  75.7441749 131.3340029 107.9013245  76.5068058
 130.5917960 108.4870983  75.3244886 126.2072908 109.9254623  63.6112874
 125.8785614 109.0452002  63.4287980 126.5612279 109.8702291  64.4989263
 129.3214731 110.2127593  63.9788352 129.6610804 110.7413514  63.2566960
 129.7686852 110.5507999  64.7546918 132.0158172 108.5964643  73.4291420
 131.6754992 107.7972456  73.8312100 131.3097178 108.8966354  72.8568253
 132.6674644 105.6813956  71.8818743 133.4900713 105.2074434  71.7597633
 132.9112707 106.4604439  72.3817429 131.3082878 108.7102214  62.1781644
 132.0291241 109.0883467  61.6745361 130.6848182 109.4291091  62.2816622
 135.4514001 109.4147363  63.1139977 135.6677616 110.2972001  62.8128805
 134.9708068 109.0233577  62.3845619 130.1913223 112.3733076  69.6910721
 130.0457803 112.6873379  70.5835003 129.7138426 112.9917977  69.1381620
 132.0509605 109.3635624  69.7391611 132.0371174 108.4676718  69.4023909
 132.7682034 109.3706288  70.3729897 133.9035736 109.7972965  71.7844738
 133.6453514 110.7190035  71.7829069 133.3720777 109.4003399  72.4745202
 124.6658885 114.9138421  72.6298382 124.1212353 115.6898229  72.7618657
 125.5438235 115.2609225  72.4717504 131.4546501 108.2450005  65.0079181
 131.5762413 107.3166651  65.2070068 131.1648544 108.2588691  64.0957496
 134.3237692 105.9304915  68.1445901 134.3459389 105.9944248  67.1897880
 134.7405751 105.0909424  68.3386407 125.4524907 114.0408317  75.5228539
 124.7106643 114.1890952  76.1093170 125.1317651 114.3016583  74.6595289
 125.8981520 121.9273746  67.5538934 126.7239540 121.6277518  67.1737578
 125.5475572 121.1581368  68.0028723 130.8663053 121.2800214  69.6236608
 130.2443063 120.6170919  69.3238835 131.5367920 121.3061346  68.9410255
 124.0990125 119.8460072  68.5127868 123.2622034 119.4182247  68.3311869
 124.0713771 120.0392516  69.4498659 130.9387581 109.7582002  79.2169114
 130.9875736 110.6344125  78.8346883 131.4810095 109.2159395  78.6440757
 130.4276560 119.8304137  63.0995068 130.5764681 120.5139602  62.4461741
 131.2343004 119.8109227  63.6144524 133.1686869 110.5113374  75.9715472
 132.2990179 110.8046940  75.6998061 133.4046350 111.0953819  76.6922736
 128.1829193 115.8569315  64.1056137 127.9375235 114.9531645  64.3036347
 128.3525108 115.8586465  63.1635615 135.8725903 106.7292991  73.4880893
 136.3907847 107.4654018  73.1627381 135.5181036 107.0356985  74.3227652
 127.4524841 111.5897672  61.6042298 126.7594086 111.6642027  60.9482334
 127.2076593 110.8258016  62.1263815 136.1238497 103.1493274  69.0081789
 136.4040251 102.4816463  69.6342216 136.9089104 103.3422369  68.4956453
 134.3118764 113.6613080  57.9122868 135.2577869 113.5319289  57.9811286
 133.9333009 112.9227742  58.3892296 134.1957457 117.7130827  79.3723525
 135.1160466 117.8909426  79.5663572 134.1607040 116.7686872  79.2203224
 132.4961682 111.5863057  57.8477753 131.5893137 111.2896170  57.9240467
 132.7737663 111.2892875  56.9812039 123.4139622 112.9069420  68.2976800
 123.0942406 112.0534728  68.0051174 122.8673050 113.1217998  69.0534767
 127.1919529 115.6231861  72.0146306 127.4105539 116.5548969  72.0334340
 127.6045303 115.2639836  72.8001110 134.1123747 106.1299947  64.0021995
 133.3024476 105.7847032  64.3777241 134.8008164 105.8207490  64.5909606
 136.0414296 105.2077993  65.6246291 136.5945334 105.6273447  66.2836314
 136.2784382 104.2813742  65.6669247 132.0647395 111.1965067  81.4049055
 131.9644122 112.1459424  81.3361146 131.8468937 110.8683306  80.5325125
 131.2660466 108.4449992  57.9889732 132.1279630 108.7704890  58.2485550
 131.4510810 107.6581488  57.4762798 123.2827882 116.5272332  70.2669921
 122.5891353 116.1126285  69.7539876 124.0300873 116.5692868  69.6703340
 131.9278665 114.6262206  80.2214117 131.4445747 115.4262566  80.4278006
 132.0139604 114.6370151  79.2681561 125.1964624 116.4590586  68.1435936
 125.1735313 116.5578273  67.1917819 125.5065261 117.3055736  68.4653102
 127.8552002 118.5166741  72.2582551 128.8095256 118.4850683  72.1912482
 127.6564526 118.0557364  73.0732776 128.4451384 117.0867857  74.8253348
 129.2644273 117.5811935  74.8488185 128.7188192 116.1699825  74.7970916
 126.2102231 124.0586360  69.2752748 126.0756699 123.2986761  68.7090746
 125.7934293 124.7827260  68.8081537 123.6986299 111.4205990  75.5245545
 124.3445162 110.9104944  76.0132770 123.4903450 112.1574672  76.0988971
 132.2189909 105.6846035  61.2769441 132.2068579 106.6287875  61.4337712
 133.1113331 105.5016181  60.9828903 136.0342029 102.2788812  65.5315378
 135.2674424 101.7247298  65.6772061 136.4452734 102.3510681  66.3929530
 128.0383790 108.5673608  79.6220559 128.9015251 108.2110412  79.8323884
 127.4649200 108.2287502  80.3095964  55.1209547  -5.0892627  51.9575943
  55.0433577  -4.1384802  52.0364423  54.5171191  -5.4346755  52.6150869
  53.7803514  -7.5791106  59.3342503  54.3310939  -7.7074043  58.5619497
  52.9414990  -7.2796217  58.9837396  59.9944077  -5.6576269  47.1137205
  59.3205775  -5.3544572  47.7222163  60.3809899  -4.8547188  46.7642662
  58.1935292  -5.4896596  49.3284285  58.3687047  -5.9608553  50.1429907
  57.5068080  -4.8630830  49.5565545  52.7596377  -2.3407233  56.1024145
  52.9992975  -1.7088709  56.7803163  51.9165573  -2.6919193  56.3889504
  57.2724239  -6.5328111  58.5065649  57.1994410  -5.7273139  59.0184953
  56.8301632  -6.3336145  57.6813670  57.0614018  -7.2956341  52.0168470
  56.2781540  -6.7534661  52.1106695  57.7606764  -6.7782361  52.4162711
  59.7322922  -6.6341277  60.6623807  60.4450895  -5.9993812  60.5899709
  59.2412951  -6.5377411  59.8463809  50.3802554  -9.3510478  58.4160481
  50.9655991 -10.0966791  58.5488385  50.1827392  -9.0406522  59.2997145
  53.2341209  -6.3159231  53.4322923  52.5651584  -5.8313103  52.9486963
  53.0954079  -6.0690011  54.3466302  57.3746478  -4.2815488  60.0305582
  57.9264786  -4.1183866  60.7954667  57.7152671  -3.6911050  59.3585606
  57.5212289  -6.7157006  62.0454236  57.8299416  -6.9607859  62.9176936
  58.3187771  -6.5110367  61.5573106  57.5432901  -4.5619096  54.2759613
  57.1037891  -5.0542718  54.9692469  58.2941018  -5.1046129  54.0351688
  50.0225240  -8.3707555  54.2784241  50.8483260  -8.6703784  53.8982884
  49.6719292  -9.1399933  54.7274029  48.2233845 -10.4521229  55.2373174
  47.3865753 -10.8799055  55.0557175  48.1957491 -10.2588786  56.1743965
  50.3345951  -6.2394941  55.9998055  50.2000419  -6.9994540  55.4336053
  49.9178013  -5.5154041  55.5326844  53.4915077  -5.3425624  56.2116498
  53.3747461  -4.3980192  56.1095188  52.6707523  -5.6452062  56.6002297
  54.5169591  -4.6897362  59.4272426  55.4196838  -4.6573752  59.7438921
  54.2906961  -5.6196911  59.4418762  56.2723193  -5.9366376  56.0882505
  55.3218824  -5.9364514  55.9746877  56.5755679  -6.6833641  55.5718539
  72.0075886  -0.1005837  57.1528267  72.6454296  -0.2199090  56.4491607
  71.8896729   0.8475007  57.2116219  68.8165593  -0.1478409  57.0889792
  68.4784104  -0.2637344  56.2010327  69.6855361  -0.5487244  57.0690798
  64.6752408   1.7057067  53.0786683  64.1117274   1.6147004  52.3102971
  64.5604803   0.8856972  53.5589175  69.2985376   1.0056443  63.0475997
  69.2874016   0.6109241  62.1756501  69.4606015   0.2722515  63.6409769
  62.2216840   3.2008259  55.9170903  63.0138132   2.8599084  55.5017203
  62.4613491   3.3103234  56.8373057  70.2551967   5.3728035  48.3901148
  69.6039947   5.9582115  48.0035161  71.0496330   5.9034230  48.4496185
  64.1807594   2.4617172  48.7888282  64.9538470   1.9146159  48.6501158
  64.5332993   3.3261421  49.0002743  66.0192637   3.7893554  61.9955181
  65.7282503   4.6939185  61.8801848  66.6549621   3.8310082  62.7099251
  66.9448844   1.1670403  58.5856541  67.5412416   0.9426425  57.8713504
  67.0023815   0.4255148  59.1881989  66.5173872  -1.3790162  46.4206732
  66.7699393  -1.9008640  45.6590195  65.5798431  -1.5424016  46.5233416
  71.7327232   3.0618467  48.9270132  71.0973065   3.1353093  49.6391037
  71.4024639   3.6512066  48.2489211  66.2370161   0.5237944  48.6231107
  66.1206419  -0.1517152  49.2912191  66.3472421   0.0370318  47.8063260
  68.5801702  -0.0151909  52.3277796  68.2159909  -0.5421288  53.0390718
  69.4368818  -0.4053440  52.1544282  70.9782522   3.4754970  58.9904975
  70.6783245   4.3780009  58.8820782  70.6333581   3.2087153  59.8426128
  64.4295003  -0.0731233  55.0241679  63.5045500  -0.2055019  55.2319371
  64.6779417   0.7062986  55.5211622  68.1996410  -2.5304351  48.3085811
  68.0796035  -2.0847301  49.1471292  67.5048998  -2.1819034  47.7499350
  61.7903814  -0.4297960  55.8585469  61.9196196  -0.1763481  56.7724880
  61.1101266   0.1629748  55.5390124  65.9603302  10.2399290  51.9575943
  65.8827331  11.1907115  52.0364423  65.3564945   9.8945163  52.6150869
  68.4520532  -2.5872844  64.6137310  67.6753866  -2.0278924  64.6040174
  69.0911095  -2.1016061  65.1352180  66.7066904   0.2212609  64.1755277
  67.4481588   0.7597653  63.8990100  66.0003889   0.8478898  64.3326828
  72.1822243   2.3641750  62.7727438  72.5905599   1.9224160  62.0282070
  71.4599505   1.7894377  63.0261631  68.5353314  -2.6985644  60.1460995
  69.3814509  -2.2746230  60.2895644  68.4751951  -3.3552019  60.8399558
  72.5051058   2.9242940  56.5279727  71.8759921   3.0888654  55.8255795
  72.1176720   3.3384550  57.2990691  76.3840290   3.8597378  53.8824091
  75.6991328   4.2396279  53.3321124  76.4684139   4.4692705  54.6156039
  73.6391222   1.5057337  60.4819434  73.8508117   2.1489097  59.8053815
  73.5920970   0.6719654  60.0141364  68.0579020   2.6617348  53.7929812
  68.5217366   2.9405051  53.0034435  67.7935818   1.7600793  53.6102903
  64.9503101   2.2088830  56.7309575  65.5204458   2.6376098  56.0927060
  65.5411213   1.9271414  57.4293761  66.9947906  -1.2159499  50.6019377
  67.6971949  -0.7638456  51.0693304  66.6628535  -1.8575681  51.2299270
  65.4428268  -2.6247743  64.9770587  64.8126928  -1.9431462  65.2105983
  65.3364355  -2.7364661  64.0323725  60.7373240  -2.9575947  55.9036511
  59.9472294  -2.7018418  55.4276621  61.2284487  -2.1427609  56.0088551
  74.7537050   4.3829292  58.6541792  75.5754493   3.9809480  58.3724473
  74.7499452   4.2797527  59.6057907  62.6887985  -2.5931367  52.8619987
  61.8919149  -2.4812673  53.3803483  62.4613578  -2.2544715  51.9960878
  68.5193653   3.9313336  60.8102502  68.5838086   4.3933743  61.6460674
  67.8104577   3.3010701  60.9384812  59.0210943  -2.7045456  58.3351502
  59.2718981  -1.8198446  58.6009078  59.5570491  -2.8840855  57.5626593
  68.2341671   5.5981443  50.6781482  68.0987345   6.4432979  51.1066330
  68.7751483   5.8000721  49.9147416  61.6871068   3.1156881  51.2509408
  62.1995589   3.9100132  51.4014972  62.3393781   2.4183172  51.1843009
  63.4965953   6.2322638  53.3332161  63.6732581   7.1540602  53.1453145
  64.2922786   5.9181057  53.7626540  62.7818309  -1.7212731  63.2094324
  62.6671824  -2.6227473  63.5101423  61.9262827  -1.4749034  62.8579140
  69.8610147   6.2205010  64.8081825  69.4174001   5.4341388  64.4902729
  70.5227361   6.4084160  64.1425715  64.6197268   7.7500811  59.3342503
  65.1704693   7.6217875  58.5619497  63.7808744   8.0495700  58.9837396
  71.9591385   6.5007810  62.8363226  71.9409860   7.3216691  62.3443495
  72.8811305   6.3761885  63.0613367  68.4164439   4.0151939  63.6786734
  68.9492776   3.2540227  63.4486042  67.8878520   3.7225591  64.4210889
  59.6519985   1.4445536  52.0268978  60.4895207   1.8542544  51.8102686
  59.8298253   0.5044978  51.9969172  71.5484417  -0.8879384  47.7152811
  71.0331040  -0.1174779  47.9541198  71.2761725  -1.5614248  48.3385872
  76.5218691   1.8652971  49.6505985  75.7448134   1.5264130  49.2061147
  77.2010172   1.8705594  48.9760950  69.7817152   3.1437932  51.1905546
  69.2538514   2.4090691  50.8778784  69.2804655   3.9212608  50.9445515
  74.7609998   1.3386952  56.3072592  74.1033672   2.0286214  56.3952721
  75.5650397   1.7283384  56.6506579  73.5715457  -0.3068675  54.3576534
  74.0847339   0.3261317  54.8598244  74.2216681  -0.9067480  53.9919894
  64.8405467  -4.1637941  47.5708043  64.0042779  -3.8263255  47.8917318
  64.7010236  -4.2988961  46.6335180  67.9269752   0.9618142  44.1940519
  67.0196814   0.7307395  44.3931668  68.4240784   0.1655761  44.3814501
  70.8337831   9.6715649  47.1137205  70.1599530   9.9747346  47.7222163
  71.2203653  10.4744729  46.7642662  70.0496288  -2.8319220  56.6034875
  69.1318849  -2.6104273  56.4456563  70.4656431  -2.7572909  55.7446582
  70.8331335  -1.4327804  51.7337555  71.5803154  -0.9206407  51.4244677
  71.1022925  -1.7543751  52.5941949  69.1057986   1.0630737  48.7164509
  68.1969205   0.7789770  48.8136979  69.1353069   1.4829815  47.8567816
  74.3377253   4.6737326  52.4855677  73.8839580   3.8328236  52.5420867
  73.7071220   5.3098725  52.8230457  72.7810192   6.5113823  53.4205495
  73.0733167   7.0718880  52.7017861  73.2908813   6.8042384  54.1758654
  59.6746156  -1.2163749  52.6979712  59.4770556  -1.8094388  51.9730778
  59.1192820  -1.5211539  53.4155650  67.6542880  -1.3240643  54.8174305
  67.7091489  -2.2766806  54.7416781  66.8434082  -1.1681204  55.3015603
  68.8034073   2.6039480  46.0552588  68.3653503   1.8875339  45.5958225
  69.5444514   2.8315595  45.4937679  65.5935240  -2.7063583  52.5764684
  64.7803105  -2.4069412  52.9829876  66.0894234  -3.1007894  53.2939166
  67.7443817   7.2894174  54.5098948  67.7019996   7.5155020  53.5807480
  68.6606516   7.0557549  54.6584749  71.1909451  -2.2421758  61.4079577
  71.5458839  -2.0150285  62.2674043  71.8381582  -1.9103382  60.7856833
  76.9207188   0.8796677  52.1128906  76.7825087   1.0698273  51.1850096
  76.5643407   1.6416060  52.5696958  76.9476568   2.9473204  57.1240178
  77.3813074   2.8548494  57.9723232  77.6608148   2.9230705  56.4860194
  65.8609618   4.1657203  54.3060911  66.6550217   3.6707523  54.1043486
  65.1501311   3.6375066  53.9428617  70.6804463   6.5475299  58.6573279
  70.7341485   7.1166235  59.4250994  69.8119244   6.7177184  58.2927316
  62.1692382  -1.6899715  50.3820664  61.2389970  -1.7515260  50.5990626
  62.2649854  -2.2123762  49.5857305  62.0877931  -5.1644902  52.9698905
  62.3484748  -4.2499569  52.8608066  62.9095103  -5.6320460  53.1195518
  63.5602856  -3.7507145  60.1397730  64.2325909  -3.9589783  59.4910379
  62.7332643  -3.9485059  59.7002962  77.8092117   2.9896905  59.6573063
  78.0028007   3.8942716  59.9032338  77.7092735   2.5304324  60.4911648
  72.8707226   3.1403648  65.2313944  72.7192732   2.9114200  64.3144028
  72.8611905   4.0974249  65.2445289  69.6392562   0.7135561  60.2160210
  70.5684622   0.8646720  60.0429178  69.2183592   0.8019581  59.3608857
  68.4380894   4.7386225  57.9858748  68.2991980   4.3705009  58.8584686
  67.6495490   5.2533864  57.8142706  69.0329046   9.8395322  49.3284285
  69.2080802   9.3683365  50.1429907  68.3461834  10.4661088  49.5565545
  69.9886109   4.1167828  55.3747586  69.6535942   4.0768598  56.2705236
  69.4890055   3.4512544  54.9017996  63.9630353  -0.4764542  60.9000167
  63.8250151  -1.2084303  61.5011706  64.8735277  -0.5655642  60.6184355
  72.9245301   1.4623862  45.6484645  72.3074472   0.7370690  45.5517698
  72.4561789   2.2233222  45.3051720  66.5912654  -0.7644583  60.3883847
  67.3012273  -1.4051391  60.3470465  66.5481962  -0.5131688  61.3110027
  74.5799433   6.1722770  63.3090426  74.5211979   5.4881991  62.6421009
  74.9818951   6.9141760  62.8571052  65.3041588  -3.7779365  62.2079486
  64.7678945  -4.2288627  62.8601082  64.7158296  -3.6433456  61.4649950
  63.5990131  12.9884684  56.1024145  63.8386730  13.6203208  56.7803163
  62.7559328  12.6372724  56.3889504  64.7143847  -4.3190714  44.7705950
  63.8373313  -4.4401913  44.4068196  65.1901600  -5.1104635  44.5184838
  74.5816840   4.1362354  61.5404406  73.6943619   3.7988276  61.6630804
  75.1515391   3.4045386  61.7773171  56.2345987   0.4686446  54.8647457
  56.9217027   0.1548176  54.2768472  56.0794116   1.3727811  54.5914708
  61.0380709  -4.6423357  59.2932481  60.9538898  -5.2497688  58.5582891
  60.2163416  -4.1514339  59.2941977  68.1117993   8.7963807  58.5065649
  68.0388165   9.6018778  59.0184953  67.6695386   8.9955773  57.6813670
  67.9007773   8.0335577  52.0168470  67.1175295   8.5757257  52.1106695
  68.6000518   8.5509556  52.4162711  70.5716677   8.6950641  60.6623807
  71.2844649   9.3298106  60.5899709  70.0806705   8.7914507  59.8463809
  72.2934204   2.6001893  52.2341099  71.3590482   2.7203356  52.0645803
  72.4710872   1.6974360  51.9701109  65.6228590   6.4445084  61.4829378
  66.3238050   7.0781567  61.6358772  65.1523705   6.7859816  60.7225017
  73.7482986   4.7863034  49.7677285  74.0242830   4.6719629  50.6771159
  72.8787485   4.3880519  49.7289458  73.4229876  -1.0010308  59.3081929
  72.7701327  -0.7534401  58.6534381  73.8010256  -1.8146170  58.9744406
  70.3837050   9.0349385  53.4110099  70.5659445   8.2171041  53.8737851
  71.2070036   9.2517077  52.9734989  70.7179216   7.9617570  50.6725147
  71.2466982   7.4510025  50.0595309  70.9807435   7.6460100  51.5370680
  69.4717449  -0.2590497  65.7947966  68.7958086  -0.3596368  66.4650341
  70.2945083  -0.4151284  66.2583963  61.2196308   5.9781439  58.4160481
  61.8049745   5.2325127  58.5488385  61.0221147   6.2885396  59.2997145
  64.0734964   9.0132687  53.4322923  63.4045339   9.4978814  52.9486963
  63.9347833   9.2601907  54.3466302  55.8113963  -1.4512961  57.1364924
  55.8498063  -1.9849370  57.9302042  55.3054256  -1.9777755  56.5175901
  68.2140232  11.0476430  60.0305582  68.7658540  11.2108052  60.7954667
  68.5546426  11.6380868  59.3585606  62.6656998  -4.5325287  64.2800501
  63.2929037  -4.9148210  64.8938025  61.8084917  -4.7511086  64.6456193
  73.0651107   5.8737688  65.8854236  73.6091011   6.4867646  65.3909191
  72.4837951   6.4317266  66.4021249  59.4422541  -2.7248858  50.2118855
  59.7375982  -3.6338180  50.1585909  58.5410577  -2.7461119  49.8899858
  71.3508620   8.9958406  57.0169264  71.2259759   8.1948146  56.5080209
  72.0087711   9.4904599  56.5283234  62.9716788  -4.6492862  56.1946404
  62.2503374  -4.0356894  56.0553877  63.7610044  -4.1135097  56.1163050
  73.4143528   6.7967426  58.6448814  72.4673863   6.6772777  58.5727141
  73.7626301   5.9089924  58.7275075  61.1710382  -5.0434761  50.3358181
  60.8423088  -5.9237382  50.1533286  61.5249753  -5.0987092  51.2234570
  70.4189961   6.5920142  54.8453166  70.2714924   5.6636849  55.0260736
  71.2443455   6.6140233  54.3610241  64.2852205  -4.7561791  50.7033658
  64.6248278  -4.2275870  49.9812267  64.7324326  -4.4181385  51.4792225
  74.0224083   7.4148701  55.9318039  74.9470631   7.2091562  55.7942490
  73.8539386   7.1665102  56.8407380  65.1550697  -2.5956307  56.4156028
  65.0095278  -2.2816004  57.3080309  64.6775901  -1.9771407  55.8626927
  73.8119399   7.9334368  51.2880130  73.9856277   7.3680791  50.5353983
  74.3048290   8.7335263  51.1059620  59.6296359  -0.0550963  59.3543689
  59.0849827   0.7208845  59.4863963  60.5075709   0.2919842  59.1962811
  74.7994572   7.2501133  48.3877029  75.4945476   7.8707825  48.6064343
  75.1417722   6.3996484  48.6629406  60.4162381  -0.9281066  62.2473846
  59.6744117  -0.7798431  62.8338476  60.0955125  -0.6672801  61.3840595
  76.6985995   4.7000838  49.9164359  77.2237319   5.0388111  49.1913679
  76.6108347   3.7647853  49.7327494  68.3606044   8.6134912  62.0454236
  68.6693170   8.3684059  62.9176936  69.1581526   8.8181550  61.5573106
  68.3826656  10.7672821  54.2759613  67.9431646  10.2749200  54.9692469
  69.1334773  10.2245789  54.0351688  60.8618995   6.9584362  54.2784241
  61.6877015   6.6588134  53.8982884  60.5113047   6.1891985  54.7274029
  65.8300528   6.3110830  56.3481914  65.2080537   5.6481535  56.0484142
  66.5005395   6.3371962  55.6655562  59.0627600   4.8770689  55.2373174
  58.2259508   4.4492863  55.0557175  59.0351245   5.0703132  56.1743965
  76.3879901   5.3333742  65.2215557  75.5975445   5.3157881  64.6820057
  76.1513256   5.8722035  65.9764594  76.5077776   2.1826208  62.5348286
  76.5575781   2.0176216  63.4763809  76.3991699   1.3153467  62.1446167
  65.3914035   4.8614754  49.8240375  65.5402155   5.5450218  49.1707047
  66.1980478   4.8419844  50.3389830  78.0095973   4.6023150  62.7790307
  77.7180781   4.9653130  63.6153768  77.3968104   3.8890158  62.6003639
  79.2091655   2.1676029  55.2992878  80.0438547   2.6065833  55.4630438
  79.3450784   1.6914683  54.4801123  76.2583161  -0.2744236  61.2470365
  76.7337283  -0.0816589  60.4389217  75.3348726  -0.2185050  61.0013749
  63.1466668   0.8879931  50.8301444  62.9012710  -0.0157739  51.0281654
  63.3162582   0.8897082  49.8880922  62.4162315  -3.3791711  48.3287605
  61.7231560  -3.3047356  47.6727641  62.1714067  -4.1431367  48.8509122
  68.8909440   7.3562884  47.2952122  68.3183407   7.9753071  46.8422594
  69.4642234   7.9062246  47.8292044  72.1106700   7.6400034  48.4260704
  73.0437373   7.5745596  48.6293580  72.0229913   8.4756301  47.9675237
  74.7394717   6.9565905  45.3864652  74.6608348   6.6225768  46.2800410
  75.5604383   7.4487673  45.3856124  69.2756239  -1.3076303  44.6368175
  70.2215343  -1.4370095  44.7056593  68.8970484  -2.0461641  45.1137603
  69.1594931   2.7441443  66.0968832  70.0797941   2.9220042  66.2908878
  69.1244514   1.7997489  65.9448531  67.4599156  -3.3826327  44.5723060
  66.5530611  -3.6793214  44.6485773  67.7375137  -3.6796509  43.7057346
  58.3777096  -2.0619963  55.0222106  58.0579881  -2.9154655  54.7296480
  57.8310524  -1.8471385  55.7780074  62.1557004   0.6542478  58.7391613
  62.3743014   1.5859586  58.7579647  62.5682778   0.2950452  59.5246417
  67.0284869  -3.7724316  68.1294362  66.9281596  -2.8229959  68.0606453
  66.8106411  -4.1006078  67.2570432  58.2465356   1.5582948  56.9915228
  57.5528828   1.1436901  56.4785182  58.9938347   1.6003485  56.3948647
  66.8916139  -0.3427178  66.9459423  66.4083221   0.4573183  67.1523312
  66.9777078  -0.3319233  65.9926867  60.1602099   1.4901202  54.8681243
  60.1372787   1.5888889  53.9163126  60.4702735   2.3366353  55.1898409
  62.8189477   3.5477357  58.9827857  63.7732730   3.5161299  58.9157789
  62.6202000   3.0867981  59.7978083  63.4088859   2.1178473  61.5498655
  64.2281748   2.6122552  61.5733492  63.6825666   1.2010441  61.5216222
  61.1739705   9.0896977  55.9998055  61.0394173   8.3297377  55.4336053
  60.7571768   9.8137876  55.5326844  72.3098668   4.2733900  45.0074630
  73.0134519   4.4783903  45.6232286  71.5861317   4.8410662  45.2723714
  73.1396479   0.0243761  51.1276900  73.0831680   0.4812313  50.2884533
  73.6924821  -0.7365554  50.9499743  64.3308831   9.9866294  56.2116498
  64.2141215  10.9311726  56.1095188  63.5101278   9.6839855  56.6002297
  74.2185366   4.7116429  47.0573090  75.0530970   4.2797628  46.8750565
  74.0569709   4.5398443  47.9849985  73.8731258   1.2148543  48.4229430
  73.8180062   1.0492814  47.4817874  73.2477313   1.9224576  48.5791619
  58.6623773  -3.5483393  62.2490852  59.3082637  -4.0584439  62.7378077
  58.4540924  -2.8114711  62.8234277  71.1877165   3.5197455  67.7482992
  72.0568325   3.6938107  67.3869627  70.7083917   4.3391871  67.6258722
  65.3563345  10.6394556  59.4272426  66.2590592  10.6718166  59.7438921
  65.1300715   9.7095006  59.4418762  67.1116947   9.3925542  56.0882505
  66.1612578   9.3927404  55.9746877  67.4149434   8.6458277  55.5718539
  82.8469641  15.2286080  57.1528267  83.4848051  15.1092828  56.4491607
  82.7290484  16.1766924  57.2116219  79.6559347  15.1813509  57.0889792
  79.3177859  15.0654573  56.2010327  80.5249115  14.7804674  57.0690798
  75.5146163  17.0348985  53.0786683  74.9511028  16.9438922  52.3102971
  75.3998558  16.2148889  53.5589175  80.1379130  16.3348360  63.0475997
  80.1267771  15.9401159  62.1756501  80.2999770  15.6014433  63.6409769
  73.0610595  18.5300177  55.9170903  73.8531887  18.1891001  55.5017203
  73.3007245  18.6395152  56.8373057  81.0945722  20.7019953  48.3901148
  80.4433701  21.2874033  48.0035161  81.8890084  21.2326148  48.4496185
  75.0201349  17.7909090  48.7888282  75.7932225  17.2438077  48.6501158
  75.3726748  18.6553339  49.0002743  76.8586391  19.1185472  61.9955181
  76.5676257  20.0231103  61.8801848  77.4943376  19.1602000  62.7099251
  77.7842598  16.4962321  58.5856541  78.3806170  16.2718343  57.8713504
  77.8417570  15.7547066  59.1881989  77.3567627  13.9501756  46.4206732
  77.6093147  13.4283277  45.6590195  76.4192186  13.7867901  46.5233416
  82.4010909  12.9537534  54.2281475  83.1873999  12.5356957  53.8771892
  82.6649614  13.8583626  54.3963124  82.5720987  18.3910385  48.9270132
  81.9366820  18.4645011  49.6391037  82.2418393  18.9803983  48.2489211
  87.8019337  12.8912768  55.1314454  88.5344508  12.3211984  55.3652283
  87.0458692  12.5034368  55.5720959  77.0763915  15.8529862  48.6231107
  76.9600173  15.1774765  49.2912191  77.1866175  15.3662236  47.8063260
  79.4195456  15.3140009  52.3277796  79.0553664  14.7870630  53.0390718
  80.2762572  14.9238478  52.1544282  85.3244757   6.6034342  59.5909062
  84.9928082   7.4729753  59.3670277  84.7290370   6.2870626  60.2703093
  79.0600943  10.3429909  47.3239145  79.2275346  11.2110145  47.6909616
  78.8698112  10.5057190  46.4000434  81.8176276  18.8046888  58.9904975
  81.5177000  19.7071926  58.8820782  81.4727336  18.5379071  59.8426128
  75.2688758  15.2560684  55.0241679  74.3439254  15.1236899  55.2319371
  75.5173171  16.0354904  55.5211622  85.2173420  11.3229428  56.6702412
  84.3090298  11.2544836  56.3761173  85.1661016  11.8001373  57.4984238
  79.0390164  12.7987566  48.3085811  78.9189789  13.2444617  49.1471292
  78.3442753  13.1472884  47.7499350  72.6297569  14.8993958  55.8585469
  72.7589950  15.1528437  56.7724880  71.9495020  15.4921666  55.5390124
  76.7997056  25.5691208  51.9575943  76.7221086  26.5199033  52.0364423
  76.1958700  25.2237080  52.6150869  79.2914286  12.7419073  64.6137310
  78.5147620  13.3012994  64.6040174  79.9304849  13.2275856  65.1352180
  87.0835067   9.5245866  58.4480286  86.4409447   9.8178399  57.8020081
  86.5789995   9.4098787  59.2533483  84.7375230  13.2709039  49.1366146
  85.6493086  13.5036426  48.9613843  84.2284877  13.8546084  48.5741224
  77.5460658  15.5504527  64.1755277  78.2875343  16.0889571  63.8990100
  76.8397644  16.1770815  64.3326828  83.0215998  17.6933667  62.7727438
  83.4299354  17.2516078  62.0282070  82.2993259  17.1186295  63.0261631
  79.3747068  12.6306274  60.1460995  80.2208263  13.0545688  60.2895644
  79.3145706  11.9739898  60.8399558  83.3444813  18.2534858  56.5279727
  82.7153675  18.4180572  55.8255795  82.9570475  18.6676467  57.2990691
  87.2234044  19.1889296  53.8824091  86.5385083  19.5688197  53.3321124
  87.3077894  19.7984622  54.6156039  82.5246513  10.2910642  61.8042169
  82.2807445  11.0452703  61.2676444  82.8006444  10.6695990  62.6389416
  84.4784976  16.8349255  60.4819434  84.6901871  17.4781015  59.8053815
  84.4314724  16.0011571  60.0141364  82.0811205   9.4467075  57.3856006
  81.2195684   9.7448329  57.6772744  82.1073640   9.6637474  56.4537039
  78.8972774  17.9909266  53.7929812  79.3611120  18.2696969  53.0034435
  78.6329573  17.0892710  53.6102903  75.7896856  17.5380747  56.7309575
  76.3598213  17.9668016  56.0927060  76.3804967  17.2563332  57.4293761
  77.8341661  14.1132418  50.6019377  78.5365704  14.5653462  51.0693304
  77.5022289  13.4716237  51.2299270  76.2822022  12.7044175  64.9770587
  75.6520683  13.3860456  65.2105983  76.1758110  12.5927257  64.0323725
  71.5766994  12.3715971  55.9036511  70.7866048  12.6273499  55.4276621
  72.0678242  13.1864309  56.0088551  85.5930804  19.7121210  58.6541792
  86.4148248  19.3101397  58.3724473  85.5893207  19.6089444  59.6057907
  73.5281740  12.7360550  52.8619987  72.7312903  12.8479244  53.3803483
  73.3007332  13.0747202  51.9960878  79.3587407  19.2605253  60.8102502
  79.4231840  19.7225661  61.6460674  78.6498331  18.6302618  60.9384812
  69.8604697  12.6246461  58.3351502  70.1112736  13.5093471  58.6009078
  70.3964246  12.4451063  57.5626593  93.6836797  16.0559959  55.0026763
  92.9300505  15.4867357  54.8470768  93.8184338  16.0222623  55.9497398
  79.0735425  20.9273361  50.6781482  78.9381100  21.7724897  51.1066330
  79.6145238  21.1292639  49.9147416  75.5602765   7.0064941  67.3395838
  75.1669710   6.4531139  68.0143482  76.3768905   7.3175519  67.7302355
  72.5264823  18.4448799  51.2509408  73.0389343  19.2392049  51.4014972
  73.1787535  17.7475089  51.1843009  74.3359707  21.5614555  53.3332161
  74.5126336  22.4832520  53.1453145  75.1316541  21.2472974  53.7626540
  78.4770726   8.4222820  64.9316094  79.2180439   9.0229973  64.8520557
  78.7088649   7.6800458  64.3734137  73.6212064  13.6079187  63.2094324
  73.5065579  12.7064444  63.5101423  72.7656582  13.8542884  62.8579140
  80.7003902  21.5496927  64.8081825  80.2567756  20.7633306  64.4902729
  81.3621115  21.7376078  64.1425715  75.4591023  23.0792729  59.3342503
  76.0098448  22.9509792  58.5619497  74.6202499  23.3787618  58.9837396
  82.7985140  21.8299727  62.8363226  82.7803615  22.6508608  62.3443495
  83.7205060  21.7053803  63.0613367  79.2558194  19.3443857  63.6786734
  79.7886531  18.5832145  63.4486042  78.7272275  19.0517509  64.4210889
  82.4227889   4.4503923  59.2080376  82.0792158   5.3405564  59.1319486
  82.7906851   4.2605580  58.3449961  70.4913739  16.7737453  52.0268978
  71.3288961  17.1834462  51.8102686  70.6692007  15.8336895  51.9969172
  82.3878171  14.4412534  47.7152811  81.8724795  15.2117139  47.9541198
  82.1155480  13.7677670  48.3385872  79.9725282   9.2862235  52.7738049
  79.1166879   8.8969085  52.5943688  80.3852234   9.3654195  51.9137835
  81.5024429   6.8208578  57.1729609  80.9989225   6.7838713  56.3597414
  81.7955036   7.7301321  57.2326266  77.7467315   6.9047308  56.1795791
  78.6120312   6.7090116  55.8201680  77.8144824   6.6757659  57.1065148
  87.3612446  17.1944889  49.6505985  86.5841888  16.8556048  49.2061147
  88.0403927  17.1997512  48.9760950  82.1764475  12.3139626  49.5412592
  81.8714610  12.6285775  50.3922735  83.1294917  12.3921046  49.5839925
  80.6210906  18.4729849  51.1905546  80.0932268  17.7382609  50.8778784
  80.1198409  19.2504526  50.9445515  85.6003752  16.6678870  56.3072592
  84.9427427  17.3578131  56.3952721  86.4044152  17.0575302  56.6506579
  75.3529634   9.1349516  53.5512158  75.9273386   8.9124697  52.8185351
  75.9400617   9.2038210  54.3040759  84.4109211  15.0223242  54.3576534
  84.9241093  15.6553234  54.8598244  85.0610435  14.4224438  53.9919894
  75.6799221  11.1653977  47.5708043  74.8436533  11.5028663  47.8917318
  75.5403991  11.0302956  46.6335180  77.6552302   6.0090764  52.2787227
  77.0016714   5.6939782  51.6543842  77.6132776   5.3866505  53.0047050
  78.7663507  16.2910060  44.1940519  77.8590568  16.0599313  44.3931668
  79.2634539  15.4947679  44.3814501  81.6731586  25.0007567  47.1137205
  80.9993284  25.3039264  47.7222163  82.0597407  25.8036647  46.7642662
  80.8890042  12.4972698  56.6034875  79.9712604  12.7187645  56.4456563
  81.3050186  12.5719009  55.7446582  81.6725090  13.8964114  51.7337555
  82.4196909  14.4085511  51.4244677  81.9416679  13.5748166  52.5941949
  79.9451740  16.3922654  48.7164509  79.0362959  16.1081687  48.8136979
  79.9746824  16.8121733  47.8567816  85.1771007  20.0029244  52.4855677
  84.7233335  19.1620154  52.5420867  84.5464974  20.6390642  52.8230457
  84.1203927  10.9321230  53.7156344  83.3826684  10.4198616  54.0466587
  84.3730701  10.4921612  52.9039621  83.6203947  21.8405741  53.4205495
  83.9126921  22.4010798  52.7017861  84.1302567  22.1334302  54.1758654
  84.2215554   3.7097482  54.3098114  84.5274431   2.8494845  54.0224029
  84.9468159   4.3015102  54.1097107  70.5139910  14.1128169  52.6979712
  70.3164310  13.5197529  51.9730778  69.9586574  13.8080379  53.4155650
  78.4936634  14.0051275  54.8174305  78.5485244  13.0525111  54.7416781
  77.6827836  14.1610714  55.3015603  79.6427828  17.9331398  46.0552588
  79.2047258  17.2167257  45.5958225  80.3838269  18.1607513  45.4937679
  76.4328994  12.6228335  52.5764684  75.6196860  12.9222505  52.9829876
  76.9287988  12.2284024  53.2939166  78.5837572  22.6186092  54.5098948
  78.5413751  22.8446938  53.5807480  79.5000271  22.3849466  54.6584749
  82.0303206  13.0870159  61.4079577  82.3852593  13.3141632  62.2674043
  82.6775337  13.4188536  60.7856833  87.7600943  16.2088595  52.1128906
  87.6218841  16.3990191  51.1850096  87.4037161  16.9707978  52.5696958
  75.9243069  10.1946690  58.1925918  76.5642448  10.0535449  57.4948882
  75.0920599   9.9081204  57.8164520  87.7870322  18.2765122  57.1240178
  88.2206829  18.1840411  57.9723232  88.5001903  18.2522623  56.4860194
  76.7003373  19.4949121  54.3060911  77.4943971  18.9999441  54.1043486
  75.9895065  18.9666984  53.9428617  81.5198217  21.8767216  58.6573279
  81.5735239  22.4458153  59.4250994  80.6512999  22.0469101  58.2927316
  73.0086136  13.6392202  50.3820664  72.0783724  13.5776658  50.5990626
  73.1043608  13.1168155  49.5857305  72.9271685  10.1647015  52.9698905
  73.1878503  11.0792349  52.8608066  73.7488858   9.6971458  53.1195518
  74.3996611  11.5784772  60.1397730  75.0719664  11.3702135  59.4910379
  73.5726397  11.3806858  59.7002962  88.6485872  18.3188823  59.6573063
  88.8421762  19.2234633  59.9032338  88.5486490  17.8596242  60.4911648
  80.3022183   8.2046713  62.1563391  79.6550098   8.9036663  62.0627867
  81.0723198   8.6382857  62.5239639  83.7100981  18.4695566  65.2313944
  83.5586487  18.2406117  64.3144028  83.7005660  19.4266167  65.2445289
  80.4786317  16.0427478  60.2160210  81.4078377  16.1938638  60.0429178
  80.0577347  16.1311499  59.3608857  79.2774649  20.0678143  57.9858748
  79.1385734  19.6996927  58.8584686  78.4889245  20.5825782  57.8142706
  79.8722801  25.1687239  49.3284285  80.0474556  24.6975282  50.1429907
  79.1855589  25.7953005  49.5565545  80.8279864  19.4459745  55.3747586
  80.4929696  19.4060515  56.2705236  80.3283810  18.7804461  54.9017996
  74.8024108  14.8527375  60.9000167  74.6643906  14.1207614  61.5011706
  75.7129031  14.7636276  60.6184355  83.7639055  16.7915780  45.6484645
  83.1468226  16.0662608  45.5517698  83.2955544  17.5525140  45.3051720
  77.4306408  14.5647335  60.3883847  78.1406027  13.9240527  60.3470465
  77.3875717  14.8160230  61.3110027  85.4193187  21.5014688  63.3090426
  85.3605733  20.8173908  62.6421009  85.8212706  22.2433678  62.8571052
  76.1435342  11.5512553  62.2079486  75.6072699  11.1003291  62.8601082
  75.5552051  11.6858461  61.4649950  74.4383886  28.3176602  56.1024145
  74.6780484  28.9495126  56.7803163  73.5953082  27.9664642  56.3889504
  75.5537601  11.0101204  44.7705950  74.6767068  10.8890005  44.4068196
  76.0295354  10.2187282  44.5184838  85.4210594  19.4654272  61.5404406
  84.5337373  19.1280194  61.6630804  85.9909145  18.7337303  61.7773171
  67.0739742  15.7978364  54.8647457  67.7610781  15.4840094  54.2768472
  66.9187870  16.7019728  54.5914708  71.8774464  10.6868560  59.2932481
  71.7932652  10.0794230  58.5582891  71.0557170  11.1777579  59.2941977
  78.9511748  24.1255724  58.5065649  78.8781919  24.9310696  59.0184953
  78.5089141  24.3247690  57.6813670  78.7401527  23.3627494  52.0168470
  77.9569049  23.9049175  52.1106695  79.4394273  23.8801474  52.4162711
  82.0498178   9.1722124  54.6602676  82.5466877   8.4192086  54.3403746
  81.2785159   9.2086441  54.0945885  89.9027935  14.8762489  56.3020967
  89.8917811  15.7587205  55.9314900  89.0345314  14.5234040  56.1075504
  81.4110431  24.0242558  60.6623807  82.1238404  24.6590023  60.5899709
  80.9200460  24.1206424  59.8463809  83.1327958  17.9293811  52.2341099
  82.1984237  18.0495274  52.0645803  83.3104627  17.0266278  51.9701109
  78.6333146  11.3139507  54.3874360  78.2630934  10.7610547  55.0755266
  79.1292239  10.7097640  53.8349360  86.5200510  13.7711130  52.7691133
  86.9860962  14.6039122  52.6951436  86.9708010  13.3056112  53.4736392
  76.4622345  21.7737002  61.4829378  77.1631804  22.4073485  61.6358772
  75.9917460  22.1151733  60.7225017  84.5876741  20.1154952  49.7677285
  84.8636585  20.0011546  50.6771159  83.7181239  19.7172437  49.7289458
  84.4917172   6.1391717  56.8082035  83.5780252   6.3695944  56.9764241
  84.9210274   6.2230161  57.6596067  84.2623631  14.3281609  59.3081929
  83.6095081  14.5757517  58.6534381  84.6404011  13.5145748  58.9744406
  81.2230805  24.3641303  53.4110099  81.4053199  23.5462958  53.8737851
  82.0463791  24.5808995  52.9734989  81.5572970  23.2909488  50.6725147
  82.0860737  22.7801942  50.0595309  81.8201190  22.9752018  51.5370680
  80.3111204  15.0701420  65.7947966  79.6351841  14.9695550  66.4650341
  81.1338838  14.9140634  66.2583963  72.0590063  21.3073357  58.4160481
  72.6443500  20.5617045  58.5488385  71.8614901  21.6177314  59.2997145
  74.9128718  24.3424604  53.4322923  74.2439093  24.8270732  52.9486963
  74.7741588  24.5893825  54.3466302  66.6507718  13.8778957  57.1364924
  66.6891817  13.3442548  57.9302042  66.1448010  13.3514163  56.5175901
  79.0533987  26.3768348  60.0305582  79.6052295  26.5399969  60.7954667
  79.3940180  26.9672786  59.3585606  74.0298480   8.7243498  60.6327466
  74.0939806   9.5858329  60.2204864  73.9665600   8.1117499  59.8999825
  73.5050752  10.7966630  64.2800501  74.1322791  10.4143708  64.8938025
  72.6478671  10.5780832  64.6456193  83.9044861  21.2029605  65.8854236
  84.4484765  21.8159564  65.3909191  83.3231706  21.7609184  66.4021249
  70.2816295  12.6043059  50.2118855  70.5769736  11.6953738  50.1585909
  69.3804331  12.5830799  49.8899858  82.1902374  24.3250323  57.0169264
  82.0653513  23.5240063  56.5080209  82.8481465  24.8196517  56.5283234
  73.8110542  10.6799056  56.1946404  73.0897128  11.2935024  56.0553877
  74.6003798  11.2156821  56.1163050  84.2537282  22.1259343  58.6448814
  83.3067618  22.0064695  58.5727141  84.6020056  21.2381841  58.7275075
  76.6136856   8.0153482  62.4687056  77.1371258   8.2615779  63.2313365
  76.3949189   8.8473517  62.0490193  72.0104137  10.2857157  50.3358181
  71.6816843   9.4054536  50.1533286  72.3643508  10.2304826  51.2234570
  81.2583716  21.9212060  54.8453166  81.1108678  20.9928767  55.0260736
  82.0837209  21.9432150  54.3610241  75.1245960  10.5730127  50.7033658
  75.4642032  11.1016048  49.9812267  75.5718080  10.9110533  51.4792225
  84.8617838  22.7440618  55.9318039  85.7864385  22.5383480  55.7942490
  84.6933141  22.4957020  56.8407380  77.8189401   8.9567177  60.1536726
  77.4786221   8.1574991  60.5557406  77.1128407   9.2568888  59.5813559
  78.4705873   6.0416490  58.6064049  79.2931942   5.5676968  58.4842940
  78.7143936   6.8206974  59.1062736  77.1114107   9.0704748  48.9026951
  77.8322470   9.4486001  48.3990668  76.4879411   9.7893625  49.0061929
  81.2545230   9.7749897  49.8385283  81.4708844  10.6574535  49.5374111
  80.7739297   9.3836111  49.1090925  75.9944451  12.7335611  56.4156028
  75.8489032  13.0475914  57.3080309  75.5169655  13.3520511  55.8626927
  77.8540834   9.7238159  56.4636917  77.8402403   8.8279252  56.1269215
  78.5713262   9.7308822  57.0975204  79.7066965  10.1575499  58.5090045
  79.4484743  11.0792569  58.5074375  79.1752005   9.7605933  59.1990509
  84.6513154  23.2626286  51.2880130  84.8250031  22.6972708  50.5353983
  85.1442045  24.0627181  51.1059620  70.4690114  15.2740955  59.3543689
  69.9243582  16.0500763  59.4863963  71.3469463  15.6211759  59.1962811
  77.2577730   8.6052539  51.7324488  77.3793641   7.6769185  51.9315375
  76.9679773   8.6191225  50.8202803  80.1268921   6.2907449  54.8691207
  80.1490617   6.3546782  53.9143187  80.5436980   5.4511958  55.0631714
  90.5052545  16.0262709  52.9070430  90.9483691  15.2770034  52.5089553
  89.6279055  16.0172845  52.5244162  85.6388326  22.5793050  48.3877029
  86.3339231  23.1999743  48.6064343  85.9811476  21.7288401  48.6629406
  71.2556135  14.4010851  62.2473846  70.5137871  14.5493487  62.8338476
  70.9348880  14.6619117  61.3840595  87.5379749  20.0292756  49.9164359
  88.0631073  20.3680029  49.1913679  87.4502102  19.0939771  49.7327494
  79.1999798  23.9426829  62.0454236  79.5086925  23.6975976  62.9176936
  79.9975280  24.1473468  61.5573106  79.2220410  26.0964739  54.2759613
  78.7825400  25.6041118  54.9692469  79.9728527  25.5537707  54.0351688
  71.7012749  22.2876280  54.2784241  72.5270769  21.9880052  53.8982884
  71.3506801  21.5183902  54.7274029  76.6694282  21.6402748  56.3481914
  76.0474292  20.9773453  56.0484142  77.3399149  21.6663880  55.6655562
  69.9021354  20.2062606  55.2373174  69.0653262  19.7784781  55.0557175
  69.8745000  20.3995050  56.1743965  76.7418810  10.1184536  65.9414420
  76.7906965  10.9946659  65.5592190  77.2841324   9.5761929  65.3686063
  87.2273655  20.6625659  65.2215557  86.4369199  20.6449798  64.6820057
  86.9907010  21.2013953  65.9764594  87.3471530  17.5118126  62.5348286
  87.3969535  17.3468133  63.4763809  87.2385454  16.6445385  62.1446167
  76.2307789  20.1906672  49.8240375  76.3795910  20.8742136  49.1707047
  77.0374233  20.1711762  50.3389830  84.6375293  13.4949054  63.8507593
  85.5385156  13.3555519  63.5591590  84.7123267  13.6603509  64.7905770
  78.9718098  10.8715909  62.6960779  78.1021408  11.1649475  62.4243367
  79.2077579  11.4556354  63.4168043  88.8489727  19.9315067  62.7790307
  88.5574536  20.2945048  63.6153768  88.2361859  19.2182076  62.6003639
  90.0485410  17.4967947  55.2992878  90.8832301  17.9357751  55.4630438
  90.1844538  17.0206600  54.4801123  87.0976916  15.0547682  61.2470365
  87.5731037  15.2475328  60.4389217  86.1742481  15.1106868  61.0013749
  73.9860422  16.2171849  50.8301444  73.7406464  15.3134179  51.0281654
  74.1556337  16.2189000  49.8880922  81.6757132   7.0895526  60.2126199
  82.1939076   7.8256552  59.8872688  81.3212265   7.3959519  61.0472958
  73.2556070  11.9500207  48.3287605  72.5625315  12.0244562  47.6727641
  73.0107822  11.1860550  48.8509122  81.9269726   3.5095808  55.7327096
  82.2071480   2.8418997  56.3587522  82.7120333   3.7024904  55.2201760
  79.7303195  22.6854802  47.2952122  79.1577162  23.3044989  46.8422594
  80.3035988  23.2354164  47.8292044  85.7978585  11.9313442  59.4798671
  86.7496007  12.0311540  59.5010895  85.6282035  11.1391711  59.9896755
  83.8192964   9.0169025  59.6658072  83.2242896   9.2974038  58.9704561
  83.5342661   9.5062926  60.4374813  82.9500454  22.9691952  48.4260704
  83.8831128  22.9037514  48.6293580  82.8623667  23.8048219  47.9675237
  85.5788471  22.2857822  45.3864652  85.5002103  21.9517686  46.2800410
  86.3998138  22.7779590  45.3856124  88.2766662  15.1519562  58.5940971
  88.2442982  14.2135562  58.7800654  88.8867286  15.2303598  57.8606795
  80.1149993  14.0215615  44.6368175  81.0609098  13.8921823  44.7056593
  79.7364238  13.2830277  45.1137603  88.4261151  11.9430605  58.6399254
  87.9100199  11.1589062  58.4529183  89.3101099  11.6149322  58.8045773
  86.0871878   5.6871621  54.5995066  85.8896699   5.3786709  55.4838398
  86.6971583   6.4133260  54.7292996  94.0943212  16.2135569  57.7347007
  94.8246601  15.9520857  58.2954711  93.4850158  15.4764291  57.7749075
  92.1758509  14.3543431  58.3321459  91.4491673  14.2199396  57.7237950
  91.7605796  14.6620260  59.1378177  79.9988686  18.0733361  66.0968832
  80.9191695  18.2511960  66.2908878  79.9638269  17.1289406  65.9448531
  78.2992910  11.9465591  44.5723060  77.3924366  11.6498704  44.6485773
  78.5768891  11.6495409  43.7057346  69.2170851  13.2671954  55.0222106
  68.8973635  12.4137263  54.7296480  68.6704279  13.4820533  55.7780074
  72.9950758  15.9834395  58.7391613  73.2136768  16.9151503  58.7579647
  73.4076532  15.6242370  59.5246417  79.9154976   6.4902481  50.7267301
  79.1055704   6.1449566  51.1022547  80.6039393   6.1810025  51.3154913
  81.8445524   5.5680528  52.3491598  82.3976563   5.9875981  53.0081621
  82.0815611   4.6416276  52.3914554  77.8678624  11.5567601  68.1294362
  77.7675350  12.5061958  68.0606453  77.6500166  11.2285840  67.2570432
  77.0691695   8.8052526  44.7135039  77.9310859   9.1307425  44.9730856
  77.2542039   8.0184022  44.2008105  69.0859111  16.8874866  56.9915228
  68.3922582  16.4728819  56.4785182  69.8332102  16.9295402  56.3948647
  85.2224331   7.6781053  51.8570262  84.6423000   8.3365857  51.4748314
  84.9560264   6.8558397  51.4457680  83.6727898   7.0786110  54.0591582
  84.1727676   7.1902645  53.2505901  84.3163506   6.7747163  54.6992391
  77.7309894  14.9864740  66.9459423  77.2476975  15.7865100  67.1523312
  77.8170833  14.9972685  65.9926867  70.9995853  16.8193120  54.8681243
  70.9766541  16.9180807  53.9163126  71.3096490  17.6658271  55.1898409
  73.6583231  18.8769275  58.9827857  74.6126485  18.8453217  58.9157789
  73.4595755  18.4159899  59.7978083  74.2482613  17.4470391  61.5498655
  75.0675502  17.9414470  61.5733492  74.5219421  16.5302359  61.5216222
  84.0049209   9.8381143  50.9126610  83.1175064  10.1230794  50.6946805
  84.4203199   9.6774907  50.0653887  87.3563746   9.8627664  54.6280950
  88.1324136  10.3524117  54.9005566  86.6311880  10.2885718  55.0852819
  89.7936304  10.5755283  55.6854890  90.3880795  10.3351019  54.9748198
  89.8662888   9.8562414  56.3128427  72.0133460  24.4188894  55.9998055
  71.8787928  23.6589295  55.4336053  71.5965522  25.1429794  55.5326844
  83.1492423  19.6025818  45.0074630  83.8528273  19.8075820  45.6232286
  82.4255072  20.1702580  45.2723714  83.9790233  15.3535679  51.1276900
  83.9225435  15.8104231  50.2884533  84.5318576  14.5926364  50.9499743
  87.7895039  11.1425411  51.9527020  87.5331973  10.7422047  52.7835228
  87.1647907  11.8569205  51.8277159  92.1007377  13.8821484  54.4598311
  91.5406935  13.9514674  55.2329873  91.4950880  13.7062469  53.7397808
  75.1702586  25.3158211  56.2116498  75.0534970  26.2603644  56.1095188
  74.3495032  25.0131773  56.6002297  85.0579120  20.0408347  47.0573090
  85.8924724  19.6089545  46.8750565  84.8963463  19.8690361  47.9849985
  84.7125013  16.5440460  48.4229430  84.6573816  16.3784732  47.4817874
  84.0871068  17.2516493  48.5791619  69.5017528  11.7808525  62.2490852
  70.1476391  11.2707479  62.7378077  69.2934679  12.5177206  62.8234277
  82.0270920  18.8489372  67.7482992  82.8962079  19.0230024  67.3869627
  81.5477671  19.6683789  67.6258722  78.0221138   6.0448569  48.0014748
  78.0099808   6.9890409  48.1583019  78.9144560   5.8618715  47.7074209
  76.1957100  25.9686473  59.4272426  77.0984347  26.0010083  59.7438921
  75.9694470  25.0386924  59.4418762  77.9510702  24.7217460  56.0882505
  77.0006333  24.7219321  55.9746877  78.2543188  23.9750194  55.5718539
  81.8373257   2.6391346  52.2560685  81.0705653   2.0849833  52.4017367
  82.2483962   2.7113215  53.1174837  73.8415019   8.9276142  66.3465866
  74.7046480   8.5712947  66.5569191  73.2680429   8.5890037  67.0341270
  93.6863395  30.5577998  57.1528267  94.3241805  30.4384745  56.4491607
  93.5684238  31.5058842  57.2116219  90.4953102  30.5105426  57.0889792
  90.1571613  30.3946491  56.2010327  91.3642870  30.1096591  57.0690798
  86.3539917  32.3640903  53.0786683  85.7904783  32.2730840  52.3102971
  86.2392312  31.5440807  53.5589175  90.9772885  31.6640278  63.0475997
  90.9661525  31.2693076  62.1756501  91.1393524  30.9306351  63.6409769
  83.9004349  33.8592094  55.9170903  84.6925641  33.5182919  55.5017203
  84.1401000  33.9687069  56.8373057  91.9339476  36.0311870  48.3901148
  91.2827456  36.6165951  48.0035161  92.7283839  36.5618065  48.4496185
  85.8595103  33.1201008  48.7888282  86.6325979  32.5729995  48.6501158
  86.2120502  33.9845257  49.0002743  87.6980146  34.4477390  61.9955181
  87.4070012  35.3523021  61.8801848  88.3337130  34.4893917  62.7099251
  88.6236353  31.8254238  58.5856541  89.2199925  31.6010261  57.8713504
  88.6811324  31.0838984  59.1881989  88.1961381  29.2793674  46.4206732
  88.4486902  28.7575195  45.6590195  87.2585940  29.1159819  46.5233416
  93.2404664  28.2829452  54.2281475  94.0267753  27.8648875  53.8771892
  93.5043368  29.1875544  54.3963124  93.4114741  33.7202302  48.9270132
  92.7760574  33.7936929  49.6391037  93.0812148  34.3095901  48.2489211
  98.6413091  28.2204685  55.1314454  99.3738263  27.6503902  55.3652283
  97.8852447  27.8326286  55.5720959  87.9157670  31.1821780  48.6231107
  87.7993928  30.5066683  49.2912191  88.0259930  30.6954154  47.8063260
  90.2589211  30.6431927  52.3277796  89.8947418  30.1162548  53.0390718
  91.1156327  30.2530396  52.1544282  96.1638511  21.9326259  59.5909062
  95.8321836  22.8021670  59.3670277  95.5684125  21.6162543  60.2703093
  89.8994698  25.6721826  47.3239145  90.0669100  26.5402063  47.6909616
  89.7091867  25.8349108  46.4000434  92.6570031  34.1338805  58.9904975
  92.3570754  35.0363844  58.8820782  92.3121090  33.8670988  59.8426128
  86.1082512  30.5852602  55.0241679  85.1833009  30.4528816  55.2319371
  86.3566926  31.3646821  55.5211622  96.0567175  26.6521345  56.6702412
  95.1484052  26.5836754  56.3761173  96.0054771  27.1293290  57.4984238
  89.8783919  28.1279484  48.3085811  89.7583544  28.5736535  49.1471292
  89.1836507  28.4764802  47.7499350  83.4691323  30.2285876  55.8585469
  83.5983705  30.4820355  56.7724880  82.7888775  30.8213584  55.5390124
  87.6390811  40.8983126  51.9575943  87.5614840  41.8490951  52.0364423
  87.0352454  40.5528998  52.6150869  90.1308040  28.0710991  64.6137310
  89.3541375  28.6304911  64.6040174  90.7698604  28.5567774  65.1352180
  97.9228821  24.8537784  58.4480286  97.2803201  25.1470317  57.8020081
  97.4183750  24.7390704  59.2533483  95.5768985  28.6000957  49.1366146
  96.4886841  28.8328344  48.9613843  95.0678632  29.1838001  48.5741224
  88.3854413  30.8796444  64.1755277  89.1269097  31.4181488  63.8990100
  87.6791398  31.5062733  64.3326828  93.8609752  33.0225585  62.7727438
  94.2693108  32.5807995  62.0282070  93.1387014  32.4478212  63.0261631
  90.2140822  27.9598192  60.1460995  91.0602018  28.3837605  60.2895644
  90.1539460  27.3031816  60.8399558  94.1838567  33.5826776  56.5279727
  93.5547430  33.7472490  55.8255795  93.7964229  33.9968385  57.2990691
  98.0627799  34.5181213  53.8824091  97.3778837  34.8980115  53.3321124
  98.1471648  35.1276540  54.6156039  93.3640268  25.6202560  61.8042169
  93.1201200  26.3744621  61.2676444  93.6400198  25.9987908  62.6389416
  95.3178731  32.1641172  60.4819434  95.5295626  32.8072932  59.8053815
  95.2708479  31.3303489  60.0141364  92.9204960  24.7758993  57.3856006
  92.0589439  25.0740247  57.6772744  92.9467394  24.9929392  56.4537039
  89.7366529  33.3201184  53.7929812  90.2004874  33.5988887  53.0034435
  89.4723327  32.4184628  53.6102903  86.6290610  32.8672665  56.7309575
  87.1991967  33.2959934  56.0927060  87.2198722  32.5855250  57.4293761
  88.6735415  29.4424336  50.6019377  89.3759458  29.8945380  51.0693304
  88.3416044  28.8008155  51.2299270  87.1215777  28.0336093  64.9770587
  86.4914437  28.7152373  65.2105983  87.0151864  27.9219174  64.0323725
  82.4160749  27.7007889  55.9036511  81.6259803  27.9565417  55.4276621
  82.9071996  28.5156226  56.0088551  96.4324559  35.0413128  58.6541792
  97.2542002  34.6393315  58.3724473  96.4286961  34.9381362  59.6057907
  84.3675494  28.0652468  52.8619987  83.5706658  28.1771162  53.3803483
  84.1401087  28.4039120  51.9960878  90.1981162  34.5897171  60.8102502
  90.2625595  35.0517578  61.6460674  89.4892086  33.9594536  60.9384812
  80.6998452  27.9538379  58.3351502  80.9506490  28.8385389  58.6009078
  81.2358000  27.7742981  57.5626593 104.5230552  31.3851876  55.0026763
 103.7694260  30.8159274  54.8470768 104.6578093  31.3514541  55.9497398
  89.9129180  36.2565279  50.6781482  89.7774854  37.1016814  51.1066330
  90.4538992  36.4584556  49.9147416  86.3996519  22.3356858  67.3395838
  86.0063465  21.7823057  68.0143482  87.2162660  22.6467437  67.7302355
  83.3658577  33.7740717  51.2509408  83.8783098  34.5683967  51.4014972
  84.0181290  33.0767007  51.1843009  85.1753462  36.8906473  53.3332161
  85.3520090  37.8124438  53.1453145  85.9710295  36.5764892  53.7626540
  89.3164480  23.7514738  64.9316094  90.0574194  24.3521891  64.8520557
  89.5482403  23.0092375  64.3734137  84.4605818  28.9371105  63.2094324
  84.3459333  28.0356362  63.5101423  83.6050336  29.1834802  62.8579140
  91.5397656  36.8788845  64.8081825  91.0961510  36.0925224  64.4902729
  92.2014870  37.0667996  64.1425715  86.2984777  38.4084647  59.3342503
  86.8492202  38.2801710  58.5619497  85.4596253  38.7079536  58.9837396
  93.6378894  37.1591645  62.8363226  93.6197369  37.9800526  62.3443495
  94.5598814  37.0345720  63.0613367  90.0951948  34.6735775  63.6786734
  90.6280285  33.9124063  63.4486042  89.5666029  34.3809426  64.4210889
  93.2621643  19.7795840  59.2080376  92.9185913  20.6697482  59.1319486
  93.6300606  19.5897498  58.3449961  81.3307494  32.1029371  52.0268978
  82.1682716  32.5126379  51.8102686  81.5085762  31.1628813  51.9969172
  93.2271926  29.7704452  47.7152811  92.7118549  30.5409056  47.9541198
  92.9549234  29.0969588  48.3385872  90.8119037  24.6154152  52.7738049
  89.9560633  24.2261003  52.5943688  91.2245989  24.6946113  51.9137835
  92.3418184  22.1500496  57.1729609  91.8382979  22.1130631  56.3597414
  92.6348790  23.0593238  57.2326266  88.5861069  22.2339225  56.1795791
  89.4514066  22.0382034  55.8201680  88.6538578  22.0049577  57.1065148
  98.2006200  32.5236806  49.6505985  97.4235643  32.1847966  49.2061147
  98.8797681  32.5289429  48.9760950  93.0158229  27.6431544  49.5412592
  92.7108365  27.9577693  50.3922735  93.9688671  27.7212964  49.5839925
  91.4604661  33.8021767  51.1905546  90.9326023  33.0674527  50.8778784
  90.9592164  34.5796443  50.9445515  96.4397507  31.9970787  56.3072592
  95.7821181  32.6870049  56.3952721  97.2437906  32.3867219  56.6506579
  86.1923389  24.4641433  53.5512158  86.7667140  24.2416615  52.8185351
  86.7794371  24.5330128  54.3040759  95.2502966  30.3515160  54.3576534
  95.7634848  30.9845152  54.8598244  95.9004190  29.7516356  53.9919894
  86.5192976  26.4945894  47.5708043  85.6830288  26.8320581  47.8917318
  86.3797745  26.3594874  46.6335180  88.4946056  21.3382682  52.2787227
  87.8410469  21.0231699  51.6543842  88.4526530  20.7158423  53.0047050
  89.6057261  31.6201977  44.1940519  88.6984323  31.3891231  44.3931668
  90.1028293  30.8239597  44.3814501  92.5125340  40.3299484  47.1137205
  91.8387039  40.6331181  47.7222163  92.8991162  41.1328565  46.7642662
  91.7283797  27.8264616  56.6034875  90.8106358  28.0479563  56.4456563
  92.1443940  27.9010926  55.7446582  92.5118844  29.2256031  51.7337555
  93.2590663  29.7377429  51.4244677  92.7810434  28.9040084  52.5941949
  90.7845495  31.7214572  48.7164509  89.8756714  31.4373605  48.8136979
  90.8140578  32.1413651  47.8567816  96.0164762  35.3321162  52.4855677
  95.5627089  34.4912071  52.5420867  95.3858729  35.9682560  52.8230457
  94.9597682  26.2613148  53.7156344  94.2220438  25.7490534  54.0466587
  95.2124455  25.8213529  52.9039621  94.4597701  37.1697658  53.4205495
  94.7520676  37.7302715  52.7017861  94.9696322  37.4626219  54.1758654
  95.0609309  19.0389400  54.3098114  95.3668186  18.1786763  54.0224029
  95.7861914  19.6307020  54.1097107  81.3533665  29.4420086  52.6979712
  81.1558065  28.8489447  51.9730778  80.7980329  29.1372296  53.4155650
  89.3330389  29.3343193  54.8174305  89.3878998  28.3817029  54.7416781
  88.5221591  29.4902632  55.3015603  90.4821582  33.2623316  46.0552588
  90.0441012  32.5459175  45.5958225  91.2232023  33.4899431  45.4937679
  87.2722749  27.9520252  52.5764684  86.4590614  28.2514423  52.9829876
  87.7681743  27.5575941  53.2939166  89.4231326  37.9478009  54.5098948
  89.3807505  38.1738856  53.5807480  90.3394025  37.7141384  54.6584749
  92.8696960  28.4162077  61.4079577  93.2246348  28.6433550  62.2674043
  93.5169091  28.7480454  60.7856833  98.5994697  31.5380513  52.1128906
  98.4612596  31.7282109  51.1850096  98.2430916  32.2999896  52.5696958
  86.7636823  25.5238608  58.1925918  87.4036203  25.3827367  57.4948882
  85.9314354  25.2373121  57.8164520  98.6264077  33.6057040  57.1240178
  99.0600583  33.5132329  57.9723232  99.3395657  33.5814540  56.4860194
  87.5397127  34.8241038  54.3060911  88.3337726  34.3291359  54.1043486
  86.8288820  34.2958902  53.9428617  92.3591972  37.2059134  58.6573279
  92.4128994  37.7750070  59.4250994  91.4906753  37.3761019  58.2927316
  83.8479891  28.9684120  50.3820664  82.9177479  28.9068576  50.5990626
  83.9437363  28.4460073  49.5857305  83.7665440  25.4938933  52.9698905
  84.0272257  26.4084266  52.8608066  84.5882612  25.0263376  53.1195518
  85.2390365  26.9076690  60.1397730  85.9113418  26.6994052  59.4910379
  84.4120152  26.7098776  59.7002962  99.4879626  33.6480740  59.6573063
  99.6815516  34.5526551  59.9032338  99.3880244  33.1888160  60.4911648
  91.1415937  23.5338631  62.1563391  90.4943852  24.2328581  62.0627867
  91.9116952  23.9674775  62.5239639  94.5494735  33.7987483  65.2313944
  94.3980241  33.5698035  64.3144028  94.5399414  34.7558085  65.2445289
  91.3180071  31.3719396  60.2160210  92.2472131  31.5230556  60.0429178
  90.8971101  31.4603417  59.3608857  90.1168403  35.3970060  57.9858748
  89.9779489  35.0288845  58.8584686  89.3282999  35.9117700  57.8142706
  90.7116555  40.4979157  49.3284285  90.8868311  40.0267200  50.1429907
  90.0249343  41.1244923  49.5565545  91.6673618  34.7751663  55.3747586
  91.3323451  34.7352433  56.2705236  91.1677564  34.1096379  54.9017996
  85.6417862  30.1819293  60.9000167  85.5037660  29.4499532  61.5011706
  86.5522786  30.0928193  60.6184355  94.6032810  32.1207697  45.6484645
  93.9861981  31.3954526  45.5517698  94.1349298  32.8817058  45.3051720
  88.2700163  29.8939252  60.3883847  88.9799781  29.2532445  60.3470465
  88.2269471  30.1452147  61.3110027  96.2586942  36.8306606  63.3090426
  96.1999488  36.1465826  62.6421009  96.6606460  37.5725596  62.8571052
  86.9829097  26.8804470  62.2079486  86.4466454  26.4295209  62.8601082
  86.3945805  27.0150379  61.4649950  85.2777640  43.6468520  56.1024145
  85.5174239  44.2787044  56.7803163  84.4346837  43.2956560  56.3889504
  86.3931356  26.3393122  44.7705950  85.5160822  26.2181923  44.4068196
  86.8689109  25.5479200  44.5184838  96.2604349  34.7946190  61.5404406
  95.3731128  34.4572112  61.6630804  96.8302900  34.0629221  61.7773171
  77.9133496  31.1270281  54.8647457  78.6004536  30.8132011  54.2768472
  77.7581625  32.0311646  54.5914708  82.7168218  26.0160478  59.2932481
  82.6326407  25.4086148  58.5582891  81.8950925  26.5069496  59.2941977
  89.7905502  39.4547642  58.5065649  89.7175674  40.2602614  59.0184953
  89.3482895  39.6539608  57.6813670  89.5795282  38.6919412  52.0168470
  88.7962804  39.2341092  52.1106695  90.2788027  39.2093392  52.4162711
  92.8891932  24.5014042  54.6602676  93.3860632  23.7484004  54.3403746
  92.1178914  24.5378358  54.0945885 100.7421689  30.2054407  56.3020967
 100.7311566  31.0879123  55.9314900  99.8739069  29.8525958  56.1075504
  92.2504186  39.3534476  60.6623807  92.9632158  39.9881941  60.5899709
  91.7594214  39.4498342  59.8463809  93.9721713  33.2585729  52.2341099
  93.0377991  33.3787191  52.0645803  94.1498381  32.3558196  51.9701109
  89.4726901  26.6431425  54.3874360  89.1024688  26.0902465  55.0755266
  89.9685993  26.0389558  53.8349360  97.3594264  29.1003048  52.7691133
  97.8254716  29.9331040  52.6951436  97.8101765  28.6348030  53.4736392
  87.3016099  37.1028920  61.4829378  88.0025559  37.7365403  61.6358772
  86.8311214  37.4443651  60.7225017  95.4270495  35.4446869  49.7677285
  95.7030339  35.3303464  50.6771159  94.5574994  35.0464354  49.7289458
  95.3310927  21.4683635  56.8082035  94.4174007  21.6987862  56.9764241
  95.7604028  21.5522079  57.6596067  95.1017385  29.6573527  59.3081929
  94.4488836  29.9049434  58.6534381  95.4797765  28.8437665  58.9744406
  92.0624559  39.6933220  53.4110099  92.2446954  38.8754876  53.8737851
  92.8857545  39.9100912  52.9734989  92.3966725  38.6201405  50.6725147
  92.9254491  38.1093860  50.0595309  92.6594944  38.3043936  51.5370680
  91.1504958  30.3993338  65.7947966  90.4745595  30.2987467  66.4650341
  91.9732592  30.2432552  66.2583963  82.8983817  36.6365275  58.4160481
  83.4837254  35.8908963  58.5488385  82.7008656  36.9469231  59.2997145
  85.7522473  39.6716522  53.4322923  85.0832848  40.1562650  52.9486963
  85.6135342  39.9185742  54.3466302  77.4901472  29.2070875  57.1364924
  77.5285572  28.6734466  57.9302042  76.9841765  28.6806080  56.5175901
  89.8927741  41.7060266  60.0305582  90.4446049  41.8691887  60.7954667
  90.2333935  42.2964703  59.3585606  84.8692234  24.0535415  60.6327466
  84.9333561  24.9150246  60.2204864  84.8059355  23.4409417  59.8999825
  84.3444507  26.1258548  64.2800501  84.9716546  25.7435625  64.8938025
  83.4872426  25.9072750  64.6456193  94.7438616  36.5321523  65.8854236
  95.2878520  37.1451481  65.3909191  94.1625460  37.0901101  66.4021249
  81.1210050  27.9334977  50.2118855  81.4163491  27.0245655  50.1585909
  80.2198085  27.9122716  49.8899858  93.0296129  39.6542241  57.0169264
  92.9047268  38.8531981  56.5080209  93.6875220  40.1488434  56.5283234
  84.6504297  26.0090974  56.1946404  83.9290882  26.6226941  56.0553877
  85.4397553  26.5448738  56.1163050  95.0931037  37.4551261  58.6448814
  94.1461372  37.3356612  58.5727141  95.4413810  36.5673759  58.7275075
  87.4530610  23.3445400  62.4687056  87.9765012  23.5907697  63.2313365
  87.2342944  24.1765435  62.0490193  82.8497891  25.6149075  50.3358181
  82.5210597  24.7346454  50.1533286  83.2037262  25.5596743  51.2234570
  92.0977470  37.2503977  54.8453166  91.9502433  36.3220685  55.0260736
  92.9230964  37.2724068  54.3610241  85.9639714  25.9022044  50.7033658
  86.3035787  26.4307966  49.9812267  86.4111835  26.2402451  51.4792225
  95.7011592  38.0732536  55.9318039  96.6258140  37.8675397  55.7942490
  95.5326895  37.8248937  56.8407380  88.6583155  24.2859095  60.1536726
  88.3179976  23.4866908  60.5557406  87.9522162  24.5860806  59.5813559
  89.3099627  21.3708408  58.6064049  90.1325696  20.8968886  58.4842940
  89.5537691  22.1498891  59.1062736  87.9507862  24.3996666  48.9026951
  88.6716224  24.7777919  48.3990668  87.3273166  25.1185543  49.0061929
  92.0938985  25.1041815  49.8385283  92.3102599  25.9866453  49.5374111
  91.6133052  24.7128028  49.1090925  86.8338206  28.0627528  56.4156028
  86.6882787  28.3767831  57.3080309  86.3563410  28.6812429  55.8626927
  88.6934589  25.0530076  56.4636917  88.6796158  24.1571170  56.1269215
  89.4107017  25.0600740  57.0975204  90.5460719  25.4867416  58.5090045
  90.2878497  26.4084487  58.5074375  90.0145760  25.0897851  59.1990509
  95.4906908  38.5918204  51.2880130  95.6643786  38.0264626  50.5353983
  95.9835799  39.3919098  51.1059620  81.3083868  30.6032873  59.3543689
  80.7637336  31.3792681  59.4863963  82.1863218  30.9503677  59.1962811
  88.0971485  23.9344456  51.7324488  88.2187396  23.0061103  51.9315375
  87.8073527  23.9483142  50.8202803  90.9662675  21.6199367  54.8691207
  90.9884372  21.6838700  53.9143187  91.3830734  20.7803876  55.0631714
 101.3446299  31.3554626  52.9070430 101.7877445  30.6061952  52.5089553
 100.4672810  31.3464763  52.5244162  96.4782081  37.9084968  48.3877029
  97.1732985  38.5291661  48.6064343  96.8205231  37.0580319  48.6629406
  82.0949890  29.7302769  62.2473846  81.3531626  29.8785404  62.8338476
  81.7742634  29.9911034  61.3840595  98.3773504  35.3584673  49.9164359
  98.9024828  35.6971946  49.1913679  98.2895856  34.4231689  49.7327494
  90.0393553  39.2718747  62.0454236  90.3480679  39.0267894  62.9176936
  90.8369035  39.4765386  61.5573106  90.0614165  41.4256657  54.2759613
  89.6219155  40.9333035  54.9692469  90.8122282  40.8829624  54.0351688
  82.5406504  37.6168198  54.2784241  83.3664523  37.3171969  53.8982884
  82.1900556  36.8475820  54.7274029  87.5088037  36.9694666  56.3481914
  86.8868046  36.3065371  56.0484142  88.1792904  36.9955798  55.6655562
  80.7415109  35.5354524  55.2373174  79.9047017  35.1076698  55.0557175
  80.7138754  35.7286967  56.1743965  87.5812564  25.4476454  65.9414420
  87.6300720  26.3238577  65.5592190  88.1235078  24.9053847  65.3686063
  98.0667410  35.9917577  65.2215557  97.2762954  35.9741716  64.6820057
  97.8300764  36.5305871  65.9764594  98.1865285  32.8410043  62.5348286
  98.2363290  32.6760051  63.4763809  98.0779208  31.9737303  62.1446167
  87.0701544  35.5198589  49.8240375  87.2189664  36.2034054  49.1707047
  87.8767987  35.5003679  50.3389830  95.4769047  28.8240972  63.8507593
  96.3778910  28.6847436  63.5591590  95.5517022  28.9895426  64.7905770
  89.8111853  26.2007826  62.6960779  88.9415162  26.4941392  62.4243367
  90.0471333  26.7848271  63.4168043  99.6883482  35.2606985  62.7790307
  99.3968290  35.6236966  63.6153768  99.0755613  34.5473993  62.6003639
 100.8879164  32.8259865  55.2992878 101.7226055  33.2649669  55.4630438
 101.0238293  32.3498518  54.4801123  97.9370670  30.3839600  61.2470365
  98.4124792  30.5767246  60.4389217  97.0136235  30.4398785  61.0013749
  84.8254177  31.5463767  50.8301444  84.5800219  30.6426097  51.0281654
  84.9950091  31.5480917  49.8880922  92.5150887  22.4187443  60.2126199
  93.0332830  23.1548470  59.8872688  92.1606019  22.7251436  61.0472958
  84.0949824  27.2792124  48.3287605  83.4019069  27.3536479  47.6727641
  83.8501576  26.5152468  48.8509122  92.7663481  18.8387726  55.7327096
  93.0465234  18.1710915  56.3587522  93.5514088  19.0316821  55.2201760
  90.5696949  38.0146720  47.2952122  89.9970916  38.6336907  46.8422594
  91.1429743  38.5646081  47.8292044  96.6372339  27.2605360  59.4798671
  97.5889762  27.3603457  59.5010895  96.4675789  26.4683628  59.9896755
  94.6586719  24.3460943  59.6658072  94.0636651  24.6265956  58.9704561
  94.3736415  24.8354844  60.4374813  93.7894209  38.2983870  48.4260704
  94.7224882  38.2329431  48.6293580  93.7017422  39.1340137  47.9675237
  96.4182226  37.6149740  45.3864652  96.3395857  37.2809604  46.2800410
  97.2391892  38.1071508  45.3856124  99.1160417  30.4811479  58.5940971
  99.0836737  29.5427480  58.7800654  99.7261040  30.5595516  57.8606795
  90.9543748  29.3507532  44.6368175  91.9002852  29.2213740  44.7056593
  90.5757993  28.6122194  45.1137603  99.2654905  27.2722523  58.6399254
  98.7493954  26.4880979  58.4529183 100.1494854  26.9441239  58.8045773
  96.9265632  21.0163538  54.5995066  96.7290453  20.7078627  55.4838398
  97.5365338  21.7425177  54.7292996 104.9336967  31.5427486  57.7347007
 105.6640355  31.2812774  58.2954711 104.3243912  30.8056208  57.7749075
 103.0152264  29.6835349  58.3321459 102.2885427  29.5491314  57.7237950
 102.5999551  29.9912177  59.1378177  90.8382440  33.4025278  66.0968832
  91.7585450  33.5803878  66.2908878  90.8032023  32.4581324  65.9448531
  89.1386665  27.2757509  44.5723060  88.2318120  26.9790621  44.6485773
  89.4162646  26.9787327  43.7057346  80.0564605  28.5963872  55.0222106
  79.7367390  27.7429180  54.7296480  79.5098033  28.8112450  55.7780074
  83.8344513  31.3126313  58.7391613  84.0530523  32.2443421  58.7579647
  84.2470287  30.9534288  59.5246417  90.7548731  21.8194398  50.7267301
  89.9449459  21.4741483  51.1022547  91.4433147  21.5101942  51.3154913
  92.6839279  20.8972445  52.3491598  93.2370317  21.3167899  53.0081621
  92.9209365  19.9708193  52.3914554  88.7072378  26.8859519  68.1294362
  88.6069105  27.8353876  68.0606453  88.4893920  26.5577758  67.2570432
  87.9085449  24.1344444  44.7135039  88.7704613  24.4599342  44.9730856
  88.0935794  23.3475940  44.2008105  79.9252865  32.2166784  56.9915228
  79.2316337  31.8020736  56.4785182  80.6725856  32.2587320  56.3948647
  96.0618086  23.0072970  51.8570262  95.4816755  23.6657774  51.4748314
  95.7954019  22.1850315  51.4457680  94.5121652  22.4078028  54.0591582
  95.0121431  22.5194563  53.2505901  95.1557260  22.1039081  54.6992391
  88.5703648  30.3156658  66.9459423  88.0870730  31.1157018  67.1523312
  88.6564587  30.3264603  65.9926867  81.8389608  32.1485037  54.8681243
  81.8160296  32.2472725  53.9163126  82.1490244  32.9950188  55.1898409
  84.4976986  34.2061192  58.9827857  85.4520239  34.1745135  58.9157789
  84.2989509  33.7451816  59.7978083  85.0876368  32.7762309  61.5498655
  85.9069257  33.2706387  61.5733492  85.3613175  31.8594277  61.5216222
  94.8442964  25.1673061  50.9126610  93.9568819  25.4522711  50.6946805
  95.2596953  25.0066824  50.0653887  98.1957500  25.1919582  54.6280950
  98.9717890  25.6816034  54.9005566  97.4705634  25.6177636  55.0852819
 100.6330059  25.9047201  55.6854890 101.2274550  25.6642937  54.9748198
 100.7056642  25.1854332  56.3128427  82.8527214  39.7480812  55.9998055
  82.7181682  38.9881213  55.4336053  82.4359277  40.4721712  55.5326844
  93.9886177  34.9317735  45.0074630  94.6922028  35.1367738  45.6232286
  93.2648826  35.4994497  45.2723714  94.8183988  30.6827597  51.1276900
  94.7619189  31.1396148  50.2884533  95.3712330  29.9218281  50.9499743
  98.6288794  26.4717329  51.9527020  98.3725728  26.0713964  52.7835228
  98.0041662  27.1861123  51.8277159 102.9401131  29.2113402  54.4598311
 102.3800689  29.2806591  55.2329873 102.3344635  29.0354386  53.7397808
  86.0096340  40.6450129  56.2116498  85.8928724  41.5895561  56.1095188
  85.1888787  40.3423691  56.6002297  95.8972875  35.3700265  47.0573090
  96.7318479  34.9381463  46.8750565  95.7357218  35.1982278  47.9849985
  95.5518767  31.8732378  48.4229430  95.4967571  31.7076649  47.4817874
  94.9264822  32.5808411  48.5791619  80.3411282  27.1100442  62.2490852
  80.9870146  26.5999396  62.7378077  80.1328433  27.8469124  62.8234277
  92.8664674  34.1781290  67.7482992  93.7355834  34.3521942  67.3869627
  92.3871426  34.9975707  67.6258722  88.8614892  21.3740487  48.0014748
  88.8493562  22.3182327  48.1583019  89.7538314  21.1910632  47.7074209
  87.0350854  41.2978391  59.4272426  87.9378101  41.3302001  59.7438921
  86.8088224  40.3678842  59.4418762  88.7904456  40.0509377  56.0882505
  87.8400087  40.0511239  55.9746877  89.0936943  39.3042112  55.5718539
  92.6767012  17.9683264  52.2560685  91.9099408  17.4141750  52.4017367
  93.0877717  18.0405132  53.1174837  84.6808773  24.2568059  66.3465866
  85.5440235  23.9004864  66.5569191  84.1074184  23.9181954  67.0341270
 104.5257150  45.8869916  57.1528267 105.1635560  45.7676663  56.4491607
 104.4077993  46.8350760  57.2116219 101.3346856  45.8397344  57.0889792
 100.9965368  45.7238409  56.2010327 102.2036624  45.4388509  57.0690798
  97.1933672  47.6932820  53.0786683  96.6298537  47.6022757  52.3102971
  97.0786067  46.8732725  53.5589175 101.8166639  46.9932196  63.0475997
 101.8055280  46.5984994  62.1756501 101.9787279  46.2598268  63.6409769
  94.7398104  49.1884012  55.9170903  95.5319396  48.8474837  55.5017203
  94.9794754  49.2978987  56.8373057 102.7733231  51.3603788  48.3901148
 102.1221210  51.9457868  48.0035161 103.5677593  51.8909983  48.4496185
  96.6988858  48.4492925  48.7888282  97.4719734  47.9021912  48.6501158
  97.0514257  49.3137174  49.0002743  98.5373900  49.7769307  61.9955181
  98.2463766  50.6814938  61.8801848  99.1730885  49.8185835  62.7099251
  99.4630107  47.1546156  58.5856541 100.0593679  46.9302178  57.8713504
  99.5205079  46.4130901  59.1881989  99.0355136  44.6085591  46.4206732
  99.2880656  44.0867113  45.6590195  98.0979695  44.4451737  46.5233416
 104.0798418  43.6121370  54.2281475 104.8661508  43.1940793  53.8771892
 104.3437123  44.5167462  54.3963124 104.2508496  49.0494220  48.9270132
 103.6154329  49.1228846  49.6391037 103.9205902  49.6387819  48.2489211
 109.4806846  43.5496603  55.1314454 110.2132017  42.9795820  55.3652283
 108.7246201  43.1618203  55.5720959  98.7551424  46.5113697  48.6231107
  98.6387682  45.8358601  49.2912191  98.8653684  46.0246071  47.8063260
 101.0982965  45.9723844  52.3277796 100.7341172  45.4454465  53.0390718
 101.9550081  45.5822313  52.1544282 107.0032266  37.2618177  59.5909062
 106.6715591  38.1313588  59.3670277 106.4077879  36.9454461  60.2703093
 100.7388452  41.0013744  47.3239145 100.9062855  41.8693980  47.6909616
 100.5485621  41.1641026  46.4000434 103.4963785  49.4630723  58.9904975
 103.1964509  50.3655762  58.8820782 103.1514845  49.1962906  59.8426128
  96.9476267  45.9144520  55.0241679  96.0226763  45.7820734  55.2319371
  97.1960680  46.6938739  55.5211622 106.8960929  41.9813263  56.6702412
 105.9877807  41.9128672  56.3761173 106.8448525  42.4585208  57.4984238
 100.7177673  43.4571402  48.3085811 100.5977298  43.9028452  49.1471292
 100.0230261  43.8056719  47.7499350  94.3085078  45.5577793  55.8585469
  94.4377459  45.8112272  56.7724880  93.6282529  46.1505501  55.5390124
  98.4784565  56.2275043  51.9575943  98.4008595  57.1782868  52.0364423
  97.8746209  55.8820916  52.6150869 100.9701795  43.4002909  64.6137310
 100.1935129  43.9596829  64.6040174 101.6092358  43.8859692  65.1352180
 108.7622576  40.1829702  58.4480286 108.1196956  40.4762235  57.8020081
 108.2577504  40.0682622  59.2533483 106.4162739  43.9292875  49.1366146
 107.3280595  44.1620261  48.9613843 105.9072386  44.5129919  48.5741224
  99.2248167  46.2088362  64.1755277  99.9662852  46.7473406  63.8990100
  98.5185153  46.8354651  64.3326828 104.7003507  48.3517503  62.7727438
 105.1086863  47.9099913  62.0282070 103.9780768  47.7770130  63.0261631
 101.0534577  43.2890109  60.1460995 101.8995772  43.7129523  60.2895644
 100.9933215  42.6323734  60.8399558 105.0232322  48.9118693  56.5279727
 104.3941184  49.0764407  55.8255795 104.6357984  49.3260303  57.2990691
 108.9021553  49.8473131  53.8824091 108.2172592  50.2272032  53.3321124
 108.9865403  50.4568458  54.6156039 104.2034022  40.9494478  61.8042169
 103.9594954  41.7036538  61.2676444 104.4793953  41.3279825  62.6389416
 106.1572485  47.4933090  60.4819434 106.3689380  48.1364850  59.8053815
 106.1102233  46.6595407  60.0141364 103.7598714  40.1050911  57.3856006
 102.8983193  40.4032164  57.6772744 103.7861149  40.3221310  56.4537039
 100.5760283  48.6493101  53.7929812 101.0398629  48.9280804  53.0034435
 100.3117082  47.7476546  53.6102903  97.4684365  48.1964583  56.7309575
  98.0385722  48.6251851  56.0927060  98.0592476  47.9147168  57.4293761
  99.5129170  44.7716254  50.6019377 100.2153213  45.2237297  51.0693304
  99.1809798  44.1300072  51.2299270  97.9609531  43.3628010  64.9770587
  97.3308192  44.0444291  65.2105983  97.8545619  43.2511092  64.0323725
  93.2554503  43.0299806  55.9036511  92.4653557  43.2857335  55.4276621
  93.7465751  43.8448144  56.0088551 107.2718313  50.3705045  58.6541792
 108.0935757  49.9685233  58.3724473 107.2680716  50.2673280  59.6057907
  95.2069249  43.3944386  52.8619987  94.4100412  43.5063080  53.3803483
  94.9794841  43.7331038  51.9960878 101.0374916  49.9189089  60.8102502
 101.1019349  50.3809496  61.6460674 100.3285840  49.2886454  60.9384812
  91.5392206  43.2830297  58.3351502  91.7900245  44.1677307  58.6009078
  92.0751755  43.1034898  57.5626593 115.3624306  46.7143794  55.0026763
 114.6088014  46.1451192  54.8470768 115.4971847  46.6806458  55.9497398
 100.7522934  51.5857196  50.6781482 100.6168609  52.4308732  51.1066330
 101.2932747  51.7876474  49.9147416  97.2390274  37.6648776  67.3395838
  96.8457219  37.1114975  68.0143482  98.0556414  37.9759355  67.7302355
  94.2052332  49.1032634  51.2509408  94.7176852  49.8975885  51.4014972
  94.8575044  48.4058925  51.1843009  96.0147216  52.2198391  53.3332161
  96.1913845  53.1416355  53.1453145  96.8104050  51.9056810  53.7626540
 100.1558235  39.0806655  64.9316094 100.8967948  39.6813808  64.8520557
 100.3876158  38.3384293  64.3734137 102.3791411  52.2080763  64.8081825
 101.9355265  51.4217141  64.4902729 103.0408624  52.3959913  64.1425715
  97.1378532  53.7376564  59.3342503  97.6885957  53.6093628  58.5619497
  96.2990008  54.0371453  58.9837396 104.4772649  52.4883563  62.8363226
 104.4591124  53.3092444  62.3443495 105.3992569  52.3637638  63.0613367
 100.9345703  50.0027692  63.6786734 101.4674040  49.2415980  63.4486042
 100.4059784  49.7101344  64.4210889 104.1015398  35.1087758  59.2080376
 103.7579667  35.9989400  59.1319486 104.4694360  34.9189416  58.3449961
  92.1701248  47.4321289  52.0268978  93.0076470  47.8418297  51.8102686
  92.3479516  46.4920731  51.9969172 104.0665680  45.0996369  47.7152811
 103.5512304  45.8700974  47.9541198 103.7942989  44.4261505  48.3385872
 101.6512791  39.9446070  52.7738049 100.7954388  39.5552920  52.5943688
 102.0639743  40.0238031  51.9137835 103.1811938  37.4792413  57.1729609
 102.6776734  37.4422548  56.3597414 103.4742545  38.3885156  57.2326266
  99.4254824  37.5631143  56.1795791 100.2907821  37.3673952  55.8201680
  99.4932333  37.3341495  57.1065148 109.0399955  47.8528724  49.6505985
 108.2629397  47.5139883  49.2061147 109.7191436  47.8581347  48.9760950
 103.8551984  42.9723461  49.5412592 103.5502119  43.2869611  50.3922735
 104.8082426  43.0504881  49.5839925 102.2998415  49.1313685  51.1905546
 101.7719777  48.3966444  50.8778784 101.7985918  49.9088361  50.9445515
 107.2791261  47.3262705  56.3072592 106.6214936  48.0161967  56.3952721
 108.0831661  47.7159137  56.6506579  97.0317143  39.7933351  53.5512158
  97.6060895  39.5708532  52.8185351  97.6188125  39.8622045  54.3040759
 106.0896720  45.6807078  54.3576534 106.6028602  46.3137070  54.8598244
 106.7397944  45.0808273  53.9919894  97.3586730  41.8237812  47.5708043
  96.5224042  42.1612499  47.8917318  97.2191500  41.6886792  46.6335180
  99.3339811  36.6674600  52.2787227  98.6804223  36.3523617  51.6543842
  99.2920285  36.0450340  53.0047050 100.4451016  46.9493895  44.1940519
  99.5378077  46.7183148  44.3931668 100.9422048  46.1531514  44.3814501
 103.3519095  55.6591402  47.1137205 102.6780793  55.9623099  47.7222163
 103.7384916  56.4620482  46.7642662 102.5677551  43.1556533  56.6034875
 101.6500112  43.3771480  56.4456563 102.9837695  43.2302844  55.7446582
 103.3512599  44.5547949  51.7337555 104.0984418  45.0669346  51.4244677
 103.6204188  44.2332002  52.5941949 101.6239249  47.0506490  48.7164509
 100.7150468  46.7665523  48.8136979 101.6534333  47.4705568  47.8567816
 106.8558516  50.6613079  52.4855677 106.4020844  49.8203989  52.5420867
 106.2252483  51.2974478  52.8230457 105.7991436  41.5905065  53.7156344
 105.0614193  41.0782452  54.0466587 106.0518210  41.1505447  52.9039621
 105.2991456  52.4989576  53.4205495 105.5914430  53.0594633  52.7017861
 105.8090076  52.7918137  54.1758654 105.9003063  34.3681317  54.3098114
 106.2061940  33.5078681  54.0224029 106.6255668  34.9598938  54.1097107
  92.1927419  44.7712004  52.6979712  91.9951819  44.1781365  51.9730778
  91.6374083  44.4664214  53.4155650 100.1724143  44.6635110  54.8174305
 100.2272753  43.7108947  54.7416781  99.3615345  44.8194549  55.3015603
 101.3215337  48.5915233  46.0552588 100.8834767  47.8751092  45.5958225
 102.0625778  48.8191348  45.4937679  98.1116503  43.2812170  52.5764684
  97.2984369  43.5806341  52.9829876  98.6075497  42.8867859  53.2939166
 100.2625081  53.2769927  54.5098948 100.2201260  53.5030773  53.5807480
 101.1787780  53.0433302  54.6584749 103.7090715  43.7453995  61.4079577
 104.0640102  43.9725468  62.2674043 104.3562846  44.0772371  60.7856833
 109.4388452  46.8672430  52.1128906 109.3006350  47.0574026  51.1850096
 109.0824670  47.6291813  52.5696958  97.6030578  40.8530526  58.1925918
  98.2429957  40.7119285  57.4948882  96.7708108  40.5665039  57.8164520
 109.4657831  48.9348958  57.1240178 109.8994338  48.8424247  57.9723232
 110.1789412  48.9106458  56.4860194  98.3790882  50.1532956  54.3060911
  99.1731480  49.6583276  54.1043486  97.6682574  49.6250819  53.9428617
 103.1985726  52.5351052  58.6573279 103.2522748  53.1041988  59.4250994
 102.3300508  52.7052937  58.2927316  94.6873645  44.2976038  50.3820664
  93.7571233  44.2360493  50.5990626  94.7831117  43.7751991  49.5857305
  94.6059194  40.8230851  52.9698905  94.8666011  41.7376184  52.8608066
  95.4276367  40.3555293  53.1195518  96.0784120  42.2368608  60.1397730
  96.7507173  42.0285970  59.4910379  95.2513906  42.0390694  59.7002962
 110.3273381  48.9772658  59.6573063 110.5209271  49.8818469  59.9032338
 110.2273999  48.5180077  60.4911648 101.9809692  38.8630549  62.1563391
 101.3337607  39.5620498  62.0627867 102.7510707  39.2966693  62.5239639
 105.3888489  49.1279401  65.2313944 105.2373996  48.8989953  64.3144028
 105.3793169  50.0850002  65.2445289 102.1573826  46.7011314  60.2160210
 103.0865886  46.8522473  60.0429178 101.7364856  46.7895334  59.3608857
 100.9562158  50.7261978  57.9858748 100.8173243  50.3580762  58.8584686
 100.1676754  51.2409617  57.8142706 101.5510310  55.8271075  49.3284285
 101.7262065  55.3559118  50.1429907 100.8643098  56.4536841  49.5565545
 102.5067373  50.1043581  55.3747586 102.1717205  50.0644351  56.2705236
 102.0071319  49.4388297  54.9017996  96.4811617  45.5111211  60.9000167
  96.3431415  44.7791450  61.5011706  97.3916540  45.4220111  60.6184355
 105.4426564  47.4499615  45.6484645 104.8255735  46.7246443  45.5517698
 104.9743053  48.2108975  45.3051720  99.1093917  45.2231170  60.3883847
  99.8193536  44.5824362  60.3470465  99.0663226  45.4744065  61.3110027
 107.0980696  52.1598523  63.3090426 107.0393242  51.4757744  62.6421009
 107.5000215  52.9017513  62.8571052  97.8222851  42.2096388  62.2079486
  97.2860208  41.7587126  62.8601082  97.2339560  42.3442297  61.4649950
  96.1171395  58.9760437  56.1024145  96.3567993  59.6078961  56.7803163
  95.2740591  58.6248477  56.3889504  97.2325110  41.6685039  44.7705950
  96.3554577  41.5473840  44.4068196  97.7082863  40.8771118  44.5184838
 107.0998103  50.1238107  61.5404406 106.2124882  49.7864029  61.6630804
 107.6696654  49.3921139  61.7773171  88.7527251  46.4562199  54.8647457
  89.4398290  46.1423929  54.2768472  88.5975379  47.3603564  54.5914708
  93.5561973  41.3452396  59.2932481  93.4720161  40.7378065  58.5582891
  92.7344679  41.8361414  59.2941977 100.6299257  54.7839560  58.5065649
 100.5569428  55.5894531  59.0184953 100.1876650  54.9831526  57.6813670
 100.4189036  54.0211330  52.0168470  99.6356558  54.5633010  52.1106695
 101.1181782  54.5385309  52.4162711 103.7285687  39.8305959  54.6602676
 104.2254386  39.0775922  54.3403746 102.9572668  39.8670276  54.0945885
 111.5815444  45.5346325  56.3020967 111.5705320  46.4171040  55.9314900
 110.7132823  45.1817876  56.1075504 103.0897940  54.6826394  60.6623807
 103.8025913  55.3173859  60.5899709 102.5987969  54.7790260  59.8463809
 104.8115467  48.5877646  52.2341099 103.8771746  48.7079109  52.0645803
 104.9892136  47.6850113  51.9701109 100.3120655  41.9723342  54.3874360
  99.9418443  41.4194383  55.0755266 100.8079748  41.3681476  53.8349360
 108.1988019  44.4294966  52.7691133 108.6648471  45.2622957  52.6951436
 108.6495519  43.9639947  53.4736392  98.1409854  52.4320837  61.4829378
  98.8419313  53.0657320  61.6358772  97.6704969  52.7735569  60.7225017
 106.2664250  50.7738787  49.7677285 106.5424094  50.6595382  50.6771159
 105.3968748  50.3756272  49.7289458 106.1704681  36.7975553  56.8082035
 105.2567761  37.0279780  56.9764241 106.5997783  36.8813997  57.6596067
 105.9411140  44.9865445  59.3081929 105.2882590  45.2341352  58.6534381
 106.3191520  44.1729583  58.9744406 102.9018314  55.0225138  53.4110099
 103.0840708  54.2046794  53.8737851 103.7251300  55.2392830  52.9734989
 103.2360479  53.9493323  50.6725147 103.7648246  53.4385778  50.0595309
 103.4988699  53.6335853  51.5370680 101.9898713  45.7285256  65.7947966
 101.3139350  45.6279385  66.4650341 102.8126347  45.5724469  66.2583963
  88.3295227  44.5362792  57.1364924  88.3679326  44.0026383  57.9302042
  87.8235519  44.0097998  56.5175901 100.7321496  57.0352183  60.0305582
 101.2839804  57.1983805  60.7954667 101.0727689  57.6256621  59.3585606
  95.7085989  39.3827333  60.6327466  95.7727315  40.2442164  60.2204864
  95.6453109  38.7701335  59.8999825  95.1838261  41.4550466  64.2800501
  95.8110300  41.0727543  64.8938025  94.3266180  41.2364667  64.6456193
 105.5832370  51.8613441  65.8854236 106.1272274  52.4743399  65.3909191
 105.0019215  52.4193019  66.4021249  91.9603804  43.2626895  50.2118855
  92.2557245  42.3537573  50.1585909  91.0591840  43.2414634  49.8899858
 103.8689883  54.9834159  57.0169264 103.7441022  54.1823899  56.5080209
 104.5268974  55.4780352  56.5283234  95.4898051  41.3382891  56.1946404
  94.7684637  41.9518859  56.0553877  96.2791307  41.8740656  56.1163050
 105.9324791  52.7843179  58.6448814 104.9855127  52.6648530  58.5727141
 106.2807564  51.8965677  58.7275075  98.2924365  38.6737318  62.4687056
  98.8158767  38.9199614  63.2313365  98.0736698  39.5057353  62.0490193
  93.6891646  40.9440992  50.3358181  93.3604352  40.0638371  50.1533286
  94.0431017  40.8888661  51.2234570 102.9371225  52.5795895  54.8453166
 102.7896187  51.6512602  55.0260736 103.7624718  52.6015986  54.3610241
  96.8033469  41.2313962  50.7033658  97.1429541  41.7599883  49.9812267
  97.2505589  41.5694368  51.4792225 106.5405347  53.4024454  55.9318039
 107.4651894  53.1967315  55.7942490 106.3720650  53.1540855  56.8407380
  99.4976910  39.6151013  60.1536726  99.1573730  38.8158826  60.5557406
  98.7915916  39.9152724  59.5813559 100.1493382  36.7000325  58.6064049
 100.9719451  36.2260803  58.4842940 100.3931445  37.4790809  59.1062736
  98.7901616  39.7288584  48.9026951  99.5109979  40.1069836  48.3990668
  98.1666920  40.4477461  49.0061929 102.9332739  40.4333733  49.8385283
 103.1496353  41.3158371  49.5374111 102.4526806  40.0419946  49.1090925
  97.6731960  43.3919446  56.4156028  97.5276541  43.7059749  57.3080309
  97.1957164  44.0104346  55.8626927  99.5328343  40.3821994  56.4636917
  99.5189912  39.4863087  56.1269215 100.2500771  40.3892658  57.0975204
 101.3854474  40.8159334  58.5090045 101.1272252  41.7376405  58.5074375
 100.8539514  40.4189769  59.1990509 106.3300663  53.9210121  51.2880130
 106.5037540  53.3556544  50.5353983 106.8229554  54.7211016  51.1059620
  92.1477623  45.9324790  59.3543689  91.6031091  46.7084598  59.4863963
  93.0256972  46.2795595  59.1962811  98.9365239  39.2636374  51.7324488
  99.0581150  38.3353020  51.9315375  98.6467282  39.2775060  50.8202803
 101.8056430  36.9491285  54.8691207 101.8278126  37.0130618  53.9143187
 102.2224489  36.1095793  55.0631714 112.1840054  46.6846544  52.9070430
 112.6271200  45.9353869  52.5089553 111.3066564  46.6756681  52.5244162
 107.3175835  53.2376886  48.3877029 108.0126740  53.8583578  48.6064343
 107.6598985  52.3872237  48.6629406 109.2167258  50.6876591  49.9164359
 109.7418582  51.0263864  49.1913679 109.1289611  49.7523606  49.7327494
 100.8787307  54.6010665  62.0454236 101.1874433  54.3559812  62.9176936
 101.6762789  54.8057303  61.5573106 100.9007919  56.7548574  54.2759613
 100.4612909  56.2624953  54.9692469 101.6516036  56.2121542  54.0351688
  93.3800258  52.9460115  54.2784241  94.2058278  52.6463887  53.8982884
  93.0294310  52.1767738  54.7274029  98.3481791  52.2986584  56.3481914
  97.7261801  51.6357289  56.0484142  99.0186658  52.3247715  55.6655562
  91.5808863  50.8646442  55.2373174  90.7440771  50.4368616  55.0557175
  91.5532509  51.0578885  56.1743965  98.4206319  40.7768372  65.9414420
  98.4694474  41.6530494  65.5592190  98.9628833  40.2345765  65.3686063
 108.9061164  51.3209495  65.2215557 108.1156708  51.3033634  64.6820057
 108.6694519  51.8597788  65.9764594 109.0259039  48.1701961  62.5348286
 109.0757044  48.0051969  63.4763809 108.9172963  47.3029220  62.1446167
  97.9095298  50.8490507  49.8240375  98.0583419  51.5325971  49.1707047
  98.7161742  50.8295597  50.3389830 106.3162802  44.1532889  63.8507593
 107.2172665  44.0139354  63.5591590 106.3910776  44.3187344  64.7905770
 100.6505607  41.5299744  62.6960779  99.7808917  41.8233310  62.4243367
 100.8865088  42.1140189  63.4168043 110.5277236  50.5898903  62.7790307
 110.2362045  50.9528883  63.6153768 109.9149368  49.8765911  62.6003639
 111.7272919  48.1551782  55.2992878 112.5619810  48.5941587  55.4630438
 111.8632047  47.6790436  54.4801123 108.7764425  45.7131517  61.2470365
 109.2518546  45.9059164  60.4389217 107.8529990  45.7690703  61.0013749
  95.6647931  46.8755684  50.8301444  95.4193973  45.9718014  51.0281654
  95.8343846  46.8772835  49.8880922 103.3544641  37.7479361  60.2126199
 103.8726585  38.4840388  59.8872688 102.9999774  38.0543354  61.0472958
  94.9343579  42.6084042  48.3287605  94.2412824  42.6828397  47.6727641
  94.6895331  41.8444386  48.8509122 103.6057235  34.1679643  55.7327096
 103.8858989  33.5002832  56.3587522 104.3907842  34.3608739  55.2201760
 101.4090704  53.3438637  47.2952122 100.8364671  53.9628824  46.8422594
 101.9823497  53.8937999  47.8292044 107.4766094  42.5897277  59.4798671
 108.4283516  42.6895375  59.5010895 107.3069544  41.7975546  59.9896755
 105.4980473  39.6752861  59.6658072 104.9030405  39.9557873  58.9704561
 105.2130170  40.1646762  60.4374813 104.6287963  53.6275787  48.4260704
 105.5618637  53.5621349  48.6293580 104.5411176  54.4632054  47.9675237
 107.2575980  52.9441658  45.3864652 107.1789612  52.6101521  46.2800410
 108.0785647  53.4363426  45.3856124 109.9554171  45.8103397  58.5940971
 109.9230491  44.8719398  58.7800654 110.5654795  45.8887434  57.8606795
 101.7937502  44.6799450  44.6368175 102.7396607  44.5505658  44.7056593
 101.4151747  43.9414112  45.1137603 110.1048660  42.6014441  58.6399254
 109.5887708  41.8172897  58.4529183 110.9888608  42.2733157  58.8045773
 107.7659387  36.3455456  54.5995066 107.5684208  36.0370544  55.4838398
 108.3759092  37.0717095  54.7292996 115.7730721  46.8719404  57.7347007
 116.5034110  46.6104692  58.2954711 115.1637667  46.1348126  57.7749075
 113.8546018  45.0127266  58.3321459 113.1279182  44.8783231  57.7237950
 113.4393305  45.3204095  59.1378177 101.6776195  48.7317196  66.0968832
 102.5979204  48.9095795  66.2908878 101.6425778  47.7873242  65.9448531
  99.9780419  42.6049426  44.5723060  99.0711875  42.3082539  44.6485773
 100.2556400  42.3079245  43.7057346  90.8958360  43.9255790  55.0222106
  90.5761144  43.0721098  54.7296480  90.3491788  44.1404368  55.7780074
  94.6738267  46.6418231  58.7391613  94.8924277  47.5735339  58.7579647
  95.0864041  46.2826205  59.5246417 101.5942485  37.1486316  50.7267301
 100.7843213  36.8033401  51.1022547 102.2826902  36.8393860  51.3154913
 103.5233033  36.2264363  52.3491598 104.0764072  36.6459816  53.0081621
 103.7603120  35.3000111  52.3914554  99.5466133  42.2151437  68.1294362
  99.4462859  43.1645794  68.0606453  99.3287675  41.8869676  67.2570432
  98.7479204  39.4636362  44.7135039  99.6098368  39.7891260  44.9730856
  98.9329548  38.6767858  44.2008105  90.7646620  47.5458701  56.9915228
  90.0710091  47.1312654  56.4785182  91.5119611  47.5879238  56.3948647
 106.9011840  38.3364888  51.8570262 106.3210509  38.9949692  51.4748314
 106.6347773  37.5142233  51.4457680 105.3515407  37.7369946  54.0591582
 105.8515185  37.8486480  53.2505901 105.9951015  37.4330999  54.6992391
  99.4097403  45.6448575  66.9459423  98.9264484  46.4448936  67.1523312
  99.4958342  45.6556520  65.9926867  92.6783362  47.4776955  54.8681243
  92.6554050  47.5764642  53.9163126  92.9883999  48.3242106  55.1898409
  95.9270122  48.1054226  61.5498655  96.7463011  48.5998305  61.5733492
  96.2006930  47.1886194  61.5216222 105.6836718  40.4964978  50.9126610
 104.7962573  40.7814629  50.6946805 106.0990708  40.3358742  50.0653887
 109.0351255  40.5211499  54.6280950 109.8111645  41.0107952  54.9005566
 108.3099389  40.9469554  55.0852819 111.4723813  41.2339119  55.6854890
 112.0668304  40.9934855  54.9748198 111.5450397  40.5146249  56.3128427
  93.6920969  55.0772730  55.9998055  93.5575437  54.3173131  55.4336053
  93.2753031  55.8013629  55.5326844 104.8279932  50.2609653  45.0074630
 105.5315782  50.4659656  45.6232286 104.1042581  50.8286415  45.2723714
 105.6577742  46.0119514  51.1276900 105.6012944  46.4688066  50.2884533
 106.2106085  45.2510199  50.9499743 109.4682548  41.8009246  51.9527020
 109.2119482  41.4005882  52.7835228 108.8435416  42.5153040  51.8277159
 113.7794886  44.5405320  54.4598311 113.2194444  44.6098509  55.2329873
 113.1738389  44.3646304  53.7397808  96.8490095  55.9742047  56.2116498
  96.7322479  56.9187479  56.1095188  96.0282541  55.6715608  56.6002297
 106.7366629  50.6992182  47.0573090 107.5712233  50.2673381  46.8750565
 106.5750972  50.5274196  47.9849985 106.3912522  47.2024296  48.4229430
 106.3361325  47.0368567  47.4817874 105.7658577  47.9100329  48.5791619
 103.7058429  49.5073208  67.7482992 104.5749588  49.6813860  67.3869627
 103.2265180  50.3267624  67.6258722  99.7008647  36.7032405  48.0014748
  99.6887317  37.6474245  48.1583019 100.5932069  36.5202550  47.7074209
  97.8744609  56.6270309  59.4272426  98.7771856  56.6593919  59.7438921
  97.6481979  55.6970759  59.4418762  99.6298211  55.3801295  56.0882505
  98.6793842  55.3803157  55.9746877  99.9330697  54.6334030  55.5718539
 103.5160766  33.2975181  52.2560685 102.7493162  32.7433668  52.4017367
 103.9271471  33.3697050  53.1174837  95.5202527  39.5859977  66.3465866
  96.3833989  39.2296782  66.5569191  94.9467938  39.2473872  67.0341270
 112.1740611  61.1689262  57.0889792 111.8359122  61.0530326  56.2010327
 113.0430379  60.7680427  57.0690798 112.6560394  62.3224113  63.0475997
 112.6449034  61.9276912  62.1756501 112.8181033  61.5890186  63.6409769
 109.8748890  59.9377509  46.4206732 110.1274411  59.4159030  45.6590195
 108.9373449  59.7743654  46.5233416 109.5945179  61.8405615  48.6231107
 109.4781437  61.1650518  49.2912191 109.7047439  61.3537989  47.8063260
 111.9376720  61.3015762  52.3277796 111.5734927  60.7746383  53.0390718
 112.7943836  60.9114231  52.1544282 117.8426020  52.5910095  59.5909062
 117.5109345  53.4605506  59.3670277 117.2471634  52.2746379  60.2703093
 111.5782207  56.3305662  47.3239145 111.7456609  57.1985898  47.6909616
 111.3879376  56.4932943  46.4000434 114.3357540  64.7922641  58.9904975
 114.0358263  65.6947679  58.8820782 113.9908599  64.5254824  59.8426128
 111.5571428  58.7863319  48.3085811 111.4371053  59.2320370  49.1471292
 110.8624016  59.1348637  47.7499350 111.8095549  58.7294826  64.6137310
 111.0328884  59.2888747  64.6040174 112.4486113  59.2151609  65.1352180
 119.6016330  55.5121619  58.4480286 118.9590710  55.8054152  57.8020081
 119.0971259  55.3974540  59.2533483 110.0641922  61.5380280  64.1755277
 110.8056606  62.0765324  63.8990100 109.3578907  62.1646569  64.3326828
 115.5397261  63.6809420  62.7727438 115.9480617  63.2391831  62.0282070
 114.8174523  63.1062048  63.0261631 111.8928331  58.6182027  60.1460995
 112.7389527  59.0421441  60.2895644 111.8326969  57.9615651  60.8399558
 115.0427777  56.2786395  61.8042169 114.7988709  57.0328456  61.2676444
 115.3187707  56.6571743  62.6389416 116.9966240  62.8225008  60.4819434
 117.2083135  63.4656768  59.8053815 116.9495988  61.9887324  60.0141364
 114.5992469  55.4342828  57.3856006 113.7376948  55.7324082  57.6772744
 114.6254903  55.6513227  56.4537039 110.3522924  60.1008171  50.6019377
 111.0546967  60.5529215  51.0693304 110.0203552  59.4591990  51.2299270
 108.8003286  58.6919928  64.9770587 108.1701946  59.3736209  65.2105983
 108.6939373  58.5803010  64.0323725 106.0463003  58.7236303  52.8619987
 105.2494167  58.8354997  53.3803483 105.8188596  59.0622955  51.9960878
 126.2018061  62.0435712  55.0026763 125.4481769  61.4743110  54.8470768
 126.3365602  62.0098376  55.9497398 108.0784028  52.9940694  67.3395838
 107.6850974  52.4406892  68.0143482 108.8950169  53.3051272  67.7302355
 110.9951989  54.4098573  64.9316094 111.7361703  55.0105726  64.8520557
 111.2269912  53.6676211  64.3734137 106.1393327  59.5954940  63.2094324
 106.0246842  58.6940197  63.5101423 105.2837845  59.8418637  62.8579140
 114.9409152  50.4379676  59.2080376 114.5973422  51.3281317  59.1319486
 115.3088115  50.2481333  58.3449961 112.4906546  55.2737988  52.7738049
 111.6348142  54.8844838  52.5943688 112.9033498  55.3529949  51.9137835
 114.0205693  52.8084331  57.1729609 113.5170488  52.7714466  56.3597414
 114.3136299  53.7177074  57.2326266 110.2648578  52.8923061  56.1795791
 111.1301575  52.6965869  55.8201680 110.3326087  52.6633412  57.1065148
 107.8710898  55.1225269  53.5512158 108.4454649  54.9000450  52.8185351
 108.4581880  55.1913963  54.3040759 108.1980485  57.1529730  47.5708043
 107.3617797  57.4904416  47.8917318 108.0585254  57.0178709  46.6335180
 110.1733565  51.9966518  52.2787227 109.5197978  51.6815535  51.6543842
 110.1314039  51.3742258  53.0047050 111.2844770  62.2785813  44.1940519
 110.3771832  62.0475066  44.3931668 111.7815802  61.4823432  44.3814501
 113.4071306  58.4848451  56.6034875 112.4893867  58.7063398  56.4456563
 113.8231449  58.5594762  55.7446582 116.6385191  56.9196983  53.7156344
 115.9007947  56.4074369  54.0466587 116.8911964  56.4797365  52.9039621
 116.7396818  49.6973235  54.3098114 117.0455695  48.8370598  54.0224029
 117.4649423  50.2890855  54.1097107 111.0117898  59.9927028  54.8174305
 111.0666507  59.0400864  54.7416781 110.2009100  60.1486467  55.3015603
 108.9510258  58.6104088  52.5764684 108.1378123  58.9098258  52.9829876
 109.4469252  58.2159777  53.2939166 114.5484469  59.0745912  61.4079577
 114.9033857  59.3017385  62.2674043 115.1956600  59.4064289  60.7856833
 108.4424332  56.1822443  58.1925918 109.0823712  56.0411202  57.4948882
 107.6101863  55.8956957  57.8164520 105.5267400  59.6267955  50.3820664
 104.5964988  59.5652411  50.5990626 105.6224872  59.1043908  49.5857305
 105.4452949  56.1522768  52.9698905 105.7059766  57.0668102  52.8608066
 106.2670121  55.6847211  53.1195518 106.9177874  57.5660525  60.1397730
 107.5900927  57.3577888  59.4910379 106.0907661  57.3682611  59.7002962
 112.8203446  54.1922466  62.1563391 112.1731361  54.8912416  62.0627867
 113.5904461  54.6258610  62.5239639 116.2282244  64.4571319  65.2313944
 116.0767750  64.2281870  64.3144028 116.2186923  65.4141920  65.2445289
 112.9967580  62.0303231  60.2160210 113.9259640  62.1814391  60.0429178
 112.5758610  62.1187252  59.3608857 107.3205371  60.8403128  60.9000167
 107.1825169  60.1083367  61.5011706 108.2310295  60.7512029  60.6184355
 109.9487672  60.5523088  60.3883847 110.6587290  59.9116280  60.3470465
 109.9056980  60.8035983  61.3110027 108.6616606  57.5388306  62.2079486
 108.1253963  57.0879044  62.8601082 108.0733314  57.6734215  61.4649950
 108.0718865  56.9976957  44.7705950 107.1948331  56.8765758  44.4068196
 108.5476618  56.2063035  44.5184838 104.3955727  56.6744313  59.2932481
 104.3113916  56.0669983  58.5582891 103.5738434  57.1653332  59.2941977
 114.5679441  55.1597877  54.6602676 115.0648141  54.4067839  54.3403746
 113.7966423  55.1962194  54.0945885 122.4209198  60.8638242  56.3020967
 122.4099075  61.7462958  55.9314900 121.5526578  60.5109793  56.1075504
 111.1514410  57.3015260  54.3874360 110.7812197  56.7486300  55.0755266
 111.6473502  56.6973393  53.8349360 117.0098436  52.1267470  56.8082035
 116.0961516  52.3571697  56.9764241 117.4391537  52.2105914  57.6596067
 112.8292467  61.0577173  65.7947966 112.1533104  60.9571303  66.4650341
 113.6520101  60.9016387  66.2583963 106.5479743  54.7119251  60.6327466
 106.6121070  55.5734082  60.2204864 106.4846864  54.0993252  59.8999825
 106.0232016  56.7842383  64.2800501 106.6504055  56.4019461  64.8938025
 105.1659935  56.5656585  64.6456193 116.4226125  67.1905358  65.8854236
 116.9666029  67.8035317  65.3909191 115.8412969  67.7484937  66.4021249
 102.7997559  58.5918812  50.2118855 103.0951000  57.6829491  50.1585909
 101.8985594  58.5706552  49.8899858 106.3291806  56.6674809  56.1946404
 105.6078391  57.2810777  56.0553877 107.1185061  57.2032574  56.1163050
 109.1318119  54.0029235  62.4687056 109.6552521  54.2491532  63.2313365
 108.9130453  54.8349270  62.0490193 104.5285400  56.2732910  50.3358181
 104.1998106  55.3930289  50.1533286 104.8824771  56.2180579  51.2234570
 107.6427223  56.5605880  50.7033658 107.9823296  57.0891801  49.9812267
 108.0899344  56.8986286  51.4792225 110.3370664  54.9442931  60.1536726
 109.9967485  54.1450744  60.5557406 109.6309671  55.2444641  59.5813559
 110.9887136  52.0292243  58.6064049 111.8113205  51.5552721  58.4842940
 111.2325200  52.8082727  59.1062736 109.6295371  55.0580501  48.9026951
 110.3503733  55.4361754  48.3990668 109.0060675  55.7769378  49.0061929
 113.7726493  55.7625650  49.8385283 113.9890108  56.6450288  49.5374111
 113.2920561  55.3711864  49.1090925 108.5125715  58.7211364  56.4156028
 108.3670296  59.0351667  57.3080309 108.0350918  59.3396264  55.8626927
 110.3722098  55.7113912  56.4636917 110.3583667  54.8155005  56.1269215
 111.0894526  55.7184575  57.0975204 112.2248228  56.1451252  58.5090045
 111.9666006  57.0668322  58.5074375 111.6933269  55.7481686  59.1990509
 109.7758994  54.5928292  51.7324488 109.8974905  53.6644938  51.9315375
 109.4861036  54.6066978  50.8202803 112.6450184  52.2783202  54.8691207
 112.6671881  52.3422535  53.9143187 113.0618243  51.4387711  55.0631714
 109.2600073  56.1060289  65.9414420 109.3088229  56.9822412  65.5592190
 109.8022587  55.5637682  65.3686063 119.8652794  63.4993879  62.5348286
 119.9150799  63.3343886  63.4763809 119.7566717  62.6321138  62.1446167
 117.1556556  59.4824807  63.8507593 118.0566419  59.3431272  63.5591590
 117.2304531  59.6479262  64.7905770 111.4899362  56.8591662  62.6960779
 110.6202671  57.1525228  62.4243367 111.7258842  57.4432107  63.4168043
 119.6158179  61.0423435  61.2470365 120.0912301  61.2351081  60.4389217
 118.6923744  61.0982621  61.0013749 106.5041686  62.2047602  50.8301444
 106.2587728  61.3009932  51.0281654 106.6737600  62.2064753  49.8880922
 114.1938396  53.0771279  60.2126199 114.7120339  53.8132305  59.8872688
 113.8393528  53.3835272  61.0472958 105.7737333  57.9375960  48.3287605
 105.0806578  58.0120315  47.6727641 105.5289085  57.1736303  48.8509122
 114.4450990  49.4971561  55.7327096 114.7252743  48.8294750  56.3587522
 115.2301597  49.6900657  55.2201760 112.2484458  68.6730555  47.2952122
 111.6758425  69.2920742  46.8422594 112.8217252  69.2229917  47.8292044
 118.3159848  57.9189195  59.4798671 119.2677271  58.0187293  59.5010895
 118.1463298  57.1267464  59.9896755 116.3374227  55.0044778  59.6658072
 115.7424160  55.2849791  58.9704561 116.0523924  55.4938679  60.4374813
 120.7947926  61.1395315  58.5940971 120.7624246  60.2011315  58.7800654
 121.4048549  61.2179351  57.8606795 120.9442414  57.9306358  58.6399254
 120.4281463  57.1464815  58.4529183 121.8282363  57.6025075  58.8045773
 118.6053141  51.6747374  54.5995066 118.4077962  51.3662462  55.4838398
 119.2152847  52.4009013  54.7292996 126.6124476  62.2011322  57.7347007
 127.3427864  61.9396610  58.2954711 126.0031421  61.4640044  57.7749075
 124.6939773  60.3419184  58.3321459 123.9672936  60.2075149  57.7237950
 124.2787060  60.6496013  59.1378177 112.5169949  64.0609114  66.0968832
 113.4372959  64.2387713  66.2908878 112.4819532  63.1165159  65.9448531
 110.8174174  57.9341344  44.5723060 109.9105629  57.6374457  44.6485773
 111.0950155  57.6371162  43.7057346 112.4336240  52.4778234  50.7267301
 111.6236968  52.1325319  51.1022547 113.1220656  52.1685778  51.3154913
 114.3626788  51.5556281  52.3491598 114.9157826  51.9751734  53.0081621
 114.5996874  50.6292029  52.3914554 110.3859887  57.5443354  68.1294362
 110.2856614  58.4937711  68.0606453 110.1681429  57.2161593  67.2570432
 109.5872958  54.7928279  44.7135039 110.4492122  55.1183178  44.9730856
 109.7723303  54.0059775  44.2008105 117.7405595  53.6656806  51.8570262
 117.1604264  54.3241610  51.4748314 117.4741528  52.8434150  51.4457680
 116.1909161  53.0661864  54.0591582 116.6908940  53.1778398  53.2505901
 116.8344769  52.7622916  54.6992391 110.2491157  60.9740493  66.9459423
 109.7658239  61.7740853  67.1523312 110.3352096  60.9848438  65.9926867
 119.8745009  55.8503417  54.6280950 120.6505399  56.3399870  54.9005566
 119.1493143  56.2761471  55.0852819 122.3117568  56.5631036  55.6854890
 122.9062059  56.3226772  54.9748198 122.3844151  55.8438167  56.3128427
 124.6188640  59.8697237  54.4598311 124.0588198  59.9390427  55.2329873
 124.0132144  59.6938222  53.7397808 102.0198791  57.7684278  62.2490852
 102.6657655  57.2583232  62.7378077 101.8115942  58.5052959  62.8234277
 114.5452183  64.8365125  67.7482992 115.4143343  65.0105778  67.3869627
 114.0658935  65.6559542  67.6258722 110.5402401  52.0324322  48.0014748
 110.5281071  52.9766162  48.1583019 111.4325823  51.8494468  47.7074209
 114.3554521  48.6267099  52.2560685 113.5886917  48.0725586  52.4017367
 114.7665226  48.6988968  53.1174837 106.3596282  54.9151895  66.3465866
 107.2227744  54.5588700  66.5569191 105.7861693  54.5765790  67.0341270
 124.4520740  82.0187623  48.3901148 123.8008719  82.6041704  48.0035161
 125.2465102  82.5493818  48.4496185 125.9296005  79.7078055  48.9270132
 125.2941838  79.7812682  49.6391037 125.5993411  80.2971654  48.2489211
 131.1594355  74.2080438  55.1314454 131.8919526  73.6379655  55.3652283
 130.4033710  73.8202039  55.5720959 128.6819775  67.9202012  59.5909062
 128.3503100  68.7897423  59.3670277 128.0865388  67.6038296  60.2703093
 120.1572074  86.8858879  51.9575943 120.0796104  87.8366704  52.0364423
 119.5533718  86.5404751  52.6150869 130.4410085  70.8413537  58.4480286
 129.7984465  71.1346070  57.8020081 129.9365013  70.7266457  59.2533483
 128.0950248  74.5876710  49.1366146 129.0068104  74.8204097  48.9613843
 127.5859895  75.1713754  48.5741224 126.7019831  79.5702529  56.5279727
 126.0728693  79.7348243  55.8255795 126.3145493  79.9844138  57.2990691
 130.5809062  80.5056966  53.8824091 129.8960101  80.8855868  53.3321124
 130.6652912  81.1152293  54.6156039 137.0411815  77.3727629  55.0026763
 136.2875523  76.8035027  54.8470768 137.1759356  77.3390294  55.9497398
 118.9177783  68.3232611  67.3395838 118.5244728  67.7698810  68.0143482
 119.7343923  68.6343190  67.7302355 125.7802907  65.7671593  59.2080376
 125.4367176  66.6573235  59.1319486 126.1481869  65.5773251  58.3449961
 125.7453189  75.7580205  47.7152811 125.2299813  76.5284809  47.9541198
 125.4730498  75.0845341  48.3385872 130.7187464  78.5112559  49.6505985
 129.9416906  78.1723719  49.2061147 131.3978945  78.5165182  48.9760950
 125.5339493  73.6307297  49.5412592 125.2289628  73.9453446  50.3922735
 126.4869935  73.7088717  49.5839925 128.9578770  77.9846541  56.3072592
 128.3002445  78.6745802  56.3952721 129.7619170  78.3742972  56.6506579
 122.1238525  77.6077730  44.1940519 121.2165586  77.3766984  44.3931668
 122.6209557  76.8115350  44.3814501 125.0306603  86.3175237  47.1137205
 124.3568302  86.6206934  47.7222163 125.4172425  87.1204318  46.7642662
 123.3026758  77.7090325  48.7164509 122.3937977  77.4249358  48.8136979
 123.3321842  78.1289404  47.8567816 128.5346025  81.3196915  52.4855677
 128.0808353  80.4787825  52.5420867 127.9039992  81.9558313  52.8230457
 126.9778965  83.1573411  53.4205495 127.2701939  83.7178468  52.7017861
 127.4877585  83.4501972  54.1758654 127.5790572  65.0265153  54.3098114
 127.8849449  64.1662516  54.0224029 128.3043177  65.6182773  54.1097107
 123.0002846  79.2499069  46.0552588 122.5622276  78.5334928  45.5958225
 123.7413287  79.4775184  45.4937679 131.1175961  77.5256266  52.1128906
 130.9793859  77.7157862  51.1850096 130.7612179  78.2875649  52.5696958
 131.1445340  79.5932793  57.1240178 131.5781847  79.5008082  57.9723232
 131.8576921  79.5690293  56.4860194 132.0060890  79.6356494  59.6573063
 132.1996780  80.5402304  59.9032338 131.9061508  79.1763913  60.4911648
 123.2297819  86.4854910  49.3284285 123.4049574  86.0142953  50.1429907
 122.5430607  87.1120676  49.5565545 127.1214073  78.1083450  45.6484645
 126.5043244  77.3830279  45.5517698 126.6530562  78.8692811  45.3051720
 117.7958904  89.6344273  56.1024145 118.0355502  90.2662797  56.7803163
 116.9528100  89.2832313  56.3889504 133.2602953  76.1930160  56.3020967
 133.2492829  77.0754876  55.9314900 132.3920332  75.8401711  56.1075504
 129.8775528  75.0878801  52.7691133 130.3435980  75.9206793  52.6951436
 130.3283028  74.6223783  53.4736392 127.9451759  81.4322622  49.7677285
 128.2211603  81.3179217  50.6771159 127.0756257  81.0340107  49.7289458
 127.8492190  67.4559388  56.8082035 126.9355270  67.6863615  56.9764241
 128.2785292  67.5397832  57.6596067 127.6198649  75.6449280  59.3081929
 126.9670099  75.8925187  58.6534381 127.9979029  74.8313418  58.9744406
 124.5805823  85.6808973  53.4110099 124.7628217  84.8630629  53.8737851
 125.4038809  85.8976665  52.9734989 124.9147988  84.6077158  50.6725147
 125.4435755  84.0969613  50.0595309 125.1776208  84.2919689  51.5370680
 128.2192855  84.0608289  55.9318039 129.1439403  83.8551150  55.7942490
 128.0508159  83.8124690  56.8407380 124.6120248  71.0917568  49.8385283
 124.8283862  71.9742206  49.5374111 124.1314315  70.7003781  49.1090925
 128.0088172  84.5793957  51.2880130 128.1825049  84.0140379  50.5353983
 128.5017063  85.3794851  51.1059620 133.8627563  77.3430380  52.9070430
 134.3058709  76.5937705  52.5089553 132.9854073  77.3340516  52.5244162
 128.9963344  83.8960721  48.3877029 129.6914249  84.5167414  48.6064343
 129.3386494  83.0456072  48.6629406 130.8954767  81.3460426  49.9164359
 131.4206091  81.6847699  49.1913679 130.8077120  80.4107442  49.7327494
 127.9950311  74.8116725  63.8507593 128.8960174  74.6723189  63.5591590
 128.0698285  74.9771179  64.7905770 132.2064745  81.2482738  62.7790307
 131.9149554  81.6112719  63.6153768 131.5936877  80.5349746  62.6003639
 133.4060428  78.8135618  55.2992878 134.2407319  79.2525422  55.4630438
 133.5419556  78.3374271  54.4801123 130.4551934  76.3715353  61.2470365
 130.9306055  76.5642999  60.4389217 129.5317499  76.4274538  61.0013749
 123.0878213  84.0022473  47.2952122 122.5152180  84.6212660  46.8422594
 123.6611006  84.5521834  47.8292044 129.1553603  73.2481113  59.4798671
 130.1071025  73.3479210  59.5010895 128.9857053  72.4559381  59.9896755
 127.1767982  70.3336696  59.6658072 126.5817914  70.6141709  58.9704561
 126.8917679  70.8230597  60.4374813 126.3075472  84.2859623  48.4260704
 127.2406146  84.2205184  48.6293580 126.2198685  85.1215890  47.9675237
 128.9363489  83.6025493  45.3864652 128.8577121  83.2685357  46.2800410
 129.7573156  84.0947261  45.3856124 131.6341680  76.4687232  58.5940971
 131.6018000  75.5303233  58.7800654 132.2442304  76.5471269  57.8606795
 123.4725011  75.3383285  44.6368175 124.4184116  75.2089494  44.7056593
 123.0939256  74.5997947  45.1137603 131.7836169  73.2598276  58.6399254
 131.2675217  72.4756732  58.4529183 132.6676117  72.9316992  58.8045773
 129.4446896  67.0039291  54.5995066 129.2471717  66.6954380  55.4838398
 130.0546601  67.7300930  54.7292996 135.5333527  75.6711102  58.3321459
 134.8066691  75.5367067  57.7237950 135.1180814  75.9787930  59.1378177
 121.6567928  73.2633262  44.5723060 120.7499384  72.9666375  44.6485773
 121.9343909  72.9663080  43.7057346 120.4266713  70.1220197  44.7135039
 121.2885877  70.4475095  44.9730856 120.6117057  69.3351693  44.2008105
 128.5799349  68.9948723  51.8570262 127.9998018  69.6533527  51.4748314
 128.3135282  68.1726068  51.4457680 127.3624227  71.1548814  50.9126610
 126.4750082  71.4398464  50.6946805 127.7778217  70.9942577  50.0653887
 130.7138764  71.1795335  54.6280950 131.4899154  71.6691787  54.9005566
 129.9886898  71.6053389  55.0852819 133.1511322  71.8922954  55.6854890
 133.7455813  71.6518690  54.9748198 133.2237906  71.1730085  56.3128427
 126.5067441  80.9193489  45.0074630 127.2103291  81.1243491  45.6232286
 125.7830090  81.4870250  45.2723714 131.1470057  72.4593082  51.9527020
 130.8906991  72.0589717  52.7835228 130.5222925  73.1736876  51.8277159
 135.4582395  75.1989155  54.4598311 134.8981953  75.2682344  55.2329873
 134.8525898  75.0230140  53.7397808 128.4154138  81.3576018  47.0573090
 129.2499742  80.9257216  46.8750565 128.2538481  81.1858031  47.9849985
 128.0700030  77.8608131  48.4229430 128.0148834  77.6952402  47.4817874
 127.4446086  78.5684164  48.5791619 125.1948275  63.9559017  52.2560685
 124.4280671  63.4017503  52.4017367 125.6058980  64.0280885  53.1174837
 133.8528120  91.8273097  57.0889792 133.5146631  91.7114162  56.2010327
 134.7217888  91.4264262  57.0690798 129.7114935  93.6808573  53.0786683
 129.1479801  93.5898510  52.3102971 129.5967330  92.8608478  53.5589175
 134.3347903  92.9807949  63.0475997 134.3236543  92.5860747  62.1756501
 134.4968542  92.2474021  63.6409769 127.2579367  95.1759765  55.9170903
 128.0500659  94.8350590  55.5017203 127.4976017  95.2854740  56.8373057
 135.2914494  97.3479541  48.3901148 134.6402474  97.9333621  48.0035161
 136.0858857  97.8785736  48.4496185 129.2170121  94.4368678  48.7888282
 129.9900997  93.8897665  48.6501158 129.5695520  95.3012928  49.0002743
 131.0555164  95.7645060  61.9955181 130.7645030  96.6690691  61.8801848
 131.6912148  95.8061588  62.7099251 131.9811371  93.1421909  58.5856541
 132.5774943  92.9177931  57.8713504 132.0386342  92.4006654  59.1881989
 131.5536399  90.5961344  46.4206732 131.8061920  90.0742866  45.6590195
 130.6160958  90.4327490  46.5233416 136.5979682  89.5997123  54.2281475
 137.3842771  89.1816546  53.8771892 136.8618386  90.5043215  54.3963124
 136.7689759  95.0369973  48.9270132 136.1335592  95.1104600  49.6391037
 136.4387166  95.6263572  48.2489211 131.2732688  92.4989450  48.6231107
 131.1568946  91.8234354  49.2912191 131.3834948  92.0121824  47.8063260
 133.6164229  91.9599597  52.3277796 133.2522436  91.4330218  53.0390718
 134.4731345  91.5698066  52.1544282 133.2569716  86.9889497  47.3239145
 133.4244118  87.8569733  47.6909616 133.0666885  87.1516779  46.4000434
 136.0145049  95.4506476  58.9904975 135.7145772  96.3531515  58.8820782
 135.6696108  95.1838659  59.8426128 129.4657530  91.9020273  55.0241679
 128.5408027  91.7696487  55.2319371 129.7141944  92.6814492  55.5211622
 133.2358937  89.4447155  48.3085811 133.1158562  89.8904205  49.1471292
 132.5411525  89.7932472  47.7499350 126.8266341  91.5453546  55.8585469
 126.9558723  91.7988025  56.7724880 126.1463793  92.1381254  55.5390124
 130.9965829 102.2150796  51.9575943 130.9189858 103.1658621  52.0364423
 130.3927472 101.8696669  52.6150869 133.4883058  89.3878662  64.6137310
 132.7116393  89.9472582  64.6040174 134.1273622  89.8735445  65.1352180
 131.7429431  92.1964115  64.1755277 132.4844115  92.7349159  63.8990100
 131.0366416  92.8230404  64.3326828 137.2184770  94.3393256  62.7727438
 137.6268126  93.8975666  62.0282070 136.4962032  93.7645883  63.0261631
 133.5715840  89.2765862  60.1460995 134.4177036  89.7005276  60.2895644
 133.5114478  88.6199487  60.8399558 137.5413585  94.8994446  56.5279727
 136.9122447  95.0640160  55.8255795 137.1539247  95.3136056  57.2990691
 136.7215286  86.9370231  61.8042169 136.4776218  87.6912291  61.2676444
 136.9975216  87.3155578  62.6389416 136.2779978  86.0926664  57.3856006
 135.4164457  86.3907917  57.6772744 136.3042412  86.3097063  56.4537039
 133.0941547  94.6368854  53.7929812 133.5579892  94.9156557  53.0034435
 132.8298345  93.7352299  53.6102903 129.9865628  94.1840336  56.7309575
 130.5566985  94.6127604  56.0927060 130.5773740  93.9022921  57.4293761
 132.0310433  90.7592007  50.6019377 132.7334476  91.2113050  51.0693304
 131.6991061  90.1175826  51.2299270 130.4790795  89.3503763  64.9770587
 129.8489455  90.0320044  65.2105983 130.3726882  89.2386845  64.0323725
 125.7735767  89.0175559  55.9036511 124.9834821  89.2733088  55.4276621
 126.2647014  89.8323897  56.0088551 127.7250512  89.3820139  52.8619987
 126.9281676  89.4938833  53.3803483 127.4976105  89.7206791  51.9960878
 133.5556180  95.9064842  60.8102502 133.6200612  96.3685249  61.6460674
 132.8467104  95.2762207  60.9384812 124.0573470  89.2706050  58.3351502
 124.3081508  90.1553060  58.6009078 124.5933018  89.0910651  57.5626593
 133.2704198  97.5732949  50.6781482 133.1349872  98.4184485  51.1066330
 133.8114010  97.7752227  49.9147416 126.7233595  95.0908387  51.2509408
 127.2358116  95.8851638  51.4014972 127.3756308  94.3934678  51.1843009
 128.5328480  98.2074144  53.3332161 128.7095108  99.1292108  53.1453145
 129.3285313  97.8932563  53.7626540 132.6739498  85.0682408  64.9316094
 133.4149212  85.6689561  64.8520557 132.9057421  84.3260046  64.3734137
 127.8180836  90.2538775  63.2094324 127.7034351  89.3524033  63.5101423
 126.9625354  90.5002472  62.8579140 134.8972674  98.1956516  64.8081825
 134.4536528  97.4092894  64.4902729 135.5589888  98.3835666  64.1425715
 129.6559795  99.7252317  59.3342503 130.2067220  99.5969381  58.5619497
 128.8171271 100.0247206  58.9837396 133.4526966  95.9903445  63.6786734
 133.9855303  95.2291733  63.4486042 132.9241047  95.6977097  64.4210889
 136.6196661  81.0963511  59.2080376 136.2760931  81.9865153  59.1319486
 136.9875624  80.9065169  58.3449961 124.6882512  93.4197042  52.0268978
 125.5257734  93.8294050  51.8102686 124.8660779  92.4796484  51.9969172
 136.5846944  91.0872122  47.7152811 136.0693567  91.8576727  47.9541198
 136.3124252  90.4137258  48.3385872 134.1694055  85.9321823  52.7738049
 133.3135651  85.5428673  52.5943688 134.5821007  86.0113784  51.9137835
 135.6993202  83.4668166  57.1729609 135.1957997  83.4298301  56.3597414
 135.9923808  84.3760909  57.2326266 131.9436087  83.5506896  56.1795791
 132.8089084  83.3549705  55.8201680 132.0113596  83.3217248  57.1065148
 136.3733247  88.9599214  49.5412592 136.0683383  89.2745364  50.3922735
 137.3263689  89.0380634  49.5839925 134.8179679  95.1189438  51.1905546
 134.2901040  94.3842197  50.8778784 134.3167182  95.8964114  50.9445515
 129.5498407  85.7809104  53.5512158 130.1242158  85.5584285  52.8185351
 130.1369389  85.8497798  54.3040759 129.8767994  87.8113565  47.5708043
 129.0405306  88.1488252  47.8917318 129.7372763  87.6762545  46.6335180
 131.8521074  82.6550353  52.2787227 131.1985487  82.3399370  51.6543842
 131.8101548  82.0326093  53.0047050 132.9632279  92.9369648  44.1940519
 132.0559341  92.7058901  44.3931668 133.4603311  92.1407267  44.3814501
 135.8700358 101.6467155  47.1137205 135.1962057 101.9498852  47.7222163
 136.2566180 102.4496235  46.7642662 135.0858815  89.1432286  56.6034875
 134.1681376  89.3647233  56.4456563 135.5018958  89.2178597  55.7446582
 135.8693862  90.5423702  51.7337555 136.6165681  91.0545099  51.4244677
 136.1385452  90.2207755  52.5941949 134.1420513  93.0382243  48.7164509
 133.2331732  92.7541276  48.8136979 134.1715596  93.4581321  47.8567816
 124.7108683  90.7587757  52.6979712 124.5133083  90.1657118  51.9730778
 124.1555347  90.4539967  53.4155650 132.6905407  90.6510863  54.8174305
 132.7454016  89.6984700  54.7416781 131.8796609  90.8070303  55.3015603
 133.8396600  94.5790986  46.0552588 133.4016030  93.8626845  45.5958225
 134.5807041  94.8067101  45.4937679 130.6297766  89.2687923  52.5764684
 129.8165632  89.5682094  52.9829876 131.1256761  88.8743612  53.2939166
 132.7806344  99.2645680  54.5098948 132.7382523  99.4906526  53.5807480
 133.6969043  99.0309055  54.6584749 136.2271978  89.7329748  61.4079577
 136.5821366  89.9601221  62.2674043 136.8744109  90.0648124  60.7856833
 130.1211841  86.8406279  58.1925918 130.7611221  86.6995038  57.4948882
 129.2889372  86.5540792  57.8164520 130.8972145  96.1408709  54.3060911
 131.6912744  95.6459029  54.1043486 130.1863838  95.6126572  53.9428617
 135.7166990  98.5226805  58.6573279 135.7704012  99.0917741  59.4250994
 134.8481771  98.6928690  58.2927316 127.2054909  90.2851791  50.3820664
 126.2752497  90.2236246  50.5990626 127.3012381  89.7627744  49.5857305
 127.1240458  86.8106604  52.9698905 127.3847275  87.7251937  52.8608066
 127.9457630  86.3431046  53.1195518 128.5965383  88.2244361  60.1397730
 129.2688436  88.0161723  59.4910379 127.7695170  88.0266447  59.7002962
 134.4990955  84.8506302  62.1563391 133.8518870  85.5496251  62.0627867
 135.2691970  85.2842446  62.5239639 134.6755089  92.6887067  60.2160210
 135.6047149  92.8398226  60.0429178 134.2546119  92.7771087  59.3608857
 133.4743421  96.7137731  57.9858748 133.3354507  96.3456515  58.8584686
 132.6858017  97.2285371  57.8142706 134.0691573 101.8146828  49.3284285
 134.2443329 101.3434871  50.1429907 133.3824361 102.4412594  49.5565545
 135.0248636  96.0919334  55.3747586 134.6898469  96.0520104  56.2705236
 134.5252582  95.4264050  54.9017996 128.9992880  91.4986964  60.9000167
 128.8612678  90.7667203  61.5011706 129.9097804  91.4095864  60.6184355
 131.6275181  91.2106923  60.3883847 132.3374799  90.5700115  60.3470465
 131.5844489  91.4619818  61.3110027 128.6352658 104.9636190  56.1024145
 128.8749257 105.5954714  56.7803163 127.7921855 104.6124230  56.3889504
 129.7506374  87.6560792  44.7705950 128.8735840  87.5349593  44.4068196
 130.2264127  86.8646871  44.5184838 121.2708514  92.4437952  54.8647457
 121.9579554  92.1299682  54.2768472 121.1156643  93.3479317  54.5914708
 133.1480520 100.7715313  58.5065649 133.0750692 101.5770284  59.0184953
 132.7057913 100.9707279  57.6813670 132.9370300 100.0087083  52.0168470
 132.1537822 100.5508763  52.1106695 133.6363045 100.5261062  52.4162711
 136.2466950  85.8181712  54.6602676 136.7435650  85.0651675  54.3403746
 135.4753932  85.8546029  54.0945885 135.6079204 100.6702147  60.6623807
 136.3207176 101.3049612  60.5899709 135.1169232 100.7666013  59.8463809
 137.3296731  94.5753399  52.2341099 136.3953009  94.6954862  52.0645803
 137.5073399  93.6725866  51.9701109 132.8301919  87.9599095  54.3874360
 132.4599706  87.4070136  55.0755266 133.3261011  87.3557229  53.8349360
 130.6591117  98.4196590  61.4829378 131.3600577  99.0533073  61.6358772
 130.1886232  98.7611322  60.7225017 135.4199577 101.0100891  53.4110099
 135.6021972 100.1922547  53.8737851 136.2432563 101.2268583  52.9734989
 135.7541743  99.9369076  50.6725147 136.2829509  99.4261531  50.0595309
 136.0169962  99.6211606  51.5370680 134.5079976  91.7161009  65.7947966
 133.8320613  91.6155138  66.4650341 135.3307610  91.5600223  66.2583963
 126.2558835  97.9532945  58.4160481 126.8412272  97.2076633  58.5488385
 126.0583674  98.2636902  59.2997145 129.1097491 100.9884193  53.4322923
 128.4407866 101.4730320  52.9486963 128.9710360 101.2353413  54.3466302
 120.8476490  90.5238546  57.1364924 120.8860590  89.9902136  57.9302042
 120.3416783  89.9973751  56.5175901 133.2502759 103.0227936  60.0305582
 133.8021067 103.1859558  60.7954667 133.5908953 103.6132374  59.3585606
 124.4785068  89.2502648  50.2118855 124.7738509  88.3413326  50.1585909
 123.5773103  89.2290387  49.8899858 136.3871146 100.9709912  57.0169264
 136.2622286 100.1699652  56.5080209 137.0450238 101.4656105  56.5283234
 128.0079315  87.3258644  56.1946404 127.2865900  87.9394612  56.0553877
 128.7972570  87.8616409  56.1163050 126.2072909  86.9316745  50.3358181
 125.8785615  86.0514124  50.1533286 126.5612280  86.8764414  51.2234570
 135.4552488  98.5671648  54.8453166 135.3077451  97.6388355  55.0260736
 136.2805982  98.5891739  54.3610241 129.3214732  87.2189715  50.7033658
 129.6610805  87.7475636  49.9812267 129.7686853  87.5570121  51.4792225
 132.0158173  85.6026766  60.1536726 131.6754994  84.8034579  60.5557406
 131.3097180  85.9028477  59.5813559 132.6674645  82.6876078  58.6064049
 133.4900714  82.2136556  58.4842940 132.9112709  83.4666562  59.1062736
 131.3082880  85.7164337  48.9026951 132.0291242  86.0945590  48.3990668
 130.6848184  86.4353214  49.0061929 135.4514002  86.4209486  49.8385283
 135.6677617  87.3034124  49.5374111 134.9708070  86.0295699  49.1090925
 130.1913224  89.3795199  56.4156028 130.0457805  89.6935502  57.3080309
 129.7138427  89.9980099  55.8626927 132.0509607  86.3697747  56.4636917
 132.0371175  85.4738840  56.1269215 132.7682035  86.3768411  57.0975204
 133.9035737  86.8035087  58.5090045 133.6453515  87.7252158  58.5074375
 133.3720778  86.4065522  59.1990509 124.6658886  91.9200543  59.3543689
 124.1212354  92.6960351  59.4863963 125.5438236  92.2671348  59.1962811
 131.4546503  85.2512127  51.7324488 131.5762414  84.3228773  51.9315375
 131.1648545  85.2650813  50.8202803 134.3237693  82.9367038  54.8691207
 134.3459390  83.0006371  53.9143187 134.7405752  82.0971546  55.0631714
 125.4524908  91.0470440  62.2473846 124.7106644  91.1953075  62.8338476
 125.1317652  91.3078705  61.3840595 133.3968571 100.5886418  62.0454236
 133.7055697 100.3435565  62.9176936 134.1944053 100.7933056  61.5573106
 133.4189183 102.7424327  54.2759613 132.9794173 102.2500706  54.9692469
 134.1697300 102.1997295  54.0351688 125.8981522  98.9335868  54.2784241
 126.7239541  98.6339640  53.8982884 125.5475574  98.1643491  54.7274029
 130.8663055  98.2862337  56.3481914 130.2443064  97.6233042  56.0484142
 131.5367922  98.3123468  55.6655562 124.0990127  96.8522195  55.2373174
 123.2622035  96.4244369  55.0557175 124.0713772  97.0454638  56.1743965
 130.9387582  86.7644125  65.9414420 130.9875738  87.6406247  65.5592190
 131.4810096  86.2221518  65.3686063 130.4276562  96.8366260  49.8240375
 130.5764682  97.5201724  49.1707047 131.2343005  96.8171350  50.3389830
 133.1686871  87.5175497  62.6960779 132.2990180  87.8109063  62.4243367
 133.4046351  88.1015942  63.4168043 128.1829195  92.8631438  50.8301444
 127.9375237  91.9593768  51.0281654 128.3525109  92.8648588  49.8880922
 135.8725904  83.7355114  60.2126199 136.3907848  84.4716141  59.8872688
 135.5181037  84.0419107  61.0472958 127.4524842  88.5959795  48.3287605
 126.7594087  88.6704150  47.6727641 127.2076594  87.8320139  48.8509122
 136.1238499  80.1555396  55.7327096 136.4040252  79.4878585  56.3587522
 136.9089106  80.3484492  55.2201760 133.9271967  99.3314390  47.2952122
 133.3545934  99.9504577  46.8422594 134.5004761  99.8813752  47.8292044
 134.3118766  90.6675203  44.6368175 135.2577870  90.5381411  44.7056593
 133.9333011  89.9289865  45.1137603 134.1957458  94.7192949  66.0968832
 135.1160468  94.8971548  66.2908878 134.1607041  93.7748995  65.9448531
 132.4961683  88.5925179  44.5723060 131.5893138  88.2958292  44.6485773
 132.7737664  88.2954998  43.7057346 123.4139623  89.9131543  55.0222106
 123.0942408  89.0596851  54.7296480 122.8673051  90.1280121  55.7780074
 127.1919531  92.6293984  58.7391613 127.4105541  93.5611092  58.7579647
 127.6045305  92.2701958  59.5246417 134.1123749  83.1362069  50.7267301
 133.3024477  82.7909154  51.1022547 134.8008165  82.8269613  51.3154913
 136.0414297  82.2140116  52.3491598 136.5945335  82.6335569  53.0081621
 136.2784383  81.2875864  52.3914554 132.0647396  88.2027190  68.1294362
 131.9644123  89.1521547  68.0606453 131.8468938  87.8745429  67.2570432
 131.2660467  85.4512115  44.7135039 132.1279631  85.7767013  44.9730856
 131.4510812  84.6643611  44.2008105 123.2827883  93.5334454  56.9915228
 122.5891355  93.1188407  56.4785182 124.0300874  93.5754991  56.3948647
 131.9278666  91.6324328  66.9459423 131.4445748  92.4324689  67.1523312
 132.0139605  91.6432273  65.9926867 125.1964626  93.4652708  54.8681243
 125.1735314  93.5640395  53.9163126 125.5065262  94.3117859  55.1898409
 127.8552004  95.5228863  58.9827857 128.8095257  95.4912806  58.9157789
 127.6564527  95.0619487  59.7978083 128.4451386  94.0929979  61.5498655
 129.2644275  94.5874058  61.5733492 128.7188193  93.1761947  61.5216222
 126.2102232 101.0648483  55.9998055 126.0756700 100.3048884  55.4336053
 125.7934295 101.7889383  55.5326844 129.3671358 101.9617800  56.2116498
 129.2503742 102.9063232  56.1095188 128.5463805 101.6591361  56.6002297
 136.2239692  95.4948961  67.7482992 137.0930852  95.6689613  67.3869627
 135.7446444  96.3143377  67.6258722 132.2189910  82.6908158  48.0014748
 132.2068580  83.6349998  48.1583019 133.1113332  82.5078303  47.7074209
 130.3925872 102.6146062  59.4272426 131.2953119 102.6469672  59.7438921
 130.1663242 101.6846513  59.4418762 132.1479474 101.3677048  56.0882505
 131.1975105 101.3678910  55.9746877 132.4511961 100.6209783  55.5718539
 136.0342030  79.2850934  52.2560685 135.2674426  78.7309421  52.4017367
 136.4452735  79.3572803  53.1174837 136.6129521 104.3467477  55.9036511
 135.8228575 104.6025006  55.4276621 137.1040769 105.1615815  56.0088551
 134.8967224 104.5997967  58.3351502 135.1475263 105.4844977  58.6009078
 135.4326773 104.4202569  57.5626593 135.5276266 108.7488959  52.0268978
 136.3651488 109.1585968  51.8102686 135.7054534 107.8088401  51.9969172
 135.5502437 106.0879675  52.6979712 135.3526837 105.4949035  51.9730778
 134.9949101 105.7831885  53.4155650 132.1102268 107.7729870  54.8647457
 132.7973308 107.4591600  54.2768472 131.9550397 108.6771234  54.5914708
 136.9136991 102.6620066  59.2932481 136.8295179 102.0545736  58.5582891
 136.0919697 103.1529085  59.2941977 131.6870245 105.8530463  57.1364924
 131.7254344 105.3194054  57.9302042 131.1810537 105.3265669  56.5175901
 135.3178822 104.5794565  50.2118855 135.6132263 103.6705244  50.1585909
 134.4166858 104.5582305  49.8899858 137.0466664 102.2608663  50.3358181
 136.7179370 101.3806042  50.1533286 137.4006034 102.2056332  51.2234570
 135.5052640 107.2492461  59.3543689 134.9606109 108.0252269  59.4863963
 136.3831990 107.5963265  59.1962811 136.2918662 106.3762357  62.2473846
 135.5500398 106.5244993  62.8338476 135.9711407 106.6370623  61.3840595
 136.7375276 114.2627786  54.2784241 137.5633296 113.9631558  53.8982884
 136.3869328 113.4935408  54.7274029 134.9383881 112.1814112  55.2373174
 134.1015789 111.7536287  55.0557175 134.9107527 112.3746556  56.1743965
 134.2533378 105.2423461  55.0222106 133.9336162 104.3888769  54.7296480
 133.7066806 105.4572039  55.7780074 134.1221638 108.8626372  56.9915228
 133.4285109 108.4480325  56.4785182 134.8694629 108.9046909  56.3948647
 136.0358380 108.7944626  54.8681243 136.0129068 108.8932313  53.9163126
 136.3459017 109.6409777  55.1898409 137.0495987 116.3940400  55.9998055
 136.9150455 115.6340801  55.4336053 136.6328049 117.1181300  55.5326844
 134.5380054 103.7560031  62.2490852 135.1838918 103.2458985  62.7378077
 134.3297206 104.4928712  62.8234277  76.7997058   2.5753331  38.6821249
  76.7221087   3.5261156  38.7609730  76.1958701   2.2299203  39.3396176
  75.4591024   0.0854852  46.0587810  76.0098449  -0.0428085  45.2864804
  74.6202500   0.3849741  45.7082702  81.6731587   2.0069689  33.8382512
  80.9993286   2.3101386  34.4467470  82.0597409   2.8098770  33.4887969
  79.8722802   2.1749362  36.0529591  80.0474558   1.7037405  36.8675214
  79.1855590   2.8015128  36.2810852  74.4383887   5.3238725  42.8269451
  74.6780485   5.9557249  43.5048470  73.5953084   4.9726765  43.1134811
  78.9511749   1.1317847  45.2310955  78.8781921   1.9372818  45.7430260
  78.5089142   1.3309813  44.4058977  78.7401529   0.3689617  38.7413777
  77.9569051   0.9111297  38.8352001  79.4394274   0.8863597  39.1408018
  81.4110433   1.0304681  47.3869114  82.1238405   1.6652146  47.3145015
  80.9200461   1.1268547  46.5709116  72.0590064  -1.6864520  45.1405788
  72.6443501  -2.4320833  45.2733692  71.8614903  -1.3760564  46.0242451
  74.9128719   1.3486727  40.1568230  74.2439095   1.8332855  39.6732270
  74.7741589   1.5955947  41.0711608  79.0533988   3.3830470  46.7550888
  79.6052296   3.5462092  47.5199973  79.3940181   3.9734908  46.0830913
  79.1999799   0.9488952  48.7699543  79.5086926   0.7038099  49.6422242
  79.9975281   1.1535590  48.2818413  79.2220411   3.1026862  41.0004919
  78.7825402   2.6103240  41.6937776  79.9728528   2.5599829  40.7596994
  71.7012750  -0.7061597  41.0029547  72.5270770  -1.0057826  40.6228191
  71.3506802  -1.4753975  41.4519336  69.9021355  -2.7875271  41.9618481
  69.0653264  -3.2153097  41.7802482  69.8745001  -2.5942828  42.8989272
  72.0133461   1.4251017  42.7243362  71.8787929   0.6651418  42.1581360
  71.5965523   2.1491917  42.2572151  75.1702587   2.3220334  42.9361804
  75.0534971   3.2665766  42.8340495  74.3495033   2.0193895  43.3247604
  76.1957101   2.9748596  46.1517733  77.0984348   3.0072206  46.4684228
  75.9694471   2.0449047  46.1664069  77.9510703   1.7279582  42.8127811
  77.0006334   1.7281444  42.6992184  78.2543189   0.9812317  42.2963846
  93.6863397   7.5640121  43.8773574  94.3241807   7.4446868  43.1736914
  93.5684240   8.5120965  43.9361526  90.4953103   7.5167549  43.8135098
  90.1571614   7.4008614  42.9255633  91.3642871   7.1158714  43.7936105
  86.3539919   9.3703025  39.8031989  85.7904784   9.2792962  39.0348277
  86.2392314   8.5502930  40.2834482  90.9772886   8.6702401  49.7721304
  90.9661527   8.2755199  48.9001808  91.1393525   7.9368473  50.3655075
  83.9004351  10.8654217  42.6416210  84.6925643  10.5245041  42.2262509
  84.1401001  10.9749192  43.5618363  91.9339477  13.0373993  35.1146454
  91.2827457  13.6228073  34.7280468  92.7283840  13.5680188  35.1741492
  85.8595105  10.1263130  35.5133589  86.6325981   9.5792117  35.3746464
  86.2120503  10.9907379  35.7248050  87.6980147  11.4539512  48.7200488
  87.4070013  12.3585143  48.6047154  88.3337131  11.4956040  49.4344558
  88.6236354   8.8316361  45.3101848  89.2199926   8.6072383  44.5958811
  88.6811325   8.0901106  45.9127295  88.1961382   6.2855796  33.1452039
  88.4486903   5.7637317  32.3835502  87.2585941   6.1221942  33.2478722
  93.4114743  10.7264425  35.6515439  92.7760576  10.7999051  36.3636343
  93.0812149  11.3158024  34.9734518  87.9157671   8.1883902  35.3476414
  87.7993929   7.5128806  36.0157498  88.0259931   7.7016276  34.5308567
  90.2589212   7.6494049  39.0523103  89.8947419   7.1224670  39.7636024
  91.1156328   7.2592518  38.8789588  92.6570032  11.1400928  45.7150282
  92.3570755  12.0425967  45.6066089  92.3121092  10.8733111  46.5671435
  86.1082514   7.5914725  41.7486986  85.1833010   7.4590939  41.9564678
  86.3566927   8.3708944  42.2456928  89.8783920   5.1341606  35.0331118
  89.7583545   5.5798657  35.8716598  89.1836508   5.4826924  34.4744656
  83.4691325   7.2347998  42.5830775  83.5983706   7.4882477  43.4970187
  82.7888776   7.8275706  42.2635430  87.6390812  17.9045248  38.6821249
  87.5614842  18.8553073  38.7609730  87.0352456  17.5591121  39.3396176
  90.1308042   5.0773114  51.3382616  89.3541376   5.6367034  51.3285481
  90.7698605   5.5629897  51.8597486  88.3854414   7.8858567  50.9000583
  89.1269098   8.4243611  50.6235407  87.6791400   8.5124856  51.0572135
  93.8609754  10.0287707  49.4972745  94.2693110   9.5870118  48.7527377
  93.1387015   9.4540335  49.7506938  90.2140824   4.9660314  46.8706302
  91.0602019   5.3899728  47.0140951  90.1539461   4.3093939  47.5644865
  94.1838568  10.5888898  43.2525034  93.5547431  10.7534612  42.5501101
  93.7964230  11.0030508  44.0235998  98.0627800  11.5243336  40.6069397
  97.3778838  11.9042237  40.0566431  98.1471650  12.1338663  41.3401345
  95.3178732   9.1703295  47.2064741  95.5295627   9.8135055  46.5299122
  95.2708480   8.3365612  46.7386671  89.7366530  10.3263306  40.5175119
  90.2004876  10.6051009  39.7279741  89.4723328   9.4246751  40.3348209
  86.6290611   9.8734788  43.4554882  87.1991968  10.3022056  42.8172366
  87.2198723   9.5917372  44.1539068  88.6735416   6.4486459  37.3264684
  89.3759460   6.9007502  37.7938610  88.3416045   5.8070277  37.9544577
  87.1215778   5.0398215  51.7015893  86.4914438   5.7214496  51.9351290
  87.0151866   4.9281297  50.7569032  82.4160750   4.7070011  42.6281817
  81.6259804   4.9627540  42.1521928  82.9071998   5.5218349  42.7333858
  96.4324560  12.0475250  45.3787098  97.2542004  11.6455438  45.0969780
  96.4286963  11.9443485  46.3303214  84.3675496   5.0714590  39.5865294
  83.5706659   5.1833285  40.1048790  84.1401088   5.4101243  38.7206185
  90.1981163  11.5959294  47.5347809  90.2625596  12.0579701  48.3705981
  89.4892087  10.9656659  47.6630119  80.6998453   4.9600502  45.0596808
  80.9506492   5.8447512  45.3254384  81.2358002   4.7805103  44.2871900
  89.9129181  13.2627401  37.4026789  89.7774856  14.1078937  37.8311637
  90.4538993  13.4646679  36.6392723  83.3658578  10.7802839  37.9754714
  83.8783099  11.5746089  38.1260279  84.0181291  10.0829130  37.9088316
  85.1753463  13.8968595  40.0577467  85.3520091  14.8186560  39.8698451
  85.9710297  13.5827015  40.4871847  84.4605820   5.9433227  49.9339631
  84.3459335   5.0418485  50.2346729  83.6050337   6.1896924  49.5824447
  91.5397657  13.8850968  51.5327131  91.0961511  13.0987346  51.2148036
  92.2014871  14.0730118  50.8671022  86.2984778  15.4146769  46.0587810
  86.8492204  15.2863833  45.2864804  85.4596254  15.7141658  45.7082702
  93.6378895  14.1653768  49.5608532  93.6197371  14.9862649  49.0688802
  94.5598815  14.0407843  49.7858674  90.0951950  11.6797897  50.4032041
  90.6280286  10.9186185  50.1731349  89.5666031  11.3871549  51.1456195
  81.3307495   9.1091494  38.7514285  82.1682717   9.5188502  38.5347992
  81.5085763   8.1690936  38.7214479  93.2271927   6.7766574  34.4398118
  92.7118551   7.5471179  34.6786505  92.9549236   6.1031710  35.0631179
  98.2006201   9.5298929  36.3751291  97.4235644   9.1910088  35.9306453
  98.8797682   9.5351552  35.7006256  91.4604662  10.8083890  37.9150853
  90.9326024  10.0736649  37.6024090  90.9592165  11.5858566  37.6690821
  96.4397508   9.0032910  43.0317899  95.7821183   9.6932171  43.1198028
  97.2437907   9.3929342  43.3751885  95.2502967   7.3577283  41.0821841
  95.7634849   7.9907275  41.5843551  95.9004191   6.7578478  40.7165201
  86.5192977   3.5008017  34.2953350  85.6830289   3.8382703  34.6162624
  86.3797747   3.3656997  33.3580487  89.6057262   8.6264100  30.9185826
  88.6984324   8.3953353  31.1176975  90.1028294   7.8301719  31.1059807
  92.5125341  17.3361607  33.8382512  91.8387040  17.6393304  34.4467470
  92.8991163  18.1390687  33.4887969  91.7283798   4.8326738  43.3280181
  90.8106359   5.0541685  43.1701869  92.1443942   4.9073049  42.4691889
  92.5118846   6.2318154  38.4582862  93.2590665   6.7439551  38.1489984
  92.7810435   5.9102207  39.3187255  90.7845496   8.7276695  35.4409816
  89.8756715   8.4435728  35.5382286  90.8140580   9.1475773  34.5813123
  96.0164763  12.3383284  39.2100984  95.5627090  11.4974194  39.2666174
  95.3858730  12.9744683  39.5475764  94.4597702  14.1759781  40.1450802
  94.7520677  14.7364838  39.4263167  94.9696323  14.4688342  40.9003961
  81.3533666   6.4482209  39.4225018  81.1558066   5.8551570  38.6976085
  80.7980330   6.1434419  40.1400957  89.3330390   6.3405315  41.5419611
  89.3879000   5.3879152  41.4662088  88.5221592   6.4964754  42.0260910
  90.4821584  10.2685438  32.7797895  90.0441014   9.5521297  32.3203532
  91.2232024  10.4961553  32.2182986  87.2722750   4.9582375  39.3009990
  86.4590615   5.2576546  39.7075182  87.7681744   4.5638064  40.0184472
  89.4231328  14.9540132  41.2344255  89.3807506  15.1800978  40.3052787
  90.3394027  14.7203507  41.3830056  92.8696961   5.4224200  48.1324884
  93.2246349   5.6495673  48.9919350  93.5169093   5.7542576  47.5102139
  98.5994698   8.5442635  38.8374213  98.4612597   8.7344231  37.9095402
  98.2430917   9.3062018  39.2942264  98.6264078  10.6119162  43.8485485
  99.0600585  10.5194452  44.6968539  99.3395659  10.5876663  43.2105501
  87.5397128  11.8303161  41.0306218  88.3337727  11.3353481  40.8288793
  86.8288821  11.3021024  40.6673923  92.3591973  14.2121257  45.3818585
  92.4128995  14.7812193  46.1496301  91.4906754  14.3823142  45.0172622
  83.8479892   5.9746243  37.1065970  82.9177480   5.9130698  37.3235932
  83.9437364   5.4522195  36.3102612  83.7665441   2.5001056  39.6944212
  84.0272258   3.4146389  39.5853372  84.5882613   2.0325498  39.8440825
  85.2390366   3.9138813  46.8643036  85.9113420   3.7056175  46.2155685
  84.4120153   3.7160899  46.4248269  99.4879628  10.6542863  46.3818370
  99.6815518  11.5588674  46.6277645  99.3880246  10.1950282  47.2156955
  94.5494736  10.8049606  51.9559251  94.3980243  10.5760158  51.0389334
  94.5399416  11.7620207  51.9690596  91.3180073   8.3781519  46.9405517
  92.2472133   8.5292678  46.7674484  90.8971103   8.4665539  46.0854164
  90.1168404  12.4032183  44.7104055  89.9779490  12.0350967  45.5829993
  89.3283001  12.9179822  44.5388012  90.7116556  17.5041279  36.0529591
  90.8868312  17.0329323  36.8675214  90.0249344  18.1307046  36.2810852
  91.6673620  11.7813786  42.0992892  91.3323452  11.7414556  42.9950542
  91.1677565  11.1158502  41.6263303  85.6417864   7.1881416  47.6245474
  85.5037661   6.4561655  48.2257013  86.5522787   7.0990316  47.3429661
  94.6032811   9.1269820  32.3729952  93.9861982   8.4016648  32.2763005
  94.1349300   9.8879180  32.0297026  88.2700164   6.9001375  47.1129153
  88.9799783   6.2594567  47.0715772  88.2269472   7.1514270  48.0355334
  96.2586943  13.8368728  50.0335732  96.1999489  13.1527949  49.3666315
  96.6606461  14.5787718  49.5816358  86.9829098   3.8866593  48.9324793
  86.4466455   3.4357331  49.5846389  86.3945807   4.0212502  48.1895257
  85.2777642  20.6530642  42.8269451  85.5174240  21.2849166  43.5048470
  84.4346838  20.3018682  43.1134811  86.3931357   3.3455244  31.4951256
  85.5160823   3.2244045  31.1313503  86.8689110   2.5541323  31.2430145
  96.2604350  11.8008312  48.2649712  95.3731129  11.4634234  48.3876111
  96.8302901  11.0691344  48.5018478  77.9133497   8.1332404  41.5892764
  78.6004537   7.8194134  41.0013779  77.7581626   9.0373769  41.3160015
  82.7168219   3.0222601  46.0177787  82.6326408   2.4148270  45.2828197
  81.8950926   3.5131619  46.0187284  89.7905504  16.4609765  45.2310955
  89.7175675  17.2664736  45.7430260  89.3482897  16.6601730  44.4058977
  89.5795283  15.6981535  38.7413777  88.7962805  16.2403215  38.8352001
  90.2788028  16.2155514  39.1408018  92.2504187  16.3596599  47.3869114
  92.9632159  16.9944064  47.3145015  91.7594216  16.4560465  46.5709116
  93.9721714  10.2647851  38.9586406  93.0377993  10.3849314  38.7891110
  94.1498382   9.3620318  38.6946416  87.3016101  14.1091042  48.2074685
  88.0025560  14.7427525  48.3604079  86.8311216  14.4505774  47.4470324
  95.4270496  12.4508992  36.4922592  95.7030340  12.3365587  37.4016466
  94.5574995  12.0526477  36.4534765  95.1017387   6.6635650  46.0327235
  94.4488837   6.9111557  45.3779688  95.4797766   5.8499788  45.6989712
  92.0624560  16.6995343  40.1355405  92.2446955  15.8816999  40.5983158
  92.8857546  16.9163035  39.6980295  92.3966726  15.6263528  37.3970454
  92.9254492  15.1155983  36.7840616  92.6594946  15.3106058  38.2615987
  91.1504960   7.4055461  52.5193272  90.4745597   7.3049590  53.1895647
  91.9732593   7.2494674  52.9829269  82.8983819  13.6427397  45.1405788
  83.4837255  12.8971085  45.2733692  82.7008657  13.9531354  46.0242451
  85.7522474  16.6778645  40.1568230  85.0832849  17.1624772  39.6732270
  85.6135344  16.9247865  41.0711608  77.4901473   6.2132997  43.8610231
  77.5285573   5.6796588  44.6547349  76.9841766   5.6868203  43.2421208
  89.8927742  18.7122388  46.7550888  90.4446051  18.8754010  47.5199973
  90.2333936  19.3026826  46.0830913  84.3444508   3.1320670  51.0045807
  84.9716547   2.7497748  51.6183332  83.4872427   2.9134872  51.3701500
  94.7438617  13.5383646  52.6099543  95.2878521  14.1513604  52.1154497
  94.1625462  14.0963224  53.1266556  81.1210051   4.9397100  36.9364162
  81.4163492   4.0307778  36.8831216  80.2198087   4.9184839  36.6145164
  93.0296130  16.6604364  43.7414570  92.9047269  15.8594103  43.2325516
  93.6875221  17.1550557  43.2528540  84.6504298   3.0153096  42.9191711
  83.9290884   3.6289064  42.7799184  85.4397554   3.5510861  42.8408357
  95.0931038  14.4613384  45.3694120  94.1461374  14.3418735  45.2972447
  95.4413811  13.5735882  45.4520382  82.8497893   2.6211197  37.0603487
  82.5210599   1.7408576  36.8778593  83.2037263   2.5658866  37.9479876
  92.0977471  14.2566100  41.5698473  91.9502434  13.3282807  41.7506043
  92.9230965  14.2786191  41.0855548  85.9639716   2.9084167  37.4278965
  86.3035788   3.4370088  36.7057573  86.4111836   3.2464573  38.2037531
  95.7011593  15.0794659  42.6563345  96.6258141  14.8737520  42.5187797
  95.5326897  14.8311060  43.5652687  86.8338207   5.0689651  43.1401335
  86.6882788   5.3829954  44.0325616  86.3563411   5.6874551  42.5872233
  95.4906910  15.5980326  38.0125437  95.6643787  15.0326749  37.2599289
  95.9835801  16.3981221  37.8304927  81.3083869   7.6094995  46.0788996
  80.7637337   8.3854803  46.2109270  82.1863219   7.9565800  45.9208117
  96.4782082  14.9147091  35.1122335  97.1732987  15.5353783  35.3309650
  96.8205232  14.0642442  35.3874713  82.0949891   6.7364891  48.9719153
  81.3531627   6.8847527  49.5583783  81.7742635   6.9973157  48.1085902
  98.3773505  12.3646796  36.6409666  98.9024829  12.7034069  35.9158986
  98.2895858  11.4293811  36.4572801  90.0393554  16.2780870  48.7699543
  90.3480680  16.0330016  49.6422242  90.8369036  16.4827508  48.2818413
  90.0614166  18.4318779  41.0004919  89.6219156  17.9395158  41.6937776
  90.8122283  17.8891747  40.7596994  82.5406505  14.6230320  41.0029547
  83.3664525  14.3234092  40.6228191  82.1900557  13.8537943  41.4519336
  87.5088038  13.9756788  43.0727221  86.8868047  13.3127493  42.7729449
  88.1792905  14.0017920  42.3900869  80.7415110  12.5416647  41.9618481
  79.9047018  12.1138821  41.7802482  80.7138755  12.7349090  42.8989272
  98.0667411  12.9979700  51.9460864  97.2762955  12.9803839  51.4065363
  97.8300766  13.5367993  52.7009901  98.1865286   9.8472166  49.2593592
  98.2363291   9.6822174  50.2009115  98.0779210   8.9799425  48.8691473
  87.0701545  12.5260712  36.5485681  87.2189665  13.2096176  35.8952354
  87.8767988  12.5065802  37.0635137  99.6883483  12.2669108  49.5035614
  99.3968291  12.6299088  50.3399075  99.0755614  11.5536116  49.3248946
 100.8879165   9.8321987  42.0238184 101.7226057  10.2711791  42.1875745
 101.0238294   9.3560641  41.2046430  97.9370671   7.3901722  47.9715672
  98.4124793   7.5829369  47.1634523  97.0136237   7.4460908  47.7259056
  84.8254178   8.5525889  37.5546750  84.5800220   7.6488219  37.7526960
  84.9950092   8.5543040  36.6126228  84.0949825   4.2854247  35.0532912
  83.4019070   4.3598602  34.3972948  83.8501577   3.5214591  35.5754429
  90.5696950  15.0208842  34.0197429  89.9970918  15.6399029  33.5667901
  91.1429744  15.5708204  34.5537351  93.7894210  15.3045992  35.1506011
  94.7224883  15.2391554  35.3538887  93.7017423  16.1402259  34.6920544
  96.4182227  14.6211863  32.1109959  96.3395858  14.2871726  33.0045717
  97.2391894  15.1133631  32.1101431  90.9543749   6.3569655  31.3613481
  91.9002854   6.2275863  31.4301899  90.5757994   5.6184317  31.8382909
  90.8382441  10.4087401  52.8214138  91.7585451  10.5866000  53.0154185
  90.8032025   9.4643446  52.6693838  89.1386666   4.2819631  31.2968367
  88.2318121   3.9852744  31.3731080  89.4162647   3.9849449  30.4302653
  80.0564606   5.6025995  41.7467413  79.7367391   4.7491303  41.4541787
  79.5098035   5.8174573  42.5025380  83.8344514   8.3188436  45.4636919
  84.0530524   9.2505544  45.4824953  84.2470288   7.9596410  46.2491723
  88.7072379   3.8921642  54.8539668  88.6069106   4.8415998  54.7851759
  88.4893921   3.5639880  53.9815738  79.9252866   9.2228906  43.7160535
  79.2316338   8.8082859  43.2030489  80.6725857   9.2649443  43.1193953
  88.5703649   7.3218780  53.6704730  88.0870731   8.1219140  53.8768619
  88.6564588   7.3326725  52.7172174  81.8389609   9.1547160  41.5926549
  81.8160297   9.2534847  40.6408432  82.1490245  10.0012311  41.9143716
  84.4976987  11.2123315  45.7073164  85.4520240  11.1807257  45.6403095
  84.2989510  10.7513939  46.5223390  85.0876369   9.7824431  48.2743961
  85.9069258  10.2768510  48.2978799  85.3613177   8.8656399  48.2461529
  82.8527216  16.7542935  42.7243362  82.7181684  15.9943335  42.1581360
  82.4359278  17.4783834  42.2572151  93.9886179  11.9379858  31.7319937
  94.6922029  12.1429861  32.3477593  93.2648827  12.5056620  31.9969020
  94.8183989   7.6889719  37.8522207  94.7619190   8.1458271  37.0129840
  95.3712331   6.9280404  37.6745050  86.0096342  17.6512252  42.9361804
  85.8928726  18.5957684  42.8340495  85.1888788  17.3485813  43.3247604
  95.8972876  12.3762387  33.7818397  96.7318480  11.9443586  33.5995872
  95.7357219  12.2044401  34.7095292  95.5518768   8.8794501  35.1474736
  95.4967572   8.7138772  34.2063180  94.9264824   9.5870534  35.3036926
  80.3411283   4.1162565  48.9736159  80.9870147   3.6061519  49.4623384
  80.1328434   4.8531247  49.5479584  92.8664675  11.1843412  54.4728299
  93.7355835  11.3584065  54.1114934  92.3871427  12.0037829  54.3504028
  87.0350856  18.3040513  46.1517733  87.9378102  18.3364124  46.4684228
  86.8088226  17.3740964  46.1664069  88.7904458  17.0571500  42.8127811
  87.8400089  17.0573362  42.6992184  89.0936944  16.3104235  42.2963846
 104.5257151  22.8932038  43.8773574 105.1635561  22.7738786  43.1736914
 104.4077994  23.8412882  43.9361526 101.3346857  22.8459467  43.8135098
 100.9965369  22.7300531  42.9255633 102.2036626  22.4450632  43.7936105
  97.1933673  24.6994943  39.8031989  96.6298538  24.6084880  39.0348277
  97.0786068  23.8794847  40.2834482 101.8166640  23.9994318  49.7721304
 101.8055281  23.6047117  48.9001808 101.9787280  23.2660391  50.3655075
  94.7398105  26.1946135  42.6416210  95.5319397  25.8536959  42.2262509
  94.9794755  26.3041110  43.5618363 102.7733232  28.3665911  35.1146454
 102.1221212  28.9519991  34.7280468 103.5677595  28.8972106  35.1741492
  96.6988859  25.4555048  35.5133589  97.4719735  24.9084035  35.3746464
  97.0514258  26.3199297  35.7248050  98.5373902  26.7831430  48.7200488
  98.2463768  27.6877061  48.6047154  99.1730886  26.8247958  49.4344558
  99.4630108  24.1608279  45.3101848 100.0593681  23.9364301  44.5958811
  99.5205080  23.4193024  45.9127295  99.0355137  21.6147714  33.1452039
  99.2880658  21.0929235  32.3835502  98.0979696  21.4513859  33.2478722
 104.0798420  20.6183492  40.9526782 104.8661509  20.2002915  40.6017199
 104.3437124  21.5229584  41.1208430 104.2508497  26.0556343  35.6515439
 103.6154330  26.1290969  36.3636343 103.9205903  26.6449941  34.9734518
 109.4806847  20.5558725  41.8559760 110.2132019  19.9857942  42.0897590
 108.7246202  20.1680326  42.2966266  98.7551426  23.5175820  35.3476414
  98.6387684  22.8420723  36.0157498  98.8653685  23.0308194  34.5308567
 101.0982967  22.9785967  39.0523103 100.7341174  22.4516588  39.7636024
 101.9550082  22.5884436  38.8789588 107.0032267  14.2680300  46.3154369
 106.6715592  15.1375711  46.0915584 106.4077881  13.9516584  46.9948399
 100.7388453  18.0075867  34.0484451 100.9062856  18.8756103  34.4154922
 100.5485623  18.1703148  33.1245741 103.4963787  26.4692846  45.7150282
 103.1964510  27.3717884  45.6066089 103.1514846  26.2025029  46.5671435
  96.9476268  22.9206642  41.7486986  96.0226765  22.7882856  41.9564678
  97.1960681  23.7000862  42.2456928 106.8960930  18.9875386  43.3947719
 105.9877808  18.9190794  43.1006480 106.8448526  19.4647331  44.2229544
 100.7177674  20.4633524  35.0331118 100.5977300  20.9090575  35.8716598
 100.0230263  20.8118842  34.4744656  94.3085079  22.5639916  42.5830775
  94.4377460  22.8174395  43.4970187  93.6282531  23.1567624  42.2635430
  98.4784566  33.2337166  38.6821249  98.4008596  34.1844991  38.7609730
  97.8746210  32.8883038  39.3396176 100.9701796  20.4065031  51.3382616
 100.1935130  20.9658951  51.3285481 101.6092359  20.8921814  51.8597486
 108.7622577  17.1891824  45.1725593 108.1196957  17.4824357  44.5265387
 108.2577505  17.0744744  45.9778790 106.4162741  20.9354997  35.8611452
 107.3280597  21.1682384  35.6859150 105.9072388  21.5192042  35.2986531
  99.2248169  23.2150485  50.9000583  99.9662853  23.7535529  50.6235407
  98.5185154  23.8416773  51.0572135 104.7003508  25.3579625  49.4972745
 105.1086864  24.9162036  48.7527377 103.9780770  24.7832253  49.7506938
 101.0534578  20.2952232  46.8706302 101.8995773  20.7191645  47.0140951
 100.9933216  19.6385856  47.5644865 105.0232323  25.9180816  43.2525034
 104.3941185  26.0826530  42.5501101 104.6357985  26.3322425  44.0235998
 108.9021555  26.8535254  40.6069397 108.2172593  27.2334155  40.0566431
 108.9865404  27.4630580  41.3401345 104.2034024  17.9556600  48.5287475
 103.9594955  18.7098661  47.9921751 104.4793954  18.3341948  49.3634722
 106.1572486  24.4995213  47.2064741 106.3689382  25.1426973  46.5299122
 106.1102235  23.6657529  46.7386671 103.7598715  17.1113033  44.1101313
 102.8983194  17.4094287  44.4018051 103.7861150  17.3283432  43.1782346
 100.5760285  25.6555224  40.5175119 101.0398630  25.9342927  39.7279741
 100.3117083  24.7538668  40.3348209  97.4684366  25.2026705  43.4554882
  98.0385723  25.6313974  42.8172366  98.0592478  24.9209290  44.1539068
  99.5129171  21.7778376  37.3264684 100.2153214  22.2299420  37.7938610
  99.1809799  21.1362195  37.9544577  97.9609532  20.3690133  51.7015893
  97.3308193  21.0506414  51.9351290  97.8545620  20.2573214  50.7569032
  93.2554505  20.0361929  42.6281817  92.4653559  20.2919457  42.1521928
  93.7465752  20.8510267  42.7333858 107.2718314  27.3767168  45.3787098
 108.0935758  26.9747355  45.0969780 107.2680717  27.2735402  46.3303214
  95.2069250  20.4006508  39.5865294  94.4100413  20.5125202  40.1048790
  94.9794842  20.7393160  38.7206185 101.0374918  26.9251211  47.5347809
 101.1019350  27.3871619  48.3705981 100.3285842  26.2948576  47.6630119
  91.5392208  20.2892419  45.0596808  91.7900246  21.1739429  45.3254384
  92.0751756  20.1097021  44.2871900 115.3624307  23.7205917  41.7272070
 114.6088016  23.1513315  41.5716074 115.4971849  23.6868581  42.6742704
 100.7522935  28.5919319  37.4026789 100.6168610  29.4370855  37.8311637
 101.2932748  28.7938597  36.6392723  97.2390275  14.6710899  54.0641144
  96.8457221  14.1177097  54.7388789  98.0556415  14.9821477  54.4547662
  94.2052333  26.1094757  37.9754714  94.7176853  26.9038007  38.1260279
  94.8575046  25.4121047  37.9088316  96.0147217  29.2260513  40.0577467
  96.1913846  30.1478478  39.8698451  96.8104051  28.9118932  40.4871847
 100.1558236  16.0868778  51.6561401 100.8967949  16.6875931  51.5765863
 100.3876159  15.3446416  51.0979443  95.2999574  21.2725145  49.9339631
  95.1853089  20.3710402  50.2346729  94.4444092  21.5188842  49.5824447
 102.3791412  29.2142885  51.5327131 101.9355266  28.4279264  51.2148036
 103.0408625  29.4022036  50.8671022  97.1378533  30.7438687  46.0587810
  97.6885958  30.6155750  45.2864804  96.2990009  31.0433576  45.7082702
 104.4772650  29.4945685  49.5608532 104.4591125  30.3154566  49.0688802
 105.3992570  29.3699761  49.7858674 100.9345704  27.0089815  50.4032041
 101.4674041  26.2478103  50.1731349 100.4059785  26.7163467  51.1456195
 104.1015399  12.1149881  45.9325683 103.7579668  13.0051522  45.8564793
 104.4694362  11.9251538  45.0695268  92.1701250  24.4383411  38.7514285
  93.0076472  24.8480420  38.5347992  92.3479517  23.4982853  38.7214479
 104.0665682  22.1058492  34.4398118 103.5512305  22.8763096  34.6786505
 103.7942990  21.4323628  35.0631179 101.6512793  16.9508193  39.4983356
 100.7954389  16.5615043  39.3188995 102.0639744  17.0300153  38.6383142
 103.1811939  14.4854536  43.8974916 102.6776735  14.4484671  43.0842721
 103.4742546  15.3947279  43.9571572  99.4254825  14.5693266  42.9041098
 100.2907822  14.3736074  42.5446987  99.4932334  14.3403617  43.8310454
 109.0399956  24.8590846  36.3751291 108.2629399  24.5202006  35.9306453
 109.7191437  24.8643470  35.7006256 103.8551985  19.9785584  36.2657899
 103.5502120  20.2931733  37.1168042 104.8082427  20.0567004  36.3085232
 102.2998417  26.1375807  37.9150853 101.7719778  25.4028567  37.6024090
 101.7985919  26.9150484  37.6690821 107.2791263  24.3324828  43.0317899
 106.6214937  25.0224089  43.1198028 108.0831662  24.7221260  43.3751885
  97.0317144  16.7995474  40.2757464  97.6060896  16.5770655  39.5430657
  97.6188127  16.8684168  41.0286066 106.0896722  22.6869200  41.0821841
 106.6028603  23.3199192  41.5843551 106.7397945  22.0870396  40.7165201
  97.3586731  18.8299935  34.2953350  96.5224044  19.1674621  34.6162624
  97.2191501  18.6948914  33.3580487  99.3339812  13.6736722  39.0032534
  98.6804224  13.3585740  38.3789149  99.2920286  13.0512463  39.7292357
 100.4451017  23.9556018  30.9185826  99.5378079  23.7245271  31.1176975
 100.9422049  23.1593637  31.1059807 103.3519096  32.6653525  33.8382512
 102.6780795  32.9685221  34.4467470 103.7384918  33.4682605  33.4887969
 102.5677552  20.1618656  43.3280181 101.6500114  20.3833603  43.1701869
 102.9837696  20.2364966  42.4691889 103.3512600  21.5610072  38.4582862
 104.0984419  22.0731469  38.1489984 103.6204190  21.2394124  39.3187255
 101.6239250  24.0568612  35.4409816 100.7150470  23.7727645  35.5382286
 101.6534334  24.4767691  34.5813123 106.8558518  27.6675202  39.2100984
 106.4020845  26.8266112  39.2666174 106.2252484  28.3036600  39.5475764
 105.7991437  18.5967188  40.4401651 105.0614194  18.0844574  40.7711894
 106.0518211  18.1567570  39.6284928 105.2991457  29.5051699  40.1450802
 105.5914431  30.0656756  39.4263167 105.8090078  29.7980260  40.9003961
 105.9003065  11.3743440  41.0343420 106.2061941  10.5140803  40.7469335
 106.6255669  11.9661060  40.8342414  92.1927421  21.7774127  39.4225018
  91.9951821  21.1843487  38.6976085  91.6374085  21.4726337  40.1400957
 100.1724144  21.6697233  41.5419611 100.2272754  20.7171069  41.4662088
  99.3615346  21.8256672  42.0260910 101.3215338  25.5977356  32.7797895
 100.8834768  24.8813215  32.3203532 102.0625779  25.8253471  32.2182986
  98.1116504  20.2874293  39.3009990  97.2984370  20.5868463  39.7075182
  98.6075498  19.8929982  40.0184472 100.2625082  30.2832050  41.2344255
 100.2201261  30.5092896  40.3052787 101.1787781  30.0495424  41.3830056
 103.7090716  20.7516117  48.1324884 104.0640104  20.9787590  48.9919350
 104.3562847  21.0834494  47.5102139 109.4388453  23.8734553  38.8374213
 109.3006351  24.0636149  37.9095402 109.0824672  24.6353936  39.2942264
  97.6030579  17.8592648  44.9171225  98.2429958  17.7181407  44.2194188
  96.7708110  17.5727162  44.5409827 109.4657833  25.9411080  43.8485485
 109.8994339  25.8486369  44.6968539 110.1789413  25.9168581  43.2105501
  98.3790883  27.1595079  41.0306218  99.1731481  26.6645399  40.8288793
  97.6682575  26.6312942  40.6673923 103.1985727  29.5413174  45.3818585
 103.2522750  30.1104111  46.1496301 102.3300509  29.7115059  45.0172622
  94.6873646  21.3038160  37.1065970  93.7571235  21.2422616  37.3235932
  94.7831118  20.7814113  36.3102612  94.6059195  17.8292973  39.6944212
  94.8666013  18.7438306  39.5853372  95.4276368  17.3617416  39.8440825
  96.0784121  19.2430730  46.8643036  96.7507174  19.0348093  46.2155685
  95.2513907  19.0452816  46.4248269 110.3273382  25.9834781  46.3818370
 110.5209272  26.8880591  46.6277645 110.2274000  25.5242200  47.2156955
 101.9809693  15.8692671  48.8808697 101.3337608  16.5682621  48.7873174
 102.7510708  16.3028815  49.2484946 105.3888491  26.1341524  51.9559251
 105.2373997  25.9052075  51.0389334 105.3793170  27.0912125  51.9690596
 102.1573827  23.7073436  46.9405517 103.0865887  23.8584596  46.7674484
 101.7364857  23.7957457  46.0854164 100.9562159  27.7324101  44.7104055
 100.8173245  27.3642885  45.5829993 100.1676755  28.2471740  44.5388012
 101.5510311  32.8333197  36.0529591 101.7262067  32.3621240  36.8675214
 100.8643099  33.4598963  36.2810852 102.5067374  27.1105703  42.0992892
 102.1717207  27.0706473  42.9950542 102.0071320  26.4450419  41.6263303
  96.4811618  22.5173333  47.6245474  96.3431416  21.7853572  48.2257013
  97.3916542  22.4282233  47.3429661 105.4426566  24.4561738  32.3729952
 104.8255736  23.7308566  32.2763005 104.9743054  25.2171098  32.0297026
  99.1093919  22.2293293  47.1129153  99.8193537  21.5886485  47.0715772
  99.0663227  22.4806188  48.0355334 107.0980697  29.1660646  50.0335732
 107.0393244  28.4819866  49.3666315 107.5000216  29.9079636  49.5816358
  97.8222853  19.2158511  48.9324793  97.2860210  18.7649249  49.5846389
  97.2339561  19.3504419  48.1895257  96.1171396  35.9822560  42.8269451
  96.3567994  36.6141084  43.5048470  95.2740593  35.6310600  43.1134811
  97.2325112  18.6747162  31.4951256  96.3554578  18.5535963  31.1313503
  97.7082865  17.8833240  31.2430145 107.0998105  27.1300230  48.2649712
 106.2124883  26.7926152  48.3876111 107.6696656  26.3983261  48.5018478
  88.7527252  23.4624322  41.5892764  89.4398292  23.1486052  41.0013779
  88.5975380  24.3665686  41.3160015  93.5561974  18.3514518  46.0177787
  93.4720163  17.7440188  45.2828197  92.7344680  18.8423537  46.0187284
 100.6299258  31.7901682  45.2310955 100.5569430  32.5956654  45.7430260
 100.1876651  31.9893648  44.4058977 100.4189038  31.0273452  38.7413777
  99.6356560  31.5695133  38.8352001 101.1181783  31.5447432  39.1408018
 103.7285688  16.8368082  41.3847982 104.2254387  16.0838044  41.0649053
 102.9572669  16.8732398  40.8191192 111.5815445  22.5408447  43.0266274
 111.5705321  23.4233163  42.6560207 110.7132825  22.1879998  42.8320811
 103.0897942  31.6888516  47.3869114 103.8025914  32.3235981  47.3145015
 102.5987970  31.7852382  46.5709116 104.8115468  25.5939769  38.9586406
 103.8771747  25.7141232  38.7891110 104.9892137  24.6912236  38.6946416
 100.3120657  18.9785465  41.1119667  99.9418444  18.4256505  41.8000572
 100.8079749  18.3743598  40.5594667 108.1988020  21.4357088  39.4936440
 108.6648472  22.2685080  39.4196742 108.6495520  20.9702070  40.1981698
  98.1409855  29.4382960  48.2074685  98.8419315  30.0719443  48.3604079
  97.6704970  29.7797691  47.4470324 106.2664251  27.7800910  36.4922592
 106.5424095  27.6657504  37.4016466 105.3968750  27.3818394  36.4534765
 106.1704683  13.8037675  43.5327341 105.2567762  14.0341902  43.7009548
 106.5997784  13.8876119  44.3841374 105.9411141  21.9927567  46.0327235
 105.2882591  22.2403475  45.3779688 106.3191521  21.1791705  45.6989712
 102.9018315  32.0287260  40.1355405 103.0840709  31.2108916  40.5983158
 103.7251301  32.2454953  39.6980295 103.2360480  30.9555446  37.3970454
 103.7648247  30.4447900  36.7840616 103.4988700  30.6397976  38.2615987
 101.9898714  22.7347378  52.5193272 101.3139351  22.6341508  53.1895647
 102.8126348  22.5786592  52.9829269  93.7377573  28.9719315  45.1405788
  94.3231010  28.2263003  45.2733692  93.5402412  29.2823272  46.0242451
  96.5916228  32.0070562  40.1568230  95.9226604  32.4916690  39.6732270
  96.4529098  32.2539783  41.0711608  88.3295228  21.5424915  43.8610231
  88.3679327  21.0088506  44.6547349  87.8235521  21.0160121  43.2421208
 100.7321497  34.0414306  46.7550888 101.2839805  34.2045927  47.5199973
 101.0727690  34.6318744  46.0830913  95.7085990  16.3889456  47.3572773
  95.7727317  17.2504287  46.9450171  95.6453110  15.7763457  46.6245131
  95.1838263  18.4612588  51.0045807  95.8110302  18.0789665  51.6183332
  94.3266182  18.2426790  51.3701500 105.5832371  28.8675563  52.6099543
 106.1272275  29.4805522  52.1154497 105.0019216  29.4255142  53.1266556
  91.9603805  20.2689017  36.9364162  92.2557247  19.3599696  36.8831216
  91.0591841  20.2476757  36.6145164 103.8689884  31.9896281  43.7414570
 103.7441024  31.1886021  43.2325516 104.5268975  32.4842475  43.2528540
  95.4898052  18.3445014  42.9191711  94.7684638  18.9580982  42.7799184
  96.2791308  18.8802779  42.8408357 105.9324793  29.7905301  45.3694120
 104.9855128  29.6710653  45.2972447 106.2807566  28.9027799  45.4520382
  98.2924366  15.6799440  49.1932362  98.8158768  15.9261737  49.9558672
  98.0736699  16.5119475  48.7735500  93.6891647  17.9503115  37.0603487
  93.3604353  17.0700494  36.8778593  94.0431018  17.8950784  37.9479876
 102.9371226  29.5858018  41.5698473 102.7896188  28.6574725  41.7506043
 103.7624719  29.6078108  41.0855548  96.8033470  18.2376085  37.4278965
  97.1429543  18.7662006  36.7057573  97.2505591  18.5756491  38.2037531
 106.5405348  30.4086576  42.6563345 107.4651895  30.2029438  42.5187797
 106.3720651  30.1602978  43.5652687  99.4976911  16.6213135  46.8782033
  99.1573731  15.8220948  47.2802713  98.7915917  16.9214846  46.3058866
 100.1493383  13.7062448  45.3309356 100.9719452  13.2322926  45.2088246
 100.3931446  14.4852932  45.8308042  98.7901617  16.7350706  35.6272258
  99.5109980  17.1131959  35.1235974  98.1666921  17.4539583  35.7307236
 102.9332740  17.4395855  36.5630590 103.1496355  18.3220493  36.2619418
 102.4526807  17.0482069  35.8336232  97.6731962  20.3981568  43.1401335
  97.5276542  20.7121872  44.0325616  97.1957165  21.0166469  42.5872233
  99.5328345  17.3884116  43.1882224  99.5189913  16.4925210  42.8514522
 100.2500773  17.3954780  43.8220510 101.3854475  17.8221457  45.2335352
 101.1272253  18.7438527  45.2319682 100.8539516  17.4251891  45.9235816
 106.3300664  30.9272244  38.0125437 106.5037542  30.3618666  37.2599289
 106.8229555  31.7273139  37.8304927  92.1477624  22.9386913  46.0788996
  91.6031092  23.7146721  46.2109270  93.0256974  23.2857717  45.9208117
  98.9365240  16.2698497  38.4569794  99.0581152  15.3415143  38.6560682
  98.6467283  16.2837183  37.5448110 101.8056431  13.9553407  41.5936514
 101.8278128  14.0192740  40.6388494 102.2224490  13.1157916  41.7877020
 112.1840055  23.6908667  39.6315737 112.6271201  22.9415992  39.2334860
 111.3066565  23.6818803  39.2489469 107.3175836  30.2439008  35.1122335
 108.0126741  30.8645701  35.3309650 107.6598987  29.3934359  35.3874713
  92.9343646  22.0656809  48.9719153  92.1925382  22.2139445  49.5583783
  92.6136390  22.3265075  48.1085902 109.2167260  27.6938714  36.6409666
 109.7418584  28.0325986  35.9158986 109.1289612  26.7585729  36.4572801
 100.8787308  31.6072787  48.7699543 101.1874435  31.3621934  49.6422242
 101.6762790  31.8119426  48.2818413 100.9007920  33.7610697  41.0004919
 100.4612911  33.2687076  41.6937776 101.6516037  33.2183665  40.7596994
  93.3800259  29.9522238  41.0029547  94.2058279  29.6526010  40.6228191
  93.0294311  29.1829860  41.4519336  98.3481793  29.3048706  43.0727221
  97.7261802  28.6419411  42.7729449  99.0186659  29.3309838  42.3900869
  91.5808864  27.8708564  41.9618481  90.7440773  27.4430739  41.7802482
  91.5532510  28.0641008  42.8989272  98.4206320  17.7830494  52.6659727
  98.4694475  18.6592617  52.2837496  98.9628834  17.2407887  52.0931370
 108.9061166  28.3271617  51.9460864 108.1156709  28.3095756  51.4065363
 108.6694520  28.8659911  52.7009901 109.0259041  25.1764084  49.2593592
 109.0757046  25.0114091  50.2009115 108.9172964  24.3091343  48.8691473
  97.9095299  27.8552629  36.5485681  98.0583420  28.5388094  35.8952354
  98.7161743  27.8357720  37.0635137 106.3162803  21.1595012  50.5752899
 107.2172666  21.0201477  50.2836897 106.3910778  21.3249467  51.5151077
 100.6505608  18.5361867  49.4206086  99.7808918  18.8295433  49.1488674
 100.8865089  19.1202312  50.1413349 110.5277238  27.5961025  49.5035614
 110.2362046  27.9591006  50.3399075 109.9149369  26.8828034  49.3248946
 111.7272920  25.1613905  42.0238184 112.5619811  25.6003709  42.1875745
 111.8632049  24.6852558  41.2046430 108.7764426  22.7193640  47.9715672
 109.2518547  22.9121286  47.1634523 107.8529991  22.7752826  47.7259056
  95.6647932  23.8817807  37.5546750  95.4193974  22.9780137  37.7526960
  95.8343847  23.8834958  36.6126228 103.3544642  14.7541483  46.9371506
 103.8726586  15.4902510  46.6117994 102.9999775  15.0605477  47.7718265
  94.9343580  19.6146165  35.0532912  94.2412825  19.6890520  34.3972948
  94.6895332  18.8506508  35.5754429 103.6057236  11.1741766  42.4572403
 103.8858990  10.5064955  43.0832829 104.3907843  11.3670862  41.9447066
 101.4090705  30.3500760  34.0197429 100.8364672  30.9690947  33.5667901
 101.9823499  30.9000122  34.5537351 107.4766095  19.5959400  46.2043978
 108.4283518  19.6957498  46.2256202 107.3069545  18.8037669  46.7142062
 105.4980474  16.6814983  46.3903379 104.9030406  16.9619996  45.6949867
 105.2130171  17.1708884  47.1620120 104.6287965  30.6337910  35.1506011
 105.5618638  30.5683472  35.3538887 104.5411178  31.4694177  34.6920544
 107.2575981  29.9503780  32.1109959 107.1789613  29.6163644  33.0045717
 108.0785648  30.4425548  32.1101431 109.9554173  22.8165520  45.3186277
 109.9230493  21.8781520  45.5045961 110.5654796  22.8949556  44.5852102
 101.7937503  21.6861573  31.3613481 102.7396608  21.5567781  31.4301899
 101.4151748  20.9476235  31.8382909 110.1048661  19.6076563  45.3644560
 109.5887710  18.8235020  45.1774489 110.9888610  19.2795280  45.5291080
 107.7659388  13.3517579  41.3240373 107.5684209  13.0432667  42.2083705
 108.3759094  14.0779218  41.4538303 115.7730722  23.8781527  44.4592314
 116.5034111  23.6166815  45.0200017 115.1637668  23.1410248  44.4994382
 113.8546020  22.0189389  45.0566765 113.1279183  21.8845354  44.4483257
 113.4393306  22.3266218  45.8623483 101.6776196  25.7379319  52.8214138
 102.5979205  25.9157918  53.0154185 101.6425779  24.7935364  52.6693838
  99.9780421  19.6111549  31.2968367  99.0711876  19.3144662  31.3731080
 100.2556402  19.3141367  30.4302653  90.8958361  20.9317912  41.7467413
  90.5761145  20.0783221  41.4541787  90.3491789  21.1466491  42.5025380
  94.6738269  23.6480353  45.4636919  94.8924278  24.5797461  45.4824953
  95.0864042  23.2888328  46.2491723 101.5942486  14.1548439  37.4512608
 100.7843215  13.8095524  37.8267854 102.2826903  13.8455982  38.0400219
 103.5233035  13.2326486  39.0736904 104.0764073  13.6521939  39.7326928
 103.7603121  12.3062234  39.1159860  99.5466134  19.2213559  54.8539668
  99.4462861  20.1707916  54.7851759  99.3287676  18.8931798  53.9815738
  98.7479205  16.4698484  31.4380346  99.6098369  16.7953383  31.6976163
  98.9329549  15.6829980  30.9253412  90.7646621  24.5520824  43.7160535
  90.0710092  24.1374777  43.2030489  91.5119612  24.5941360  43.1193953
 106.9011842  15.3427011  38.5815569 106.3210511  16.0011815  38.1993621
 106.6347774  14.5204355  38.1702986 105.3515408  14.7432068  40.7836889
 105.8515186  14.8548603  39.9751208 105.9951016  14.4393121  41.4237697
  99.4097404  22.6510698  53.6704730  98.9264486  23.4511058  53.8768619
  99.4958343  22.6618643  52.7172174  92.6783363  24.4839078  41.5926549
  92.6554052  24.5826765  40.6408432  92.9884000  25.3304229  41.9143716
  95.3370741  26.5415233  45.7073164  96.2913995  26.5099175  45.6403095
  95.1383265  26.0805856  46.5223390  95.9270123  25.1116349  48.2743961
  96.7463012  25.6060427  48.2978799  96.2006931  24.1948317  48.2461529
 105.6836720  17.5027101  37.6371917 104.7962575  17.7876752  37.4192112
 106.0990709  17.3420864  36.7899194 109.0351256  17.5273622  41.3526256
 109.8111646  18.0170075  41.6250873 108.3099390  17.9531676  41.8098126
 111.4723814  18.2401241  42.4100197 112.0668305  17.9996977  41.6993505
 111.5450398  17.5208372  43.0373733  93.6920970  32.0834852  42.7243362
  93.5575438  31.3235253  42.1581360  93.2753032  32.8075752  42.2572151
 104.8279933  27.2671776  31.7319937 105.5315783  27.4721778  32.3477593
 104.1042582  27.8348538  31.9969020 105.6577743  23.0181637  37.8522207
 105.6012945  23.4750188  37.0129840 106.2106086  22.2572322  37.6745050
 109.4682549  18.8071369  38.6772327 109.2119484  18.4068005  39.5080534
 108.8435417  19.5215163  38.5522466 113.7794887  21.5467442  41.1843618
 113.2194445  21.6160631  41.9575180 113.1738391  21.3708427  40.4643114
  96.8490096  32.9804169  42.9361804  96.7322480  33.9249602  42.8340495
  96.0282542  32.6777731  43.3247604 106.7366631  27.7054305  33.7818397
 107.5712235  27.2735503  33.5995872 106.5750973  27.5336319  34.7095292
 106.3912523  24.2086418  35.1474736 106.3361327  24.0430690  34.2063180
 105.7658578  24.9162451  35.3036926  91.1805038  19.4454483  48.9736159
  91.8263901  18.9353437  49.4623384  90.9722189  20.1823164  49.5479584
 103.7058430  26.5135330  54.4728299 104.5749590  26.6875982  54.1114934
 103.2265181  27.3329747  54.3504028  99.7008648  13.7094527  34.7260055
  99.6887318  14.6536367  34.8828326 100.5932070  13.5264673  34.4319516
  97.8744610  33.6332431  46.1517733  98.7771857  33.6656041  46.4684228
  97.6481980  32.7032882  46.1664069  99.6298212  32.3863418  42.8127811
  98.6793843  32.3865279  42.6992184  99.9330698  31.6396152  42.2963846
 103.5160768  10.3037304  38.9805992 102.7493163   9.7495791  39.1262674
 103.9271473  10.3759173  39.8420143  95.5202529  16.5922100  53.0711173
  96.3833990  16.2358905  53.2814497  94.9467939  16.2535995  53.7586577
 115.3650906  38.2223956  43.8773574 116.0029316  38.1030703  43.1736914
 115.2471749  39.1704800  43.9361526 112.1740612  38.1751384  43.8135098
 111.8359123  38.0592449  42.9255633 113.0430380  37.7742549  43.7936105
 108.0327428  40.0286861  39.8031989 107.4692293  39.9376798  39.0348277
 107.9179823  39.2086765  40.2834482 112.6560395  39.3286236  49.7721304
 112.6449036  38.9339034  48.9001808 112.8181034  38.5952309  50.3655075
 105.5791860  41.5238052  42.6416210 106.3713151  41.1828877  42.2262509
 105.8188510  41.6333027  43.5618363 113.6126986  43.6957828  35.1146454
 112.9614966  44.2811909  34.7280468 114.4071349  44.2264023  35.1741492
 107.5382614  40.7846965  35.5133589 108.3113490  40.2375953  35.3746464
 107.8908012  41.6491215  35.7248050 109.3767656  42.1123348  48.7200488
 109.0857522  43.0168979  48.6047154 110.0124640  42.1539875  49.4344558
 110.3023863  39.4900196  45.3101848 110.8987435  39.2656219  44.5958811
 110.3598834  38.7484942  45.9127295 109.8748891  36.9439632  33.1452039
 110.1274412  36.4221153  32.3835502 108.9373450  36.7805777  33.2478722
 114.9192174  35.9475410  40.9526782 115.7055263  35.5294833  40.6017199
 115.1830878  36.8521502  41.1208430 115.0902252  41.3848260  35.6515439
 114.4548084  41.4582887  36.3636343 114.7599658  41.9741859  34.9734518
 120.3200601  35.8850643  41.8559760 121.0525773  35.3149860  42.0897590
 119.5639957  35.4972244  42.2966266 109.5945180  38.8467738  35.3476414
 109.4781438  38.1712641  36.0157498 109.7047440  38.3600111  34.5308567
 111.9376721  38.3077885  39.0523103 111.5734928  37.7808506  39.7636024
 112.7943837  37.9176354  38.8789588 117.8426022  29.5972217  46.3154369
 117.5109346  30.4667628  46.0915584 117.2471635  29.2808501  46.9948399
 111.5782208  33.3367784  34.0484451 111.7456610  34.2048021  34.4154922
 111.3879377  33.4995066  33.1245741 114.3357541  41.7984763  45.7150282
 114.0358264  42.7009802  45.6066089 113.9908601  41.5316946  46.5671435
 107.7870023  38.2498560  41.7486986 106.8620519  38.1174774  41.9564678
 108.0354436  39.0292779  42.2456928 117.7354685  34.3167303  43.3947719
 116.8271562  34.2482712  43.1006480 117.6842281  34.7939248  44.2229544
 111.5571429  35.7925442  35.0331118 111.4371054  36.2382493  35.8716598
 110.8624017  36.1410759  34.4744656 105.1478834  37.8931834  42.5830775
 105.2771215  38.1466313  43.4970187 104.4676285  38.4859542  42.2635430
 109.3178321  48.5629084  38.6821249 109.2402351  49.5136909  38.7609730
 108.7139965  48.2174956  39.3396176 111.8095551  35.7356949  51.3382616
 111.0328885  36.2950869  51.3285481 112.4486114  36.2213732  51.8597486
 119.6016331  32.5183742  45.1725593 118.9590712  32.8116275  44.5265387
 119.0971260  32.4036662  45.9778790 117.2556495  36.2646915  35.8611452
 118.1674351  36.4974302  35.6859150 116.7466142  36.8483959  35.2986531
 110.0641923  38.5442402  50.9000583 110.8056607  39.0827446  50.6235407
 109.3578909  39.1708691  51.0572135 115.5397263  40.6871543  49.4972745
 115.9480619  40.2453953  48.7527377 114.8174524  40.1124170  49.7506938
 111.8928333  35.6244150  46.8706302 112.7389528  36.0483563  47.0140951
 111.8326970  34.9677774  47.5644865 115.8626077  41.2472733  43.2525034
 115.2334940  41.4118448  42.5501101 115.4751739  41.6614343  44.0235998
 119.7415309  42.1827171  40.6069397 119.0566347  42.5626073  40.0566431
 119.8259159  42.7922498  41.3401345 115.0427778  33.2848518  48.5287475
 114.7988710  34.0390578  47.9921751 115.3187709  33.6633866  49.3634722
 116.9966241  39.8287130  47.2064741 117.2083136  40.4718890  46.5299122
 116.9495989  38.9949447  46.7386671 114.5992470  32.4404951  44.1101313
 113.7376949  32.7386205  44.4018051 114.6254904  32.6575350  43.1782346
 111.4154039  40.9847142  40.5175119 111.8792385  41.2634845  39.7279741
 111.1510837  40.0830586  40.3348209 108.3078120  40.5318623  43.4554882
 108.8779477  40.9605891  42.8172366 108.8986232  40.2501208  44.1539068
 110.3522925  37.1070294  37.3264684 111.0546969  37.5591338  37.7938610
 110.0203554  36.4654113  37.9544577 108.8003287  35.6982051  51.7015893
 108.1701947  36.3798331  51.9351290 108.6939375  35.5865132  50.7569032
 104.0948259  35.3653847  42.6281817 103.3047313  35.6211375  42.1521928
 104.5859507  36.1802184  42.7333858 118.1112069  42.7059086  45.3787098
 118.9329513  42.3039273  45.0969780 118.1074472  42.6027320  46.3303214
 106.0463005  35.7298426  39.5865294 105.2494168  35.8417120  40.1048790
 105.8188597  36.0685078  38.7206185 111.8768672  42.2543129  47.5347809
 111.9413105  42.7163536  48.3705981 111.1679596  41.6240494  47.6630119
 102.3785962  35.6184337  45.0596808 102.6294001  36.5031347  45.3254384
 102.9145511  35.4388939  44.2871900 126.2018062  39.0497834  41.7272070
 125.4481770  38.4805232  41.5716074 126.3365603  39.0160499  42.6742704
 111.5916690  43.9211237  37.4026789 111.4562365  44.7662772  37.8311637
 112.1326502  44.1230514  36.6392723 108.0784030  30.0002816  54.0641144
 107.6850975  29.4469015  54.7388789 108.8950170  30.3113395  54.4547662
 105.0446087  41.4386675  37.9754714 105.5570608  42.2329925  38.1260279
 105.6968800  40.7412965  37.9088316 106.8540972  44.5552431  40.0577467
 107.0307600  45.4770396  39.8698451 107.6497805  44.2410850  40.4871847
 110.9951991  31.4160695  51.6561401 111.7361704  32.0167849  51.5765863
 111.2269913  30.6738333  51.0979443 106.1393329  36.6017063  49.9339631
 106.0246844  35.7002320  50.2346729 105.2837846  36.8480759  49.5824447
 113.2185166  44.5434803  51.5327131 112.7749020  43.7571182  51.2148036
 113.8802380  44.7313954  50.8671022 107.9772287  46.0730605  46.0587810
 108.5279713  45.9447668  45.2864804 107.1383763  46.3725494  45.7082702
 115.3166404  44.8237603  49.5608532 115.2984880  45.6446484  49.0688802
 116.2386324  44.6991678  49.7858674 111.7739458  42.3381732  50.4032041
 112.3067795  41.5770021  50.1731349 111.2453540  42.0455384  51.1456195
 114.9409153  27.4441798  45.9325683 114.5973423  28.3343440  45.8564793
 115.3088116  27.2543456  45.0695268 103.0095004  39.7675329  38.7514285
 103.8470226  40.1772337  38.5347992 103.1873272  38.8274771  38.7214479
 114.9059436  37.4350410  34.4398118 114.3906060  38.2055014  34.6786505
 114.6336745  36.7615546  35.0631179 112.4906547  32.2800110  39.4983356
 111.6348144  31.8906961  39.3188995 112.9033499  32.3592071  38.6383142
 114.0205694  29.8146454  43.8974916 113.5170489  29.7776589  43.0842721
 114.3136301  30.7239196  43.9571572 110.2648580  29.8985183  42.9041098
 111.1301576  29.7027992  42.5446987 110.3326089  29.6695535  43.8310454
 119.8793710  40.1882764  36.3751291 119.1023153  39.8493924  35.9306453
 120.5585191  40.1935387  35.7006256 114.6945739  35.3077502  36.2657899
 114.3895875  35.6223651  37.1168042 115.6476181  35.3858922  36.3085232
 113.1392171  41.4667725  37.9150853 112.6113533  40.7320485  37.6024090
 112.6379674  42.2442401  37.6690821 118.1185017  39.6616745  43.0317899
 117.4608692  40.3516007  43.1198028 118.9225416  40.0513177  43.3751885
 107.8710899  32.1287391  40.2757464 108.4454651  31.9062573  39.5430657
 108.4581881  32.1976086  41.0286066 116.9290476  38.0161118  41.0821841
 117.4422358  38.6491110  41.5843551 117.5791700  37.4162314  40.7165201
 108.1980486  34.1591852  34.2953350 107.3617798  34.4966539  34.6162624
 108.0585256  34.0240832  33.3580487 110.1733567  29.0028640  39.0032534
 109.5197979  28.6877657  38.3789149 110.1314041  28.3804381  39.7292357
 111.2844771  39.2847935  30.9185826 110.3771833  39.0537189  31.1176975
 111.7815803  38.4885554  31.1059807 114.1912850  47.9945442  33.8382512
 113.5174549  48.2977139  34.4467470 114.5778672  48.7974523  33.4887969
 113.4071307  35.4910574  43.3280181 112.4893868  35.7125521  43.1701869
 113.8231450  35.5656884  42.4691889 114.1906355  36.8901989  38.4582862
 114.9378174  37.4023387  38.1489984 114.4597944  36.5686042  39.3187255
 112.4633005  39.3860530  35.4409816 111.5544224  39.1019563  35.5382286
 112.4928089  39.8059609  34.5813123 117.6952272  42.9967120  39.2100984
 117.2414599  42.1558029  39.2666174 117.0646239  43.6328518  39.5475764
 116.6385192  33.9259106  40.4401651 115.9007949  33.4136492  40.7711894
 116.8911965  33.4859487  39.6284928 116.1385211  44.8343616  40.1450802
 116.4308186  45.3948673  39.4263167 116.6483832  45.1272177  40.9003961
 116.7396819  26.7035358  41.0343420 117.0455696  25.8432721  40.7469335
 117.4649424  27.2952978  40.8342414 103.0321175  37.1066044  39.4225018
 102.8345575  36.5135405  38.6976085 102.4767839  36.8018254  40.1400957
 111.0117899  36.9989151  41.5419611 111.0666509  36.0462987  41.4662088
 110.2009101  37.1548590  42.0260910 112.1609093  40.9269274  32.7797895
 111.7228523  40.2105133  32.3203532 112.9019533  41.1545389  32.2182986
 108.9510259  35.6166210  39.3009990 108.1378124  35.9160381  39.7075182
 109.4469253  35.2221899  40.0184472 111.1018837  45.6123967  41.2344255
 111.0595015  45.8384814  40.3052787 112.0181536  45.3787342  41.3830056
 114.5484470  36.0808035  48.1324884 114.9033858  36.3079508  48.9919350
 115.1956602  36.4126412  47.5102139 120.2782207  39.2026471  38.8374213
 120.1400106  39.3928067  37.9095402 119.9218426  39.9645854  39.2942264
 108.4424334  33.1884566  44.9171225 109.0823713  33.0473325  44.2194188
 107.6101864  32.9019079  44.5409827 120.3051587  41.2702998  43.8485485
 120.7388094  41.1778287  44.6968539 121.0183168  41.2460498  43.2105501
 109.2184637  42.4886996  41.0306218 110.0125236  41.9937316  40.8288793
 108.5076330  41.9604859  40.6673923 114.0379482  44.8705092  45.3818585
 114.0916504  45.4396028  46.1496301 113.1694263  45.0406977  45.0172622
 105.5267401  36.6330078  37.1065970 104.5964989  36.5714534  37.3235932
 105.6224873  36.1106031  36.3102612 105.4452950  33.1584891  39.6944212
 105.7059767  34.0730224  39.5853372 106.2670122  32.6909333  39.8440825
 106.9177875  34.5722648  46.8643036 107.5900929  34.3640010  46.2155685
 106.0907662  34.3744734  46.4248269 121.1667137  41.3126698  46.3818370
 121.3603027  42.2172509  46.6277645 121.0667755  40.8534118  47.2156955
 112.8203447  31.1984589  48.8808697 112.1731362  31.8974539  48.7873174
 113.5904463  31.6320733  49.2484946 116.2282245  41.4633441  51.9559251
 116.0767752  41.2343993  51.0389334 116.2186925  42.4204043  51.9690596
 112.9967582  39.0365354  46.9405517 113.9259642  39.1876514  46.7674484
 112.5758612  39.1249375  46.0854164 111.7955913  43.0616018  44.7104055
 111.6566999  42.6934803  45.5829993 111.0070510  43.5763658  44.5388012
 112.3904065  48.1625115  36.0529591 112.5655821  47.6913158  36.8675214
 111.7036853  48.7890881  36.2810852 113.3461129  42.4397621  42.0992892
 113.0110961  42.3998391  42.9950542 112.8465074  41.7742337  41.6263303
 107.3205373  37.8465251  47.6245474 107.1825170  37.1145490  48.2257013
 108.2310296  37.7574151  47.3429661 116.2820320  39.7853655  32.3729952
 115.6649491  39.0600484  32.2763005 115.8136809  40.5463016  32.0297026
 109.9487673  37.5585210  47.1129153 110.6587292  36.9178403  47.0715772
 109.9056981  37.8098105  48.0355334 117.9374452  44.4952564  50.0335732
 117.8786998  43.8111784  49.3666315 118.3393970  45.2371554  49.5816358
 108.6616607  34.5450428  48.9324793 108.1253964  34.0941167  49.5846389
 108.0733316  34.6796337  48.1895257 106.9565151  51.3114478  42.8269451
 107.1961749  51.9433002  43.5048470 106.1134347  50.9602518  43.1134811
 108.0718866  34.0039080  31.4951256 107.1948332  33.8827880  31.1313503
 108.5476619  33.2125158  31.2430145 117.9391859  42.4592148  48.2649712
 117.0518638  42.1218069  48.3876111 118.5090410  41.7275179  48.5018478
  99.5921006  38.7916239  41.5892764 100.2792046  38.4777969  41.0013779
  99.4369135  39.6957604  41.3160015 104.3955728  33.6806436  46.0177787
 104.3113917  33.0732106  45.2828197 103.5738435  34.1715454  46.0187284
 111.4693013  47.1193600  45.2310955 111.3963184  47.9248572  45.7430260
 111.0270406  47.3185566  44.4058977 111.2582792  46.3565370  38.7413777
 110.4750314  46.8987050  38.8352001 111.9575537  46.8739350  39.1408018
 114.5679442  32.1660000  41.3847982 115.0648142  31.4129962  41.0649053
 113.7966424  32.2024316  40.8191192 122.4209200  37.8700365  43.0266274
 122.4099076  38.7525080  42.6560207 121.5526579  37.5171916  42.8320811
 113.9291696  47.0180434  47.3869114 114.6419668  47.6527899  47.3145015
 113.4381725  47.1144300  46.5709116 115.6509223  40.9231687  38.9586406
 114.7165502  41.0433149  38.7891110 115.8285891  40.0204153  38.6946416
 111.1514411  34.3077382  41.1119667 110.7812199  33.7548423  41.8000572
 111.6473503  33.7035516  40.5594667 119.0381774  36.7649006  39.4936440
 119.5042227  37.5976998  39.4196742 119.4889275  36.2993988  40.1981698
 108.9803610  44.7674878  48.2074685 109.6813069  45.4011360  48.3604079
 108.5098725  45.1089609  47.4470324 117.1058005  43.1092827  36.4922592
 117.3817849  42.9949422  37.4016466 116.2362504  42.7110312  36.4534765
 117.0098437  29.1329593  43.5327341 116.0961517  29.3633820  43.7009548
 117.4391539  29.2168037  44.3841374 116.7804896  37.3219485  46.0327235
 116.1276346  37.5695392  45.3779688 117.1585275  36.5083623  45.6989712
 113.7412069  47.3579178  40.1355405 113.9234464  46.5400834  40.5983158
 114.5645055  47.5746870  39.6980295 114.0754235  46.2847363  37.3970454
 114.6042001  45.7739818  36.7840616 114.3382455  45.9689893  38.2615987
 112.8292469  38.0639296  52.5193272 112.1533106  37.9633425  53.1895647
 113.6520102  37.9078510  52.9829269 104.5771328  44.3011233  45.1405788
 105.1624764  43.5554920  45.2733692 104.3796166  44.6115189  46.0242451
 107.4309983  47.3362480  40.1568230 106.7620358  47.8208608  39.6732270
 107.2922853  47.5831700  41.0711608  99.1688982  36.8716833  43.8610231
  99.2073082  36.3380423  44.6547349  98.6629275  36.3452038  43.2421208
 111.5715251  49.3706223  46.7550888 112.1233560  49.5337845  47.5199973
 111.9121445  49.9610661  46.0830913 106.5479745  31.7181373  47.3572773
 106.6121071  32.5796204  46.9450171 106.4846865  31.1055375  46.6245131
 106.0232017  33.7904506  51.0045807 106.6504056  33.4081583  51.6183332
 105.1659936  33.5718708  51.3701500 116.4226126  44.1967481  52.6099543
 116.9666030  44.8097439  52.1154497 115.8412971  44.7547059  53.1266556
 102.7997560  35.5980935  36.9364162 103.0951001  34.6891613  36.8831216
 101.8985596  35.5768674  36.6145164 114.7083639  47.3188199  43.7414570
 114.5834778  46.5177939  43.2325516 115.3662730  47.8134392  43.2528540
 106.3291807  33.6736931  42.9191711 105.6078393  34.2872899  42.7799184
 107.1185063  34.2094696  42.8408357 116.7718547  45.1197219  45.3694120
 115.8248883  45.0002570  45.2972447 117.1201320  44.2319717  45.4520382
 109.1318121  31.0091358  49.1932362 109.6552522  31.2553655  49.9558672
 108.9130454  31.8411393  48.7735500 104.5285402  33.2795033  37.0603487
 104.1998108  32.3992412  36.8778593 104.8824772  33.2242701  37.9479876
 113.7764980  44.9149935  41.5698473 113.6289943  43.9866643  41.7506043
 114.6018474  44.9370026  41.0855548 107.6427225  33.5668002  37.4278965
 107.9823297  34.0953924  36.7057573 108.0899345  33.9048409  38.2037531
 117.3799102  45.7378494  42.6563345 118.3045650  45.5321355  42.5187797
 117.2114406  45.4894895  43.5652687 110.3370666  31.9505053  46.8782033
 109.9967486  31.1512866  47.2802713 109.6309672  32.2506764  46.3058866
 110.9887137  29.0354366  45.3309356 111.8113207  28.5614844  45.2088246
 111.2325201  29.8144849  45.8308042 109.6295372  32.0642624  35.6272258
 110.3503734  32.4423877  35.1235974 109.0060676  32.7831501  35.7307236
 113.7726495  32.7687773  36.5630590 113.9890109  33.6512411  36.2619418
 113.2920562  32.3773986  35.8336232 108.5125716  35.7273486  43.1401335
 108.3670297  36.0413789  44.0325616 108.0350920  36.3458386  42.5872233
 110.3722099  32.7176034  43.1882224 110.3583668  31.8217127  42.8514522
 111.0894527  32.7246698  43.8220510 112.2248230  33.1513374  45.2335352
 111.9666008  34.0730445  45.2319682 111.6933270  32.7543809  45.9235816
 117.1694418  46.2564161  38.0125437 117.3431296  45.6910584  37.2599289
 117.6623310  47.0565056  37.8304927 102.9871378  38.2678831  46.0788996
 102.4424846  39.0438639  46.2109270 103.8650728  38.6149635  45.9208117
 109.7758995  31.5990414  38.4569794 109.8974906  30.6707061  38.6560682
 109.4861037  31.6129100  37.5448110 112.6450185  29.2845325  41.5936514
 112.6671882  29.3484658  40.6388494 113.0618244  28.4449834  41.7877020
 123.0233810  39.0200584  39.6315737 123.4664956  38.2707910  39.2334860
 122.1460320  39.0110721  39.2489469 118.1569591  45.5730926  35.1122335
 118.8520496  46.1937619  35.3309650 118.4992741  44.7226277  35.3874713
 103.7737400  37.3948727  48.9719153 103.0319136  37.5431362  49.5583783
 103.4530144  37.6556992  48.1085902 120.0561014  43.0230631  36.6409666
 120.5812338  43.3617904  35.9158986 119.9683367  42.0877647  36.4572801
 111.7181063  46.9364705  48.7699543 112.0268189  46.6913852  49.6422242
 112.5156545  47.1411344  48.2818413 111.7401675  49.0902615  41.0004919
 111.3006665  48.5978993  41.6937776 112.4909792  48.5475582  40.7596994
 104.2194014  45.2814156  41.0029547 105.0452034  44.9817927  40.6228191
 103.8688066  44.5121778  41.4519336 109.1875547  44.6340624  43.0727221
 108.5655556  43.9711329  42.7729449 109.8580414  44.6601756  42.3900869
 102.4202619  43.2000482  41.9618481 101.5834527  42.7722656  41.7802482
 102.3926264  43.3932925  42.8989272 109.2600074  33.1122412  52.6659727
 109.3088230  33.9884535  52.2837496 109.8022589  32.5699805  52.0931370
 119.7454920  43.6563535  51.9460864 118.9550464  43.6387674  51.4065363
 119.5088275  44.1951829  52.7009901 119.8652795  40.5056001  49.2593592
 119.9150800  40.3406009  50.2009115 119.7566719  39.6383260  48.8691473
 108.7489054  43.1844547  36.5485681 108.8977174  43.8680012  35.8952354
 109.5555497  43.1649637  37.0635137 117.1556558  36.4886929  50.5752899
 118.0566420  36.3493394  50.2836897 117.2304532  36.6541384  51.5151077
 111.4899363  33.8653784  49.4206086 110.6202672  34.1587350  49.1488674
 111.7258843  34.4494229  50.1413349 121.3670992  42.9252943  49.5035614
 121.0755800  43.2882923  50.3399075 120.7543123  42.2119951  49.3248946
 122.5666674  40.4905823  42.0238184 123.4013566  40.9295627  42.1875745
 122.7025803  40.0144476  41.2046430 119.6158180  38.0485558  47.9715672
 120.0912302  38.2413204  47.1634523 118.6923746  38.1044743  47.7259056
 106.5041687  39.2109725  37.5546750 106.2587729  38.3072055  37.7526960
 106.6737601  39.2126875  36.6126228 114.1938397  30.0833401  46.9371506
 114.7120341  30.8194428  46.6117994 113.8393530  30.3897394  47.7718265
 105.7737334  34.9438082  35.0532912 105.0806579  35.0182437  34.3972948
 105.5289086  34.1798426  35.5754429 114.4450991  26.5033684  42.4572403
 114.7252745  25.8356873  43.0832829 115.2301598  26.6962779  41.9447066
 112.2484459  45.6792678  34.0197429 111.6758427  46.2982865  33.5667901
 112.8217253  46.2292039  34.5537351 118.3159849  34.9251318  46.2043978
 119.2677272  35.0249415  46.2256202 118.1463300  34.1329586  46.7142062
 116.3374229  32.0106901  46.3903379 115.7424161  32.2911914  45.6949867
 116.0523925  32.5000802  47.1620120 115.4681719  45.9629828  35.1506011
 116.4012392  45.8975389  35.3538887 115.3804932  46.7986095  34.6920544
 118.0969736  45.2795698  32.1109959 118.0183367  44.9455562  33.0045717
 118.9179403  45.7717466  32.1101431 120.7947927  38.1457437  45.3186277
 120.7624247  37.2073438  45.5045961 121.4048551  38.2241474  44.5852102
 112.6331258  37.0153490  31.3613481 113.5790363  36.8859698  31.4301899
 112.2545503  36.2768152  31.8382909 120.9442416  34.9368481  45.3644560
 120.4281464  34.1526937  45.1774489 121.8282364  34.6087197  45.5291080
 118.6053142  28.6809496  41.3240373 118.4077964  28.3724585  42.2083705
 119.2152848  29.4071135  41.4538303 126.6124477  39.2073444  44.4592314
 127.3427865  38.9458732  45.0200017 126.0031422  38.4702166  44.4994382
 124.6939774  37.3481307  45.0566765 123.9672938  37.2137272  44.4483257
 124.2787061  37.6558135  45.8623483 112.5169950  41.0671236  52.8214138
 113.4372960  41.2449835  53.0154185 112.4819533  40.1227282  52.6693838
 110.8174175  34.9403467  31.2968367 109.9105630  34.6436579  31.3731080
 111.0950156  34.6433285  30.4302653 101.7352115  36.2609830  41.7467413
 101.4154900  35.4075138  41.4541787 101.1885544  36.4758408  42.5025380
 105.5132023  38.9772271  45.4636919 105.7318033  39.9089379  45.4824953
 105.9257797  38.6180246  46.2491723 112.4336241  29.4840356  37.4512608
 111.6236969  29.1387441  37.8267854 113.1220658  29.1747900  38.0400219
 114.3626789  28.5618403  39.0736904 114.9157828  28.9813857  39.7326928
 114.5996875  27.6354151  39.1159860 110.3859888  34.5505477  54.8539668
 110.2856615  35.4999834  54.7851759 110.1681430  34.2223716  53.9815738
 109.5872960  31.7990402  31.4380346 110.4492124  32.1245300  31.6976163
 109.7723304  31.0121898  30.9253412 101.6040375  39.8812742  43.7160535
 100.9103847  39.4666694  43.2030489 102.3513366  39.9233278  43.1193953
 117.7405596  30.6718928  38.5815569 117.1604265  31.3303732  38.1993621
 117.4741529  29.8496273  38.1702986 116.1909163  30.0723986  40.7836889
 116.6908941  30.1840521  39.9751208 116.8344770  29.7685039  41.4237697
 110.2491158  37.9802616  53.6704730 109.7658240  38.7802976  53.8768619
 110.3352097  37.9910561  52.7172174 103.5177118  39.8130995  41.5926549
 103.4947806  39.9118683  40.6408432 103.8277754  40.6596146  41.9143716
 106.1764496  41.8707150  45.7073164 107.1307749  41.8391093  45.6403095
 105.9777019  41.4097774  46.5223390 106.7663878  40.4408266  48.2743961
 107.5856767  40.9352345  48.2978799 107.0400686  39.5240235  48.2461529
 116.5230474  32.8319019  37.6371917 115.6356329  33.1168669  37.4192112
 116.9384463  32.6712782  36.7899194 119.8745010  32.8565540  41.3526256
 120.6505400  33.3461992  41.6250873 119.1493144  33.2823594  41.8098126
 122.3117569  33.5693159  42.4100197 122.9062060  33.3288895  41.6993505
 122.3844153  32.8500290  43.0373733 104.5314725  47.4126770  42.7243362
 104.3969193  46.6527171  42.1581360 104.1146787  48.1367670  42.2572151
 115.6673688  42.5963693  31.7319937 116.3709538  42.8013696  32.3477593
 114.9436336  43.1640455  31.9969020 116.4971498  38.3473555  37.8522207
 116.4406699  38.8042106  37.0129840 117.0499840  37.5864239  37.6745050
 120.3076304  34.1363287  38.6772327 120.0513238  33.7359922  39.5080534
 119.6829172  34.8507081  38.5522466 124.6188642  36.8759360  41.1843618
 124.0588200  36.9452549  41.9575180 124.0132145  36.7000344  40.4643114
 107.6883851  48.3096087  42.9361804 107.5716235  49.2541519  42.8340495
 106.8676297  48.0069648  43.3247604 117.5760385  43.0346223  33.7818397
 118.4105989  42.6027421  33.5995872 117.4144728  42.8628236  34.7095292
 117.2306277  39.5378336  35.1474736 117.1755081  39.3722607  34.2063180
 116.6052333  40.2454369  35.3036926 102.0198792  34.7746400  48.9736159
 102.6657656  34.2645354  49.4623384 101.8115943  35.5115082  49.5479584
 114.5452184  41.8427248  54.4728299 115.4143344  42.0167900  54.1114934
 114.0658936  42.6621665  54.3504028 110.5402403  29.0386445  34.7260055
 110.5281073  29.9828285  34.8828326 111.4325825  28.8556590  34.4319516
 108.7138365  48.9624349  46.1517733 109.6165611  48.9947959  46.4684228
 108.4875735  48.0324800  46.1664069 110.4691967  47.7155335  42.8127811
 109.5187598  47.7157197  42.6992184 110.7724453  46.9688070  42.2963846
 114.3554522  25.6329222  38.9805992 113.5886918  25.0787708  39.1262674
 114.7665227  25.7051090  39.8420143 106.3596283  31.9214017  53.0711173
 107.2227745  31.5650822  53.2814497 105.7861694  31.5827912  53.7586577
 126.2044660  53.5515874  43.8773574 126.8423070  53.4322621  43.1736914
 126.0865503  54.4996718  43.9361526 123.0134366  53.5043302  43.8135098
 122.6752878  53.3884367  42.9255633 123.8824135  53.1034467  43.7936105
 118.8721182  55.3578778  39.8031989 118.3086047  55.2668715  39.0348277
 118.7573577  54.5378683  40.2834482 123.4954149  54.6578154  49.7721304
 123.4842790  54.2630952  48.9001808 123.6574789  53.9244226  50.3655075
 124.4520741  59.0249746  35.1146454 123.8008721  59.6103826  34.7280468
 125.2465104  59.5555941  35.1741492 118.3776368  56.1138883  35.5133589
 119.1507244  55.5667870  35.3746464 118.7301767  56.9783132  35.7248050
 121.1417617  54.8192114  45.3101848 121.7381190  54.5948136  44.5958811
 121.1992589  54.0776859  45.9127295 120.7142646  52.2731549  33.1452039
 120.9668167  51.7513071  32.3835502 119.7767205  52.1097695  33.2478722
 125.7585929  51.2767328  40.9526782 126.5449018  50.8586751  40.6017199
 126.0224633  52.1813420  41.1208430 125.9296006  56.7140178  35.6515439
 125.2941839  56.7874804  36.3636343 125.5993412  57.3033777  34.9734518
 131.1594356  51.2142561  41.8559760 131.8919528  50.6441778  42.0897590
 130.4033711  50.8264161  42.2966266 120.4338935  54.1759655  35.3476414
 120.3175193  53.5004559  36.0157498 120.5441194  53.6892029  34.5308567
 122.7770475  53.6369802  39.0523103 122.4128683  53.1100423  39.7636024
 123.6337591  53.2468271  38.8789588 128.6819776  44.9264135  46.3154369
 128.3503101  45.7959546  46.0915584 128.0865390  44.6100419  46.9948399
 122.4175962  48.6659702  34.0484451 122.5850365  49.5339938  34.4154922
 122.2273132  48.8286984  33.1245741 125.1751296  57.1276681  45.7150282
 124.8752019  58.0301720  45.6066089 124.8302355  56.8608864  46.5671435
 118.6263777  53.5790478  41.7486986 117.7014274  53.4466692  41.9564678
 118.8748190  54.3584697  42.2456928 128.5748439  49.6459221  43.3947719
 127.6665317  49.5774630  43.1006480 128.5236035  50.1231166  44.2229544
 122.3965183  51.1217359  35.0331118 122.2764809  51.5674410  35.8716598
 121.7017772  51.4702677  34.4744656 115.9872588  53.2223751  42.5830775
 116.1164969  53.4758230  43.4970187 115.3070039  53.8151459  42.2635430
 120.1572075  63.8921001  38.6821249 120.0796105  64.8428826  38.7609730
 119.5533719  63.5466874  39.3396176 122.6489305  51.0648867  51.3382616
 121.8722639  51.6242787  51.3285481 123.2879868  51.5505650  51.8597486
 130.4410086  47.8475659  45.1725593 129.7984466  48.1408193  44.5265387
 129.9365014  47.7328580  45.9778790 128.0950250  51.5938833  35.8611452
 129.0068106  51.8266219  35.6859150 127.5859897  52.1775877  35.2986531
 120.9035678  53.8734320  50.9000583 121.6450362  54.4119364  50.6235407
 120.1972663  54.5000609  51.0572135 126.3791017  56.0163461  49.4972745
 126.7874373  55.5745871  48.7527377 125.6568279  55.4416088  49.7506938
 122.7322087  50.9536067  46.8706302 123.5783282  51.3775481  47.0140951
 122.6720725  50.2969692  47.5644865 126.7019832  56.5764651  43.2525034
 126.0728694  56.7410365  42.5501101 126.3145494  56.9906261  44.0235998
 130.5809064  57.5119089  40.6069397 129.8960102  57.8917990  40.0566431
 130.6652913  58.1214416  41.3401345 125.8821533  48.6140436  48.5287475
 125.6382464  49.3682496  47.9921751 126.1581463  48.9925783  49.3634722
 127.8359995  55.1579048  47.2064741 128.0476891  55.8010808  46.5299122
 127.7889744  54.3241365  46.7386671 125.4386224  47.7696869  44.1101313
 124.5770703  48.0678122  44.4018051 125.4648659  47.9867268  43.1782346
 122.2547794  56.3139059  40.5175119 122.7186139  56.5926762  39.7279741
 121.9904592  55.4122504  40.3348209 121.1916680  52.4362212  37.3264684
 121.8940723  52.8883255  37.7938610 120.8597308  51.7946030  37.9544577
 119.6397041  51.0273968  51.7015893 119.0095702  51.7090249  51.9351290
 119.5333129  50.9157050  50.7569032 114.9342014  50.6945764  42.6281817
 114.1441068  50.9503293  42.1521928 115.4253261  51.5094102  42.7333858
 128.9505823  58.0351003  45.3787098 129.7723267  57.6331191  45.0969780
 128.9468226  57.9319238  46.3303214 116.8856759  51.0590343  39.5865294
 116.0887922  51.1709038  40.1048790 116.6582351  51.3976996  38.7206185
 113.2179717  50.9476255  45.0596808 113.4687755  51.8323265  45.3254384
 113.7539265  50.7680856  44.2871900 137.0411816  54.3789752  41.7272070
 136.2875525  53.8097150  41.5716074 137.1759358  54.3452416  42.6742704
 122.4310444  59.2503154  37.4026789 122.2956119  60.0954690  37.8311637
 122.9720257  59.4522432  36.6392723 118.9177784  45.3294734  54.0641144
 118.5244730  44.7760933  54.7388789 119.7343924  45.6405313  54.4547662
 115.8839842  56.7678592  37.9754714 116.3964362  57.5621842  38.1260279
 116.5362555  56.0704883  37.9088316 117.6934726  59.8844349  40.0577467
 117.8701355  60.8062313  39.8698451 118.4891560  59.5702768  40.4871847
 121.8345745  46.7452613  51.6561401 122.5755458  47.3459766  51.5765863
 122.0663668  46.0030251  51.0979443 116.9787083  51.9308980  49.9339631
 116.8640598  51.0294238  50.2346729 116.1231601  52.1772677  49.5824447
 124.0578921  59.8726721  51.5327131 123.6142775  59.0863099  51.2148036
 124.7196134  60.0605871  50.8671022 126.1560159  60.1529521  49.5608532
 126.1378634  60.9738402  49.0688802 127.0780079  60.0283596  49.7858674
 125.7802908  42.7733716  45.9325683 125.4367177  43.6635358  45.8564793
 126.1481871  42.5835374  45.0695268 113.8488759  55.0967247  38.7514285
 114.6863981  55.5064255  38.5347992 114.0267026  54.1566689  38.7214479
 125.7453191  52.7642327  34.4398118 125.2299814  53.5346932  34.6786505
 125.4730499  52.0907463  35.0631179 123.3300302  47.6092028  39.4983356
 122.4741898  47.2198878  39.3188995 123.7427253  47.6883989  38.6383142
 124.8599448  45.1438371  43.8974916 124.3564244  45.1068506  43.0842721
 125.1530055  46.0531114  43.9571572 121.1042334  45.2277101  42.9041098
 121.9695331  45.0319910  42.5446987 121.1719843  44.9987453  43.8310454
 130.7187465  55.5174682  36.3751291 129.9416908  55.1785841  35.9306453
 131.3978946  55.5227305  35.7006256 125.5339494  50.6369419  36.2657899
 125.2289629  50.9515568  37.1168042 126.4869936  50.7150839  36.3085232
 123.9785926  56.7959643  37.9150853 123.4507287  56.0612402  37.6024090
 123.4773428  57.5734319  37.6690821 128.9578772  54.9908663  43.0317899
 128.3002446  55.6807924  43.1198028 129.7619171  55.3805095  43.3751885
 118.7104653  47.4579309  40.2757464 119.2848405  47.2354490  39.5430657
 119.2975636  47.5268003  41.0286066 127.7684231  53.3453036  41.0821841
 128.2816112  53.9783028  41.5843551 128.4185454  52.7454231  40.7165201
 119.0374240  49.4883770  34.2953350 118.2011553  49.8258456  34.6162624
 118.8979010  49.3532750  33.3580487 121.0127321  44.3320558  39.0032534
 120.3591733  44.0169575  38.3789149 120.9707795  43.7096298  39.7292357
 122.1238526  54.6139853  30.9185826 121.2165588  54.3829106  31.1176975
 122.6209558  53.8177472  31.1059807 125.0306605  63.3237360  33.8382512
 124.3568304  63.6269057  34.4467470 125.4172427  64.1266440  33.4887969
 124.2465061  50.8202491  43.3280181 123.3287623  51.0417438  43.1701869
 124.6625205  50.8948802  42.4691889 125.0300109  52.2193907  38.4582862
 125.7771928  52.7315304  38.1489984 125.2991699  51.8977960  39.3187255
 123.3026759  54.7152448  35.4409816 122.3937979  54.4311481  35.5382286
 123.3321843  55.1351526  34.5813123 128.5346027  58.3259037  39.2100984
 128.0808354  57.4849947  39.2666174 127.9039993  58.9620436  39.5475764
 127.4778946  49.2551023  40.4401651 126.7401703  48.7428409  40.7711894
 127.7305720  48.8151405  39.6284928 126.9778966  60.1635534  40.1450802
 127.2701940  60.7240591  39.4263167 127.4877587  60.4564095  40.9003961
 127.5790574  42.0327275  41.0343420 127.8849450  41.1724639  40.7469335
 128.3043178  42.6244895  40.8342414 113.8714930  52.4357962  39.4225018
 113.6739329  51.8427323  38.6976085 113.3161594  52.1310172  40.1400957
 121.8511653  52.3281068  41.5419611 121.9060263  51.3754905  41.4662088
 121.0402855  52.4840507  42.0260910 123.0002847  56.2561191  32.7797895
 122.5622277  55.5397050  32.3203532 123.7413288  56.4837306  32.2182986
 119.7904013  50.9458128  39.3009990 118.9771879  51.2452299  39.7075182
 120.2863007  50.5513817  40.0184472 121.9412591  60.9415885  41.2344255
 121.8988770  61.1676731  40.3052787 122.8575290  60.7079260  41.3830056
 125.3878225  51.4099953  48.1324884 125.7427613  51.6371426  48.9919350
 126.0350356  51.7418329  47.5102139 131.1175962  54.5318388  38.8374213
 130.9793860  54.7219984  37.9095402 130.7612181  55.2937771  39.2942264
 119.2818088  48.5176484  44.9171225 119.9217467  48.3765243  44.2194188
 118.4495619  48.2310997  44.5409827 131.1445341  56.5994915  43.8485485
 131.5781848  56.5070205  44.6968539 131.8576922  56.5752416  43.2105501
 120.0578392  57.8178914  41.0306218 120.8518990  57.3229234  40.8288793
 119.3470084  57.2896777  40.6673923 116.3661155  51.9621996  37.1065970
 115.4358743  51.9006451  37.3235932 116.4618627  51.4397949  36.3102612
 116.2846704  48.4876809  39.6944212 116.5453522  49.4022142  39.5853372
 117.1063877  48.0201251  39.8440825 117.7571630  49.9014566  46.8643036
 118.4294683  49.6931928  46.2155685 116.9301416  49.7036652  46.4248269
 132.0060891  56.6418616  46.3818370 132.1996781  57.5464427  46.6277645
 131.9061509  56.1826035  47.2156955 123.6597202  46.5276507  48.8808697
 123.0125117  47.2266456  48.7873174 124.4298217  46.9612651  49.2484946
 127.0676000  56.7925359  51.9559251 126.9161506  56.5635911  51.0389334
 127.0580679  57.7495960  51.9690596 123.8361336  54.3657272  46.9405517
 124.7653396  54.5168431  46.7674484 123.4152366  54.4541292  46.0854164
 123.2297820  63.4917032  36.0529591 123.4049576  63.0205076  36.8675214
 122.5430608  64.1182799  36.2810852 124.1854883  57.7689539  42.0992892
 123.8504716  57.7290309  42.9950542 123.6858829  57.1034255  41.6263303
 118.1599127  53.1757169  47.6245474 118.0218925  52.4437408  48.2257013
 119.0704050  53.0866069  47.3429661 127.1214075  55.1145573  32.3729952
 126.5043245  54.3892401  32.2763005 126.6530563  55.8754933  32.0297026
 120.7881428  52.8877128  47.1129153 121.4981046  52.2470320  47.0715772
 120.7450736  53.1390023  48.0355334 128.7768206  59.8244481  50.0335732
 128.7180753  59.1403702  49.3666315 129.1787725  60.5663471  49.5816358
 119.5010362  49.8742346  48.9324793 118.9647719  49.4233084  49.5846389
 118.9127070  50.0088255  48.1895257 117.7958905  66.6406395  42.8269451
 118.0355503  67.2724919  43.5048470 116.9528102  66.2894435  43.1134811
 118.9112621  49.3330997  31.4951256 118.0342087  49.2119798  31.1313503
 119.3870374  48.5417076  31.2430145 128.7785614  57.7884065  48.2649712
 127.8912392  57.4509987  48.3876111 129.3484165  57.0567097  48.5018478
 110.4314761  54.1208157  41.5892764 111.1185801  53.8069887  41.0013779
 110.2762889  55.0249522  41.3160015 115.2349483  49.0098354  46.0177787
 115.1507672  48.4024023  45.2828197 114.4132189  49.5007372  46.0187284
 122.0976547  61.6857288  38.7413777 121.3144069  62.2278968  38.8352001
 122.7969292  62.2031267  39.1408018 125.4073197  47.4951917  41.3847982
 125.9041896  46.7421880  41.0649053 124.6360178  47.5316234  40.8191192
 133.2602954  53.1992283  43.0266274 133.2492830  54.0816998  42.6560207
 132.3920334  52.8463834  42.8320811 126.4902977  56.2523604  38.9586406
 125.5559256  56.3725067  38.7891110 126.6679646  55.3496071  38.6946416
 121.9908166  49.6369300  41.1119667 121.6205953  49.0840341  41.8000572
 122.4867258  49.0327434  40.5594667 129.8775529  52.0940924  39.4936440
 130.3435981  52.9268915  39.4196742 130.3283029  51.6285905  40.1981698
 127.9451760  58.4384745  36.4922592 128.2211604  58.3241340  37.4016466
 127.0756259  58.0402230  36.4534765 127.8492192  44.4621511  43.5327341
 126.9355271  44.6925738  43.7009548 128.2785293  44.5459955  44.3841374
 127.6198650  52.6511403  46.0327235 126.9670100  52.8987310  45.3779688
 127.9979030  51.8375541  45.6989712 124.5805824  62.6871096  40.1355405
 124.7628218  61.8692752  40.5983158 125.4038810  62.9038788  39.6980295
 124.9147989  61.6139281  37.3970454 125.4435756  61.1031736  36.7840616
 125.1776209  61.2981811  38.2615987 123.6686223  53.3931214  52.5193272
 122.9926860  53.2925343  53.1895647 124.4913857  53.2370427  52.9829269
 118.2703737  62.6654398  40.1568230 117.6014113  63.1500525  39.6732270
 118.1316607  62.9123618  41.0711608 110.0082737  52.2008750  43.8610231
 110.0466836  51.6672341  44.6547349 109.5023030  51.6743956  43.2421208
 117.3873499  47.0473291  47.3572773 117.4514826  47.9088122  46.9450171
 117.3240619  46.4347293  46.6245131 116.8625772  49.1196423  51.0045807
 117.4897811  48.7373501  51.6183332 116.0053691  48.9010625  51.3701500
 127.2619880  59.5259399  52.6099543 127.8059784  60.1389357  52.1154497
 126.6806725  60.0838977  53.1266556 113.6391314  50.9272853  36.9364162
 113.9344756  50.0183531  36.8831216 112.7379350  50.9060592  36.6145164
 125.5477393  62.6480117  43.7414570 125.4228533  61.8469857  43.2325516
 126.2056484  63.1426310  43.2528540 117.1685561  49.0028849  42.9191711
 116.4472147  49.6164817  42.7799184 117.9578817  49.5386614  42.8408357
 127.6112302  60.4489137  45.3694120 126.6642637  60.3294488  45.2972447
 127.9595075  59.5611635  45.4520382 119.9711875  46.3383276  49.1932362
 120.4946277  46.5845572  49.9558672 119.7524208  47.1703310  48.7735500
 115.3679156  48.6086950  37.0603487 115.0391862  47.7284329  36.8778593
 115.7218527  48.5534619  37.9479876 124.6158735  60.2441853  41.5698473
 124.4683697  59.3158560  41.7506043 125.4412228  60.2661944  41.0855548
 118.4820979  48.8959920  37.4278965 118.8217052  49.4245841  36.7057573
 118.9293100  49.2340326  38.2037531 128.2192857  61.0670412  42.6563345
 129.1439404  60.8613273  42.5187797 128.0508160  60.8186813  43.5652687
 121.1764420  47.2796971  46.8782033 120.8361240  46.4804784  47.2802713
 120.4703426  47.5798682  46.3058866 121.8280892  44.3646283  45.3309356
 122.6506961  43.8906761  45.2088246 122.0718955  45.1436767  45.8308042
 120.4689126  47.3934542  35.6272258 121.1897489  47.7715794  35.1235974
 119.8454430  48.1123418  35.7307236 124.6120249  48.0979691  36.5630590
 124.8283864  48.9804328  36.2619418 124.1314316  47.7065904  35.8336232
 119.3519471  51.0565404  43.1401335 119.2064051  51.3705707  44.0325616
 118.8744674  51.6750304  42.5872233 121.2115853  48.0467952  43.1882224
 121.1977422  47.1509045  42.8514522 121.9288282  48.0538616  43.8220510
 123.0641984  48.4805292  45.2335352 122.8059762  49.4022363  45.2319682
 122.5327025  48.0835727  45.9235816 128.0088173  61.5856079  38.0125437
 128.1825051  61.0202502  37.2599289 128.5017064  62.3856974  37.8304927
 113.8265133  53.5970748  46.0788996 113.2818601  54.3730556  46.2109270
 114.7044483  53.9441553  45.9208117 120.6152749  46.9282332  38.4569794
 120.7368661  45.9998978  38.6560682 120.3254792  46.9421018  37.5448110
 123.4843940  44.6137243  41.5936514 123.5065637  44.6776576  40.6388494
 123.9011999  43.7741751  41.7877020 133.8627564  54.3492502  39.6315737
 134.3058710  53.5999827  39.2334860 132.9854074  54.3402638  39.2489469
 128.9963345  60.9022844  35.1122335 129.6914250  61.5229536  35.3309650
 129.3386496  60.0518195  35.3874713 114.6131155  52.7240645  48.9719153
 113.8712891  52.8723280  49.5583783 114.2923899  52.9848910  48.1085902
 130.8954769  58.3522549  36.6409666 131.4206093  58.6909822  35.9158986
 130.8077121  57.4169564  36.4572801 115.0587768  60.6106073  41.0029547
 115.8845788  60.3109845  40.6228191 114.7081820  59.8413696  41.4519336
 113.2596373  58.5292400  41.9618481 112.4228282  58.1014574  41.7802482
 113.2320019  58.7224843  42.8989272 120.0993829  48.4414329  52.6659727
 120.1481984  49.3176452  52.2837496 120.6416343  47.8991723  52.0931370
 130.5848675  58.9855453  51.9460864 129.7944218  58.9679592  51.4065363
 130.3482029  59.5243746  52.7009901 130.7046550  55.8347919  49.2593592
 130.7544555  55.6697927  50.2009115 130.5960473  54.9675178  48.8691473
 119.5882808  58.5136465  36.5485681 119.7370929  59.1971929  35.8952354
 120.3949252  58.4941555  37.0635137 127.9950312  51.8178847  50.5752899
 128.8960175  51.6785312  50.2836897 128.0698287  51.9833302  51.5151077
 122.3293117  49.1945702  49.4206086 121.4596427  49.4879268  49.1488674
 122.5652598  49.7786147  50.1413349 132.2064747  58.2544861  49.5035614
 131.9149555  58.6174841  50.3399075 131.5936878  57.5411869  49.3248946
 133.4060429  55.8197740  42.0238184 134.2407320  56.2587544  42.1875745
 133.5419558  55.3436394  41.2046430 130.4551935  53.3777475  47.9715672
 130.9306056  53.5705122  47.1634523 129.5317500  53.4336661  47.7259056
 117.3435441  54.5401642  37.5546750 117.0981483  53.6363972  37.7526960
 117.5131356  54.5418793  36.6126228 125.0332151  45.4125319  46.9371506
 125.5514095  46.1486346  46.6117994 124.6787284  45.7189312  47.7718265
 116.6131089  50.2730000  35.0532912 115.9200334  50.3474355  34.3972948
 116.3682841  49.5090344  35.5754429 125.2844745  41.8325601  42.4572403
 125.5646499  41.1648790  43.0832829 126.0695352  42.0254697  41.9447066
 123.0878214  61.0084595  34.0197429 122.5152181  61.6274782  33.5667901
 123.6611008  61.5583957  34.5537351 129.1553604  50.2543235  46.2043978
 130.1071027  50.3541333  46.2256202 128.9857054  49.4621504  46.7142062
 127.1767983  47.3398819  46.3903379 126.5817915  47.6203831  45.6949867
 126.8917680  47.8292719  47.1620120 126.3075474  61.2921745  35.1506011
 127.2406147  61.2267307  35.3538887 126.2198687  62.1278012  34.6920544
 128.9363490  60.6087616  32.1109959 128.8577122  60.2747479  33.0045717
 129.7573157  61.1009384  32.1101431 131.6341682  53.4749355  45.3186277
 131.6018002  52.5365356  45.5045961 132.2442305  53.5533392  44.5852102
 123.4725012  52.3445408  31.3613481 124.4184117  52.2151616  31.4301899
 123.0939257  51.6060070  31.8382909 131.7836170  50.2660398  45.3644560
 131.2675219  49.4818855  45.1774489 132.6676119  49.9379115  45.5291080
 129.4446897  44.0101414  41.3240373 129.2471718  43.7016502  42.2083705
 130.0546603  44.7363053  41.4538303 135.5333529  52.6773224  45.0566765
 134.8066692  52.5429189  44.4483257 135.1180815  52.9850053  45.8623483
 123.3563705  56.3963154  52.8214138 124.2766714  56.5741753  53.0154185
 123.3213288  55.4519199  52.6693838 121.6567930  50.2695384  31.2968367
 120.7499385  49.9728497  31.3731080 121.9343911  49.9725202  30.4302653
 112.5745870  51.5901748  41.7467413 112.2548654  50.7367056  41.4541787
 112.0279298  51.8050326  42.5025380 116.3525777  54.3064189  45.4636919
 116.5711787  55.2381297  45.4824953 116.7651551  53.9472163  46.2491723
 123.2729995  44.8132274  37.4512608 122.4630724  44.4679359  37.8267854
 123.9614412  44.5039818  38.0400219 125.2020544  43.8910321  39.0736904
 125.7551582  44.3105774  39.7326928 125.4390630  42.9646069  39.1159860
 121.2253643  49.8797395  54.8539668 121.1250370  50.8291752  54.7851759
 121.0075185  49.5515633  53.9815738 120.4266714  47.1282320  31.4380346
 121.2885878  47.4537218  31.6976163 120.6117058  46.3413816  30.9253412
 112.4434130  55.2104659  43.7160535 111.7497601  54.7958612  43.2030489
 113.1907121  55.2525196  43.1193953 128.5799351  46.0010846  38.5815569
 127.9998020  46.6595650  38.1993621 128.3135283  45.1788191  38.1702986
 127.0302917  45.4015904  40.7836889 127.5302695  45.5132438  39.9751208
 127.6738525  45.0976957  41.4237697 121.0884913  53.3094533  53.6704730
 120.6051995  54.1094894  53.8768619 121.1745852  53.3202478  52.7172174
 114.3570872  55.1422913  41.5926549 114.3341561  55.2410600  40.6408432
 114.6671509  55.9888064  41.9143716 127.3624229  48.1610936  37.6371917
 126.4750084  48.4460587  37.4192112 127.7778218  48.0004700  36.7899194
 130.7138765  48.1857457  41.3526256 131.4899155  48.6753910  41.6250873
 129.9886899  48.6115512  41.8098126 133.1511323  48.8985077  42.4100197
 133.7455814  48.6580813  41.6993505 133.2237907  48.1792207  43.0373733
 126.5067442  57.9255611  31.7319937 127.2103292  58.1305614  32.3477593
 125.7830091  58.4932373  31.9969020 127.3365252  53.6765472  37.8522207
 127.2800454  54.1334024  37.0129840 127.8893595  52.9156157  37.6745050
 131.1470058  49.4655204  38.6772327 130.8906993  49.0651840  39.5080534
 130.5222926  50.1798998  38.5522466 135.4582396  52.2051277  41.1843618
 134.8981954  52.2744467  41.9575180 134.8525900  52.0292262  40.4643114
 128.4154140  58.3638140  33.7818397 129.2499743  57.9319339  33.5995872
 128.2538482  58.1920154  34.7095292 128.0700032  54.8670254  35.1474736
 128.0148836  54.7014525  34.2063180 127.4446087  55.5746287  35.3036926
 112.8592547  50.1038318  48.9736159 113.5051410  49.5937272  49.4623384
 112.6509698  50.8407000  49.5479584 125.3845939  57.1719165  54.4728299
 126.2537099  57.3459818  54.1114934 124.9052690  57.9913582  54.3504028
 121.3796157  44.3678363  34.7260055 121.3674827  45.3120203  34.8828326
 122.2719579  44.1848508  34.4319516 121.3085721  63.0447253  42.8127811
 120.3581352  63.0449115  42.6992184 121.6118207  62.2979988  42.2963846
 125.1948277  40.9621139  38.9805992 124.4280672  40.4079626  39.1262674
 125.6058982  41.0343008  39.8420143 117.1990038  47.2505935  53.0711173
 118.0621499  46.8942740  53.2814497 116.6255448  46.9119830  53.7586577
 133.8528121  68.8335220  43.8135098 133.5146632  68.7176284  42.9255633
 134.7217889  68.4326385  43.7936105 129.7114937  70.6870696  39.8031989
 129.1479802  70.5960633  39.0348277 129.5967332  69.8670600  40.2834482
 134.3347904  69.9870071  49.7721304 134.3236545  69.5922870  48.9001808
 134.4968543  69.2536144  50.3655075 127.2579369  72.1821888  42.6416210
 128.0500660  71.8412712  42.2262509 127.4976019  72.2916863  43.5618363
 135.2914495  74.3541664  35.1146454 134.6402475  74.9395744  34.7280468
 136.0858858  74.8847859  35.1741492 129.2170122  71.4430801  35.5133589
 129.9900998  70.8959788  35.3746464 129.5695521  72.3075050  35.7248050
 131.0555165  72.7707183  48.7200488 130.7645031  73.6752814  48.6047154
 131.6912149  72.8123711  49.4344558 131.9811372  70.1484032  45.3101848
 132.5774944  69.9240054  44.5958811 132.0386343  69.4068777  45.9127295
 131.5536400  67.6023467  33.1452039 131.8061921  67.0804988  32.3835502
 130.6160959  67.4389612  33.2478722 136.5979683  66.6059245  40.9526782
 137.3842772  66.1878668  40.6017199 136.8618387  67.5105337  41.1208430
 136.7689760  72.0432096  35.6515439 136.1335593  72.1166722  36.3636343
 136.4387167  72.6325694  34.9734518 131.2732689  69.5051573  35.3476414
 131.1568947  68.8296476  36.0157498 131.3834949  69.0183947  34.5308567
 133.6164230  68.9661720  39.0523103 133.2522437  68.4392341  39.7636024
 134.4731346  68.5760189  38.8789588 133.2569717  63.9951620  34.0484451
 133.4244119  64.8631856  34.4154922 133.0666886  64.1578901  33.1245741
 136.0145050  72.4568599  45.7150282 135.7145773  73.3593637  45.6066089
 135.6696110  72.1900782  46.5671435 129.4657532  68.9082395  41.7486986
 128.5408028  68.7758610  41.9564678 129.7141945  69.6876615  42.2456928
 133.2358938  66.4509277  35.0331118 133.1158563  66.8966328  35.8716598
 132.5411526  66.7994595  34.4744656 126.8266343  68.5515669  42.5830775
 126.9558724  68.8050148  43.4970187 126.1463794  69.1443377  42.2635430
 130.9965830  79.2212919  38.6821249 130.9189860  80.1720744  38.7609730
 130.3927474  78.8758791  39.3396176 133.4883060  66.3940784  51.3382616
 132.7116394  66.9534704  51.3285481 134.1273623  66.8797567  51.8597486
 131.7429432  69.2026238  50.9000583 132.4844116  69.7411282  50.6235407
 131.0366417  69.8292526  51.0572135 137.2184772  71.3455378  49.4972745
 137.6268128  70.9037789  48.7527377 136.4962033  70.7708006  49.7506938
 133.5715842  66.2827985  46.8706302 134.4177037  66.7067399  47.0140951
 133.5114479  65.6261609  47.5644865 137.5413586  71.9056569  43.2525034
 136.9122449  72.0702283  42.5501101 137.1539248  72.3198178  44.0235998
 136.7215287  63.9432353  48.5287475 136.4776219  64.6974414  47.9921751
 136.9975218  64.3217701  49.3634722 136.2779979  63.0988786  44.1101313
 135.4164458  63.3970040  44.4018051 136.3042413  63.3159185  43.1782346
 133.0941548  71.6430977  40.5175119 133.5579894  71.9218680  39.7279741
 132.8298346  70.7414421  40.3348209 129.9865629  71.1902458  43.4554882
 130.5566986  71.6189727  42.8172366 130.5773741  70.9085043  44.1539068
 132.0310434  67.7654129  37.3264684 132.7334478  68.2175173  37.7938610
 131.6991063  67.1237948  37.9544577 130.4790796  66.3565886  51.7015893
 129.8489456  67.0382167  51.9351290 130.3726884  66.2448967  50.7569032
 125.7735768  66.0237682  42.6281817 124.9834822  66.2795210  42.1521928
 126.2647016  66.8386020  42.7333858 127.7250514  66.3882261  39.5865294
 126.9281677  66.5000955  40.1048790 127.4976106  66.7268913  38.7206185
 133.5556181  72.9126964  47.5347809 133.6200614  73.3747372  48.3705981
 132.8467105  72.2824329  47.6630119 133.2704199  74.5795072  37.4026789
 133.1349874  75.4246608  37.8311637 133.8114011  74.7814350  36.6392723
 129.7571538  60.6586652  54.0641144 129.3638484  60.1052850  54.7388789
 130.5737679  60.9697230  54.4547662 126.7233596  72.0970510  37.9754714
 127.2358117  72.8913760  38.1260279 127.3756309  71.3996800  37.9088316
 128.5328481  75.2136266  40.0577467 128.7095109  76.1354231  39.8698451
 129.3285314  74.8994685  40.4871847 132.6739499  62.0744531  51.6561401
 133.4149213  62.6751684  51.5765863 132.9057422  61.3322169  51.0979443
 127.8180837  67.2600898  49.9339631 127.7034353  66.3586155  50.2346729
 126.9625355  67.5064595  49.5824447 134.8972675  75.2018638  51.5327131
 134.4536529  74.4155017  51.2148036 135.5589889  75.3897789  50.8671022
 129.6559796  76.7314440  46.0587810 130.2067222  76.6031503  45.2864804
 128.8171272  77.0309329  45.7082702 133.4526967  72.9965568  50.4032041
 133.9855304  72.2353856  50.1731349 132.9241049  72.7039220  51.1456195
 136.6196662  58.1025634  45.9325683 136.2760932  58.9927275  45.8564793
 136.9875625  57.9127291  45.0695268 124.6882513  70.4259164  38.7514285
 125.5257735  70.8356173  38.5347992 124.8660781  69.4858606  38.7214479
 136.5846945  68.0934245  34.4398118 136.0693569  68.8638850  34.6786505
 136.3124254  67.4199381  35.0631179 134.1694056  62.9383946  39.4983356
 133.3135653  62.5490796  39.3188995 134.5821008  63.0175906  38.6383142
 135.6993203  60.4730289  43.8974916 135.1957998  60.4360424  43.0842721
 135.9923810  61.3823032  43.9571572 131.9436089  60.5569019  42.9041098
 132.8089085  60.3611827  42.5446987 132.0113598  60.3279370  43.8310454
 136.3733248  65.9661337  36.2657899 136.0683384  66.2807486  37.1168042
 137.3263690  66.0442757  36.3085232 134.8179680  72.1251560  37.9150853
 134.2901042  71.3904320  37.6024090 134.3167183  72.9026237  37.6690821
 129.5498408  62.7871227  40.2757464 130.1242160  62.5646408  39.5430657
 130.1369390  62.8559921  41.0286066 129.8767995  64.8175688  34.2953350
 129.0405307  65.1550374  34.6162624 129.7372765  64.6824667  33.3580487
 131.8521075  59.6612475  39.0032534 131.1985488  59.3461493  38.3789149
 131.8101550  59.0388216  39.7292357 132.9632280  69.9431771  30.9185826
 132.0559342  69.7121024  31.1176975 133.4603312  69.1469390  31.1059807
 135.8700359  78.6529278  33.8382512 135.1962058  78.9560974  34.4467470
 136.2566181  79.4558358  33.4887969 135.0858816  66.1494409  43.3280181
 134.1681377  66.3709356  43.1701869 135.5018959  66.2240719  42.4691889
 135.8693864  67.5485825  38.4582862 136.6165683  68.0607222  38.1489984
 136.1385453  67.2269877  39.3187255 134.1420514  70.0444365  35.4409816
 133.2331733  69.7603398  35.5382286 134.1715598  70.4643444  34.5813123
 124.7108684  67.7649880  39.4225018 124.5133084  67.1719240  38.6976085
 124.1555348  67.4602090  40.1400957 132.6905408  67.6572986  41.5419611
 132.7454018  66.7046822  41.4662088 131.8796610  67.8132425  42.0260910
 133.8396602  71.5853109  32.7797895 133.4016032  70.8688968  32.3203532
 134.5807042  71.8129224  32.2182986 130.6297768  66.2750046  39.3009990
 129.8165633  66.5744216  39.7075182 131.1256762  65.8805735  40.0184472
 132.7806346  76.2707803  41.2344255 132.7382524  76.4968649  40.3052787
 133.6969044  76.0371177  41.3830056 136.2271979  66.7391870  48.1324884
 136.5821367  66.9663343  48.9919350 136.8744111  67.0710247  47.5102139
 130.1211843  63.8468401  44.9171225 130.7611222  63.7057160  44.2194188
 129.2889373  63.5602915  44.5409827 130.8972146  73.1470832  41.0306218
 131.6912745  72.6521152  40.8288793 130.1863839  72.6188695  40.6673923
 135.7166991  75.5288927  45.3818585 135.7704013  76.0979864  46.1496301
 134.8481772  75.6990812  45.0172622 127.2054910  67.2913913  37.1065970
 126.2752498  67.2298369  37.3235932 127.3012382  66.7689866  36.3102612
 127.1240459  63.8168726  39.6944212 127.3847276  64.7314060  39.5853372
 127.9457631  63.3493169  39.8440825 128.5965384  65.2306483  46.8643036
 129.2688438  65.0223846  46.2155685 127.7695171  65.0328569  46.4248269
 134.4990956  61.8568424  48.8808697 133.8518871  62.5558374  48.7873174
 135.2691972  62.2904568  49.2484946 134.6755091  69.6949189  46.9405517
 135.6047151  69.8460349  46.7674484 134.2546121  69.7833210  46.0854164
 133.4743422  73.7199854  44.7104055 133.3354508  73.3518638  45.5829993
 132.6858019  74.2347493  44.5388012 134.0691574  78.8208950  36.0529591
 134.2443330  78.3496993  36.8675214 133.3824362  79.4474716  36.2810852
 135.0248638  73.0981456  42.0992892 134.6898470  73.0582226  42.9950542
 134.5252583  72.4326172  41.6263303 128.9992882  68.5049086  47.6245474
 128.8612679  67.7729325  48.2257013 129.9097805  68.4157987  47.3429661
 131.6275182  68.2169046  47.1129153 132.3374801  67.5762238  47.0715772
 131.5844490  68.4681941  48.0355334 130.3404116  65.2034264  48.9324793
 129.8041473  64.7525002  49.5846389 129.7520825  65.3380172  48.1895257
 128.6352660  81.9698313  42.8269451 128.8749258  82.6016837  43.5048470
 127.7921856  81.6186353  43.1134811 129.7506375  64.6622915  31.4951256
 128.8735841  64.5411716  31.1313503 130.2264128  63.8708993  31.2430145
 121.2708515  69.4500075  41.5892764 121.9579555  69.1361805  41.0013779
 121.1156644  70.3541439  41.3160015 126.0743237  64.3390271  46.0177787
 125.9901426  63.7315941  45.2828197 125.2525944  64.8299290  46.0187284
 133.1480522  77.7777435  45.2310955 133.0750693  78.5832407  45.7430260
 132.7057915  77.9769401  44.4058977 132.9370301  77.0149205  38.7413777
 132.1537823  77.5570886  38.8352001 133.6363046  77.5323185  39.1408018
 136.2466951  62.8243835  41.3847982 136.7435651  62.0713797  41.0649053
 135.4753933  62.8608152  40.8191192 135.6079205  77.6764269  47.3869114
 136.3207177  78.3111734  47.3145015 135.1169234  77.7728135  46.5709116
 137.3296732  71.5815522  38.9586406 136.3953011  71.7016985  38.7891110
 137.5073400  70.6787989  38.6946416 132.8301920  64.9661218  41.1119667
 132.4599708  64.4132258  41.8000572 133.3261012  64.3619351  40.5594667
 130.6591119  75.4258713  48.2074685 131.3600578  76.0595196  48.3604079
 130.1886234  75.7673444  47.4470324 135.4199578  78.0163013  40.1355405
 135.6021973  77.1984669  40.5983158 136.2432564  78.2330706  39.6980295
 135.7541744  76.9431199  37.3970454 136.2829510  76.4323653  36.7840616
 136.0169964  76.6273729  38.2615987 134.5079978  68.7223131  52.5193272
 133.8320615  68.6217261  53.1895647 135.3307611  68.5662345  52.9829269
 126.2558837  74.9595068  45.1405788 126.8412273  74.2138756  45.2733692
 126.0583675  75.2699025  46.0242451 129.1097492  77.9946315  40.1568230
 128.4407867  78.4792443  39.6732270 128.9710362  78.2415536  41.0711608
 133.2502760  80.0290059  46.7550888 133.8021068  80.1921680  47.5199973
 133.5908954  80.6194497  46.0830913 128.2267254  62.3765209  47.3572773
 128.2908580  63.2380040  46.9450171 128.1634374  61.7639210  46.6245131
 127.7019526  64.4488341  51.0045807 128.3291565  64.0665418  51.6183332
 126.8447445  64.2302543  51.3701500 124.4785069  66.2564770  36.9364162
 124.7738510  65.3475449  36.8831216 123.5773105  66.2352510  36.6145164
 136.3871148  77.9772034  43.7414570 136.2622287  77.1761774  43.2325516
 137.0450239  78.4718228  43.2528540 128.0079316  64.3320767  42.9191711
 127.2865902  64.9456735  42.7799184 128.7972572  64.8678532  42.8408357
 130.8105629  61.6675193  49.1932362 131.3340031  61.9137490  49.9558672
 130.5917963  62.4995228  48.7735500 126.2072911  63.9378868  37.0603487
 125.8785617  63.0576247  36.8778593 126.5612281  63.8826537  37.9479876
 135.4552489  75.5733771  41.5698473 135.3077452  74.6450478  41.7506043
 136.2805983  75.5953861  41.0855548 129.3214734  64.2251838  37.4278965
 129.6610806  64.7537759  36.7057573 129.7686854  64.5632244  38.2037531
 132.0158175  62.6088888  46.8782033 131.6754995  61.8096702  47.2802713
 131.3097181  62.9090599  46.3058866 132.6674646  59.6938201  45.3309356
 133.4900716  59.2198679  45.2088246 132.9112710  60.4728685  45.8308042
 131.3082881  62.7226459  35.6272258 132.0291243  63.1007712  35.1235974
 130.6848185  63.4415336  35.7307236 135.4514004  63.4271608  36.5630590
 135.6677618  64.3096246  36.2619418 134.9708071  63.0357822  35.8336232
 130.1913225  66.3857322  43.1401335 130.0457806  66.6997625  44.0325616
 129.7138429  67.0042222  42.5872233 132.0509608  63.3759870  43.1882224
 132.0371177  62.4800963  42.8514522 132.7682036  63.3830533  43.8220510
 133.9035739  63.8097210  45.2335352 133.6453517  64.7314280  45.2319682
 133.3720779  63.4127644  45.9235816 124.6658887  68.9262666  46.0788996
 124.1212355  69.7022474  46.2109270 125.5438237  69.2733470  45.9208117
 131.4546504  62.2574250  38.4569794 131.5762415  61.3290896  38.6560682
 131.1648546  62.2712936  37.5448110 134.3237694  59.9429160  41.5936514
 134.3459391  60.0068493  40.6388494 134.7405753  59.1033669  41.7877020
 125.4524909  68.0532562  48.9719153 124.7106645  68.2015198  49.5583783
 125.1317653  68.3140828  48.1085902 133.3968572  77.5948540  48.7699543
 133.7055698  77.3497687  49.6422242 134.1944054  77.7995179  48.2818413
 133.4189184  79.7486450  41.0004919 132.9794174  79.2562829  41.6937776
 134.1697301  79.2059418  40.7596994 125.8981523  75.9397991  41.0029547
 126.7239543  75.6401763  40.6228191 125.5475575  75.1705613  41.4519336
 130.8663056  75.2924459  43.0727221 130.2443065  74.6295164  42.7729449
 131.5367923  75.3185591  42.3900869 124.0990128  73.8584317  41.9618481
 123.2622036  73.4306492  41.7802482 124.0713773  74.0516761  42.8989272
 130.9387583  63.7706247  52.6659727 130.9875739  64.6468370  52.2837496
 131.4810098  63.2283640  52.0931370 130.4276563  73.8428382  36.5485681
 130.5764683  74.5263847  35.8952354 131.2343006  73.8233473  37.0635137
 133.1686872  64.5237620  49.4206086 132.2990181  64.8171186  49.1488674
 133.4046352  65.1078065  50.1413349 128.1829196  69.8693560  37.5546750
 127.9375238  68.9655890  37.7526960 128.3525110  69.8710711  36.6126228
 135.8725906  60.7417236  46.9371506 136.3907850  61.4778263  46.6117994
 135.5181039  61.0481230  47.7718265 127.4524843  65.6021918  35.0532912
 126.7594088  65.6766273  34.3972948 127.2076595  64.8382261  35.5754429
 136.1238500  57.1617519  42.4572403 136.4040254  56.4940708  43.0832829
 136.9089107  57.3546615  41.9447066 133.9271968  76.3376513  34.0197429
 133.3545935  76.9566700  33.5667901 134.5004762  76.8875875  34.5537351
 134.3118767  67.6737326  31.3613481 135.2577872  67.5443534  31.4301899
 133.9333012  66.9351988  31.8382909 134.1957459  71.7255072  52.8214138
 135.1160469  71.9033671  53.0154185 134.1607042  70.7811117  52.6693838
 132.4961684  65.5987302  31.2968367 131.5893139  65.3020415  31.3731080
 132.7737665  65.3017120  30.4302653 123.4139624  66.9193665  41.7467413
 123.0942409  66.0658974  41.4541787 122.8673053  67.1342244  42.5025380
 127.1919532  69.6356106  45.4636919 127.4105542  70.5673214  45.4824953
 127.6045306  69.2764081  46.2491723 134.1123750  60.1424192  37.4512608
 133.3024478  59.7971277  37.8267854 134.8008167  59.8331736  38.0400219
 136.0414298  59.2202239  39.0736904 136.5945337  59.6397692  39.7326928
 136.2784384  58.2937987  39.1159860 132.0647397  65.2089312  54.8539668
 131.9644124  66.1583669  54.7851759 131.8468939  64.8807551  53.9815738
 131.2660469  62.4574237  31.4380346 132.1279633  62.7829136  31.6976163
 131.4510813  61.6705733  30.9253412 123.2827884  70.5396577  43.7160535
 122.5891356  70.1250530  43.2030489 124.0300875  70.5817113  43.1193953
 131.9278667  68.6386451  53.6704730 131.4445749  69.4386811  53.8768619
 132.0139606  68.6494396  52.7172174 125.1964627  70.4714831  41.5926549
 125.1735315  70.5702518  40.6408432 125.5065263  71.3179982  41.9143716
 127.8552005  72.5290986  45.7073164 128.8095258  72.4974928  45.6403095
 127.6564528  72.0681610  46.5223390 128.4451387  71.0992102  48.2743961
 129.2644276  71.5936180  48.2978799 128.7188195  70.1824070  48.2461529
 126.2102234  78.0710605  42.7243362 126.0756702  77.3111006  42.1581360
 125.7934296  78.7951505  42.2572151 129.3671360  78.9679922  42.9361804
 129.2503744  79.9125355  42.8340495 128.5463806  78.6653484  43.3247604
 136.2239693  72.5011083  54.4728299 137.0930853  72.6751735  54.1114934
 135.7446445  73.3205500  54.3504028 132.2189912  59.6970280  34.7260055
 132.2068582  60.6412120  34.8828326 133.1113334  59.5140426  34.4319516
 130.3925874  79.6208184  46.1517733 131.2953120  79.6531794  46.4684228
 130.1663244  78.6908635  46.1664069 132.1479476  78.3739171  42.8127811
 131.1975107  78.3741032  42.6992184 132.4511962  77.6271905  42.2963846
 136.0342031  56.2913057  38.9805992 135.2674427  55.7371544  39.1262674
 136.4452736  56.3634926  39.8420143 128.0383792  62.5797853  53.0711173
 128.9015254  62.2234658  53.2814497 127.4649203  62.2411748  53.7586577
 136.6129523  81.3529600  42.6281817 135.8228577  81.6087128  42.1521928
 137.1040770  82.1677937  42.7333858 134.8967226  81.6060090  45.0596808
 135.1475264  82.4907100  45.3254384 135.4326774  81.4264692  44.2871900
 135.5276268  85.7551082  38.7514285 136.3651490  86.1648090  38.5347992
 135.7054535  84.8150524  38.7214479 135.5502439  83.0941797  39.4225018
 135.3526838  82.5011158  38.6976085 134.9949103  82.7894007  40.1400957
 132.1102270  84.7791992  41.5892764 132.7973310  84.4653722  41.0013779
 131.9550398  85.6833357  41.3160015 136.9136992  79.6682189  46.0177787
 136.8295181  79.0607859  45.2828197 136.0919698  80.1591207  46.0187284
 131.6870246  82.8592586  43.8610231 131.7254345  82.3256176  44.6547349
 131.1810539  82.3327791  43.2421208 135.3178823  81.5856688  36.9364162
 135.6132265  80.6767366  36.8831216 134.4166859  81.5644427  36.6145164
 137.0466665  79.2670786  37.0603487 136.7179371  78.3868165  36.8778593
 137.4006036  79.2118454  37.9479876 135.5052642  84.2554584  46.0788996
 134.9606110  85.0314392  46.2109270 136.3831992  84.6025388  45.9208117
 136.2918664  83.3824480  48.9719153 135.5500400  83.5307115  49.5583783
 135.9711408  83.6432745  48.1085902 136.7375277  91.2689909  41.0029547
 137.5633297  90.9693680  40.6228191 136.3869329  90.4997531  41.4519336
 134.9383882  89.1876235  41.9618481 134.1015791  88.7598409  41.7802482
 134.9107528  89.3808678  42.8989272 134.2533379  82.2485583  41.7467413
 133.9336163  81.3950891  41.4541787 133.7066807  82.4634161  42.5025380
 134.1221639  85.8688495  43.7160535 133.4285110  85.4542447  43.2030489
 134.8694630  85.9109031  43.1193953 136.0358381  85.8006748  41.5926549
 136.0129070  85.8994436  40.6408432 136.3459018  86.6471899  41.9143716
 137.0495988  93.4002523  42.7243362 136.9150456  92.6402924  42.1581360
 136.6328050  94.1243423  42.2572151 134.5380056  80.7622153  48.9736159
 135.1838919  80.2521107  49.4623384 134.3297207  81.4990835  49.5479584
  98.4784568  10.2399288  25.4066556  98.4008597  11.1907114  25.4855037
  97.8746211   9.8945161  26.0641482  97.1378534   7.7500810  32.7833116
  97.6885959   7.6217873  32.0110110  96.2990010   8.0495699  32.4328009
 103.3519097   9.6715647  20.5627819 102.6780796   9.9747344  21.1712776
 103.7384919  10.4744728  20.2133276 101.5510312   9.8395320  22.7774898
 101.7262068   9.3683363  23.5920521 100.8643100  10.4661086  23.0056159
  96.1171397  12.9884682  29.5514758  96.3567996  13.6203207  30.2293777
  95.2740594  12.6372723  29.8380117 100.6299259   8.7963805  31.9556262
 100.5569431   9.6018776  32.4675567 100.1876652   8.9955771  31.1304283
 100.4189039   8.0335575  25.4659084  99.6356561   8.5757255  25.5597308
 101.1181784   8.5509555  25.8653325 103.0897943   8.6950639  34.1114421
 103.8025915   9.3298104  34.0390322 102.5987971   8.7914505  33.2954422
  93.7377574   5.9781437  31.8651094  94.3231011   5.2325125  31.9978998
  93.5402413   6.2885394  32.7487758  96.5916230   9.0132685  26.8813537
  95.9226605   9.4978812  26.3977577  96.4529099   9.2601905  27.7956915
 100.7321498  11.0476428  33.4796195 101.2839806  11.2108050  34.2445280
 101.0727692  11.6380866  32.8076220 100.8787310   8.6134910  35.4944849
 101.1874436   8.3684057  36.3667549 101.6762792   8.8181548  35.0063719
 100.9007922  10.7672820  27.7250226 100.4612912  10.2749198  28.4183083
 101.6516039  10.2245787  27.4842301  93.3800261   6.9584360  27.7274854
  94.2058280   6.6588132  27.3473497  93.0294313   6.1891983  28.1764643
  91.5808866   4.8770687  28.6863787  90.7440774   4.4492861  28.5047789
  91.5532511   5.0703130  29.6234579  93.6920971   9.0896975  29.4488668
  93.5575439   8.3297376  28.8826666  93.2753034   9.8137875  28.9817457
  96.8490097   9.9866292  29.6607111  96.7322481  10.9311724  29.5585801
  96.0282544   9.6839853  30.0492910  97.8744611  10.6394554  32.8763039
  98.7771858  10.6718164  33.1929534  97.6481981   9.7095005  32.8909375
  99.6298213   9.3925540  29.5373118  98.6793844   9.3927402  29.4237490
  99.9330700   8.6458275  29.0209153 115.3650907  15.2286079  30.6018880
 116.0029317  15.1092826  29.8982220 115.2471750  16.1766923  30.6606833
 112.1740613  15.1813507  30.5380405 111.8359125  15.0654571  29.6500940
 113.0430381  14.7804672  30.5181411 108.0327429  17.0348983  26.5277296
 107.4692294  16.9438920  25.7593584 107.9179824  16.2148888  27.0079789
 112.6560396  16.3348359  36.4966611 112.6449037  15.9401157  35.6247114
 112.8181036  15.6014431  37.0900382 105.5791861  18.5300175  29.3661517
 106.3713153  18.1890999  28.9507816 105.8188511  18.6395150  30.2863670
 113.6126988  20.7019951  21.8391761 112.9614967  21.2874031  21.4525775
 114.4071350  21.2326146  21.8986798 107.5382615  17.7909088  22.2378895
 108.3113491  17.2438075  22.0991771 107.8908014  18.6553337  22.4493357
 109.3767657  19.1185470  35.4445795 109.0857523  20.0231101  35.3292461
 110.0124642  19.1601998  36.1589864 110.3023864  16.4962319  32.0347154
 110.8987436  16.2718341  31.3204117 110.3598836  15.7547064  32.6372602
 109.5945181  15.8529860  22.0721720 109.4781439  15.1774763  22.7402804
 109.7047441  15.3662234  21.2553873 111.9376722  15.3140007  25.7768409
 111.5734929  14.7870628  26.4881331 112.7943838  14.9238476  25.6034895
 114.3357542  18.8046886  32.4395588 114.0358266  19.7071925  32.3311396
 113.9908602  18.5379069  33.2916741 107.7870024  15.2560683  28.4732293
 106.8620520  15.1236897  28.6809984 108.0354437  16.0354902  28.9702235
 105.1478835  14.8993956  29.3076082 105.2771216  15.1528435  30.2215494
 104.4676286  15.4921664  28.9880737 109.3178322  25.5691206  25.4066556
 109.2402352  26.5199031  25.4855037 108.7139966  25.2237079  26.0641482
 111.8095552  12.7419072  38.0627923 111.0328886  13.3012992  38.0530788
 112.4486115  13.2275855  38.5842793 110.0641924  15.5504525  37.6245890
 110.8056609  16.0889569  37.3480714 109.3578910  16.1770814  37.7817442
 115.5397264  17.6933665  36.2218051 115.9480620  17.2516076  35.4772684
 114.8174525  17.1186293  36.4752244 111.8928334  12.6306272  33.5951608
 112.7389529  13.0545686  33.7386257 111.8326972  11.9739897  34.2890171
 115.8626079  18.2534856  29.9770340 115.2334941  18.4180570  29.2746408
 115.4751741  18.6676466  30.7481304 119.7415310  19.1889294  27.3314704
 119.0566349  19.5688195  26.7811737 119.8259160  19.7984621  28.0646652
 116.9966242  16.8349253  33.9310048 117.2083137  17.4781013  33.2544429
 116.9495990  16.0011569  33.4631978 111.4154040  17.9909264  27.2420425
 111.8792386  18.2696967  26.4525048 111.1510839  17.0892709  27.0593516
 108.3078122  17.5380746  30.1800189 108.8779479  17.9668014  29.5417673
 108.8986233  17.2563330  30.8784374 110.3522927  14.1132417  24.0509991
 111.0546970  14.5653460  24.5183917 110.0203555  13.4716235  24.6789884
 108.8003288  12.7044173  38.4261200 108.1701949  13.3860454  38.6596597
 108.6939376  12.5927255  37.4814338 104.0948260  12.3715969  29.3527124
 103.3047314  12.6273498  28.8767235 104.5859508  13.1864307  29.4579165
 118.1112070  19.7121208  32.1032405 118.9329514  19.3101396  31.8215087
 118.1074473  19.6089443  33.0548521 106.0463006  12.7360548  26.3110601
 105.2494169  12.8479243  26.8294096 105.8188598  13.0747201  25.4451491
 111.8768673  19.2605252  34.2593115 111.9413106  19.7225659  35.0951287
 111.1679597  18.6302617  34.3875425 102.3785963  12.6246460  31.7842115
 102.6294002  13.5093470  32.0499691 102.9145512  12.4451061  31.0117207
 111.5916691  20.9273359  24.1272096 111.4562366  21.7724895  24.5556944
 112.1326504  21.1292637  23.3638030 105.0446089  18.4448797  24.7000021
 105.5570609  19.2392047  24.8505585 105.6968801  17.7475088  24.6333622
 106.8540973  21.5614553  26.7822774 107.0307602  22.4832518  26.5943758
 107.6497807  21.2472973  27.2117154 106.1393330  13.6079185  36.6584937
 106.0246845  12.7064443  36.9592036 105.2837848  13.8542882  36.3069754
 113.2185168  21.5496926  38.2572438 112.7749022  20.7633304  37.9393342
 113.8802381  21.7376076  37.5916329 107.9772289  23.0792727  32.7833116
 108.5279714  22.9509791  32.0110110 107.1383765  23.3787616  32.4328009
 115.3166406  21.8299726  36.2853839 115.2984881  22.6508607  35.7934108
 116.2386326  21.7053801  36.5103980 111.7739460  19.3443855  37.1277347
 112.3067797  18.5832143  36.8976655 111.2453541  19.0517507  37.8701502
 103.0095005  16.7737451  25.4759591 103.8470227  17.1834460  25.2593299
 103.1873273  15.8336894  25.4459785 113.1392172  18.4729848  24.6396159
 112.6113534  17.7382607  24.3269397 112.6379675  19.2504524  24.3936128
 118.1185018  16.6678868  29.7563206 117.4608693  17.3578129  29.8443334
 118.9225418  17.0575300  30.0997192 114.1912852  25.0007565  20.5627819
 113.5174550  25.3039262  21.1712776 114.5778673  25.8036645  20.2133276
 113.4071308  12.4972696  30.0525488 112.4893870  12.7187643  29.8947176
 113.8231452  12.5719007  29.1937195 117.6952273  20.0029242  25.9346290
 117.2414601  19.1620152  25.9911481 117.0646240  20.6390641  26.2721070
 116.1385213  21.8405739  26.8696108 116.4308187  22.4010796  26.1508474
 116.6483833  22.1334300  27.6249267 103.0321176  14.1128167  26.1470325
 102.8345576  13.5197527  25.4221391 102.4767840  13.8080377  26.8646264
 111.0117900  14.0051273  28.2664918 111.0666510  13.0525110  28.1907395
 110.2009102  14.1610712  28.7506216 108.9510260  12.6228333  26.0255297
 108.1378126  12.9222504  26.4320489 109.4469254  12.2284022  26.7429779
 111.1018838  22.6186090  27.9589561 111.0595017  22.8446936  27.0298094
 112.0181537  22.3849465  28.1075363 114.5484472  13.0870157  34.8570191
 114.9033859  13.3141631  35.7164656 115.1956603  13.4188534  34.2347446
 120.3051588  18.2765120  30.5730791 120.7388095  18.1840409  31.4213845
 121.0183169  18.2522621  29.9350807 109.2184639  19.4949119  27.7551524
 110.0125237  18.9999439  27.5534099 108.5076331  18.9666982  27.3919230
 114.0379483  21.8767214  32.1063892 114.0916505  22.4458151  32.8741608
 113.1694265  22.0469100  31.7417929 105.5267402  13.6392201  23.8311277
 104.5964990  13.5776656  24.0481239 105.6224874  13.1168153  23.0347918
 105.4452951  10.1647014  26.4189519 105.7059769  11.0792347  26.3098679
 106.2670124   9.6971456  26.5686131 106.9177877  11.5784771  33.5888343
 107.5900930  11.3702133  32.9400992 106.0907663  11.3806857  33.1493575
 121.1667138  18.3188821  33.1063677 121.3603028  19.2234632  33.3522952
 121.0667756  17.8596240  33.9402262 116.2282246  18.4695564  38.6804557
 116.0767753  18.2406115  37.7634641 116.2186926  19.4266165  38.6935902
 112.9967583  16.0427477  33.6650824 113.9259643  16.1938636  33.4919791
 112.5758613  16.1311497  32.8099470 111.7955915  20.0678141  31.4349361
 111.6567000  19.6996925  32.3075299 111.0070511  20.5825780  31.2633319
 112.3904067  25.1687237  22.7774898 112.5655822  24.6975281  23.5920521
 111.7036855  25.7953004  23.0056159 113.3461130  19.4459744  28.8238199
 113.0110962  19.4060514  29.7195849 112.8465076  18.7804460  28.3508609
 107.3205374  14.8527374  34.3490780 107.1825172  14.1207612  34.9502319
 108.2310297  14.7636274  34.0674968 109.9487674  14.5647333  33.8374460
 110.6587293  13.9240525  33.7961078 109.9056983  14.8160228  34.7600641
 117.9374453  21.5014686  36.7581039 117.8786999  20.8173906  36.0911622
 118.3393972  22.2433676  36.3061665 108.6616608  11.5512551  35.6570099
 108.1253965  11.1003289  36.3091696 108.0733317  11.6858460  34.9140564
 106.9565152  28.3176600  29.5514758 107.1961750  28.9495124  30.2293777
 106.1134348  27.9664640  29.8380117 117.9391860  19.4654270  34.9895019
 117.0518639  19.1280192  35.1121418 118.5090411  18.7337301  35.2263784
  99.5921008  15.7978362  28.3138070 100.2792047  15.4840092  27.7259085
  99.4369136  16.7019727  28.0405322 104.3955730  10.6868559  32.7423094
 104.3113918  10.0794228  32.0073504 103.5738436  11.1777577  32.7432590
 111.4693014  24.1255723  31.9556262 111.3963185  24.9310694  32.4675567
 111.0270407  24.3247688  31.1304283 111.2582793  23.3627493  25.4659084
 110.4750315  23.9049173  25.5597308 111.9575539  23.8801472  25.8653325
 113.9291697  24.0242557  34.1114421 114.6419670  24.6590021  34.0390322
 113.4381726  24.1206423  33.2954422 115.6509224  17.9293809  25.6831712
 114.7165503  18.0495272  25.5136417 115.8285893  17.0266276  25.4191722
 108.9803611  21.7737000  34.9319991 109.6813070  22.4073483  35.0849386
 108.5098726  22.1151732  34.1715631 116.7804897  14.3281608  32.7572542
 116.1276347  14.5757515  32.1024995 117.1585277  13.5145746  32.4235019
 113.7412071  24.3641301  26.8600712 113.9234465  23.5462957  27.3228464
 114.5645057  24.5808993  26.4225602 114.0754236  23.2909486  24.1215761
 114.6042003  22.7801940  23.5085923 114.3382456  22.9752016  24.9861294
 112.8292470  15.0701419  39.2438579 112.1533107  14.9695548  39.9140954
 113.6520104  14.9140632  39.7074576 104.5771329  21.3073355  31.8651094
 105.1624766  20.5617043  31.9978998 104.3796167  21.6177312  32.7487758
 107.4309984  24.3424603  26.8813537 106.7620359  24.8270730  26.3977577
 107.2922854  24.5893823  27.7956915  99.1688984  13.8778955  30.5855537
  99.2073083  13.3442546  31.3792655  98.6629276  13.3514161  29.9666514
 111.5715253  26.3768346  33.4796195 112.1233561  26.5399968  34.2445280
 111.9121446  26.9672784  32.8076220 106.0232018  10.7966628  37.7291114
 106.6504057  10.4143706  38.3428638 105.1659937  10.5780830  38.0946806
 116.4226127  21.2029604  39.3344849 116.9666031  21.8159562  38.8399804
 115.8412972  21.7609182  39.8511862 102.7997561  12.6043058  23.6609469
 103.0951002  11.6953736  23.6076522 101.8985597  12.5830797  23.3390471
 114.7083640  24.3250322  30.4659877 114.5834779  23.5240061  29.9570823
 115.3662731  24.8196515  29.9773847 106.3291808  10.6799054  29.6437017
 105.6078394  11.2935022  29.5044491 107.1185064  11.2156819  29.5653663
 116.7718548  22.1259342  32.0939427 115.8248884  22.0064693  32.0217754
 117.1201321  21.2381840  32.1765689 104.5285403  10.2857155  23.7848794
 104.1998109   9.4054534  23.6023900 104.8824774  10.2304824  24.6725183
 113.7764982  21.9212058  28.2943779 113.6289944  20.9928765  28.4751349
 114.6018475  21.9432149  27.8100855 107.6427226  10.5730125  24.1524272
 107.9823298  11.1016046  23.4302880 108.0899346  10.9110531  24.9282838
 117.3799104  22.7440617  29.3808652 118.3045651  22.5383478  29.2433103
 117.2114407  22.4957018  30.2897994 108.5125717  12.7335609  29.8646641
 108.3670298  13.0475912  30.7570923 108.0350921  13.3520509  29.3117540
 117.1694420  23.2626284  24.7370744 117.3431297  22.6972707  23.9844596
 117.6623311  24.0627179  24.5550234 102.9871380  15.2740953  32.8034302
 102.4424848  16.0500761  32.9354577 103.8650729  15.6211758  32.6453424
 103.7737401  14.4010849  35.6964459 103.0319137  14.5493485  36.2829090
 103.4530146  14.6619115  34.8331209 111.7181064  23.9426828  35.4944849
 112.0268190  23.6975974  36.3667549 112.5156546  24.1473466  35.0063719
 111.7401676  26.0964737  27.7250226 111.3006666  25.6041116  28.4183083
 112.4909793  25.5537705  27.4842301 104.2194015  22.2876278  27.7274854
 105.0452035  21.9880050  27.3473497 103.8688067  21.5183901  28.1764643
 109.1875548  21.6402746  29.7972527 108.5655558  20.9773451  29.4974755
 109.8580415  21.6663878  29.1146175 102.4202620  20.2062605  28.6863787
 101.5834528  19.7784779  28.5047789 102.3926266  20.3995048  29.6234579
 119.7454921  20.6625658  38.6706171 118.9550465  20.6449796  38.1310670
 119.5088276  21.2013951  39.4255207 119.8652796  17.5118124  35.9838899
 119.9150801  17.3468131  36.9254422 119.7566720  16.6445383  35.5936780
 108.7489055  20.1906670  23.2730988 108.8977176  20.8742134  22.6197661
 109.5555499  20.1711760  23.7880444 121.3670993  19.9315066  36.2280921
 121.0755802  20.2945046  37.0644382 120.7543125  19.2182074  36.0494253
 119.6158182  15.0547680  34.6960979 120.0912303  15.2475326  33.8879830
 118.6923747  15.1106866  34.4504362 106.5041688  16.2171847  24.2792057
 106.2587730  15.3134177  24.4772267 106.6737603  16.2188998  23.3371535
 105.7737336  11.9500205  21.7778218 105.0806581  12.0244560  21.1218254
 105.5289088  11.1860549  22.2999735 112.2484461  22.6854800  20.7442735
 111.6758428  23.3044987  20.2913207 112.8217254  23.2354162  21.2782657
 112.5169952  18.0733359  39.5459445 113.4372961  18.2511958  39.7399491
 112.4819535  17.1289404  39.3939144 101.7352117  13.2671953  28.4712720
 101.4154901  12.4137261  28.1787094 101.1885545  13.4820531  29.2270687
 105.5132024  15.9834394  32.1882226 105.7318034  16.9151502  32.2070260
 105.9257798  15.6242368  32.9737030 110.3859890  11.5567599  41.5784975
 110.2856616  12.5061956  41.5097066 110.1681432  11.2285838  40.7061045
 101.6040377  16.8874864  30.4405841 100.9103848  16.4728817  29.9275796
 102.3513368  16.9295401  29.8439260 110.2491160  14.9864738  40.3950037
 109.7658241  15.7865098  40.6013926 110.3352099  14.9972683  39.4417481
 103.5177119  16.8193118  28.3171856 103.4947807  16.9180805  27.3653739
 103.8277756  17.6658269  28.6389022 106.1764497  18.8769273  32.4318470
 107.1307751  18.8453215  32.3648402 105.9777021  18.4159897  33.2468696
 106.7663879  17.4470389  34.9989268 107.5856768  17.9414468  35.0224105
 107.0400687  16.5302357  34.9706836 104.5314726  24.4188893  29.4488668
 104.3969194  23.6589293  28.8826666 104.1146788  25.1429792  28.9817457
 107.6883852  25.3158210  29.6607111 107.5716236  26.2603642  29.5585801
 106.8676298  25.0131771  30.0492910 102.0198793  11.7808523  35.6981465
 102.6657657  11.2707477  36.1868690 101.8115945  12.5177205  36.2724890
 114.5452186  18.8489370  41.1973606 115.4143345  19.0230023  40.8360241
 114.0658937  19.6683787  41.0749335 108.7138366  25.9686471  32.8763039
 109.6165613  26.0010082  33.1929534 108.4875736  25.0386922  32.8909375
 110.4691968  24.7217458  29.5373118 109.5187599  24.7219320  29.4237490
 110.7724454  23.9750193  29.0209153 126.2044661  30.5577996  30.6018880
 126.8423071  30.4384744  29.8982220 126.0865504  31.5058840  30.6606833
 123.0134368  30.5105424  30.5380405 122.6752879  30.3946489  29.6500940
 123.8824136  30.1096590  30.5181411 118.8721183  32.3640901  26.5277296
 118.3086049  32.2730838  25.7593584 118.7573578  31.5440805  27.0079789
 123.4954151  31.6640276  36.4966611 123.4842791  31.2693074  35.6247114
 123.6574790  30.9306349  37.0900382 116.4185615  33.8592092  29.3661517
 117.2106907  33.5182917  28.9507816 116.6582265  33.9687068  30.2863670
 124.4520742  36.0311869  21.8391761 123.8008722  36.6165949  21.4525775
 125.2465105  36.5618063  21.8986798 118.3776369  33.1201006  22.2378895
 119.1507245  32.5729993  22.0991771 118.7301768  33.9845255  22.4493357
 120.2161412  34.4477388  35.4445795 119.9251278  35.3523019  35.3292461
 120.8518396  34.4893916  36.1589864 121.1417619  31.8254237  32.0347154
 121.7381191  31.6010259  31.3204117 121.1992590  31.0838982  32.6372602
 120.4338936  31.1821778  22.0721720 120.3175194  30.5066681  22.7402804
 120.5441196  30.6954152  21.2553873 122.7770477  30.6431925  25.7768409
 122.4128684  30.1162546  26.4881331 123.6337593  30.2530394  25.6034895
 128.6819777  21.9326258  33.0399676 128.3503102  22.8021668  32.8160891
 128.0865391  21.6162542  33.7193706 125.1751297  34.1338804  32.4395588
 124.8752020  35.0363842  32.3311396 124.8302356  33.8670987  33.2916741
 118.6263778  30.5852600  28.4732293 117.7014275  30.4528814  28.6809984
 118.8748192  31.3646820  28.9702235 128.5748441  26.6521344  30.1193026
 127.6665318  26.5836752  29.8251787 128.5236036  27.1293289  30.9474851
 115.9872589  30.2285874  29.3076082 116.1164971  30.4820353  30.2215494
 115.3070041  30.8213582  28.9880737 120.1572077  40.8983124  25.4066556
 120.0796106  41.8490949  25.4855037 119.5533720  40.5528996  26.0641482
 122.6489306  28.0710989  38.0627923 121.8722641  28.6304909  38.0530788
 123.2879870  28.5567772  38.5842793 120.9035679  30.8796443  37.6245890
 121.6450363  31.4181487  37.3480714 120.1972664  31.5062731  37.7817442
 126.3791018  33.0225583  36.2218051 126.7874374  32.5807994  35.4772684
 125.6568280  32.4478211  36.4752244 122.7322088  27.9598190  33.5951608
 123.5783284  28.3837603  33.7386257 122.6720726  27.3031814  34.2890171
 126.7019833  33.5826774  29.9770340 126.0728696  33.7472488  29.2746408
 126.3145495  33.9968383  30.7481304 130.5809065  34.5181212  27.3314704
 129.8960103  34.8980113  26.7811737 130.6652914  35.1276538  28.0646652
 125.8821534  25.6202558  35.2532782 125.6382466  26.3744619  34.7167058
 126.1581464  25.9987906  36.0880029 127.8359997  32.1641171  33.9310048
 128.0476892  32.8072930  33.2544429 127.7889745  31.3303487  33.4631978
 125.4386226  24.7758991  30.8346620 124.5770705  25.0740245  31.1263357
 125.4648660  24.9929390  29.9027652 122.2547795  33.3201182  27.2420425
 122.7186140  33.5988885  26.4525048 121.9904593  32.4184626  27.0593516
 119.1471876  32.8672663  30.1800189 119.7173233  33.2959932  29.5417673
 119.7379988  32.5855248  30.8784374 121.1916681  29.4424334  24.0509991
 121.8940724  29.8945378  24.5183917 120.8597310  28.8008153  24.6789884
 119.6397043  28.0336091  38.4261200 119.0095703  28.7152372  38.6596597
 119.5333130  27.9219172  37.4814338 114.9342015  27.7007887  29.3527124
 114.1441069  27.9565415  28.8767235 115.4253262  28.5156225  29.4579165
 128.9505825  35.0413126  32.1032405 129.7723268  34.6393313  31.8215087
 128.9468227  34.9381360  33.0548521 116.8856760  28.0652466  26.3110601
 116.0887924  28.1771160  26.8294096 116.6582353  28.4039118  25.4451491
 122.7162428  34.5897169  34.2593115 122.7806860  35.0517577  35.0951287
 122.0073352  33.9594534  34.3875425 113.2179718  27.9538377  31.7842115
 113.4687756  28.8385387  32.0499691 113.7539266  27.7742979  31.0117207
 122.4310446  36.2565277  24.1272096 122.2956120  37.1016813  24.5556944
 122.9720258  36.4584554  23.3638030 118.9177785  22.3356857  40.7886451
 118.5244731  21.7823055  41.4634095 119.7343926  22.6467435  41.1792968
 115.8839843  33.7740715  24.7000021 116.3964364  34.5683965  24.8505585
 116.5362556  33.0767005  24.6333622 117.6934728  36.8906471  26.7822774
 117.8701356  37.8124436  26.5943758 118.4891561  36.5764890  27.2117154
 121.8345746  23.7514736  38.3806708 122.5755460  24.3521889  38.3011170
 122.0663669  23.0092374  37.8224750 116.9787084  28.9371103  36.6584937
 116.8640599  28.0356360  36.9592036 116.1231602  29.1834800  36.3069754
 124.0578922  36.8788843  38.2572438 123.6142776  36.0925222  37.9393342
 124.7196136  37.0667994  37.5916329 118.8166043  38.4084645  32.7833116
 119.3673468  38.2801708  32.0110110 117.9777519  38.7079534  32.4328009
 126.1560160  37.1591643  36.2853839 126.1378635  37.9800524  35.7934108
 127.0780080  37.0345718  36.5103980 122.6133214  34.6735773  37.1277347
 123.1461551  33.9124061  36.8976655 122.0847295  34.3809425  37.8701502
 113.8488760  32.1029369  25.4759591 114.6863982  32.5126378  25.2593299
 114.0267028  31.1628811  25.4459785 124.8599450  22.1500494  30.6220222
 124.3564245  22.1130629  29.8088028 125.1530056  23.0593237  30.6816879
 121.1042335  22.2339224  29.6286404 121.9695332  22.0382032  29.2692294
 121.1719844  22.0049575  30.5555761 123.9785927  33.8021765  24.6396159
 123.4507289  33.0674525  24.3269397 123.4773430  34.5796442  24.3936128
 128.9578773  31.9970786  29.7563206 128.3002447  32.6870047  29.8443334
 129.7619172  32.3867218  30.0997192 118.7104655  24.4641431  27.0002771
 119.2848406  24.2416613  26.2675964 119.2975637  24.5330126  27.7531372
 125.0306606  40.3299483  20.5627819 124.3568305  40.6331179  21.1712776
 125.4172428  41.1328563  20.2133276 124.2465063  27.8264614  30.0525488
 123.3287624  28.0479561  29.8947176 124.6625206  27.9010924  29.1937195
 128.5346028  35.3321160  25.9346290 128.0808355  34.4912070  25.9911481
 127.9039995  35.9682558  26.2721070 126.9778967  37.1697657  26.8696108
 127.2701942  37.7302714  26.1508474 127.4877588  37.4626218  27.6249267
 113.8714931  29.4420084  26.1470325 113.6739331  28.8489445  25.4221391
 113.3161595  29.1372295  26.8646264 121.8511655  29.3343191  28.2664918
 121.9060264  28.3817027  28.1907395 121.0402857  29.4902630  28.7506216
 119.7904015  27.9520251  26.0255297 118.9771880  28.2514421  26.4320489
 120.2863009  27.5575939  26.7429779 121.9412592  37.9478008  27.9589561
 121.8988771  38.1738854  27.0298094 122.8575291  37.7141382  28.1075363
 125.3878226  28.4162075  34.8570191 125.7427614  28.6433548  35.7164656
 126.0350357  28.7480452  34.2347446 119.2818089  25.5238606  31.6416532
 119.9217469  25.3827365  30.9439495 118.4495620  25.2373120  31.2655134
 131.1445343  33.6057038  30.5730791 131.5781849  33.5132327  31.4213845
 131.8576923  33.5814539  29.9350807 120.0578393  34.8241037  27.7551524
 120.8518992  34.3291357  27.5534099 119.3470086  34.2958900  27.3919230
 124.8773238  37.2059132  32.1063892 124.9310260  37.7750068  32.8741608
 124.0088019  37.3761017  31.7417929 116.3661157  28.9684118  23.8311277
 115.4358745  28.9068574  24.0481239 116.4618629  28.4460071  23.0347918
 116.2846706  25.4938931  26.4189519 116.5453523  26.4084264  26.3098679
 117.1063878  25.0263374  26.5686131 117.7571631  26.9076688  33.5888343
 118.4294684  26.6994050  32.9400992 116.9301418  26.7098774  33.1493575
 132.0060892  33.6480739  33.1063677 132.1996782  34.5526549  33.3522952
 131.9061510  33.1888158  33.9402262 123.6597203  23.5338629  35.6054004
 123.0125118  24.2328579  35.5118480 124.4298218  23.9674773  35.9730252
 127.0676001  33.7987481  38.6804557 126.9161507  33.5698033  37.7634641
 127.0580680  34.7558083  38.6935902 123.8361337  31.3719394  33.6650824
 124.7653397  31.5230554  33.4919791 123.4152367  31.4603415  32.8099470
 122.6349669  35.3970059  31.4349361 122.4960755  35.0288843  32.3075299
 121.8464265  35.9117698  31.2633319 123.2297821  40.4979155  22.7774898
 123.4049577  40.0267198  23.5920521 122.5430609  41.1244921  23.0056159
 124.1854884  34.7751661  28.8238199 123.8504717  34.7352431  29.7195849
 123.6858830  34.1096377  28.3508609 118.1599128  30.1819291  34.3490780
 118.0218926  29.4499530  34.9502319 119.0704052  30.0928191  34.0674968
 120.7881429  29.8939251  33.8374460 121.4981047  29.2532443  33.7961078
 120.7450737  30.1452146  34.7600641 128.7768208  36.8306604  36.7581039
 128.7180754  36.1465824  36.0911622 129.1787726  37.5725594  36.3061665
 119.5010363  26.8804469  35.6570099 118.9647720  26.4295207  36.3091696
 118.9127071  27.0150377  34.9140564 117.7958906  43.6468518  29.5514758
 118.0355505  44.2787042  30.2293777 116.9528103  43.2956558  29.8380117
 128.7785615  34.7946188  34.9895019 127.8912394  34.4572110  35.1121418
 129.3484166  34.0629219  35.2263784 110.4314762  31.1270280  28.3138070
 111.1185802  30.8132010  27.7259085 110.2762891  32.0311644  28.0405322
 115.2349484  26.0160476  32.7423094 115.1507673  25.4086146  32.0073504
 114.4132191  26.5069495  32.7432590 122.3086768  39.4547640  31.9556262
 122.2356940  40.2602612  32.4675567 121.8664161  39.6539606  31.1304283
 122.0976548  38.6919410  25.4659084 121.3144070  39.2341091  25.5597308
 122.7969293  39.2093390  25.8653325 124.7685452  39.3534474  34.1114421
 125.4813424  39.9881939  34.0390322 124.2775480  39.4498340  33.2954422
 126.4902979  33.2585727  25.6831712 125.5559257  33.3787189  25.5136417
 126.6679647  32.3558194  25.4191722 121.9908167  26.6431423  27.8364974
 121.6205954  26.0902463  28.5245879 122.4867259  26.0389556  27.2839974
 119.8197365  37.1028918  34.9319991 120.5206825  37.7365401  35.0849386
 119.3492480  37.4443649  34.1715631 127.6198651  29.6573525  32.7572542
 126.9670102  29.9049433  32.1024995 127.9979031  28.8437663  32.4235019
 124.5805825  39.6933218  26.8600712 124.7628220  38.8754874  27.3228464
 125.4038811  39.9100911  26.4225602 124.9147991  38.6201404  24.1215761
 125.4435757  38.1093858  23.5085923 125.1776210  38.3043934  24.9861294
 123.6686224  30.3993336  39.2438579 122.9926861  30.2987466  39.9140954
 124.4913858  30.2432550  39.7074576 115.4165083  36.6365273  31.8651094
 116.0018520  35.8908961  31.9978998 115.2189922  36.9469230  32.7487758
 118.2703739  39.6716520  26.8813537 117.6014114  40.1562648  26.3977577
 118.1316608  39.9185741  27.7956915 110.0082738  29.2070873  30.5855537
 110.0466838  28.6734464  31.3792655 109.5023031  28.6806079  29.9666514
 122.4109007  41.7060264  33.4796195 122.9627315  41.8691885  34.2445280
 122.7515201  42.2964702  32.8076220 117.3873500  24.0535414  34.0818080
 117.4514827  24.9150244  33.6695477 117.3240621  23.4409415  33.3490438
 116.8625773  26.1258546  37.7291114 117.4897812  25.7435623  38.3428638
 116.0053692  25.9072748  38.0946806 127.2619882  36.5321521  39.3344849
 127.8059786  37.1451480  38.8399804 126.6806726  37.0901100  39.8511862
 113.6391316  27.9334975  23.6609469 113.9344757  27.0245654  23.6076522
 112.7379351  27.9122715  23.3390471 125.5477394  39.6542239  30.4659877
 125.4228534  38.8531979  29.9570823 126.2056486  40.1488433  29.9773847
 117.1685563  26.0090972  29.6437017 116.4472148  26.6226939  29.5044491
 117.9578818  26.5448737  29.5653663 127.6112303  37.4551259  32.0939427
 126.6642638  37.3356611  32.0217754 127.9595076  36.5673757  32.1765689
 119.9711876  23.3445398  35.9177669 120.4946278  23.5907695  36.6803978
 119.7524210  24.1765433  35.4980806 115.3679157  25.6149073  23.7848794
 115.0391863  24.7346452  23.6023900 115.7218528  25.5596742  24.6725183
 124.6158736  37.2503976  28.2943779 124.4683699  36.3220683  28.4751349
 125.4412230  37.2724066  27.8100855 118.4820980  25.9022043  24.1524272
 118.8217053  26.4307964  23.4302880 118.9293101  26.2402449  24.9282838
 128.2192858  38.0732534  29.3808652 129.1439405  37.8675396  29.2433103
 128.0508161  37.8248935  30.2897994 121.1764421  24.2859093  33.6027340
 120.8361242  23.4866906  34.0048019 120.4703428  24.5860804  33.0304173
 121.8280893  21.3708406  32.0554663 122.6506962  20.8968884  31.9333553
 122.0718957  22.1498890  32.5553349 119.3519472  28.0627526  29.8646641
 119.2064053  28.3767830  30.7570923 118.8744676  28.6812427  29.3117540
 121.2115855  25.0530074  29.9127531 121.1977424  24.1571168  29.5759829
 121.9288283  25.0600738  30.5465817 123.0641985  25.4867415  31.9580658
 122.8059763  26.4084485  31.9564989 122.5327026  25.0897849  32.6481122
 128.0088174  38.5918202  24.7370744 128.1825052  38.0264624  23.9844596
 128.5017065  39.3919097  24.5550234 113.8265134  30.6032871  32.8034302
 113.2818602  31.3792679  32.9354577 114.7044484  30.9503675  32.6453424
 114.6131156  29.7302767  35.6964459 113.8712892  29.8785402  36.2829090
 114.2923900  29.9911033  34.8331209 122.5574819  39.2718745  35.4944849
 122.8661945  39.0267892  36.3667549 123.3550301  39.4765384  35.0063719
 122.5795431  41.4256655  27.7250226 122.1400421  40.9333034  28.4183083
 123.3303548  40.8829623  27.4842301 115.0587770  37.6168196  27.7274854
 115.8845789  37.3171968  27.3473497 114.7081822  36.8475818  28.1764643
 120.0269303  36.9694664  29.7972527 119.4049312  36.3065369  29.4974755
 120.6974170  36.9955796  29.1146175 113.2596375  35.5354522  28.6863787
 112.4228283  35.1076697  28.5047789 113.2320020  35.7286966  29.6234579
 120.0993830  25.4476452  39.3905034 120.1481986  26.3238575  39.0082803
 120.6416344  24.9053845  38.8176677 130.5848676  35.9917575  38.6706171
 129.7944220  35.9741714  38.1310670 130.3482030  36.5305869  39.4255207
 130.7046551  32.8410042  35.9838899 130.7544556  32.6760049  36.9254422
 130.5960474  31.9737301  35.5936780 119.5882810  35.5198587  23.2730988
 119.7370930  36.2034052  22.6197661 120.3949253  35.5003677  23.7880444
 127.9950313  28.8240970  37.2998206 128.8960176  28.6847435  37.0082204
 128.0698288  28.9895425  38.2396383 122.3293119  26.2007824  36.1451392
 121.4596428  26.4941391  35.8733981 122.5652599  26.7848269  36.8658656
 132.2064748  35.2606983  36.2280921 131.9149556  35.6236964  37.0644382
 131.5936879  34.5473992  36.0494253 130.4551936  30.3839598  34.6960979
 130.9306058  30.5767244  33.8879830 129.5317501  30.4398784  34.4504362
 117.3435443  31.5463765  24.2792057 117.0981485  30.6426095  24.4772267
 117.5131357  31.5480915  23.3371535 125.0332153  22.4187441  33.6616813
 125.5514096  23.1548468  33.3363301 124.6787285  22.7251435  34.4963572
 116.6131090  27.2792123  21.7778218 115.9200335  27.3536478  21.1218254
 116.3682842  26.5152466  22.2999735 123.0878215  38.0146718  20.7442735
 122.5152182  38.6336905  20.2913207 123.6611009  38.5646080  21.2782657
 129.1553605  27.2605358  32.9289284 130.1071028  27.3603456  32.9501508
 128.9857055  26.4683626  33.4387369 127.1767984  24.3460941  33.1148685
 126.5817917  24.6265954  32.4195174 126.8917681  24.8354842  33.8865426
 131.6341683  30.4811478  32.0431584 131.6018003  29.5427478  32.2291268
 132.2442306  30.5595514  31.3097409 123.3563706  33.4025277  39.5459445
 124.2766716  33.5803876  39.7399491 123.3213289  32.4581322  39.3939144
 112.5745871  28.5963870  28.4712720 112.2548656  27.7429179  28.1787094
 112.0279299  28.8112449  29.2270687 116.3525779  31.3126311  32.1882226
 116.5711789  32.2443419  32.2070260 116.7651553  30.9534286  32.9737030
 121.2253644  26.8859517  41.5784975 121.1250371  27.8353874  41.5097066
 121.0075186  26.5577756  40.7061045 112.4434131  32.2166782  30.4405841
 111.7497603  31.8020735  29.9275796 113.1907122  32.2587318  29.8439260
 121.0884914  30.3156656  40.3950037 120.6051996  31.1157016  40.6013926
 121.1745853  30.3264601  39.4417481 114.3570874  32.1485036  28.3171856
 114.3341562  32.2472723  27.3653739 114.6671510  32.9950186  28.6389022
 117.0158252  34.2061191  32.4318470 117.9701505  34.1745133  32.3648402
 116.8170775  33.7451814  33.2468696 117.6057634  32.7762307  34.9989268
 118.4250523  33.2706385  35.0224105 117.8794441  31.8594275  34.9706836
 115.3708480  39.7480810  29.4488668 115.2362948  38.9881211  28.8826666
 114.9540543  40.4721710  28.9817457 118.5277606  40.6450127  29.6607111
 118.4109990  41.5895560  29.5585801 117.7070053  40.3423689  30.0492910
 112.8592548  27.1100441  35.6981465 113.5051412  26.5999395  36.1868690
 112.6509699  27.8469122  36.2724890 125.3845940  34.1781288  41.1973606
 126.2537100  34.3521940  40.8360241 124.9052692  34.9975705  41.0749335
 119.5532120  41.2978389  32.8763039 120.4559367  41.3301999  33.1929534
 119.3269490  40.3678840  32.8909375 121.3085722  40.0509376  29.5373118
 120.3581353  40.0511237  29.4237490 121.6118209  39.3042110  29.0209153
 117.1990039  24.2568058  39.7956479 118.0621501  23.9004863  40.0059804
 116.6255450  23.9181953  40.4831884 133.8528122  45.8397342  30.5380405
 133.5146634  45.7238407  29.6500940 134.7217890  45.4388507  30.5181411
 129.7114938  47.6932819  26.5277296 129.1479803  47.6022755  25.7593584
 129.5967333  46.8732723  27.0079789 134.3347905  46.9932194  36.4966611
 134.3236546  46.5984992  35.6247114 134.4968545  46.2598266  37.0900382
 127.2579370  49.1884010  29.3661517 128.0500662  48.8474835  28.9507816
 127.4976020  49.2978985  30.2863670 135.2914497  51.3603786  21.8391761
 134.6402476  51.9457867  21.4525775 136.0858859  51.8909981  21.8986798
 129.2170124  48.4492923  22.2378895 129.9901000  47.9021910  22.0991771
 129.5695523  49.3137173  22.4493357 131.0555166  49.7769306  35.4445795
 130.7645032  50.6814937  35.3292461 131.6912151  49.8185833  36.1589864
 131.9811373  47.1546154  32.0347154 132.5774945  46.9302177  31.3204117
 132.0386345  46.4130900  32.6372602 131.2732690  46.5113695  22.0721720
 131.1568948  45.8358599  22.7402804 131.3834950  46.0246069  21.2553873
 133.6164231  45.9723843  25.7768409 133.2522438  45.4454464  26.4881331
 134.4731347  45.5822312  25.6034895 136.0145051  49.4630721  32.4395588
 135.7145774  50.3655760  32.3311396 135.6696111  49.1962904  33.2916741
 129.4657533  45.9144518  28.4732293 128.5408029  45.7820732  28.6809984
 129.7141946  46.6938737  28.9702235 126.8266344  45.5577792  29.3076082
 126.9558725  45.8112270  30.2215494 126.1463795  46.1505500  28.9880737
 130.9965831  56.2275042  25.4066556 130.9189861  57.1782867  25.4855037
 130.3927475  55.8820914  26.0641482 133.4883061  43.4002907  38.0627923
 132.7116395  43.9596827  38.0530788 134.1273624  43.8859690  38.5842793
 131.7429433  46.2088360  37.6245890 132.4844118  46.7473404  37.3480714
 131.0366419  46.8354649  37.7817442 137.2184773  48.3517501  36.2218051
 137.6268129  47.9099911  35.4772684 136.4962034  47.7770128  36.4752244
 133.5715843  43.2890108  33.5951608 134.4177038  43.7129521  33.7386257
 133.5114481  42.6323732  34.2890171 137.5413588  48.9118691  29.9770340
 136.9122450  49.0764406  29.2746408 137.1539250  49.3260301  30.7481304
 136.7215288  40.9494476  35.2532782 136.4776220  41.7036536  34.7167058
 136.9975219  41.3279824  36.0880029 136.2779980  40.1050909  30.8346620
 135.4164459  40.4032162  31.1263357 136.3042415  40.3221308  29.9027652
 133.0941549  48.6493099  27.2420425 133.5579895  48.9280802  26.4525048
 132.8298348  47.7476544  27.0593516 129.9865631  48.1964581  30.1800189
 130.5566988  48.6251849  29.5417673 130.5773742  47.9147166  30.8784374
 132.0310436  44.7716252  24.0509991 132.7334479  45.2237296  24.5183917
 131.6991064  44.1300071  24.6789884 130.4790797  43.3628008  38.4261200
 129.8489458  44.0444289  38.6596597 130.3726885  43.2511090  37.4814338
 125.7735769  43.0299805  29.3527124 124.9834823  43.2857333  28.8767235
 126.2647017  43.8448142  29.4579165 127.7250515  43.3944384  26.3110601
 126.9281678  43.5063078  26.8294096 127.4976107  43.7331036  25.4451491
 133.5556182  49.9189087  34.2593115 133.6200615  50.3809494  35.0951287
 132.8467106  49.2886452  34.3875425 124.0573472  43.2830295  31.7842115
 124.3081511  44.1677305  32.0499691 124.5933021  43.1034896  31.0117207
 133.2704200  51.5857194  24.1272096 133.1349875  52.4308730  24.5556944
 133.8114013  51.7876472  23.3638030 129.7571540  37.6648774  40.7886451
 129.3638485  37.1114973  41.4634095 130.5737680  37.9759353  41.1792968
 126.7233598  49.1032633  24.7000021 127.2358118  49.8975883  24.8505585
 127.3756310  48.4058923  24.6333622 128.5328482  52.2198389  26.7822774
 128.7095111  53.1416353  26.5943758 129.3285316  51.9056808  27.2117154
 132.6739501  39.0806653  38.3806708 133.4149214  39.6813807  38.3011170
 132.9057424  38.3384291  37.8224750 127.8180839  44.2663021  36.6584937
 127.7034354  43.3648278  36.9592036 126.9625357  44.5126717  36.3069754
 134.8972677  52.2080761  38.2572438 134.4536531  51.4217140  37.9393342
 135.5589890  52.3959911  37.5916329 129.6559798  53.7376563  32.7833116
 130.2067223  53.6093626  32.0110110 128.8171274  54.0371452  32.4328009
 133.4526969  50.0027690  37.1277347 133.9855306  49.2415979  36.8976655
 132.9241050  49.7101342  37.8701502 124.6882514  47.4321287  25.4759591
 125.5257736  47.8418295  25.2593299 124.8660782  46.4920729  25.4459785
 135.6993204  37.4792412  30.6220222 135.1958000  37.4422547  29.8088028
 135.9923811  38.3885154  30.6816879 131.9436090  37.5631141  29.6286404
 132.8089087  37.3673950  29.2692294 132.0113599  37.3341493  30.5555761
 134.8179681  49.1313683  24.6396159 134.2901043  48.3966442  24.3269397
 134.3167184  49.9088359  24.3936128 129.5498409  39.7933349  27.0002771
 130.1242161  39.5708531  26.2675964 130.1369391  39.8622044  27.7531372
 135.8700360  55.6591400  20.5627819 135.1962059  55.9623097  21.1712776
 136.2566182  56.4620481  20.2133276 135.0858817  43.1556532  30.0525488
 134.1681378  43.3771479  29.8947176 135.5018961  43.2302842  29.1937195
 124.7108685  44.7712002  26.1470325 124.5133085  44.1781363  25.4221391
 124.1555349  44.4664212  26.8646264 132.6905409  44.6635109  28.2664918
 132.7454019  43.7108945  28.1907395 131.8796611  44.8194548  28.7506216
 130.6297769  43.2812168  26.0255297 129.8165635  43.5806339  26.4320489
 131.1256763  42.8867857  26.7429779 132.7806347  53.2769925  27.9589561
 132.7382526  53.5030772  27.0298094 133.6969046  53.0433300  28.1075363
 136.2271981  43.7453993  34.8570191 136.5821368  43.9725466  35.7164656
 136.8744112  44.0772370  34.2347446 130.1211844  40.8530524  31.6416532
 130.7611223  40.7119283  30.9439495 129.2889374  40.5665037  31.2655134
 130.8972148  50.1532954  27.7551524 131.6912746  49.6583274  27.5534099
 130.1863840  49.6250817  27.3919230 135.7166992  52.5351050  32.1063892
 135.7704014  53.1041986  32.8741608 134.8481774  52.7052935  31.7417929
 127.2054911  44.2976036  23.8311277 126.2752499  44.2360492  24.0481239
 127.3012383  43.7751989  23.0347918 127.1240460  40.8230849  26.4189519
 127.3847277  41.7376182  26.3098679 127.9457633  40.3555291  26.5686131
 128.5965386  42.2368606  33.5888343 129.2688439  42.0285968  32.9400992
 127.7695172  42.0390692  33.1493575 134.4990958  38.8630547  35.6054004
 133.8518873  39.5620497  35.5118480 135.2691973  39.2966691  35.9730252
 134.6755092  46.7011312  33.6650824 135.6047152  46.8522471  33.4919791
 134.2546122  46.7895333  32.8099470 133.4743424  50.7261976  31.4349361
 133.3354509  50.3580761  32.3075299 132.6858020  51.2409616  31.2633319
 134.0691576  55.8271073  22.7774898 134.2443331  55.3559116  23.5920521
 133.3824364  56.4536839  23.0056159 135.0248639  50.1043579  28.8238199
 134.6898471  50.0644349  29.7195849 134.5252584  49.4388295  28.3508609
 128.9992883  45.5111209  34.3490780 128.8612681  44.7791448  34.9502319
 129.9097806  45.4220109  34.0674968 131.6275183  45.2231168  33.8374460
 132.3374802  44.5824361  33.7961078 131.5844492  45.4744063  34.7600641
 130.3404117  42.2096386  35.6570099 129.8041474  41.7587125  36.3091696
 129.7520826  42.3442295  34.9140564 128.6352661  58.9760436  29.5514758
 128.8749259  59.6078960  30.2293777 127.7921857  58.6248476  29.8380117
 121.2708517  46.4562197  28.3138070 121.9579556  46.1423927  27.7259085
 121.1156645  47.3603562  28.0405322 126.0743239  41.3452394  32.7423094
 125.9901427  40.7378063  32.0073504 125.2525945  41.8361412  32.7432590
 133.1480523  54.7839558  31.9556262 133.0750694  55.5894529  32.4675567
 132.7057916  54.9831524  31.1304283 132.9370302  54.0211328  25.4659084
 132.1537824  54.5633008  25.5597308 133.6363048  54.5385308  25.8653325
 135.6079206  54.6826392  34.1114421 136.3207179  55.3173857  34.0390322
 135.1169235  54.7790258  33.2954422 137.3296733  48.5877645  25.6831712
 136.3953012  48.7079107  25.5136417 137.5073402  47.6850111  25.4191722
 132.8301921  41.9723340  27.8364974 132.4599709  41.4194381  28.5245879
 133.3261014  41.3681474  27.2839974 130.6591120  52.4320835  34.9319991
 131.3600579  53.0657318  35.0849386 130.1886235  52.7735567  34.1715631
 135.4199580  55.0225136  26.8600712 135.6021974  54.2046792  27.3228464
 136.2432566  55.2392828  26.4225602 135.7541745  53.9493321  24.1215761
 136.2829512  53.4385776  23.5085923 136.0169965  53.6335851  24.9861294
 134.5079979  45.7285254  39.2438579 133.8320616  45.6279383  39.9140954
 135.3307613  45.5724468  39.7074576 126.2558838  51.9657191  31.8651094
 126.8412275  51.2200878  31.9978998 126.0583676  52.2761147  32.7487758
 129.1097493  55.0008438  26.8813537 128.4407868  55.4854566  26.3977577
 128.9710363  55.2477658  27.7956915 120.8476493  44.5362791  30.5855537
 120.8860592  44.0026381  31.3792655 120.3416785  44.0097996  29.9666514
 133.2502762  57.0352181  33.4796195 133.8021070  57.1983803  34.2445280
 133.5908955  57.6256619  32.8076220 128.2267255  39.3827331  34.0818080
 128.2908581  40.2442162  33.6695477 128.1634375  38.7701333  33.3490438
 127.7019527  41.4550464  37.7291114 128.3291566  41.0727541  38.3428638
 126.8447446  41.2364666  38.0946806 124.4785070  43.2626893  23.6609469
 124.7738511  42.3537571  23.6076522 123.5773106  43.2414632  23.3390471
 136.3871149  54.9834157  30.4659877 136.2622288  54.1823897  29.9570823
 137.0450240  55.4780350  29.9773847 128.0079317  41.3382889  29.6437017
 127.2865903  41.9518857  29.5044491 128.7972573  41.8740654  29.5653663
 130.8105631  38.6737316  35.9177669 131.3340033  38.9199612  36.6803978
 130.5917964  39.5057351  35.4980806 126.2072912  40.9440991  23.7848794
 125.8785618  40.0638369  23.6023900 126.5612282  40.8888659  24.6725183
 135.4552491  52.5795893  28.2943779 135.3077453  51.6512601  28.4751349
 136.2805984  52.6015984  27.8100855 129.3214735  41.2313960  24.1524272
 129.6610807  41.7599882  23.4302880 129.7686855  41.5694366  24.9282838
 132.0158176  39.6151011  33.6027340 131.6754996  38.8158824  34.0048019
 131.3097182  39.9152722  33.0304173 132.6674648  36.7000323  32.0554663
 133.4900717  36.2260802  31.9333553 132.9112711  37.4790807  32.5553349
 130.1913226  43.3919444  29.8646641 130.0457807  43.7059747  30.7570923
 129.7138430  44.0104344  29.3117540 132.0509609  40.3821992  29.9127531
 132.0371178  39.4863085  29.5759829 132.7682037  40.3892656  30.5465817
 133.9035740  40.8159332  31.9580658 133.6453518  41.7376403  31.9564989
 133.3720780  40.4189767  32.6481122 124.6658889  45.9324789  32.8034302
 124.1212357  46.7084596  32.9354577 125.5438238  46.2795593  32.6453424
 125.4524910  45.0594685  35.6964459 124.7106646  45.2077320  36.2829090
 125.1317655  45.3202950  34.8331209 133.3968573  54.6010663  35.4944849
 133.7055699  54.3559810  36.3667549 134.1944055  54.8057301  35.0063719
 133.4189185  56.7548573  27.7250226 132.9794175  56.2624951  28.4183083
 134.1697302  56.2121540  27.4842301 125.8981524  52.9460113  27.7274854
 126.7239544  52.6463885  27.3473497 125.5475576  52.1767736  28.1764643
 130.8663057  52.2986582  29.7972527 130.2443067  51.6357287  29.4974755
 131.5367924  52.3247714  29.1146175 124.0990129  50.8646440  28.6863787
 123.2622037  50.4368614  28.5047789 124.0713775  51.0578883  29.6234579
 130.9387585  40.7768370  39.3905034 130.9875740  41.6530493  39.0082803
 131.4810099  40.2345763  38.8176677 130.4276564  50.8490505  23.2730988
 130.5764685  51.5325969  22.6197661 131.2343008  50.8295595  23.7880444
 133.1686873  41.5299742  36.1451392 132.2990183  41.8233308  35.8733981
 133.4046354  42.1140187  36.8658656 128.1829197  46.8755683  24.2792057
 127.9375239  45.9718013  24.4772267 128.3525112  46.8772833  23.3371535
 135.8725907  37.7479359  33.6616813 136.3907851  38.4840386  33.3363301
 135.5181040  38.0543352  34.4963572 127.4524845  42.6084040  21.7778218
 126.7594090  42.6828395  21.1218254 127.2076597  41.8444384  22.2999735
 133.9271970  53.3438636  20.7442735 133.3545937  53.9628823  20.2913207
 134.5004763  53.8937997  21.2782657 134.1957461  48.7317194  39.5459445
 135.1160470  48.9095793  39.7399491 134.1607044  47.7873240  39.3939144
 123.4139626  43.9255788  28.4712720 123.0942410  43.0721096  28.1787094
 122.8673054  44.1404366  29.2270687 127.1919533  46.6418229  32.1882226
 127.4105543  47.5735337  32.2070260 127.6045307  46.2826203  32.9737030
 132.0647399  42.2151435  41.5784975 131.9644125  43.1645792  41.5097066
 131.8468941  41.8869674  40.7061045 123.2827886  47.5458700  30.4405841
 122.5891357  47.1312652  29.9275796 124.0300877  47.5879236  29.8439260
 131.9278669  45.6448574  40.3950037 131.4445750  46.4448934  40.6013926
 132.0139608  45.6556519  39.4417481 125.1964628  47.4776953  28.3171856
 125.1735316  47.5764641  27.3653739 125.5065265  48.3242104  28.6389022
 127.8552006  49.5353108  32.4318470 128.8095260  49.5037051  32.3648402
 127.6564530  49.0743732  33.2468696 128.4451388  48.1054224  34.9989268
 129.2644277  48.5998303  35.0224105 128.7188196  47.1886193  34.9706836
 126.2102235  55.0772728  29.4488668 126.0756703  54.3173129  28.8826666
 125.7934297  55.8013628  28.9817457 129.3671361  55.9742045  29.6607111
 129.2503745  56.9187477  29.5585801 128.5463807  55.6715606  30.0492910
 123.6986302  42.4392358  35.6981465 124.3445166  41.9291312  36.1868690
 123.4903454  43.1761040  36.2724890 136.2239695  49.5073206  41.1973606
 137.0930854  49.6813858  40.8360241 135.7446446  50.3267623  41.0749335
 130.3925875  56.6270307  32.8763039 131.2953122  56.6593917  33.1929534
 130.1663245  55.6970758  32.8909375 132.1479477  55.3801293  29.5373118
 131.1975108  55.3803155  29.4237490 132.4511963  54.6334028  29.0209153
 128.0383793  39.5859975  39.7956479 128.9015255  39.2296780  40.0059804
 127.4649204  39.2473870  40.4831884 136.6129524  58.3591722  29.3527124
 135.8228578  58.6149251  28.8767235 137.1040771  59.1740060  29.4579165
 134.8967227  58.6122213  31.7842115 135.1475265  59.4969223  32.0499691
 135.4326775  58.4326814  31.0117207 135.5276269  62.7613204  25.4759591
 136.3651491  63.1710213  25.2593299 135.7054536  61.8212647  25.4459785
 135.5502440  60.1003920  26.1470325 135.3526840  59.5073281  25.4221391
 134.9949104  59.7956130  26.8646264 132.1102271  61.7854115  28.3138070
 132.7973311  61.4715845  27.7259085 131.9550400  62.6895480  28.0405322
 136.9136993  56.6744312  32.7423094 136.8295182  56.0669981  32.0073504
 136.0919700  57.1653330  32.7432590 131.6870247  59.8654708  30.5855537
 131.7254347  59.3318299  31.3792655 131.1810540  59.3389914  29.9666514
 135.3178825  58.5918811  23.6609469 135.6132266  57.6829489  23.6076522
 134.4166860  58.5706550  23.3390471 137.0466666  56.2732908  23.7848794
 136.7179372  55.3930287  23.6023900 137.4006037  56.2180577  24.6725183
 135.5052643  61.2616706  32.8034302 134.9606111  62.0376514  32.9354577
 136.3831993  61.6087511  32.6453424 136.2918665  60.3886602  35.6964459
 135.5500401  60.5369238  36.2829090 135.9711409  60.6494868  34.8331209
 136.7375279  68.2752031  27.7274854 137.5633298  67.9755803  27.3473497
 136.3869331  67.5059654  28.1764643 134.9383884  66.1938358  28.6863787
 134.1015792  65.7660532  28.5047789 134.9107529  66.3870801  29.6234579
 134.2533380  59.2547706  28.4712720 133.9336165  58.4013014  28.1787094
 133.7066808  59.4696284  29.2270687 134.1221640  62.8750617  30.4405841
 133.4285112  62.4604570  29.9275796 134.8694631  62.9171154  29.8439260
 136.0358383  62.8068871  28.3171856 136.0129071  62.9056558  27.3653739
 136.3459019  63.6534022  28.6389022 137.0495989  70.4064646  29.4488668
 136.9150457  69.6465046  28.8826666 136.6328052  71.1305545  28.9817457
 134.5380057  57.7684276  35.6981465 135.1838921  57.2583230  36.1868690
 134.3297208  58.5052958  36.2724890   0.8229707  58.3522554 116.2937823
   1.3481031  58.6909827 115.5687143   0.7352060  57.4169570 116.1100958
   6.9713353  68.8807797 123.5301731   7.6091763  68.7614544 122.8265071
   6.8534196  69.8288641 123.5889683   3.7803060  68.8335225 123.4663256
   3.4421571  68.7176290 122.5783790   4.6492828  68.4326390 123.4464262
   5.2189434  74.3541669 114.7674611   4.5677414  74.9395749 114.3808625
   6.0133797  74.8847864 114.8269649   1.9086310  70.1484037 124.9630005
   2.5049883  69.9240059 124.2486968   1.9661282  69.4068782 125.5655453
   1.4811339  67.6023472 112.7980196   1.7336860  67.0804994 112.0363659
   0.5435898  67.4389618 112.9006879   6.5254622  66.6059251 120.6054939
   7.3117711  66.1878674 120.2545356   6.7893326  67.5105343 120.7736587
   6.6964699  72.0432101 115.3043596   6.0610532  72.1166727 116.0164500
   6.3662105  72.6325700 114.6262675  11.9263049  66.5434484 121.5087917
  12.6588221  65.9733701 121.7425747  11.1702405  66.1556084 121.9494423
   1.2007628  69.5051578 115.0004571   1.0843886  68.8296482 115.6685655
   1.3109888  69.0183952 114.1836724   3.5439169  68.9661725 118.7051260
   3.1797376  68.4392346 119.4164181   4.4006284  68.5760194 118.5317745
   3.1844656  63.9951625 113.7012608   3.3519058  64.8631861 114.0683079
   2.9941825  64.1578907 112.7773898   5.9419989  72.4568604 125.3678439
   5.6420712  73.3593643 125.2594246   5.5971048  72.1900787 126.2199592
   9.3417133  64.9751144 123.0475876   8.4334010  64.9066553 122.7534637
   9.2904728  65.4523089 123.8757702   3.1633876  66.4509283 114.6859275
   3.0433502  66.8966333 115.5244755   2.4686465  66.7994600 114.1272813
  11.2078779  63.1767582 124.8253750  10.5653159  63.4700116 124.1793545
  10.7033707  63.0620503 125.6306947   8.8618943  66.9230756 115.5139609
   9.7736799  67.1558142 115.3387307   8.3528590  67.5067800 114.9514688
   7.4688525  71.9056574 122.9053191   6.8397387  72.0702288 122.2029259
   7.0814187  72.3198184 123.6764155  11.3477757  72.8411012 120.2597554
  10.6628795  73.2209913 119.7094588  11.4321606  73.4506339 120.9929502
   8.6028688  70.4870971 126.8592898   8.8145584  71.1302731 126.1827279
   8.5558437  69.6533288 126.3914828   3.0216487  71.6430982 120.1703276
   3.4854832  71.9218685 119.3807898   2.7573285  70.7414427 119.9876367
   1.9585373  67.7654135 116.9792841   2.6609416  68.2175178 117.4466767
   1.6266001  67.1237953 117.6072734   9.7174516  73.3642926 125.0315255
  10.5391960  72.9623114 124.7497937   9.7136919  73.2611161 125.9831371
  17.8080509  69.7081675 121.3800227  17.0544218  69.1389073 121.2244231
  17.9428051  69.6744339 122.3270862   3.1979137  74.5795077 117.0554946
   3.0624812  75.4246613 117.4839794   3.7388950  74.7814355 116.2920880
   6.5121884  68.0934250 114.0926275   5.9968507  68.8638855 114.3314662
   6.2399192  67.4199386 114.7159336   4.0968995  62.9383951 119.1511513
   3.2410591  62.5490801 118.9717152   4.5095947  63.0175912 118.2911299
  11.4856158  70.8466605 116.0279448  10.7085601  70.5077764 115.5834610
  12.1647639  70.8519228 115.3534413   6.3008187  65.9661342 115.9186056
   5.9958322  66.2807491 116.7696199   7.2538629  66.0442762 115.9613389
   4.7454619  72.1251566 117.5679010   4.2175980  71.3904325 117.2552247
   4.2442121  72.9026242 117.3218978   9.7247465  70.3200586 122.6846056
   9.0671139  71.0099848 122.7726185  10.5287864  70.7097018 123.0280043
   8.5352924  68.6744959 120.7349998   9.0484805  69.3074951 121.2371708
   9.1854147  68.0746154 120.3693358   1.7796014  59.6612481 118.6560691
   1.1260426  59.3461498 118.0317306   1.7376488  59.0388221 119.3820514
   2.8907219  69.9431776 110.5713983   1.9834281  69.7121029 110.7705132
   3.3878251  69.1469395 110.7587964   5.7975298  78.6529283 113.4910669
   5.1236997  78.9560980 114.0995627   6.1841120  79.4558363 113.1416126
   5.0133754  66.1494414 122.9808338   4.0956316  66.3709361 122.8230027
   5.4293898  66.2240725 122.1220046   5.7968802  67.5485830 118.1111019
   6.5440621  68.0607227 117.8018141   6.0660392  67.2269883 118.9715412
   4.0695452  70.0444371 115.0937973   3.1606672  69.7603404 115.1910443
   4.0990536  70.4643449 114.2341280   9.3014720  73.6550960 118.8629141
   8.8477047  72.8141870 118.9194331   8.6708686  74.2912359 119.2003921
   8.2447639  64.5842946 120.0929808   7.5070396  64.0720332 120.4240051
   8.4974413  64.1443328 119.2813085   7.7447659  75.4927457 119.7978959
   8.0370633  76.0532514 119.0791324   8.2546280  75.7856018 120.5532118
   8.3459267  57.3619198 120.6871577   8.6518143  56.5016562 120.3997492
   9.0711871  57.9536818 120.4870571   2.6180346  67.6572991 121.1947768
   2.6728956  66.7046828 121.1190245   1.8071548  67.8132430 121.6789067
   3.7671540  71.5853114 112.4326052   3.3290970  70.8688973 111.9731689
   4.5081981  71.8129229 111.8711143   2.7081284  76.2707808 120.8872412
   2.6657463  76.4968654 119.9580944   3.6243983  76.0371183 121.0358213
  11.8844655  69.8610311 118.4902370  11.7462554  70.0511907 117.5623559
  11.5280874  70.6229694 118.9470421  11.9114035  71.9286838 123.5013642
  12.3450541  71.8362128 124.3496696  12.6245615  71.9044339 122.8633658
  12.7729584  71.9710539 126.0346527  12.9665474  72.8756350 126.2805802
  12.6730202  71.5117958 126.8685112   4.6030029  69.6949195 126.5933674
   5.5322089  69.8460354 126.4202641   4.1821059  69.7833215 125.7382321
   3.9966513  78.8208955 115.7057748   4.1718269  78.3496999 116.5203371
   3.3099301  79.4474722 115.9339009   4.9523576  73.0981462 121.7521050
   4.6173409  73.0582232 122.6478699   4.4527522  72.4326178 121.2791460
   7.8882768  70.4437496 112.0258109   7.2711938  69.7184324 111.9291162
   7.4199256  71.2046856 111.6825183   9.5454307  73.1175988 127.9177869
   8.6581085  72.7801910 128.0404268  10.1152858  72.3859020 128.1546635
   2.8645240  77.0149211 118.3941934   2.0812762  77.5570891 118.4880159
   3.5637985  77.5323190 118.7936175   6.1741890  62.8243840 121.0376139
   6.6710589  62.0713803 120.7177210   5.4028871  62.8608157 120.4719349
  14.0271647  68.5284206 122.6794431  14.0161523  69.4108921 122.3088364
  13.1589027  68.1755757 122.4848968   7.2571671  71.5815527 118.6114563
   6.3227949  71.7016990 118.4419267   7.4348339  70.6787994 118.3474573
   2.7576859  64.9661223 120.7647824   2.3874646  64.4132264 121.4528730
   3.2535951  64.3619357 120.2122824  10.6444222  67.4232847 119.1464597
  11.1104674  68.2560838 119.0724900  11.0951722  66.9577828 119.8509855
   8.7120453  73.7676668 116.1450749   8.9880297  73.6533263 117.0544623
   7.8424952  73.3694153 116.1062922   8.3867343  67.9803326 125.6855392
   7.7338793  68.2279233 125.0307845   8.7647723  67.1667464 125.3517870
   5.3474517  78.0163019 119.7883563   5.5296912  77.1984675 120.2511315
   6.1707503  78.2330711 119.3508453   5.6816682  76.9431204 117.0498611
   6.2104449  76.4323659 116.4368773   5.9444902  76.6273734 117.9144144
   6.3146086  77.9772040 123.3942728   6.1897226  77.1761780 122.8853673
   6.9725177  78.4718233 122.9056697   8.3780995  75.7781060 125.0222278
   7.4311330  75.6586411 124.9500604   8.7263768  74.8903558 125.1048539
   5.3827428  75.5733776 121.2226630   5.2352390  74.6450483 121.4034200
   6.2080921  75.5953867 120.7383705   8.9861550  76.3962335 122.3091503
   9.9108097  76.1905196 122.1715954   8.8176853  76.1478736 123.2180844
   1.2357819  62.7226465 115.2800415   1.9566182  63.1007717 114.7764132
   0.6123124  63.4415341 115.3835393   5.3788942  63.4271614 116.2158747
   5.5952557  64.3096252 115.9147575   4.8983009  63.0357827 115.4864389
   8.7756866  76.9148002 117.6653594   8.9493744  76.3494425 116.9127446
   9.2685757  77.7148897 117.4833084   1.3821442  62.2574255 118.1097951
   1.5037354  61.3290901 118.3088839   1.0923485  62.2712941 117.1976267
  14.6296257  69.6784425 119.2843894  15.0727403  68.9291750 118.8863017
  13.7522767  69.6694561 118.9017626   9.7632039  76.2314767 114.7650492
  10.4582943  76.8521459 114.9837807  10.1055189  75.3810118 115.0402870
  11.6623462  73.6814472 116.2937823  12.1874786  74.0201745 115.5687143
  11.5745814  72.7461487 116.1100958  11.4715243  71.1639842 128.9121750
  11.5213248  70.9989850 129.8537272  11.3629166  70.2967101 128.5219630
  12.9733440  73.5836784 129.1563771  12.6818248  73.9466764 129.9927232
  12.3605571  72.8703792 128.9777103  14.1729122  71.1489663 121.6766341
  15.0076013  71.5879467 121.8403902  14.3088251  70.6728317 120.8574587
  11.2220628  68.7069398 127.6243829  11.6974749  68.8997045 126.8162680
  10.2986193  68.7628584 127.3787213   3.8546907  76.3376518 113.6725586
   3.2820874  76.9566705 113.2196058   4.4279701  76.8875880 114.2065508
   9.9222297  65.5835158 125.8572135  10.8739720  65.6833256 125.8784359
   9.7525747  64.7913427 126.3670219   7.0744167  76.6213668 114.8034168
   8.0074840  76.5559230 115.0067044   6.9867380  77.4569935 114.3448701
   9.7032183  75.9379539 111.7638116   9.6245815  75.6039402 112.6573874
  10.5241850  76.4301307 111.7629588  12.4010375  68.8041278 124.9714434
  12.3686695  67.8657279 125.1574118  13.0110998  68.8825315 124.2380259
   4.2393705  67.6737331 111.0141638   5.1852810  67.5443539 111.0830056
   3.8607950  66.9351993 111.4911067  12.5504863  65.5952321 125.0172718
  12.0343912  64.8110778 124.8302646  13.4344812  65.2671038 125.1819237
  10.2115590  59.3393337 120.9768530  10.0140411  59.0308425 121.8611862
  10.8215296  60.0654976 121.1066460  18.2186924  69.8657285 124.1120471
  18.9490313  69.6042573 124.6728174  17.6093870  69.1286007 124.1522539
  16.3002222  68.0065147 124.7094922  15.5735385  67.8721112 124.1011414
  15.8849508  68.3141976 125.5151640   2.4236623  65.5987307 110.9496524
   1.5168078  65.3020420 111.0259237   2.7012604  65.3017125 110.0830810
   4.0398688  60.1424197 117.1040765   3.2299417  59.7971282 117.4796011
   4.7283105  59.8331741 117.6928376   5.9689237  59.2202244 118.7265062
   6.5220275  59.6397697 119.3855085   6.2059323  58.2937992 118.7688018
   1.1935407  62.4574243 111.0908503   2.0554571  62.7829141 111.3504320
   1.3785751  61.6705739 110.5781569   9.3468044  61.3302769 118.2343726
   8.7666713  61.9887573 117.8521778   9.0803976  60.5080114 117.8231143
   7.7971610  60.7307827 120.4365046   8.2971388  60.8424361 119.6279365
   8.4407218  60.4268880 121.0765855   8.1292922  63.4902859 117.2900074
   7.2418777  63.7752510 117.0720269   8.5446911  63.3296623 116.4427351
  11.4807458  63.5149380 121.0054413  12.2567848  64.0045833 121.2779030
  10.7555592  63.9407435 121.4626283  13.9180016  64.2277000 122.0628354
  14.5124507  63.9872736 121.3521662  13.9906600  63.5084130 122.6901890
   7.2736135  73.2547534 111.3848094   7.9771985  73.4597537 112.0005750
   6.5498784  73.8224296 111.6497178   8.1033945  69.0057395 117.5050364
   8.0469147  69.4625947 116.6657997   8.6562288  68.2448080 117.3273207
  11.9138751  64.7947127 118.3300484  11.6575686  64.3943763 119.1608691
  11.2891619  65.5090921 118.2050623  16.2251089  67.5343201 120.8371775
  15.6650647  67.6036390 121.6103337  15.6194593  67.3584185 120.1171271
   9.1822833  73.6930063 113.4346554  10.0168437  73.2611262 113.2524029
   9.0207176  73.5212077 114.3623449   8.8368725  70.1962177 114.8002893
   8.7817529  70.0306448 113.8591338   8.2114780  70.9038210 114.9565083
   2.1464850  59.6970286 114.3788212   2.1343520  60.6412126 114.5356483
   3.0388272  59.5140431 114.0847673   5.9616970  56.2913062 118.6334149
   5.1949366  55.7371549 118.7790831   6.3727675  56.3634931 119.4948300
  17.8107108  84.2099714 123.5301731  18.4485518  84.0906462 122.8265071
  17.6927951  85.1580558 123.5889683  14.6196814  84.1627143 123.4663256
  14.2815326  84.0468207 122.5783790  15.4886582  83.7618308 123.4464262
  10.4783630  86.0162619 119.4560147   9.9148495  85.9252556 118.6876434
  10.3636025  85.1962523 119.9362639  16.0583188  89.6833587 114.7674611
  15.4071168  90.2687667 114.3808625  16.8527551  90.2139782 114.8269649
   9.9838816  86.7722724 115.1661746  10.7569692  86.2251711 115.0274622
  10.3364214  87.6366973 115.3776207  12.7480065  85.4775955 124.9630005
  13.3443637  85.2531977 124.2486968  12.8055037  84.7360700 125.5655453
  12.3205093  82.9315390 112.7980196  12.5730614  82.4096911 112.0363659
  11.3829652  82.7681535 112.9006879  17.3648376  81.9351168 120.6054939
  18.1511465  81.5170591 120.2545356  17.6287081  82.8397260 120.7736587
  17.5358454  87.3724019 115.3043596  16.9004287  87.4458645 116.0164500
  17.2055860  87.9617617 114.6262675  22.7656803  81.8726401 121.5087917
  23.4981975  81.3025618 121.7425747  22.0096159  81.4848002 121.9494423
  12.0401382  84.8343496 115.0004571  11.9237640  84.1588399 115.6685655
  12.1503642  84.3475870 114.1836724  14.3832923  84.2953643 118.7051260
  14.0191130  83.7684264 119.4164181  15.2400039  83.9052112 118.5317745
  20.2882224  75.5847976 125.9682526  19.9565548  76.4543387 125.7443741
  19.6927837  75.2684260 126.6476556  14.0238410  79.3243543 113.7012608
  14.1912812  80.1923779 114.0683079  13.8335579  79.4870824 112.7773898
  16.7813743  87.7860522 125.3678439  16.4814466  88.6885560 125.2594246
  16.4364803  87.5192705 126.2199592  10.2326225  84.2374318 121.4015143
   9.3076721  84.1050533 121.6092835  10.4810638  85.0168538 121.8985086
  20.1810887  80.3043062 123.0475876  19.2727764  80.2358470 122.7534637
  20.1298483  80.7815007 123.8757702  14.0027631  81.7801200 114.6859275
  13.8827256  82.2258251 115.5244755  13.3080219  82.1286518 114.1272813
  11.7634523  94.5504842 118.3349406  11.6858553  95.5012667 118.4137887
  11.1596167  94.2050714 118.9924333  22.0472533  78.5059500 124.8253750
  21.4046914  78.7992033 124.1793545  21.5427462  78.3912421 125.6306947
  19.7012697  82.2522673 115.5139609  20.6130553  82.4850060 115.3387307
  19.1922344  82.8359718 114.9514688  14.3384535  81.6119908 126.5234459
  15.1845730  82.0359322 126.6669108  14.2783172  80.9553532 127.2173022
  18.3082279  87.2348492 122.9053191  17.6791142  87.3994206 122.2029259
  17.9207941  87.6490101 123.6764155  22.1871511  88.1702930 120.2597554
  21.5022549  88.5501831 119.7094588  22.2715361  88.7798256 120.9929502
  17.4883980  79.2724276 128.1815632  17.2444912  80.0266337 127.6449908
  17.7643911  79.6509624 129.0162879  19.4422443  85.8162889 126.8592898
  19.6539338  86.4594649 126.1827279  19.3952191  84.9825205 126.3914828
  17.0448672  78.4280709 123.7629470  16.1833151  78.7261963 124.0546208
  17.0711106  78.6451108 122.8310503  13.8610241  86.9722900 120.1703276
  14.3248587  87.2510603 119.3807898  13.5967039  86.0706344 119.9876367
  10.7534322  86.5194381 123.1083039  11.3235679  86.9481650 122.4700524
  11.3442434  86.2376966 123.8067225  12.7979127  83.0946052 116.9792841
  13.5003171  83.5467096 117.4466767  12.4659756  82.4529871 117.6072734
   6.5404461  81.3529605 122.2809975   5.7503515  81.6087133 121.8050085
   7.0315709  82.1677943 122.3862015  20.5568271  88.6934844 125.0315255
  21.3785715  88.2915031 124.7497937  20.5530674  88.5903078 125.9831371
   8.4919207  81.7174184 119.2393451   7.6950370  81.8292878 119.7576947
   8.2644799  82.0560836 118.3734342  28.6474264  85.0373593 121.3800227
  27.8937972  84.4680991 121.2244231  28.7821805  85.0036257 122.3270862
  14.0372892  89.9086995 117.0554946  13.9018567  90.7538531 117.4839794
  14.5782704  90.1106273 116.2920880   7.4902289  87.4262433 117.6282871
   8.0026810  88.2205683 117.7788436   8.1425002  86.7288723 117.5616473
  17.3865355  73.4317557 125.5853840  17.0429625  74.3219198 125.5092950
  17.7544318  73.2419214 124.7223425   5.4551206  85.7551087 118.4042442
   6.2926428  86.1648096 118.1876150   5.6329474  84.8150529 118.3742636
  17.3515638  83.4226168 114.0926275  16.8362262  84.1930773 114.3314662
  17.0792947  82.7491304 114.7159336  14.9362749  78.2675869 119.1511513
  14.0804346  77.8782719 118.9717152  15.3489701  78.3467829 118.2911299
  16.4661896  75.8022212 123.5503073  15.9626691  75.7652347 122.7370878
  16.7592503  76.7114955 123.6099730  12.7104782  75.8860942 122.5569255
  13.5757779  75.6903750 122.1975144  12.7782291  75.6571293 123.4838611
  22.3249912  86.1758523 116.0279448  21.5479355  85.8369682 115.5834610
  23.0041393  86.1811146 115.3534413  17.1401941  81.2953260 115.9186056
  16.8352077  81.6099409 116.7696199  18.0932384  81.3734680 115.9613389
  15.5848373  87.4543483 117.5679010  15.0569735  86.7196243 117.2552247
  15.0835876  88.2318160 117.3218978  20.5641219  85.6492504 122.6846056
  19.9064894  86.3391765 122.7726185  21.3681618  86.0388936 123.0280043
  10.3167101  78.1163150 119.9285621  10.8910853  77.8938331 119.1958814
  10.9038083  78.1851844 120.6814223  19.3746678  84.0036876 120.7349998
  19.8878560  84.6366868 121.2371708  20.0247902  83.4038072 120.3693358
  10.6436688  80.1467611 113.9481507   9.8074000  80.4842297 114.2690781
  10.5041458  80.0116590 113.0108644  12.6189769  74.9904398 118.6560691
  11.9654181  74.6753416 118.0317306  12.5770243  74.3680139 119.3820514
  13.7300973  85.2723694 110.5713983  12.8228035  85.0412947 110.7705132
  14.2272005  84.4761313 110.7587964  16.6369052  93.9821201 113.4910669
  15.9630751  94.2852898 114.0995627  17.0234874  94.7850281 113.1416126
  15.8527509  81.4786332 122.9808338  14.9350070  81.7001279 122.8230027
  16.2687653  81.5532642 122.1220046  16.6362557  82.8777748 118.1111019
  17.3834376  83.3899145 117.8018141  16.9054146  82.5561800 118.9715412
  14.9089207  85.3736288 115.0937973  14.0000426  85.0895321 115.1910443
  14.9384291  85.7935367 114.2341280  20.1408474  88.9842878 118.8629141
  19.6870801  88.1433788 118.9194331  19.5102441  89.6204276 119.2003921
  19.0841394  79.9134864 120.0929808  18.3464151  79.4012250 120.4240051
  19.3368167  79.4735246 119.2813085  18.5841414  90.8219375 119.7978959
  18.8764388  91.3824432 119.0791324  19.0940034  91.1147936 120.5532118
  19.1853021  72.6911116 120.6871577  19.4911898  71.8308479 120.3997492
  19.9105626  73.2828736 120.4870571   5.4777377  83.0941803 119.0753175
   5.2801777  82.5011163 118.3504242   4.9224041  82.7894013 119.7929114
  13.4574101  82.9864909 121.1947768  13.5122711  82.0338745 121.1190245
  12.6465303  83.1424348 121.6789067  14.6065295  86.9145032 112.4326052
  14.1684725  86.1980891 111.9731689  15.3475736  87.1421147 111.8711143
  11.3966461  81.6041969 118.9538147  10.5834326  81.9036139 119.3603339
  11.8925455  81.2097658 119.6712630  13.5475039  91.5999726 120.8872412
  13.5051217  91.8260572 119.9580944  14.4637738  91.3663100 121.0358213
  16.9940672  82.0683793 127.7853041  17.3490060  82.2955266 128.6447507
  17.6412804  82.4002170 127.1630296  22.7238409  85.1902229 118.4902370
  22.5856308  85.3803825 117.5623559  22.3674628  85.9521612 118.9470421
  10.8880536  79.1760324 124.5699382  11.5279915  79.0349083 123.8722346
  10.0558066  78.8894838 124.1937984  22.7507789  87.2578756 123.5013642
  23.1844296  87.1654045 124.3496696  23.4639370  87.2336257 122.8633658
  11.6640839  88.4762755 120.6834375  12.4581438  87.9813075 120.4816950
  10.9532532  87.9480618 120.3202080   7.9723603  82.6205836 116.7594127
   7.0421191  82.5590292 116.9764089   8.0681075  82.0981789 115.9630769
   7.8909152  79.1460649 119.3472369   8.1515969  80.0605983 119.2381529
   8.7126324  78.6785092 119.4968982  23.6123339  87.3002457 126.0346527
  23.8059229  88.2048267 126.2805802  23.5123957  86.8409876 126.8685112
  15.2659649  77.1860347 128.5336854  14.6187564  77.8850297 128.4401331
  16.0360665  77.6196491 128.9013103  15.4423784  85.0241112 126.5933674
  16.3715844  85.1752272 126.4202641  15.0214814  85.1125133 125.7382321
  14.8360267  94.1500873 115.7057748  15.0112023  93.6788916 116.5203371
  14.1493055  94.7766639 115.9339009  15.7917331  88.4273379 121.7521050
  15.4567163  88.3874149 122.6478699  15.2921276  87.7618095 121.2791460
  18.7276522  85.7729414 112.0258109  18.1105693  85.0476242 111.9291162
  18.2593011  86.5338774 111.6825183  10.5175068  79.9914838 111.1479413
   9.6404534  79.8703639 110.7841660  10.9932821  79.2000916 110.8958302
  20.3848061  88.4467906 127.9177869  19.4974840  88.1093828 128.0404268
  20.9546612  87.7150937 128.1546635  13.7038994  92.3441128 118.3941934
  12.9206516  92.8862809 118.4880159  14.4031739  92.8615108 118.7936175
  17.0135644  78.1535758 121.0376139  17.5104344  77.4005720 120.7177210
  16.2422626  78.1900075 120.4719349  24.8665402  83.8576123 122.6794431
  24.8555278  84.7400839 122.3088364  23.9982781  83.5047674 122.4848968
  18.0965425  86.9107445 118.6114563  17.1621704  87.0308908 118.4419267
  18.2742093  86.0079912 118.3474573  13.5970613  80.2953141 120.7647824
  13.2268401  79.7424181 121.4528730  14.0929706  79.6911274 120.2122824
  21.4837976  82.7524764 119.1464597  21.9498429  83.5852756 119.0724900
  21.9345477  82.2869746 119.8509855  19.5514207  89.0968586 116.1450749
  19.8274051  88.9825180 117.0544623  18.6818706  88.6986071 116.1062922
  19.4554639  75.1205351 123.1855498  18.5417719  75.3509578 123.3537705
  19.8847741  75.2043795 124.0369531  19.2261098  83.3095243 125.6855392
  18.5732548  83.5571151 125.0307845  19.6041478  82.4959382 125.3517870
  16.1868271  93.3454937 119.7883563  16.3690666  92.5276592 120.2511315
  17.0101257  93.5622629 119.3508453  16.5210437  92.2723122 117.0498611
  17.0498203  91.7615576 116.4368773  16.7838657  91.9565652 117.9144144
   8.9935947  77.7057132 127.0100930   9.0577273  78.5671963 126.5978328
   8.9303067  77.0931133 126.2773289   5.2453762  81.5856693 116.5892319
   5.5407203  80.6767372 116.5359373   4.3441798  81.5644433 116.2673321
  17.1539841  93.3063957 123.3942728  17.0290980  92.5053697 122.8853673
  17.8118932  93.8010151 122.9056697   8.7748009  79.6612690 122.5719868
   8.0534595  80.2748658 122.4327341   9.5641265  80.1970455 122.4936514
  19.2174749  91.1072977 125.0222278  18.2705085  90.9878329 124.9500604
  19.5657522  90.2195475 125.1048539  11.5774323  76.9967116 128.8460520
  12.1008724  77.2429413 129.6086829  11.3586656  77.8287151 128.4263657
   6.9741604  79.2670791 116.7131644   6.6454310  78.3868170 116.5306750
   7.3280974  79.2118460 117.6008034  16.2221182  90.9025694 121.2226630
  16.0746145  89.9742401 121.4034200  17.0474676  90.9245784 120.7383705
  10.0883427  79.5543761 117.0807122  10.4279499  80.0829682 116.3585730
  10.5355547  79.8924167 117.8565689  19.8255304  91.7254252 122.3091503
  20.7501852  91.5197114 122.1715954  19.6570608  91.4770654 123.2180844
  12.7826868  77.9380811 126.5310190  12.4423688  77.1388625 126.9330870
  12.0765874  78.2382522 125.9587023  13.4343339  75.0230124 124.9837513
  14.2569409  74.5490602 124.8616403  13.6781403  75.8020608 125.4836199
  12.0751574  78.0518382 115.2800415  12.7959936  78.4299635 114.7764132
  11.4516878  78.7707259 115.3835393  16.2182697  78.7563531 116.2158747
  16.4346311  79.6388169 115.9147575  15.7376764  78.3649745 115.4864389
  10.9581918  81.7149245 122.7929492  10.8126499  82.0289548 123.6853773
  10.4807122  82.3334145 122.2400390  12.8178301  78.7051793 122.8410381
  12.8039870  77.8092886 122.5042679  13.5350729  78.7122456 123.4748667
  14.6704432  79.1389133 124.8863509  14.4122210  80.0606203 124.8847839
  14.1389472  78.7419567 125.5763973  19.6150621  92.2439920 117.6653594
  19.7887498  91.6786342 116.9127446  20.1079512  93.0440815 117.4833084
  12.2215197  77.5866173 118.1097951  12.3431108  76.6582819 118.3088839
  11.9317239  77.6004859 117.1976267  15.0906387  75.2721083 121.2464671
  15.1128084  75.3360416 120.2916651  15.5074446  74.4325592 121.4405177
  25.4690012  85.0076343 119.2843894  25.9121158  84.2583668 118.8863017
  24.5916522  84.9986479 118.9017626  20.6025793  91.5606684 114.7650492
  21.2976698  92.1813377 114.9837807  20.9448943  90.7102035 115.0402870
  22.5017216  89.0106390 116.2937823  23.0268540  89.3493663 115.5687143
  22.4139569  88.0753405 116.1100958  22.3108997  86.4931760 128.9121750
  22.3607002  86.3281767 129.8537272  22.2022921  85.6259019 128.5219630
  11.1945256  89.1720305 116.2013838  11.3433376  89.8555770 115.5480511
  12.0011699  89.1525396 116.7163294  19.6012760  82.4762688 130.2281056
  20.5022622  82.3369153 129.9365054  19.6760734  82.6417143 131.1679234
  23.8127194  88.9128701 129.1563771  23.5212002  89.2758682 129.9927232
  23.1999325  88.1995710 128.9777103  25.0122876  86.4781581 121.6766341
  25.8469768  86.9171385 121.8403902  25.1482005  86.0020234 120.8574587
  22.0614382  84.0361316 127.6243829  22.5368504  84.2288962 126.8162680
  21.1379948  84.0920502 127.3787213   8.9497889  85.1985483 117.2074907
   8.7043931  84.2947813 117.4055118   9.1193803  85.2002634 116.2654385
  16.6394599  76.0709160 126.5899663  17.1576543  76.8070186 126.2646152
  16.2849732  76.3773153 127.4246422   8.2193536  80.9313841 114.7061069
   7.5262781  81.0058196 114.0501105   7.9745288  80.1674184 115.2282586
  16.8907193  72.4909442 122.1100560  17.1708947  71.8232631 122.7360986
  17.6757800  72.6838538 121.5975223  14.6940661  91.6668436 113.6725586
  14.1214629  92.2858623 113.2196058  15.2673455  92.2167798 114.2065508
  20.7616051  80.9127076 125.8572135  21.7133474  81.0125174 125.8784359
  20.5919502  80.1205345 126.3670219  18.7830431  77.9982659 126.0431536
  18.1880363  78.2787672 125.3478024  18.4980127  78.4876560 126.8148277
  17.9137921  91.9505586 114.8034168  18.8468594  91.8851148 115.0067044
  17.8261134  92.7861853 114.3448701  20.5425938  91.2671456 111.7638116
  20.4639569  90.9331320 112.6573874  21.3635605  91.7593224 111.7629588
  23.2404129  84.1333196 124.9714434  23.2080449  83.1949196 125.1574118
  23.8504753  84.2117232 124.2380259  15.0787460  83.0029249 111.0141638
  16.0246565  82.8735457 111.0830056  14.7001705  82.2643911 111.4911067
  23.3898618  80.9244239 125.0172718  22.8737666  80.1402696 124.8302646
  24.2738566  80.5962956 125.1819237  21.0509345  74.6685255 120.9768530
  20.8534166  74.3600343 121.8611862  21.6609050  75.3946894 121.1066460
  29.0580679  85.1949203 124.1120471  29.7884067  84.9334491 124.6728174
  28.4487624  84.4577924 124.1522539  27.1395976  83.3357065 124.7094922
  26.4129140  83.2013030 124.1011414  26.7243263  83.6433894 125.5151640
  13.2630377  80.9279225 110.9496524  12.3561833  80.6312338 111.0259237
  13.5406358  80.6309043 110.0830810  14.8792443  75.4716115 117.1040765
  14.0693171  75.1263200 117.4796011  15.5676860  75.1623659 117.6928376
  16.8082991  74.5494162 118.7265062  17.3614030  74.9689615 119.3855085
  17.0453077  73.6229910 118.7688018  12.0329162  77.7866160 111.0908503
  12.8948326  78.1121059 111.3504320  12.2179506  76.9997656 110.5781569
  20.1861798  76.6594687 118.2343726  19.6060467  77.3179491 117.8521778
  19.9197731  75.8372031 117.8231143  18.6365365  76.0599744 120.4365046
  19.1365143  76.1716279 119.6279365  19.2800973  75.7560797 121.0765855
  18.9686676  78.8194777 117.2900074  18.0812531  79.1044428 117.0720269
  19.3840665  78.6588541 116.4427351  22.3201212  78.8441298 121.0054413
  23.0961602  79.3337751 121.2779030  21.5949347  79.2699352 121.4626283
  24.7573771  79.5568917 122.0628354  25.3518262  79.3164653 121.3521662
  24.8300355  78.8376048 122.6901890  18.1129890  88.5839452 111.3848094
  18.8165740  88.7889454 112.0005750  17.3892538  89.1516214 111.6497178
  18.9427700  84.3349313 117.5050364  18.8862901  84.7917864 116.6657997
  19.4956042  83.5739998 117.3273207  22.7532506  80.1239045 118.3300484
  22.4969440  79.7235681 119.1608691  22.1285374  80.8382839 118.2050623
  27.0644844  82.8635118 120.8371775  26.5044402  82.9328307 121.6103337
  26.4588347  82.6876103 120.1171271  20.0216587  89.0221981 113.4346554
  20.8562191  88.5903179 113.2524029  19.8600930  88.8503995 114.3623449
  19.6762479  85.5254094 114.8002893  19.6211283  85.3598366 113.8591338
  19.0508535  86.2330127 114.9565083  12.9858605  75.0262203 114.3788212
  12.9737275  75.9704043 114.5356483  13.8782027  74.8432349 114.0847673
  16.8010724  71.6204980 118.6334149  16.0343120  71.0663467 118.7790831
  17.2121429  71.6926849 119.4948300  28.6500862  99.5391632 123.5301731
  29.2879272  99.4198379 122.8265071  28.5321705 100.4872476 123.5889683
  25.4590568  99.4919060 123.4663256  25.1209080  99.3760125 122.5783790
  26.3280337  99.0910225 123.4464262  21.3177384 101.3454537 119.4560147
  20.7542249 101.2544474 118.6876434  21.2029779 100.5254441 119.9362639
  26.8976943 105.0125504 114.7674611  26.2464923 105.5979585 114.3808625
  27.6921306 105.5431699 114.8269649  20.8232570 102.1014641 115.1661746
  21.5963446 101.5543629 115.0274622  21.1757969 102.9658891 115.3776207
  23.5873819 100.8067872 124.9630005  24.1837392 100.5823895 124.2486968
  23.6448791 100.0652618 125.5655453  23.1598848  98.2607308 112.7980196
  23.4124369  97.7388829 112.0363659  22.2223407  98.0973453 112.9006879
  28.2042131  97.2643086 120.6054939  28.9905220  96.8462509 120.2545356
  28.4680835  98.1689178 120.7736587  28.3752208 102.7015936 115.3043596
  27.7398041 102.7750563 116.0164500  28.0449614 103.2909535 114.6262675
  33.6050558  97.2018319 121.5087917  34.3375730  96.6317536 121.7425747
  32.8489914  96.8139920 121.9494423  22.8795137 100.1635414 115.0004571
  22.7631395  99.4880317 115.6685655  22.9897397  99.6767787 114.1836724
  25.2226678  99.6245561 118.7051260  24.8584885  99.0976182 119.4164181
  26.0793793  99.2344030 118.5317745  31.1275978  90.9139893 125.9682526
  30.7959303  91.7835304 125.7443741  30.5321592  90.5976177 126.6476556
  24.8632165  94.6535460 113.7012608  25.0306567  95.5215697 114.0683079
  24.6729334  94.8162742 112.7773898  27.6207498 103.1152439 125.3678439
  27.3208221 104.0177478 125.2594246  27.2758557 102.8484622 126.2199592
  21.0719979  99.5666236 121.4015143  20.1470476  99.4342450 121.6092835
  21.3204392 100.3460455 121.8985086  31.0204641  95.6334979 123.0475876
  30.1121519  95.5650388 122.7534637  30.9692237  96.1106924 123.8757702
  24.8421385  97.1093118 114.6859275  24.7221011  97.5550169 115.5244755
  24.1473974  97.4578436 114.1272813  22.6028278 109.8796760 118.3349406
  22.5252307 110.8304585 118.4137887  21.9989921 109.5342632 118.9924333
  32.8866288  93.8351418 124.8253750  32.2440668  94.1283951 124.1793545
  32.3821216  93.7204338 125.6306947  30.5406452  97.5814591 115.5139609
  31.4524308  97.8141978 115.3387307  30.0316099  98.1651635 114.9514688
  25.1778289  96.9411826 126.5234459  26.0239484  97.3651239 126.6669108
  25.1176927  96.2845450 127.2173022  29.1476034 102.5640409 122.9053191
  28.5184896 102.7286124 122.2029259  28.7601696 102.9782019 123.6764155
  33.0265266 103.4994847 120.2597554  32.3416304 103.8793749 119.7094588
  33.1109115 104.1090174 120.9929502  28.3277735  94.6016194 128.1815632
  28.0838666  95.3558255 127.6449908  28.6037665  94.9801542 129.0162879
  30.2816197 101.1454806 126.8592898  30.4933093 101.7886566 126.1827279
  30.2345946 100.3117123 126.3914828  27.8842426  93.7572627 123.7629470
  27.0226905  94.0553881 124.0546208  27.9104861  93.9743026 122.8310503
  24.7003996 102.3014818 120.1703276  25.1642341 102.5802521 119.3807898
  24.4360794 101.3998262 119.9876367  21.5928077 101.8486299 123.1083039
  22.1629434 102.2773567 122.4700524  22.1836189 101.5668884 123.8067225
  23.6372882  98.4237970 116.9792841  24.3396925  98.8759014 117.4466767
  23.3053510  97.7821789 117.6072734  17.3798216  96.6821523 122.2809975
  16.5897270  96.9379051 121.8050085  17.8709463  97.4969860 122.3862015
  31.3962025 104.0226762 125.0315255  32.2179469 103.6206949 124.7497937
  31.3924428 103.9194996 125.9831371  19.3312961  97.0466102 119.2393451
  18.5344124  97.1584796 119.7576947  19.1038553  97.3852754 118.3734342
  39.4868018 100.3665510 121.3800227  38.7331727  99.7972908 121.2244231
  39.6215560 100.3328175 122.3270862  24.8766646 105.2378913 117.0554946
  24.7412321 106.0830448 117.4839794  25.4176459 105.4398190 116.2920880
  18.3296044 102.7554351 117.6282871  18.8420564 103.5497601 117.7788436
  18.9818757 102.0580641 117.5616473  28.2259110  88.7609474 125.5853840
  27.8823379  89.6511116 125.5092950  28.5938073  88.5711132 124.7223425
  16.2944961 101.0843005 118.4042442  17.1320183 101.4940013 118.1876150
  16.4723228 100.1442447 118.3742636  28.1909393  98.7518086 114.0926275
  27.6756016  99.5222690 114.3314662  27.9186701  98.0783222 114.7159336
  25.7756504  93.5967786 119.1511513  24.9198100  93.2074637 118.9717152
  26.1883456  93.6759747 118.2911299  27.3055650  91.1314130 123.5503073
  26.8020446  91.0944265 122.7370878  27.5986257  92.0406872 123.6099730
  23.5498536  91.2152859 122.5569255  24.4151533  91.0195668 122.1975144
  23.6176045  90.9863211 123.4838611  33.1643667 101.5050440 116.0279448
  32.3873110 101.1661600 115.5834610  33.8435148 101.5103063 115.3534413
  27.9795696  96.6245178 115.9186056  27.6745831  96.9391327 116.7696199
  28.9326138  96.7026598 115.9613389  26.4242128 102.7835401 117.5679010
  25.8963489 102.0488161 117.2552247  25.9229630 103.5610077 117.3218978
  31.4034974 100.9784421 122.6846056  30.7458648 101.6683683 122.7726185
  32.2075373 101.3680853 123.0280043  21.1560855  93.4455067 119.9285621
  21.7304607  93.2230249 119.1958814  21.7431838  93.5143762 120.6814223
  30.2140433  99.3328794 120.7349998  30.7272314  99.9658786 121.2371708
  30.8641656  98.7329990 120.3693358  21.4830442  95.4759528 113.9481507
  20.6467755  95.8134215 114.2690781  21.3435212  95.3408508 113.0108644
  23.4583523  90.3196316 118.6560691  22.8047935  90.0045333 118.0317306
  23.4163997  89.6972057 119.3820514  24.5694728 100.6015611 110.5713983
  23.6621790 100.3704865 110.7705132  25.0665760  99.8053230 110.7587964
  27.4762807 109.3113118 113.4910669  26.8024506 109.6144815 114.0995627
  27.8628629 110.1142199 113.1416126  26.6921263  96.8078250 122.9808338
  25.7743825  97.0293197 122.8230027  27.1081407  96.8824560 122.1220046
  27.4756311  98.2069665 118.1111019  28.2228130  98.7191063 117.8018141
  27.7447901  97.8853718 118.9715412  25.7482961 100.7028206 115.0937973
  24.8394181 100.4187239 115.1910443  25.7778045 101.1227285 114.2341280
  30.9802229 104.3134796 118.8629141  30.5264556 103.4725705 118.9194331
  30.3496195 104.9496194 119.2003921  29.9235148  95.2426782 120.0929808
  29.1857905  94.7304168 120.4240051  30.1761922  94.8027163 119.2813085
  29.4235168 106.1511292 119.7978959  29.7158142 106.7116349 119.0791324
  29.9333789 106.4439853 120.5532118  30.0246776  88.0203034 120.6871577
  30.3305652  87.1600397 120.3997492  30.7499380  88.6120654 120.4870571
  16.3171132  98.4233720 119.0753175  16.1195532  97.8303081 118.3504242
  15.7617796  98.1185930 119.7929114  24.2967855  98.3156827 121.1947768
  24.3516465  97.3630663 121.1190245  23.4859057  98.4716266 121.6789067
  25.4459049 102.2436950 112.4326052  25.0078479 101.5272809 111.9731689
  26.1869490 102.4713065 111.8711143  22.2360215  96.9333886 118.9538147
  21.4228081  97.2328057 119.3603339  22.7319209  96.5389575 119.6712630
  24.3868793 106.9291643 120.8872412  24.3444972 107.1552490 119.9580944
  25.3031492 106.6955018 121.0358213  27.8334427  97.3975711 127.7853041
  28.1883815  97.6247184 128.6447507  28.4806558  97.7294088 127.1630296
  33.5632164 100.5194147 118.4902370  33.4250063 100.7095743 117.5623559
  33.2068383 101.2813530 118.9470421  21.7274290  94.5052242 124.5699382
  22.3673669  94.3641001 123.8722346  20.8951821  94.2186755 124.1937984
  33.5901544 102.5870674 123.5013642  34.0238050 102.4945963 124.3496696
  34.3033124 102.5628174 122.8633658  22.5034594 103.8054672 120.6834375
  23.2975192 103.3104993 120.4816950  21.7926286 103.2772536 120.3202080
  18.8117357  97.9497754 116.7594127  17.8814946  97.8882210 116.9764089
  18.9074829  97.4273707 115.9630769  18.7302906  94.4752567 119.3472369
  18.9909724  95.3897900 119.2381529  19.5520079  94.0077010 119.4968982
  34.4517093 102.6294374 126.0346527  34.6452983 103.5340185 126.2805802
  34.3517711 102.1701794 126.8685112  26.1053404  92.5152265 128.5336854
  25.4581319  93.2142215 128.4401331  26.8754419  92.9488409 128.9013103
  26.2817538 100.3533030 126.5933674  27.2109598 100.5044190 126.4202641
  25.8608568 100.4417051 125.7382321  25.6754022 109.4792791 115.7057748
  25.8505778 109.0080834 116.5203371  24.9886810 110.1058557 115.9339009
  26.6311085 103.7565297 121.7521050  26.2960918 103.7166067 122.6478699
  26.1315031 103.0910013 121.2791460  29.5670277 101.1021331 112.0258109
  28.9499447 100.3768160 111.9291162  29.0986765 101.8630692 111.6825183
  21.3568823  95.3206756 111.1479413  20.4798289  95.1995557 110.7841660
  21.8326576  94.5292834 110.8958302  31.2241816 103.7759824 127.9177869
  30.3368594 103.4385745 128.0404268  31.7940367 103.0442855 128.1546635
  24.5432749 107.6733046 118.3941934  23.7600271 108.2154726 118.4880159
  25.2425494 108.1907026 118.7936175  27.8529399  93.4827676 121.0376139
  28.3498098  92.7297638 120.7177210  27.0816380  93.5191992 120.4719349
  35.7059156  99.1868041 122.6794431  35.6949032 100.0692757 122.3088364
  34.8376536  98.8339592 122.4848968  28.9359180 102.2399363 118.6114563
  28.0015458 102.3600825 118.4419267  29.1135848 101.3371830 118.3474573
  24.4364368  95.6245059 120.7647824  24.0662155  95.0716099 121.4528730
  24.9323460  95.0203192 120.2122824  32.3231731  98.0816682 119.1464597
  32.7892183  98.9144674 119.0724900  32.7739231  97.6161664 119.8509855
  30.3907962 104.4260503 116.1450749  30.6667806 104.3117098 117.0544623
  29.5212461 104.0277988 116.1062922  30.2948394  90.4497269 123.1855498
  29.3811473  90.6801496 123.3537705  30.7241495  90.5335713 124.0369531
  30.0654852  98.6387161 125.6855392  29.4126302  98.8863068 125.0307845
  30.4435232  97.8251299 125.3517870  27.0262026 108.6746854 119.7883563
  27.2084421 107.8568510 120.2511315  27.8495012 108.8914546 119.3508453
  27.3604191 107.6015039 117.0498611  27.8891958 107.0907494 116.4368773
  27.6232411 107.2857570 117.9144144  19.8329701  93.0349049 127.0100930
  19.8971028  93.8963880 126.5978328  19.7696821  92.4223051 126.2773289
  16.0847517  96.9148611 116.5892319  16.3800958  96.0059289 116.5359373
  15.1835552  96.8936350 116.2673321  27.9933595 108.6355875 123.3942728
  27.8684735 107.8345615 122.8853673  28.6512686 109.1302068 122.9056697
  19.6141764  94.9904608 122.5719868  18.8928349  95.6040575 122.4327341
  20.4035019  95.5262372 122.4936514  30.0568504 106.4364895 125.0222278
  29.1098839 106.3170246 124.9500604  30.4051277 105.5487393 125.1048539
  22.4168077  92.3259034 128.8460520  22.9402479  92.5721331 129.6086829
  22.1980410  93.1579069 128.4263657  17.8135358  94.5962709 116.7131644
  17.4848064  93.7160088 116.5306750  18.1674729  94.5410377 117.6008034
  27.0614937 106.2317611 121.2226630  26.9139899 105.3034319 121.4034200
  27.8868430 106.2537702 120.7383705  20.9277181  94.8835678 117.0807122
  21.2673254  95.4121600 116.3585730  21.3749302  95.2216085 117.8565689
  30.6649059 107.0546170 122.3091503  31.5895606 106.8489031 122.1715954
  30.4964362 106.8062571 123.2180844  23.6220622  93.2672729 126.5310190
  23.2817442  92.4680542 126.9330870  22.9159628  93.5674440 125.9587023
  24.2737094  90.3522042 124.9837513  25.0963163  89.8782520 124.8616403
  24.5175157  91.1312525 125.4836199  22.9145328  93.3810300 115.2800415
  23.6353691  93.7591553 114.7764132  22.2910633  94.0999177 115.3835393
  27.0576451  94.0855449 116.2158747  27.2740066  94.9680087 115.9147575
  26.5770518  93.6941662 115.4864389  21.7975673  97.0441162 122.7929492
  21.6520253  97.3581465 123.6853773  21.3200876  97.6626063 122.2400390
  23.6572056  94.0343710 122.8410381  23.6433624  93.1384804 122.5042679
  24.3744484  94.0414374 123.4748667  25.5098186  94.4681050 124.8863509
  25.2515964  95.3898121 124.8847839  24.9783227  94.0711485 125.5763973
  30.4544375 107.5731838 117.6653594  30.6281253 107.0078260 116.9127446
  30.9473266 108.3732732 117.4833084  23.0608951  92.9158090 118.1097951
  23.1824863  91.9874737 118.3088839  22.7710994  92.9296776 117.1976267
  25.9300142  90.6013001 121.2464671  25.9521839  90.6652334 120.2916651
  26.3468201  89.7617510 121.4405177  36.3083766 100.3368260 119.2843894
  36.7514912  99.5875586 118.8863017  35.4310276 100.3278397 118.9017626
  31.4419548 106.8898602 114.7650492  32.1370452 107.5105295 114.9837807
  31.7842698 106.0393953 115.0402870  33.3410971 104.3398307 116.2937823
  33.8662295 104.6785580 115.5687143  33.2533323 103.4045323 116.1100958
  33.1502752 101.8223677 128.9121750  33.2000757 101.6573685 129.8537272
  33.0416675 100.9550936 128.5219630  22.0339010 104.5012223 116.2013838
  22.1827131 105.1847688 115.5480511  22.8405454 104.4817313 116.7163294
  30.4406514  97.8054605 130.2281056  31.3416377  97.6661070 129.9365054
  30.5154489  97.9709060 131.1679234  34.6520949 104.2420619 129.1563771
  34.3605757 104.6050600 129.9927232  34.0393080 103.5287627 128.9777103
  35.8516631 101.8073499 121.6766341  36.6863522 102.2463303 121.8403902
  35.9875760 101.3312152 120.8574587  32.9008137  99.3653234 127.6243829
  33.3762258  99.5580880 126.8162680  31.9773702  99.4212419 127.3787213
  19.7891643 100.5277401 117.2074907  19.5437685  99.6239731 117.4055118
  19.9587558 100.5294551 116.2654385  27.4788353  91.4001077 126.5899663
  27.9970297  92.1362104 126.2646152  27.1243486  91.7065070 127.4246422
  19.0587291  96.2605758 114.7061069  18.3656536  96.3350113 114.0501105
  18.8139043  95.4966102 115.2282586  27.7300947  87.8201360 122.1100560
  28.0102701  87.1524549 122.7360986  28.5151554  88.0130455 121.5975223
  25.5334416 106.9960354 113.6725586  24.9608383 107.6150541 113.2196058
  26.1067210 107.5459715 114.2065508  31.6009806  96.2418994 125.8572135
  32.5527229  96.3417091 125.8784359  31.4313256  95.4497262 126.3670219
  29.6224185  93.3274577 126.0431536  29.0274117  93.6079590 125.3478024
  29.3373882  93.8168478 126.8148277  28.7531676 107.2797504 114.8034168
  29.6862349 107.2143065 115.0067044  28.6654889 108.1153771 114.3448701
  31.3819692 106.5963374 111.7638116  31.3033324 106.2623238 112.6573874
  32.2029359 107.0885142 111.7629588  34.0797884  99.4625113 124.9714434
  34.0474204  98.5241114 125.1574118  34.6898507  99.5409150 124.2380259
  25.9181214  98.3321166 111.0141638  26.8640319  98.2027374 111.0830056
  25.5395459  97.5935828 111.4911067  34.2292372  96.2536157 125.0172718
  33.7131421  95.4694613 124.8302646  35.1132321  95.9254873 125.1819237
  31.8903099  89.9977172 120.9768530  31.6927920  89.6892261 121.8611862
  32.5002805  90.7238811 121.1066460  39.8974433 100.5241120 124.1120471
  40.6277822 100.2626408 124.6728174  39.2881379  99.7869842 124.1522539
  37.9789731  98.6648983 124.7094922  37.2522894  98.5304948 124.1011414
  37.5637017  98.9725811 125.5151640  24.1024132  96.2571143 110.9496524
  23.1955587  95.9604255 111.0259237  24.3800113  95.9600961 110.0830810
  25.7186197  90.8008032 117.1040765  24.9086926  90.4555117 117.4796011
  26.4070614  90.4915576 117.6928376  27.6476746  89.8786079 118.7265062
  28.2007784  90.2981533 119.3855085  27.8846832  88.9521827 118.7688018
  22.8722916  93.1158078 111.0908503  23.7342080  93.4412976 111.3504320
  23.0573260  92.3289574 110.5781569  31.0255553  91.9886604 118.2343726
  30.4454222  92.6471408 117.8521778  30.7591485  91.1663949 117.8231143
  29.4759119  91.3891662 120.4365046  29.9758897  91.5008197 119.6279365
  30.1194727  91.0852715 121.0765855  29.8080431  94.1486695 117.2900074
  28.9206286  94.4336345 117.0720269  30.2234420  93.9880458 116.4427351
  33.1594967  94.1733216 121.0054413  33.9355357  94.6629668 121.2779030
  32.4343101  94.5991270 121.4626283  35.5967525  94.8860835 122.0628354
  36.1912016  94.6456571 121.3521662  35.6694109  94.1667966 122.6901890
  28.9523644 103.9131369 111.3848094  29.6559494 104.1181372 112.0005750
  28.2286293 104.4808131 111.6497178  29.7821454  99.6641231 117.5050364
  29.7256656 100.1209782 116.6657997  30.3349797  98.9031915 117.3273207
  33.5926260  95.4530963 118.3300484  33.3363195  95.0527598 119.1608691
  32.9679128  96.1674757 118.2050623  37.9038598  98.1927036 120.8371775
  37.3438156  98.2620225 121.6103337  37.2982102  98.0168020 120.1171271
  30.8610342 104.3513899 113.4346554  31.6955946 103.9195097 113.2524029
  30.6994685 104.1795912 114.3623449  30.5156234 100.8546012 114.8002893
  30.4605038 100.6890283 113.8591338  29.8902289 101.5622045 114.9565083
  23.8252359  90.3554121 114.3788212  23.8131029  91.2995961 114.5356483
  24.7175781  90.1724266 114.0847673  27.6404479  86.9496898 118.6334149
  26.8736875  86.3955384 118.7790831  28.0515184  87.0218766 119.4948300
  39.4894617 114.8683550 123.5301731  40.1273027 114.7490297 122.8265071
  39.3715460 115.8164394 123.5889683  36.2984323 114.8210978 123.4663256
  35.9602834 114.7052043 122.5783790  37.1674091 114.4202143 123.4464262
  32.1571139 116.6746454 119.4560147  31.5936004 116.5836391 118.6876434
  32.0423534 115.8546359 119.9362639  37.7370697 120.3417422 114.7674611
  37.0858677 120.9271502 114.3808625  38.5315060 120.8723617 114.8269649
  31.6626325 117.4306559 115.1661746  32.4357201 116.8835546 115.0274622
  32.0151723 118.2950808 115.3776207  34.4267574 116.1359790 124.9630005
  35.0231146 115.9115812 124.2486968  34.4842545 115.3944535 125.5655453
  33.9992602 113.5899225 112.7980196  34.2518123 113.0680747 112.0363659
  33.0617161 113.4265371 112.9006879  39.0435885 112.5935004 120.6054939
  39.8298974 112.1754427 120.2545356  39.3074590 113.4981096 120.7736587
  39.2145963 118.0307854 115.3043596  38.5791796 118.1042480 116.0164500
  38.8843369 118.6201453 114.6262675  44.4444312 112.5310237 121.5087917
  45.1769484 111.9609454 121.7425747  43.6883668 112.1431837 121.9494423
  33.7188891 115.4927331 115.0004571  33.6025149 114.8172235 115.6685655
  33.8291151 115.0059705 114.1836724  36.0620432 114.9537478 118.7051260
  35.6978639 114.4268099 119.4164181  36.9187548 114.5635947 118.5317745
  41.9669733 106.2431811 125.9682526  41.6353057 107.1127222 125.7443741
  41.3715346 105.9268095 126.6476556  35.7025919 109.9827378 113.7012608
  35.8700321 110.8507614 114.0683079  35.5123088 110.1454660 112.7773898
  38.4601252 118.4444357 125.3678439  38.1601975 119.3469396 125.2594246
  38.1152312 118.1776540 126.2199592  31.9113734 114.8958154 121.4015143
  30.9864230 114.7634368 121.6092835  32.1598147 115.6752373 121.8985086
  41.8598396 110.9626897 123.0475876  40.9515273 110.8942306 122.7534637
  41.8085992 111.4398842 123.8757702  35.6815140 112.4385036 114.6859275
  35.5614765 112.8842086 115.5244755  34.9867728 112.7870353 114.1272813
  33.4422032 125.2088677 118.3349406  33.3646062 126.1596502 118.4137887
  32.8383676 124.8634550 118.9924333  43.7260042 109.1643336 124.8253750
  43.0834423 109.4575869 124.1793545  43.2214971 109.0496256 125.6306947
  41.3800206 112.9106509 115.5139609  42.2918062 113.1433895 115.3387307
  40.8709853 113.4943553 114.9514688  36.0172044 112.2703743 126.5234459
  36.8633239 112.6943157 126.6669108  35.9570681 111.6137368 127.2173022
  39.9869788 117.8932327 122.9053191  39.3578651 118.0578041 122.2029259
  39.5995450 118.3073937 123.6764155  43.8659020 118.8286765 120.2597554
  43.1810058 119.2085666 119.7094588  43.9502870 119.4382092 120.9929502
  39.1671489 109.9308112 128.1815632  38.9232421 110.6850172 127.6449908
  39.4431420 110.3093459 129.0162879  41.1209952 116.4746724 126.8592898
  41.3326847 117.1178484 126.1827279  41.0739700 115.6409041 126.3914828
  38.7236181 109.0864545 123.7629470  37.8620660 109.3845798 124.0546208
  38.7498615 109.3034944 122.8310503  35.5397750 117.6306735 120.1703276
  36.0036096 117.9094438 119.3807898  35.2754548 116.7290180 119.9876367
  32.4321831 117.1778217 123.1083039  33.0023188 117.6065485 122.4700524
  33.0229943 116.8960801 123.8067225  34.4766636 113.7529888 116.9792841
  35.1790680 114.2050931 117.4466767  34.1447265 113.1113706 117.6072734
  28.2191970 112.0113440 122.2809975  27.4291024 112.2670969 121.8050085
  28.7103218 112.8261778 122.3862015  42.2355780 119.3518679 125.0315255
  43.0573224 118.9498867 124.7497937  42.2318183 119.2486914 125.9831371
  30.1706716 112.3758020 119.2393451  29.3737879 112.4876714 119.7576947
  29.9432308 112.7144672 118.3734342  50.3261773 115.6957428 121.3800227
  49.5725481 115.1264826 121.2244231  50.4609314 115.6620092 122.3270862
  35.7160401 120.5670830 117.0554946  35.5806076 121.4122366 117.4839794
  36.2570213 120.7690108 116.2920880  29.1689798 118.0846268 117.6282871
  29.6814319 118.8789519 117.7788436  29.8212511 117.3872559 117.5616473
  39.0652864 104.0901392 125.5853840  38.7217134 104.9803034 125.5092950
  39.4331827 103.9003050 124.7223425  27.1338715 116.4134923 118.4042442
  27.9713937 116.8231931 118.1876150  27.3116983 115.4734365 118.3742636
  39.0303147 114.0810003 114.0926275  38.5149771 114.8514608 114.3314662
  38.7580456 113.4075139 114.7159336  36.6150258 108.9259704 119.1511513
  35.7591855 108.5366554 118.9717152  37.0277210 109.0051665 118.2911299
  38.1449405 106.4606047 123.5503073  37.6414200 106.4236182 122.7370878
  38.4380012 107.3698790 123.6099730  34.3892291 106.5444777 122.5569255
  35.2545288 106.3487586 122.1975144  34.4569800 106.3155129 123.4838611
  44.0037421 116.8342358 116.0279448  43.2266864 116.4953517 115.5834610
  44.6828902 116.8394981 115.3534413  38.8189450 111.9537095 115.9186056
  38.5139586 112.2683245 116.7696199  39.7719892 112.0318515 115.9613389
  37.2635882 118.1127319 117.5679010  36.7357244 117.3780078 117.2552247
  36.7623385 118.8901995 117.3218978  42.2428728 116.3076339 122.6846056
  41.5852403 116.9975601 122.7726185  43.0469127 116.6972771 123.0280043
  31.9954610 108.7746985 119.9285621  32.5698362 108.5522166 119.1958814
  32.5825592 108.8435679 120.6814223  41.0534187 114.6620712 120.7349998
  41.5666069 115.2950704 121.2371708  41.7035411 114.0621907 120.3693358
  32.3224197 110.8051446 113.9481507  31.4861509 111.1426132 114.2690781
  32.1828967 110.6700426 113.0108644  34.2977278 105.6488234 118.6560691
  33.6441690 105.3337251 118.0317306  34.2557752 105.0263974 119.3820514
  35.4088482 115.9307529 110.5713983  34.5015544 115.6996782 110.7705132
  35.9059514 115.1345148 110.7587964  38.3156561 124.6405036 113.4910669
  37.6418260 124.9436733 114.0995627  38.7022383 125.4434116 113.1416126
  37.5315018 112.1370167 122.9808338  36.6137579 112.3585114 122.8230027
  37.9475162 112.2116478 122.1220046  38.3150066 113.5361583 118.1111019
  39.0621885 114.0482980 117.8018141  38.5841655 113.2145636 118.9715412
  36.5876716 116.0320124 115.0937973  35.6787935 115.7479157 115.1910443
  36.6171800 116.4519202 114.2341280  41.8195983 119.6426713 118.8629141
  41.3658310 118.8017623 118.9194331  41.1889950 120.2788112 119.2003921
  40.7628903 110.5718699 120.0929808  40.0251660 110.0596086 120.4240051
  41.0155676 110.1319081 119.2813085  40.2628922 121.4803210 119.7978959
  40.5551897 122.0408267 119.0791324  40.7727543 121.7731771 120.5532118
  40.8640530 103.3494951 120.6871577  41.1699407 102.4892315 120.3997492
  41.5893135 103.9412572 120.4870571  27.1564886 113.7525638 119.0753175
  26.9589286 113.1594999 118.3504242  26.6011550 113.4477848 119.7929114
  35.1361610 113.6448744 121.1947768  35.1910220 112.6922581 121.1190245
  34.3252812 113.8008183 121.6789067  36.2852804 117.5728867 112.4326052
  35.8472234 116.8564726 111.9731689  37.0263244 117.8004982 111.8711143
  33.0753970 112.2625804 118.9538147  32.2621835 112.5619975 119.3603339
  33.5712964 111.8681493 119.6712630  35.2262548 122.2583561 120.8872412
  35.1838726 122.4844407 119.9580944  36.1425247 122.0246936 121.0358213
  38.6728181 112.7267629 127.7853041  39.0277569 112.9539102 128.6447507
  39.3200313 113.0586005 127.1630296  44.4025918 115.8486064 118.4902370
  44.2643817 116.0387660 117.5623559  44.0462137 116.6105447 118.9470421
  32.5668045 109.8344160 124.5699382  33.2067424 109.6932919 123.8722346
  31.7345575 109.5478673 124.1937984  44.4295298 117.9162591 123.5013642
  44.8631805 117.8237881 124.3496696  45.1426879 117.8920092 122.8633658
  33.3428348 119.1346590 120.6834375  34.1368947 118.6396910 120.4816950
  32.6320041 118.6064453 120.3202080  29.6511112 113.2789672 116.7594127
  28.7208700 113.2174127 116.9764089  29.7468584 112.7565625 115.9630769
  29.5696661 109.8044485 119.3472369  29.8303478 110.7189818 119.2381529
  30.3913833 109.3368927 119.4968982  45.2910848 117.9586292 126.0346527
  45.4846738 118.8632103 126.2805802  45.1911466 117.4993711 126.8685112
  36.9447158 107.8444183 128.5336854  36.2975073 108.5434132 128.4401331
  37.7148174 108.2780327 128.9013103  37.1211293 115.6824948 126.5933674
  38.0503353 115.8336107 126.4202641  36.7002323 115.7708968 125.7382321
  36.5147776 124.8084709 115.7057748  36.6899532 124.3372752 116.5203371
  35.8280564 125.4350475 115.9339009  37.4704840 119.0857215 121.7521050
  37.1354672 119.0457985 122.6478699  36.9708785 118.4201931 121.2791460
  40.4064031 116.4313249 112.0258109  39.7893202 115.7060077 111.9291162
  39.9380520 117.1922609 111.6825183  32.1962577 110.6498673 111.1479413
  31.3192043 110.5287474 110.7841660  32.6720330 109.8584752 110.8958302
  42.0635570 119.1051741 127.9177869  41.1762349 118.7677663 128.0404268
  42.6334121 118.3734773 128.1546635  35.3826503 123.0024964 118.3941934
  34.5994025 123.5446644 118.4880159  36.0819248 123.5198943 118.7936175
  38.6923153 108.8119593 121.0376139  39.1891853 108.0589556 120.7177210
  37.9210135 108.8483910 120.4719349  46.5452911 114.5159959 122.6794431
  46.5342787 115.3984674 122.3088364  45.6770290 114.1631510 122.4848968
  39.7752934 117.5691280 118.6114563  38.8409213 117.6892743 118.4419267
  39.9529602 116.6663747 118.3474573  35.2758122 110.9536976 120.7647824
  34.9055910 110.4008017 121.4528730  35.7717215 110.3495110 120.2122824
  43.1625485 113.4108600 119.1464597  43.6285938 114.2436591 119.0724900
  43.6132986 112.9453581 119.8509855  41.2301716 119.7552421 116.1450749
  41.5061560 119.6409016 117.0544623  40.3606215 119.3569906 116.1062922
  41.1342148 105.7789187 123.1855498  40.2205228 106.0093414 123.3537705
  41.5635250 105.8627631 124.0369531  40.9048607 113.9679079 125.6855392
  40.2520057 114.2154986 125.0307845  41.2828986 113.1543217 125.3517870
  37.8655780 124.0038772 119.7883563  38.0478175 123.1860428 120.2511315
  38.6888766 124.2206464 119.3508453  38.1997946 122.9306957 117.0498611
  38.7285712 122.4199412 116.4368773  38.4626166 122.6149487 117.9144144
  30.6723456 108.3640967 127.0100930  30.7364782 109.2255798 126.5978328
  30.6090576 107.7514969 126.2773289  26.9241271 112.2440529 116.5892319
  27.2194712 111.3351207 116.5359373  26.0229307 112.2228268 116.2673321
  38.8327350 123.9647793 123.3942728  38.7078489 123.1637533 122.8853673
  39.4906441 124.4593986 122.9056697  30.4535518 110.3196525 122.5719868
  29.7322104 110.9332493 122.4327341  31.2428774 110.8554290 122.4936514
  40.8962258 121.7656813 125.0222278  39.9492594 121.6462164 124.9500604
  41.2445031 120.8779311 125.1048539  33.2561832 107.6550952 128.8460520
  33.7796233 107.9013248 129.6086829  33.0374165 108.4870987 128.4263657
  28.6529113 109.9254626 116.7131644  28.3241819 109.0452005 116.5306750
  29.0068483 109.8702295 117.6008034  37.9008691 121.5609529 121.2226630
  37.7533654 120.6326236 121.4034200  38.7262185 121.5829620 120.7383705
  31.7670936 110.2127596 117.0807122  32.1067008 110.7413517 116.3585730
  32.2143056 110.5508002 117.8565689  41.5042813 122.3838088 122.3091503
  42.4289361 122.1780949 122.1715954  41.3358117 122.1354489 123.2180844
  34.4614377 108.5964647 126.5310190  34.1211197 107.7972460 126.9330870
  33.7553383 108.8966358 125.9587023  35.1130848 105.6813959 124.9837513
  35.9356918 105.2074437 124.8616403  35.3568912 106.4604443 125.4836199
  33.7539083 108.7102218 115.2800415  34.4747445 109.0883470 114.7764132
  33.1304387 109.4291095 115.3835393  37.8970206 109.4147367 116.2158747
  38.1133820 110.2972005 115.9147575  37.4164273 109.0233580 115.4864389
  32.6369427 112.3733080 122.7929492  32.4914008 112.6873383 123.6853773
  32.1594631 112.9917980 122.2400390  34.4965810 109.3635628 122.8410381
  34.4827379 108.4676721 122.5042679  35.2138238 109.3706292 123.4748667
  36.3491941 109.7972968 124.8863509  36.0909719 110.7190039 124.8847839
  35.8176981 109.4003403 125.5763973  41.2938130 122.9023755 117.6653594
  41.4675007 122.3370178 116.9127446  41.7867021 123.7024650 117.4833084
  33.9002706 108.2450008 118.1097951  34.0218617 107.3166654 118.3088839
  33.6104748 108.2588694 117.1976267  36.7693896 105.9304919 121.2464671
  36.7915593 105.9944252 120.2916651  37.1861955 105.0909427 121.4405177
  47.1477521 115.6660178 119.2843894  47.5908667 114.9167503 118.8863017
  46.2704031 115.6570315 118.9017626  42.2813302 122.2190520 114.7650492
  42.9764207 122.8397212 114.9837807  42.6236452 121.3685871 115.0402870
  44.1804725 119.6690225 116.2937823  44.7056049 120.0077498 115.5687143
  44.0927078 118.7337240 116.1100958  43.9896506 117.1515595 128.9121750
  44.0394511 116.9865603 129.8537272  43.8810430 116.2842854 128.5219630
  32.8732765 119.8304141 116.2013838  33.0220885 120.5139605 115.5480511
  33.6799208 119.8109231 116.7163294  41.2800269 113.1346523 130.2281056
  42.1810131 112.9952988 129.9365054  41.3548243 113.3000978 131.1679234
  45.4914703 119.5712537 129.1563771  45.1999511 119.9342517 129.9927232
  44.8786834 118.8579545 128.9777103  46.6910385 117.1365416 121.6766341
  47.5257277 117.5755221 121.8403902  46.8269514 116.6604070 120.8574587
  43.7401891 114.6945151 127.6243829  44.2156013 114.8872798 126.8162680
  42.8167457 114.7504337 127.3787213  30.6285398 115.8569318 117.2074907
  30.3831440 114.9531648 117.4055118  30.7981312 115.8586469 116.2654385
  38.3182108 106.7292995 126.5899663  38.8364052 107.4654022 126.2646152
  37.9637241 107.0356988 127.4246422  29.8981045 111.5897676 114.7061069
  29.2050290 111.6642031 114.0501105  29.6532797 110.8258020 115.2282586
  38.5694702 103.1493277 122.1100560  38.8496456 102.4816466 122.7360986
  39.3545309 103.3422373 121.5975223  36.3728170 122.3252271 113.6725586
  35.8002138 122.9442458 113.2196058  36.9460964 122.8751633 114.2065508
  42.4403560 111.5710911 125.8572135  43.3920983 111.6709009 125.8784359
  42.2707011 110.7789180 126.3670219  40.4617940 108.6566495 126.0431536
  39.8667872 108.9371507 125.3478024  40.1767636 109.1460396 126.8148277
  39.5925430 122.6089421 114.8034168  40.5256103 122.5434983 115.0067044
  39.5048643 123.4445688 114.3448701  42.2213447 121.9255292 111.7638116
  42.1427078 121.5915155 112.6573874  43.0423114 122.4177060 111.7629588
  44.9191638 114.7917031 124.9714434  44.8867958 113.8533032 125.1574118
  45.5292262 114.8701068 124.2380259  36.7574969 113.6613084 111.0141638
  37.7034074 113.5319292 111.0830056  36.3789214 112.9227746 111.4911067
  45.0686127 111.5828074 125.0172718  44.5525175 110.7986531 124.8302646
  45.9526075 111.2546791 125.1819237  42.7296853 105.3269090 120.9768530
  42.5321675 105.0184178 121.8611862  43.3396559 106.0530729 121.1066460
  50.7368188 115.8533038 124.1120471  51.4671576 115.5918326 124.6728174
  50.1275133 115.1161760 124.1522539  48.8183485 113.9940900 124.7094922
  48.0916649 113.8596865 124.1011414  48.4030772 114.3017729 125.5151640
  34.9417886 111.5863060 110.9496524  34.0349341 111.2896173 111.0259237
  35.2193867 111.2892879 110.0830810  36.5579952 106.1299950 117.1040765
  35.7480680 105.7847035 117.4796011  37.2464369 105.8207494 117.6928376
  38.4870500 105.2077997 118.7265062  39.0401539 105.6273450 119.3855085
  38.7240586 104.2813745 118.7688018  33.7116671 108.4449996 111.0908503
  34.5735835 108.7704894 111.3504320  33.8967015 107.6581492 110.5781569
  41.8649307 107.3178522 118.2343726  41.2847976 107.9763326 117.8521778
  41.5985240 106.4955867 117.8231143  40.3152874 106.7183580 120.4365046
  40.8152652 106.8300114 119.6279365  40.9588481 106.4144633 121.0765855
  40.6474185 109.4778612 117.2900074  39.7600040 109.7628263 117.0720269
  41.0628174 109.3172376 116.4427351  43.9988721 109.5025133 121.0054413
  44.7749111 109.9921586 121.2779030  43.2736856 109.9283188 121.4626283
  46.4361280 110.2152753 122.0628354  47.0305771 109.9748489 121.3521662
  46.5087864 109.4959883 122.6901890  39.7917399 119.2423287 111.3848094
  40.4953249 119.4473290 112.0005750  39.0680047 119.8100049 111.6497178
  40.6215209 114.9933148 117.5050364  40.5650410 115.4501700 116.6657997
  41.1743551 114.2323833 117.3273207  44.4320015 110.7822880 118.3300484
  44.1756949 110.3819516 119.1608691  43.8072883 111.4966674 118.2050623
  48.7432353 113.5218954 120.8371775  48.1831911 113.5912143 121.6103337
  48.1375856 113.3459938 120.1171271  41.7004096 119.6805816 113.4346554
  42.5349700 119.2487015 113.2524029  41.5388439 119.5087830 114.3623449
  41.3549988 116.1837930 114.8002893  41.2998792 116.0182201 113.8591338
  40.7296044 116.8913963 114.9565083  34.6646114 105.6846039 114.3788212
  34.6524784 106.6287879 114.5356483  35.5569536 105.5016184 114.0847673
  38.4798233 102.2788815 118.6334149  37.7130629 101.7247302 118.7790831
  38.8908938 102.3510684 119.4948300  50.3288371 130.1975467 123.5301731
  50.9666781 130.0782215 122.8265071  50.2109214 131.1456311 123.5889683
  47.1378077 130.1502896 123.4663256  46.7996589 130.0343960 122.5783790
  48.0067846 129.7494061 123.4464262  42.9964893 132.0038372 119.4560147
  42.4329758 131.9128309 118.6876434  42.8817288 131.1838276 119.9362639
  45.2661328 131.4651708 124.9630005  45.8624901 131.2407730 124.2486968
  45.3236300 130.7236453 125.5655453  44.8386357 128.9191143 112.7980196
  45.0911878 128.3972664 112.0363659  43.9010916 128.7557288 112.9006879
  49.8829640 127.9226921 120.6054939  50.6692729 127.5046344 120.2545356
  50.1468344 128.8273014 120.7736587  50.0539717 133.3599772 115.3043596
  49.4185550 133.4334398 116.0164500  49.7237123 133.9493370 114.6262675
  55.2838067 127.8602155 121.5087917  56.0163239 127.2901371 121.7425747
  54.5277423 127.4723755 121.9494423  44.5582646 130.8219249 115.0004571
  44.4418904 130.1464152 115.6685655  44.6684905 130.3351623 114.1836724
  46.9014187 130.2829396 118.7051260  46.5372394 129.7560017 119.4164181
  47.7581302 129.8927865 118.5317745  52.8063487 121.5723729 125.9682526
  52.4746812 122.4419140 125.7443741  52.2109101 121.2560013 126.6476556
  46.5419674 125.3119296 113.7012608  46.7094076 126.1799532 114.0683079
  46.3516843 125.4746577 112.7773898  42.7507488 130.2250071 121.4015143
  41.8257985 130.0926286 121.6092835  42.9991901 131.0044291 121.8985086
  52.6992150 126.2918815 123.0475876  51.7909028 126.2234223 122.7534637
  52.6479746 126.7690760 123.8757702  46.5208894 127.7676953 114.6859275
  46.4008520 128.2134004 115.5244755  45.8261483 128.1162271 114.1272813
  54.5653797 124.4935253 124.8253750  53.9228177 124.7867786 124.1793545
  54.0608725 124.3788174 125.6306947  52.2193961 128.2398426 115.5139609
  53.1311817 128.4725813 115.3387307  51.7103608 128.8235471 114.9514688
  46.8565798 127.5995661 126.5234459  47.7026993 128.0235075 126.6669108
  46.7964436 126.9429285 127.2173022  49.5629935 124.4156462 123.7629470
  48.7014414 124.7137716 124.0546208  49.5892370 124.6326861 122.8310503
  46.3791505 132.9598653 120.1703276  46.8429850 133.2386356 119.3807898
  46.1148303 132.0582098 119.9876367  45.3160391 129.0821805 116.9792841
  46.0184434 129.5342849 117.4466767  44.9841019 128.4405624 117.6072734
  39.0585725 127.3405358 122.2809975  38.2684779 127.5962886 121.8050085
  39.5496972 128.1553696 122.3862015  41.0100470 127.7049937 119.2393451
  40.2131633 127.8168631 119.7576947  40.7826062 128.0436589 118.3734342
  49.9046619 119.4193310 125.5853840  49.5610888 120.3094951 125.5092950
  50.2725582 119.2294967 124.7223425  49.8696902 129.4101921 114.0926275
  49.3543525 130.1806526 114.3314662  49.5974210 128.7367057 114.7159336
  47.4544013 124.2551622 119.1511513  46.5985609 123.8658472 118.9717152
  47.8670964 124.3343582 118.2911299  48.9843159 121.7897965 123.5503073
  48.4807955 121.7528100 122.7370878  49.2773766 122.6990708 123.6099730
  45.2286045 121.8736695 122.5569255  46.0939042 121.6779503 122.1975144
  45.2963554 121.6447046 123.4838611  54.8431176 132.1634276 116.0279448
  54.0660619 131.8245435 115.5834610  55.5222657 132.1686899 115.3534413
  49.6583205 127.2829013 115.9186056  49.3533340 127.5975162 116.7696199
  50.6113647 127.3610433 115.9613389  42.8348364 124.1038903 119.9285621
  43.4092116 123.8814084 119.1958814  43.4219347 124.1727597 120.6814223
  51.8927942 129.9912630 120.7349998  52.4059823 130.6242621 121.2371708
  52.5429165 129.3913825 120.3693358  43.1617951 126.1343364 113.9481507
  42.3255264 126.4718050 114.2690781  43.0222721 125.9992343 113.0108644
  45.1371032 120.9780152 118.6560691  44.4835444 120.6629169 118.0317306
  45.0951506 120.3555892 119.3820514  46.2482237 131.2599447 110.5713983
  45.3409299 131.0288700 110.7705132  46.7453269 130.4637066 110.7587964
  48.3708772 127.4662085 122.9808338  47.4531334 127.6877032 122.8230027
  48.7868916 127.5408396 122.1220046  49.1543820 128.8653501 118.1111019
  49.9015639 129.3774898 117.8018141  49.4235410 128.5437553 118.9715412
  47.4270470 131.3612041 115.0937973  46.5181690 131.0771074 115.1910443
  47.4565554 131.7811120 114.2341280  52.6589738 134.9718631 118.8629141
  52.2052065 134.1309541 118.9194331  52.0283704 135.6080029 119.2003921
  51.6022657 125.9010617 120.0929808  50.8645414 125.3888003 120.4240051
  51.8549431 125.4610999 119.2813085  51.7034285 118.6786869 120.6871577
  52.0093161 117.8184232 120.3997492  52.4286889 119.2704489 120.4870571
  37.9958641 129.0817556 119.0753175  37.7983041 128.4886916 118.3504242
  37.4405305 128.7769766 119.7929114  45.9755364 128.9740662 121.1947768
  46.0303974 128.0214498 121.1190245  45.1646566 129.1300101 121.6789067
  47.1246558 132.9020785 112.4326052  46.6865988 132.1856644 111.9731689
  47.8656999 133.1296900 111.8711143  43.9147724 127.5917722 118.9538147
  43.1015590 127.8911892 119.3603339  44.4106718 127.1973411 119.6712630
  55.2419673 131.1777982 118.4902370  55.1037571 131.3679578 117.5623559
  54.8855892 131.9397365 118.9470421  43.4061799 125.1636077 124.5699382
  44.0461178 125.0224836 123.8722346  42.5739330 124.8770591 124.1937984
  40.4904866 128.6081589 116.7594127  39.5602455 128.5466045 116.9764089
  40.5862338 128.0857542 115.9630769  40.4090415 125.1336402 119.3472369
  40.6697233 126.0481736 119.2381529  41.2307588 124.6660845 119.4968982
  47.7840913 123.1736100 128.5336854  47.1368828 123.8726050 128.4401331
  48.5541928 123.6072244 128.9013103  51.2457786 131.7605167 112.0258109
  50.6286956 131.0351995 111.9291162  50.7774274 132.5214527 111.6825183
  43.0356332 125.9790591 111.1479413  42.1585798 125.8579392 110.7841660
  43.5114085 125.1876669 110.8958302  49.5316908 124.1411511 121.0376139
  50.0285607 123.3881473 120.7177210  48.7603889 124.1775828 120.4719349
  50.6146688 132.8983198 118.6114563  49.6802967 133.0184661 118.4419267
  50.7923357 131.9955665 118.3474573  46.1151877 126.2828894 120.7647824
  45.7449664 125.7299934 121.4528730  46.6110969 125.6787027 120.2122824
  54.0019240 128.7400517 119.1464597  54.4679692 129.5728509 119.0724900
  54.4526740 128.2745499 119.8509855  52.0695471 135.0844339 116.1450749
  52.3455315 134.9700933 117.0544623  51.1999970 134.6861824 116.1062922
  51.9735903 121.1081104 123.1855498  51.0598982 121.3385331 123.3537705
  52.4029004 121.1919548 124.0369531  41.5117210 123.6932885 127.0100930
  41.5758537 124.5547716 126.5978328  41.4484330 123.0806886 126.2773289
  37.7635025 127.5732446 116.5892319  38.0588467 126.6643125 116.5359373
  36.8623061 127.5520186 116.2673321  41.2929272 125.6488443 122.5719868
  40.5715858 126.2624411 122.4327341  42.0822528 126.1846208 122.4936514
  44.0955586 122.9842869 128.8460520  44.6189988 123.2305166 129.6086829
  43.8767919 123.8162904 128.4263657  39.4922867 125.2546544 116.7131644
  39.1635573 124.3743923 116.5306750  39.8462238 125.1994213 117.6008034
  42.6064690 125.5419514 117.0807122  42.9460763 126.0705435 116.3585730
  43.0536811 125.8799920 117.8565689  45.3008131 123.9256565 126.5310190
  44.9604951 123.1264378 126.9330870  44.5947137 124.2258275 125.9587023
  45.9524603 121.0105877 124.9837513  46.7750672 120.5366355 124.8616403
  46.1962666 121.7896361 125.4836199  44.5932837 124.0394135 115.2800415
  45.3141200 124.4175388 114.7764132  43.9698141 124.7583012 115.3835393
  48.7363960 124.7439284 116.2158747  48.9527575 125.6263922 115.9147575
  48.2558027 124.3525498 115.4864389  43.4763182 127.7024998 122.7929492
  43.3307762 128.0165301 123.6853773  42.9988385 128.3209898 122.2400390
  45.3359565 124.6927546 122.8410381  45.3221133 123.7968639 122.5042679
  46.0531993 124.6998209 123.4748667  47.1885695 125.1264886 124.8863509
  46.9303473 126.0481956 124.8847839  46.6570736 124.7295320 125.5763973
  44.7396460 123.5741926 118.1097951  44.8612372 122.6458572 118.3088839
  44.4498503 123.5880612 117.1976267  47.6087651 121.2596836 121.2464671
  47.6309348 121.3236169 120.2916651  48.0255710 120.4201345 121.4405177
  57.9871275 130.9952096 119.2843894  58.4302421 130.2459421 118.8863017
  57.1097785 130.9862232 118.9017626  55.0198480 134.9982143 116.2937823
  55.5449804 135.3369416 115.5687143  54.9320832 134.0629158 116.1100958
  41.4679152 131.1861236 117.2074907  41.2225194 130.2823566 117.4055118
  41.6375067 131.1878387 116.2654385  49.1575862 122.0584913 126.5899663
  49.6757806 122.7945939 126.2646152  48.8030995 122.3648906 127.4246422
  40.7374800 126.9189594 114.7061069  40.0444045 126.9933949 114.0501105
  40.4926552 126.1549937 115.2282586  49.4088456 118.4785195 122.1100560
  49.6890210 117.8108384 122.7360986  50.1939063 118.6714291 121.5975223
  51.3011694 123.9858412 126.0431536  50.7061626 124.2663425 125.3478024
  51.0161391 124.4752313 126.8148277  47.5968723 128.9905002 111.0141638
  48.5427828 128.8611210 111.0830056  47.2182968 128.2519664 111.4911067
  53.5690608 120.6561008 120.9768530  53.3715429 120.3476096 121.8611862
  54.1790314 121.3822647 121.1066460  45.7811641 126.9154978 110.9496524
  44.8743096 126.6188091 111.0259237  46.0587622 126.6184796 110.0830810
  47.3973706 121.4591868 117.1040765  46.5874435 121.1138953 117.4796011
  48.0858123 121.1499412 117.6928376  49.3264255 120.5369915 118.7265062
  49.8795293 120.9565368 119.3855085  49.5634341 119.6105663 118.7688018
  44.5510425 123.7741913 111.0908503  45.4129589 124.0996812 111.3504320
  44.7360769 122.9873409 110.5781569  52.7043062 122.6470440 118.2343726
  52.1241731 123.3055244 117.8521778  52.4378994 121.8247784 117.8231143
  51.1546628 122.0475497 120.4365046  51.6546406 122.1592032 119.6279365
  51.7982236 121.7436550 121.0765855  51.4867940 124.8070530 117.2900074
  50.5993795 125.0920181 117.0720269  51.9021929 124.6464294 116.4427351
  54.8382476 124.8317051 121.0054413  55.6142866 125.3213504 121.2779030
  54.1130610 125.2575105 121.4626283  57.2755034 125.5444670 122.0628354
  57.8699525 125.3040406 121.3521662  57.3481618 124.8251801 122.6901890
  51.4608963 130.3225066 117.5050364  51.4044165 130.7793618 116.6657997
  52.0137306 129.5615751 117.3273207  55.2713769 126.1114798 118.3300484
  55.0150704 125.7111434 119.1608691  54.6466637 126.8258592 118.2050623
  59.5826107 128.8510871 120.8371775  59.0225665 128.9204061 121.6103337
  58.9769611 128.6751856 120.1171271  52.5397851 135.0097734 113.4346554
  53.3743455 134.5778933 113.2524029  52.3782193 134.8379748 114.3623449
  52.1943743 131.5129847 114.8002893  52.1392547 131.3474119 113.8591338
  51.5689798 132.2205880 114.9565083  45.5039868 121.0137956 114.3788212
  45.4918538 121.9579796 114.5356483  46.3963290 120.8308102 114.0847673
  49.3191988 117.6080733 118.6334149  48.5524383 117.0539220 118.7790831
  49.7302693 117.6802602 119.4948300  55.9764787 136.3072069 118.6560691
  55.3229199 135.9921086 118.0317306  55.9345261 135.6847810 119.3820514
  58.2367461 136.7883785 117.1040765  57.4268189 136.4430870 117.4796011
  58.9251878 136.4791329 117.6928376  60.1585742 132.9372651 118.6334149
  59.3918138 132.3831137 118.7790831  60.5696447 133.0094519 119.4948300
   0.8229708  35.3584677 103.0183130   1.3481032  35.6971950 102.2932450
   0.7352061  34.4231692 102.8346264   6.9713354  45.8869919 110.2547038
   7.6091764  45.7676667 109.5510378   6.8534197  46.8350763 110.3134990
   3.7803061  45.8397347 110.1908562   3.4421572  45.7238412 109.3029097
   4.6492829  45.4388513 110.1709568   5.2189435  51.3603792 101.4919918
   4.5677415  51.9457872 101.1053932   6.0133798  51.8909986 101.5514956
   1.9086312  47.1546160 111.6875311   2.5049884  46.9302182 110.9732274
   1.9661283  46.4130905 112.2900759   1.4811340  44.6085595  99.5225502
   1.7336861  44.0867116  98.7608965   0.5435899  44.4451740  99.6252186
   6.5254623  43.6121373 107.3300246   7.3117712  43.1940796 106.9790663
   6.7893327  44.5167465 107.4981894   6.6964700  49.0494224 102.0288902
   6.0610533  49.1228850 102.7409807   6.3662107  49.6387822 101.3507982
  11.9263050  43.5496606 108.2333224  12.6588222  42.9795823 108.4671054
  11.1702406  43.1618207 108.6739730   1.2007629  46.5113701 101.7249877
   1.0843887  45.8358604 102.3930962   1.3109889  46.0246075 100.9082030
   3.5439170  45.9723848 105.4296567   3.1797377  45.4454469 106.1409488
   4.4006286  45.5822317 105.2563052   3.1844657  41.0013748 100.4257915
   3.3519059  41.8693984 100.7928386   2.9941826  41.1641029  99.5019204
   5.9419990  49.4630727 112.0923745   5.6420713  50.3655765 111.9839553
   5.5971049  49.1962910 112.9444898   9.3417134  41.9813267 109.7721183
   8.4334011  41.9128675 109.4779944   9.2904730  42.4585212 110.6003008
   3.1633878  43.4571405 101.4104582   3.0433503  43.9028456 102.2490062
   2.4686466  43.8056723 100.8518120  11.2078780  40.1829705 111.5499057
  10.5653160  40.4762238 110.9038851  10.7033709  40.0682625 112.3552253
   8.8618944  43.9292878 102.2384916   9.7736800  44.1620265 102.0632613
   8.3528591  44.5129922 101.6759995   7.4688526  48.9118697 109.6298497
   6.8397389  49.0764411 108.9274565   7.0814188  49.3260306 110.4009461
  11.3477758  49.8473135 106.9842861  10.6628796  50.2272036 106.4339894
  11.4321607  50.4568461 107.7174809   8.6028690  47.4933094 113.5838205
   8.8145585  48.1364854 112.9072586   8.5558438  46.6595410 113.1160135
   3.0216488  48.6493105 106.8948582   3.4854834  48.9280808 106.1053205
   2.7573286  47.7476549 106.7121673   1.9585374  44.7716257 103.7038148
   2.6609417  45.2237301 104.1712074   1.6266003  44.1300076 104.3318041
   9.7174518  50.3705049 111.7560562  10.5391961  49.9685236 111.4743244
   9.7136920  50.2673283 112.7076678   3.4831121  49.9189092 113.9121272
   3.5475554  50.3809500 114.7479444   2.7742045  49.2886457 114.0403582
  17.8080511  46.7143798 108.1045533  17.0544219  46.1451196 107.9489538
  17.9428052  46.6806462 109.0516168   3.1979139  51.5857200 103.7800253
   3.0624813  52.4308736 104.2085101   3.7388951  51.7876477 103.0166187
   6.9228853  52.4883566 115.9381996   6.9047328  53.3092447 115.4462265
   7.8448773  52.3637641 116.1632137   6.5121885  45.0996373 100.8171581
   5.9968508  45.8700977 101.0559969   6.2399193  44.4261509 101.4404643
   4.0968996  39.9446074 105.8756820   3.2410592  39.5552924 105.6962458
   4.5095948  40.0238034 105.0156605  11.4856159  47.8528727 102.7524755
  10.7085602  47.5139887 102.3079917  12.1647640  47.8581351 102.0779720
   6.3008188  42.9723465 102.6431363   5.9958324  43.2869614 103.4941506
   7.2538630  43.0504885 102.6858696   4.7454620  49.1313688 104.2924317
   4.2175982  48.3966448 103.9797554   4.2442123  49.9088365 104.0464285
   9.7247466  47.3262709 109.4091363   9.0671140  48.0161970 109.4971491
  10.5287865  47.7159141 109.7525349   8.5352925  45.6807081 107.4595305
   9.0484807  46.3137073 107.9617014   9.1854149  45.0808277 107.0938665
   1.7796015  36.6674603 105.3805997   1.1260428  36.3523621 104.7562612
   1.7376489  36.0450344 106.1065820   2.8907220  46.9493898  97.2959290
   1.9834282  46.7183152  97.4950439   3.3878252  46.1531518  97.4833271
   5.7975299  55.6591406 100.2155976   5.1236998  55.9623102 100.8240934
   6.1841121  56.4620486  99.8661433   5.0133756  43.1556537 109.7053645
   4.0956317  43.3771484 109.5475333   5.4293899  43.2302847 108.8465352
   5.7968803  44.5547953 104.8356325   6.5440622  45.0669350 104.5263447
   6.0660393  44.2332005 105.6960719   4.0695454  47.0506493 101.8183280
   3.1606673  46.7665526 101.9155749   4.0990537  47.4705572 100.9586587
   9.3014721  50.6613083 105.5874447   8.8477048  49.8203993 105.6439638
   8.6708688  51.2974481 105.9249227   8.2447641  41.5905069 106.8175115
   7.5070397  41.0782455 107.1485357   8.4974414  41.1505450 106.0058392
   7.7447660  52.4989580 106.5224265   8.0370635  53.0594637 105.8036631
   8.2546281  52.7918141 107.2777424   8.3459268  34.3681321 107.4116884
   8.6518145  33.5078684 107.1242799   9.0711873  34.9598941 107.2115878
   2.6180348  44.6635114 107.9193075   2.6728957  43.7108950 107.8435552
   1.8071550  44.8194553 108.4034373   3.7671541  48.5915237  99.1571358
   3.3290971  47.8751096  98.6976996   4.5081982  48.8191352  98.5956450
   2.7081285  53.2769931 107.6117719   2.6657464  53.5030777 106.6826251
   3.6243984  53.0433305 107.7603520  11.8844656  46.8672434 105.2147677
  11.7462555  47.0574030 104.2868866  11.5280875  47.6291817 105.6715728
  11.9114036  48.9348961 110.2258948  12.3450542  48.8424250 111.0742002
  12.6245617  48.9106462 109.5878964   5.6441931  52.5351055 111.7592049
   5.6978953  53.1041991 112.5269765   4.7756712  52.7052940 111.3946086
  12.7729585  48.9772662 112.7591834  12.9665475  49.8818472 113.0051109
  12.6730204  48.5180081 113.5930419   4.6030030  46.7011317 113.3178981
   5.5322090  46.8522477 113.1447948   4.1821060  46.7895338 112.4627627
   3.4018362  50.7261982 111.0877518   3.2629448  50.3580766 111.9603457
   2.6132958  51.2409621 110.9161476   3.9966514  55.8271078 102.4303055
   4.1718270  55.3559121 103.2448678   3.3099302  56.4536844 102.6584316
   4.9523577  50.1043584 108.4766356   4.6173410  50.0644354 109.3724006
   4.4527523  49.4388300 108.0036766   7.8882769  47.4499619  98.7503416
   7.2711940  46.7246447  98.6536469   7.4199257  48.2108979  98.4070490
   9.5436901  52.1598527 116.4109196   9.4849447  51.4757747 115.7439779
   9.9456419  52.9017517 115.9589822   9.5454308  50.1238111 114.6423176
   8.6581087  49.7864033 114.7649575  10.1152859  49.3921142 114.8791941
   3.0755461  54.7839563 111.6084419   3.0025633  55.5894535 112.1203724
   2.6332854  54.9831529 110.7832440   2.8645241  54.0211333 105.1187241
   2.0812763  54.5633014 105.2125465   3.5637986  54.5385313 105.5181482
   6.1741891  39.8305963 107.7621446   6.6710591  39.0775925 107.4422516
   5.4028873  39.8670279 107.1964655  14.0271648  45.5346328 109.4039738
  14.0161525  46.4171044 109.0333671  13.1589028  45.1817879 109.2094275
   5.5354145  54.6826397 113.7642578   6.2482117  55.3173862 113.6918479
   5.0444174  54.7790263 112.9482580   7.2571672  48.5877650 105.3359869
   6.3227951  48.7079112 105.1664574   7.4348340  47.6850117 105.0719879
   2.7576860  41.9723346 107.4893131   2.3874647  41.4194386 108.1774036
   3.2535952  41.3681479 106.9368131  10.6444223  44.4294969 105.8709904
  11.1104675  45.2622961 105.7970206  11.0951724  43.9639951 106.5755162
   8.7120454  50.7738791 102.8696056   8.9880298  50.6595385 103.7789930
   7.8424953  50.3756275 102.8308229   8.3867344  44.9865448 112.4100699
   7.7338795  45.2341356 111.7553152   8.7647724  44.1729586 112.0763176
   5.3474518  55.0225141 106.5128869   5.5296913  54.2046797 106.9756622
   6.1707504  55.2392834 106.0753759   5.6816684  53.9493327 103.7743918
   6.2104450  53.4385781 103.1614080   5.9444903  53.6335857 104.6389451
   3.1777700  57.0352187 113.1324352   3.7296008  57.1983808 113.8973437
   3.5183894  57.6256625 112.4604377   6.3146088  54.9834162 110.1188034
   6.1897227  54.1823902 109.6098980   6.9725179  55.4780356 109.6302004
   8.3780996  52.7843182 111.7467584   7.4311331  52.6648534 111.6745911
   8.7263769  51.8965680 111.8293846   5.3827429  52.5795899 107.9471936
   5.2352392  51.6512606 108.1279507   6.2080923  52.6015989 107.4629012
   8.9861551  53.4024457 109.0336809   9.9108099  53.1967319 108.8961260
   8.8176854  53.1540858 109.9426151   1.2357821  39.7288587 102.0045721
   1.9566183  40.1069840 101.5009438   0.6123125  40.4477464 102.1080699
   5.3788944  40.4333736 102.9404054   5.5952558  41.3158374 102.6392882
   4.8983011  40.0419950 102.2109696   8.7756867  53.9210125 104.3898901
   8.9493745  53.3556547 103.6372753   9.2685759  54.7211020 104.2078391
   1.3821444  39.2636378 104.8343258   1.5037355  38.3353024 105.0334145
   1.0923486  39.2775064 103.9221573  14.6296258  46.6846548 106.0089200
  15.0727404  45.9353873 105.6108324  13.7522769  46.6756684 105.6262932
   9.7632040  53.2376889 101.4895799  10.4582944  53.8583582 101.7083114
  10.1055190  52.3872240 101.7648177  11.6623463  50.6876595 103.0183130
  12.1874787  51.0263867 102.2932450  11.5745815  49.7523610 102.8346264
   3.3243512  54.6010668 115.1473006   3.6330638  54.3559815 116.0195706
   4.1218994  54.8057307 114.6591877   3.3464124  56.7548578 107.3778383
   2.9069114  56.2624957 108.0711240   4.0972241  56.2121546 107.1370458
  11.3517369  51.3209498 118.3234328  10.5612913  51.3033637 117.7838827
  11.1150724  51.8597792 119.0783364  11.4715244  48.1701965 115.6367056
  11.5213249  48.0051972 116.5782579  11.3629167  47.3029224 115.2464937
  12.9733441  50.5898906 115.8809078  12.6818249  50.9528887 116.7172539
  12.3605572  49.8765915 115.7022410  14.1729123  48.1551786 108.4011648
  15.0076015  48.5941590 108.5649208  14.3088252  47.6790439 107.5819894
  11.2220629  45.7131521 114.3489136  11.6974751  45.9059167 113.5407987
  10.2986194  45.7690707 114.1032519   3.8546908  53.3438641 100.3970893
   3.2820875  53.9628828  99.9441364   4.4279702  53.8938003 100.9310814
   9.9222298  42.5897281 112.5817441  10.8739721  42.6895379 112.6029665
   9.7525748  41.7975549 113.0915526   7.0744168  53.6275791 101.5279475
   8.0074841  53.5621353 101.7312350   6.9867381  54.4632058 101.0694007
   9.7032185  52.9441661  98.4883422   9.6245816  52.6101525  99.3819180
  10.5241851  53.4363429  98.4874895  12.4010376  45.8103401 111.6959741
  12.3686696  44.8719401 111.8819425  13.0111000  45.8887437 110.9625566
   4.2393707  44.6799454  97.7386945   5.1852811  44.5505662  97.8075363
   3.8607952  43.9414116  98.2156373  12.5504864  42.6014444 111.7418024
  12.0343913  41.8172901 111.5547953  13.4344813  42.2733161 111.9064544
  10.2115591  36.3455460 107.7013837  10.0140412  36.0370548 108.5857169
  10.8215297  37.0717099 107.8311767  18.2186926  46.8719407 110.8365778
  18.9490314  46.6104696 111.3973481  17.6093871  46.1348129 110.8767846
  16.3002223  45.0127270 111.4340229  15.5735386  44.8783235 110.8256721
  15.8849510  45.3204099 112.2396947   2.4236624  42.6049430  97.6741830
   1.5168079  42.3082543  97.7504544   2.7012605  42.3079248  96.8076116
   4.0398690  37.1486320 103.8286072   3.2299418  36.8033405 104.2041318
   4.7283107  36.8393863 104.4173683   5.9689238  36.2264367 105.4510368
   6.5220277  36.6459820 106.1100391   6.2059324  35.3000115 105.4933324
   1.1935409  39.4636365  97.8153809   2.0554573  39.7891264  98.0749627
   1.3785753  38.6767861  97.3026875   9.3468045  38.3364892 104.9589032
   8.7666714  38.9949696 104.5767085   9.0803978  37.5142236 104.5476450
   7.7971611  37.7369949 107.1610353   8.2971390  37.8486484 106.3524672
   8.4407219  37.4331002 107.8011161   8.1292923  40.4964982 104.0145381
   7.2418778  40.7814633 103.7965575   8.5446912  40.3358745 103.1672658
  11.4807459  40.5211503 107.7299720  12.2567849  41.0107955 108.0024337
  10.7555593  40.9469557 108.1871589  13.9180018  41.2339122 108.7873661
  14.5124509  40.9934858 108.0766969  13.9906601  40.5146253 109.4147197
   7.2736136  50.2609657  98.1093401   7.9771987  50.4659659  98.7251056
   6.5498785  50.8286419  98.3742484   8.1033947  46.0119518 104.2295671
   8.0469148  46.4688069 103.3903303   8.6562289  45.2510203 104.0518514
  11.9138753  41.8009250 105.0545790  11.6575687  41.4005886 105.8853998
  11.2891621  42.5153044 104.9295930  16.2251091  44.5405323 107.5617082
  15.6650648  44.6098512 108.3348644  15.6194594  44.3646308 106.8416578
   9.1822834  50.6992186 100.1591861  10.0168438  50.2673384  99.9769336
   9.0207177  50.5274200 101.0868755   8.8368726  47.2024299 101.5248200
   8.7817530  47.0368571 100.5836644   8.2114781  47.9100332 101.6810390
   2.1464852  36.7032408 101.1033518   2.1343521  37.6474248 101.2601789
   3.0388273  36.5202554 100.8092980   2.0754415  55.3801299 109.1901275
   1.1250046  55.3803160 109.0765647   2.3786902  54.6334033 108.6737310
   5.9616971  33.2975185 105.3579455   5.1949367  32.7433672 105.5036138
   6.3727676  33.3697054 106.2193607  17.8107109  61.2161837 110.2547038
  18.4485519  61.0968584 109.5510378  17.6927952  62.1642681 110.3134990
  14.6196815  61.1689265 110.1908562  14.2815327  61.0530330 109.3029097
  15.4886583  60.7680430 110.1709568  10.4783631  63.0224742 106.1805453
   9.9148496  62.9314678 105.4121741  10.3636026  62.2024646 106.6607946
  15.1016598  62.3224117 116.1494768  15.0905239  61.9276915 115.2775271
  15.2637238  61.5890189 116.7428539   8.0248063  64.5175933 109.0189674
   8.8169355  64.1766758 108.6035973   8.2644713  64.6270908 109.9391827
  16.0583190  66.6895709 101.4919918  15.4071169  67.2749790 101.1053932
  16.8527552  67.2201904 101.5514956   9.9838817  63.7784846 101.8907052
  10.7569693  63.2313833 101.7519928  10.3364216  64.6429096 102.1021514
  11.8223859  65.1061229 115.0973952  11.5313725  66.0106860 114.9820618
  12.4580844  65.1477756 115.8118021  12.7480066  62.4838077 111.6875311
  13.3443638  62.2594100 110.9732274  12.8055038  61.7422823 112.2900759
  12.3205095  59.9377513  99.5225502  12.5730615  59.4159034  98.7608965
  11.3829654  59.7743658  99.6252186  17.3648377  58.9413291 107.3300246
  18.1511467  58.5232714 106.9790663  17.6287082  59.8459383 107.4981894
  17.5358455  64.3786141 102.0288902  16.9004288  64.4520768 102.7409807
  17.2055861  64.9679740 101.3507982  22.7656805  58.8788524 108.2333224
  23.4981977  58.3087741 108.4671054  22.0096160  58.4910125 108.6739730
  12.0401383  61.8405618 101.7249877  11.9237641  61.1650522 102.3930962
  12.1503643  61.3537992 100.9082030  14.3832924  61.3015766 105.4296567
  14.0191132  60.7746387 106.1409488  15.2400040  60.9114235 105.2563052
  20.2882225  52.5910098 112.6927833  19.9565550  53.4605509 112.4689048
  19.6927838  52.2746382 113.3721863  14.0238411  56.3305665 100.4257915
  14.1912814  57.1985902 100.7928386  13.8335580  56.4932947  99.5019204
  16.7813744  64.7922644 112.0923745  16.4814468  65.6947683 111.9839553
  16.4364804  64.5254827 112.9444898  10.2326226  61.2436441 108.1260450
   9.3076722  61.1112655 108.3338142  10.4810639  62.0230660 108.6230392
  20.1810888  57.3105184 109.7721183  19.2727766  57.2420593 109.4779944
  20.1298484  57.7877129 110.6003008  14.0027632  58.7863323 101.4104582
  13.8827257  59.2320374 102.2490062  13.3080221  59.1348640 100.8518120
   7.5935037  60.8869715 108.9604239   7.7227418  61.1404194 109.8743651
   6.9132488  61.4797423 108.6408894  11.7634524  71.5566965 105.0594713
  11.6858554  72.5074790 105.1383194  11.1596168  71.2112837 105.7169639
  14.2551754  58.7294830 117.7156080  13.4785088  59.2888750 117.7058945
  14.8942317  59.2151613 118.2370950  22.0472535  55.5121623 111.5499057
  21.4046915  55.8054156 110.9038851  21.5427463  55.3974543 112.3552253
  19.7012698  59.2584796 102.2384916  20.6130554  59.4912183 102.0632613
  19.1922345  59.8421840 101.6759995  12.5098126  61.5380283 117.2774047
  13.2512811  62.0765327 117.0008871  11.8035112  62.1646572 117.4345599
  17.9853466  63.6809424 115.8746208  18.3936822  63.2391834 115.1300841
  17.2630727  63.1062051 116.1280401  14.3384536  58.6182031 113.2479765
  15.1845731  59.0421444 113.3914414  14.2783174  57.9615655 113.9418329
  18.3082281  64.2410614 109.6298497  17.6791143  64.4056329 108.9274565
  17.9207943  64.6552224 110.4009461  22.1871513  65.1765052 106.9842861
  21.5022551  65.5563954 106.4339894  22.2715362  65.7860379 107.7174809
  17.4883981  56.2786399 114.9060939  17.2444913  57.0328459 114.3695215
  17.7643912  56.6571747 115.7408186  19.4422444  62.8225011 113.5838205
  19.6539339  63.4656771 112.9072586  19.3952192  61.9887328 113.1160135
  17.0448673  55.4342832 110.4874777  16.1833152  55.7324086 110.7791514
  17.0711108  55.6513231 109.5555809  13.8610243  63.9785023 106.8948582
  14.3248588  64.2572725 106.1053205  13.5967041  63.0768467 106.7121673
  10.7534324  63.5256504 109.8328346  11.3235681  63.9543772 109.1945830
  11.3442435  63.2439089 110.5312531  12.7979129  60.1008175 103.7038148
  13.5003172  60.5529219 104.1712074  12.4659757  59.4591994 104.3318041
  11.2459490  58.6919931 118.0789357  10.6158151  59.3736212 118.3124754
  11.1395578  58.5803013 117.1342495   6.5404463  58.3591728 109.0055281
   5.7503517  58.6149256 108.5295392   7.0315710  59.1740065 109.1107322
  20.5568272  65.6996967 111.7560562  21.3785716  65.2977154 111.4743244
  20.5530675  65.5965201 112.7076678   8.4919208  58.7236307 105.9638758
   7.6950371  58.8355001 106.4822254   8.2644800  59.0622959 105.0979648
  14.3224876  65.2481010 113.9121272  14.3869308  65.7101417 114.7479444
  13.6135799  64.6178375 114.0403582   4.8242166  58.6122218 111.4370272
   5.0750204  59.4969228 111.7027848   5.3601714  58.4326820 110.6645364
  28.6474265  62.0435715 108.1045533  27.8937974  61.4743113 107.9489538
  28.7821806  62.0098380 109.0516168  14.0372893  66.9149117 103.7800253
  13.9018568  67.7600653 104.2085101  14.5782706  67.1168395 103.0166187
   7.4902291  64.4324556 104.3528178   8.0026811  65.2267806 104.5033743
   8.1425003  63.7350846 104.2861779   9.2997175  67.5490312 106.4350931
   9.4763804  68.4708277 106.2471915  10.0954009  67.2348731 106.8645311
  13.4408194  54.4098576 118.0334865  14.1817907  55.0105730 117.9539327
  13.6726117  53.6676214 117.4752907   8.5849532  59.5954944 116.3113094
   8.4703047  58.6940201 116.6120193   7.7294050  59.8418640 115.9597911
  15.6641370  67.5372684 117.9100595  15.2205224  66.7509063 117.5921499
  16.3258583  67.7251835 117.2444486  10.4228491  69.0668486 112.4361273
  10.9735916  68.9385549 111.6638267   9.5839967  69.3663375 112.0856166
  17.7622608  67.8175484 115.9381996  17.7441083  68.6384365 115.4462265
  18.6842528  67.6929559 116.1632137  14.2195662  65.3319613 116.7805505
  14.7523999  64.5707902 116.5504813  13.6909743  65.0393265 117.5229659
  17.3865357  50.4379679 112.3099146  17.0429626  51.3281321 112.2338257
  17.7544319  50.2481337 111.4468731   5.4551207  62.7613210 105.1287748
   6.2926429  63.1710218 104.9121456   5.6329475  61.8212652 105.0987942
  17.3515639  60.4288290 100.8171581  16.8362263  61.1992895 101.0559969
  17.0792948  59.7553427 101.4404643  14.9362751  55.2737991 105.8756820
  14.0804347  54.8844842 105.6962458  15.3489702  55.3529952 105.0156605
  16.4661897  52.8084335 110.2748380  15.9626693  52.7714470 109.4616185
  16.7592504  53.7177077 110.3345036  12.7104783  52.8923064 109.2814561
  13.5757780  52.6965873 108.9220451  12.7782292  52.6633416 110.2083918
  22.3249914  63.1820645 102.7524755  21.5479356  62.8431805 102.3079917
  23.0041395  63.1873268 102.0779720  17.1401943  58.3015383 102.6431363
  16.8352078  58.6161532 103.4941506  18.0932385  58.3796802 102.6858696
  15.5848374  64.4605606 104.2924317  15.0569736  63.7258365 103.9797554
  15.0835877  65.2380282 104.0464285  20.5641221  62.6554626 109.4091363
  19.9064895  63.3453888 109.4971491  21.3681620  63.0451058 109.7525349
  10.3167102  55.1225272 106.6530928  10.8910854  54.9000454 105.9204121
  10.9038085  55.1913967 107.4059529  19.3746679  61.0098999 107.4595305
  19.8878561  61.6428991 107.9617014  20.0247903  60.4100195 107.0938665
  10.6436689  57.1529733 100.6726813   9.8074001  57.4904420 100.9936088
  10.5041459  57.0178713  99.7353950  12.6189770  51.9966521 105.3805997
  11.9654182  51.6815538 104.7562612  12.5770244  51.3742262 106.1065820
  13.7300975  62.2785816  97.2959290  12.8228036  62.0475070  97.4950439
  14.2272007  61.4823435  97.4833271  16.6369054  70.9883323 100.2155976
  15.9630752  71.2915020 100.8240934  17.0234876  71.7912404  99.8661433
  15.8527510  58.4848455 109.7053645  14.9350072  58.7063402 109.5475333
  16.2687654  58.5594765 108.8465352  16.6362558  59.8839870 104.8356325
  17.3834377  60.3961268 104.5263447  16.9054147  59.5623923 105.6960719
  14.9089208  62.3798411 101.8183280  14.0000427  62.0957444 101.9155749
  14.9384292  62.7997490 100.9586587  20.1408476  65.9905001 105.5874447
  19.6870803  65.1495910 105.6439638  19.5102442  66.6266399 105.9249227
  19.0841395  56.9196987 106.8175115  18.3464152  56.4074373 107.1485357
  19.3368169  56.4797368 106.0058392  18.5841415  67.8281497 106.5224265
  18.8764389  68.3886554 105.8036631  19.0940035  68.1210058 107.2777424
  19.1853022  49.6973239 107.4116884  19.4911899  48.8370602 107.1242799
  19.9105627  50.2890859 107.2115878   5.4777378  60.1003925 105.7998482
   5.2801778  59.5073286 105.0749548   4.9224042  59.7956135 106.5174421
  13.4574102  59.9927032 107.9193075  13.5122712  59.0400868 107.8435552
  12.6465304  60.1486471 108.4034373  14.6065296  63.9207155  99.1571358
  14.1684726  63.2043014  98.6976996  15.3475737  64.1483270  98.5956450
  11.3966462  58.6104091 105.6783454  10.5834328  58.9098262 106.0848646
  11.8925456  58.2159780 106.3957936  13.5475040  68.6061848 107.6117719
  13.5051219  68.8322695 106.6826251  14.4637739  68.3725223 107.7603520
  16.9940674  59.0745916 114.5098348  17.3490061  59.3017389 115.3692814
  17.6412805  59.4064293 113.8875603  22.7238411  62.1964352 105.2147677
  22.5856309  62.3865948 104.2868866  22.3674630  62.9583735 105.6715728
  10.8880537  56.1822447 111.2944689  11.5279916  56.0411206 110.5967652
  10.0558067  55.8956960 110.9183291  22.7507790  64.2640879 110.2258948
  23.1844297  64.1716168 111.0742002  23.4639371  64.2398379 109.5878964
  11.6640841  65.4824877 107.4079681  12.4581439  64.9875197 107.2062256
  10.9532533  64.9542740 107.0447387  16.4835685  67.8642973 111.7592049
  16.5372707  68.4333909 112.5269765  15.6150467  68.0344858 111.3946086
   7.9723604  59.6267959 103.4839434   7.0421192  59.5652415 103.7009396
   8.0681076  59.1043912 102.6876075   7.8909153  56.1522772 106.0717676
   8.1515971  57.0668105 105.9626836   8.7126326  55.6847214 106.2214288
   9.3634079  57.5660529 113.2416500  10.0357132  57.3577891 112.5929149
   8.5363865  57.3682615 112.8021732  23.6123340  64.3064579 112.7591834
  23.8059230  65.2110390 113.0051109  23.5123958  63.8471998 113.5930419
  15.2659651  54.1922470 115.2582161  14.6187566  54.8912420 115.1646637
  16.0360666  54.6258614 115.6258409  18.6738449  64.4571322 118.3332714
  18.5223955  64.2281874 117.4162798  18.6643128  65.4141924 118.3464059
  15.4423785  62.0303235 113.3178981  16.3715845  62.1814394 113.1447948
  15.0214815  62.1187256 112.4627627  14.2412117  66.0553899 111.0877518
  14.1023202  65.6872684 111.9603457  13.4526713  66.5701539 110.9161476
  14.8360269  71.1562996 102.4303055  15.0112024  70.6851039 103.2448678
  14.1493057  71.7828762 102.6584316  15.7917332  65.4335502 108.4766356
  15.4567164  65.3936272 109.3724006  15.2921278  64.7680218 108.0036766
   9.7661576  60.8403132 114.0018937   9.6281374  60.1083371 114.6030476
  10.6766499  60.7512032 113.7203125  18.7276524  62.7791536  98.7503416
  18.1105694  62.0538365  98.6536469  18.2593012  63.5400897  98.4070490
  12.3943876  60.5523091 113.4902617  13.1043495  59.9116284 113.4489235
  12.3513185  60.8035986 114.4128798  20.3830655  67.4890445 116.4109196
  20.3243201  66.8049665 115.7439779  20.7850174  68.2309435 115.9589822
  11.1072810  57.5388309 115.3098256  10.5710167  57.0879048 115.9619853
  10.5189519  57.6734218 114.5668721   9.4021354  74.3052359 109.2042915
   9.6417952  74.9370883 109.8821934   8.5590550  73.9540399 109.4908274
  10.5175069  56.9976961  97.8724720   9.6404536  56.8765761  97.5086967
  10.9932822  56.2063039  97.6203609  20.3848062  65.4530029 114.6423176
  19.4974841  65.1155950 114.7649575  20.9546614  64.7213060 114.8791941
   2.0377210  61.7854120 107.9666227   2.7248249  61.4715850 107.3787243
   1.8825338  62.6895485 107.6933479   6.8411932  56.6744317 112.3951251
   6.7570120  56.0669986 111.6601661   6.0194638  57.1653335 112.3960747
  13.9149216  70.1131481 111.6084419  13.8419387  70.9186452 112.1203724
  13.4726609  70.3123447 110.7832440  13.7038995  69.3503251 105.1187241
  12.9206517  69.8924931 105.2125465  14.4031741  69.8677231 105.5181482
  17.0135646  55.1597880 107.7621446  17.5104345  54.4067843 107.4422516
  16.2422627  55.1962197 107.1964655  24.8665403  60.8638246 109.4039738
  24.8555279  61.7462961 109.0333671  23.9982782  60.5109797 109.2094275
  16.3747899  70.0118315 113.7642578  17.0875872  70.6465780 113.6918479
  15.8837928  70.1082181 112.9482580  18.0965426  63.9169568 105.3359869
  17.1621705  64.0371030 105.1664574  18.2742095  63.0142034 105.0719879
  13.5970614  57.3015263 107.4893131  13.2268402  56.7486304 108.1774036
  14.0929707  56.6973397 106.9368131  21.4837978  59.7586887 105.8709904
  21.9498430  60.5914879 105.7970206  21.9345478  59.2931869 106.5755162
  11.4259813  67.7612758 114.5848149  12.1269272  68.3949241 114.7377543
  10.9554928  68.1027490 113.8243788  19.5514209  66.1030708 102.8696056
  19.8274053  65.9887303 103.7789930  18.6818707  65.7048193 102.8308229
  19.4554640  52.1267474 109.9100805  18.5417720  52.3571701 110.0783012
  19.8847742  52.2105918 110.7614837  19.2261099  60.3157366 112.4100699
  18.5732549  60.5633273 111.7553152  19.6041479  59.5021504 112.0763176
  16.1868273  70.3517059 106.5128869  16.3690667  69.5338715 106.9756622
  17.0101259  70.5684751 106.0753759  16.5210438  69.2785244 103.7743918
  17.0498205  68.7677699 103.1614080  16.7838658  68.9627774 104.6389451
  15.2748672  61.0577177 118.8966736  14.5989309  60.9571306 119.5669111
  16.0976306  60.9016391 119.3602733   7.0227531  67.2949114 111.5179251
   7.6080968  66.5492801 111.6507155   6.8252369  67.6053070 112.4015915
   9.8766186  70.3300361 106.5341694   9.2076561  70.8146489 106.0505734
   9.7379056  70.5769581 107.4485072   1.6145186  59.8654714 110.2383694
   1.6529285  59.3318304 111.0320812   1.1085479  59.3389919 109.6194672
  14.0171455  72.3644104 113.1324352  14.5689763  72.5275726 113.8973437
  14.3577648  72.9548542 112.4604377   8.9935948  54.7119254 113.7346237
   9.0577274  55.5734085 113.3223634   8.9303068  54.0993256 113.0018595
   8.4688221  56.7842387 117.3819271   9.0960259  56.4019464 117.9956795
   7.6116139  56.5656589 117.7474963  18.8682329  67.1905362 118.9873006
  19.4122233  67.8035320 118.4927961  18.2869174  67.7484940 119.5040019
   5.2453763  58.5918816 103.3137626   5.5407204  57.6829494 103.2604679
   4.3441799  58.5706555 102.9918628  17.1539842  70.3126080 110.1188034
  17.0290981  69.5115820 109.6098980  17.8118933  70.8072273 109.6302004
   8.7748010  56.6674812 109.2965174   8.0534596  57.2810780 109.1572648
   9.5641266  57.2032577 109.2181820  19.2174750  68.1135100 111.7467584
  18.2705086  67.9940451 111.6745911  19.5657524  67.2257598 111.8293846
  11.5774324  54.0029239 115.5705826  12.1008726  54.2491536 116.3332135
  11.3586657  54.8349274 115.1508963   6.9741605  56.2732914 103.4376951
   6.6454311  55.3930292 103.2552057   7.3280976  56.2180582 104.3253340
  16.2221184  67.9087816 107.9471936  16.0746146  66.9804524 108.1279507
  17.0474677  67.9307907 107.4629012  10.0883428  56.5605883 103.8052429
  10.4279501  57.0891805 103.0831037  10.5355548  56.8986289 104.5810995
  19.8255306  68.7316375 109.0336809  20.7501853  68.5259236 108.8961260
  19.6570609  68.4832776 109.9426151  12.7826869  54.9442934 113.2555497
  12.4423689  54.1450747 113.6576177  12.0765875  55.2444645 112.6832330
  13.4343341  52.0292246 111.7082820  14.2569410  51.5552725 111.5861710
  13.6781404  52.8082730 112.2081506  12.0751575  55.0580505 102.0045721
  12.7959938  55.4361758 101.5009438  11.4516879  55.7769382 102.1080699
  16.2182698  55.7625654 102.9404054  16.4346312  56.6450292 102.6392882
  15.7376765  55.3711867 102.2109696  10.9581919  58.7211367 109.5174798
  10.8126500  59.0351670 110.4099080  10.4807123  59.3396267 108.9645697
  12.8178302  55.7113915 109.5655688  12.8039871  54.8155008 109.2287986
  13.5350730  55.7184579 110.1993974  14.6704433  56.1451255 111.6108815
  14.4122211  57.0668326 111.6093146  14.1389473  55.7481690 112.3009279
  19.6150622  69.2502042 104.3898901  19.7887499  68.6848465 103.6372753
  20.1079513  70.0502937 104.2078391   5.4327582  61.2616712 112.4562459
   4.8881050  62.0376519 112.5882734   6.3106931  61.6087516 112.2981581
  12.2215198  54.5928295 104.8343258  12.3431109  53.6644942 105.0334145
  11.9317241  54.6066981 103.9221573  15.0906389  52.2783206 107.9709978
  15.1128085  52.3422539 107.0161957  15.5074448  51.4387714 108.1650484
  25.4690013  62.0138465 106.0089200  25.9121159  61.2645791 105.6108324
  24.5916523  62.0048602 105.6262932  20.6025794  68.5668807 101.4895799
  21.2976699  69.1875500 101.7083114  20.9448944  67.7164158 101.7648177
   6.2193603  60.3886608 115.3492616   5.4775339  60.5369243 115.9357247
   5.8986348  60.6494873 114.4859366  22.5017217  66.0168512 103.0183130
  23.0268541  66.3555785 102.2932450  22.4139570  65.0815528 102.8346264
  14.1637266  69.9302586 115.1473006  14.4724393  69.6851733 116.0195706
  14.9612748  70.1349224 114.6591877  14.1857878  72.0840496 107.3778383
  13.7462868  71.5916874 108.0711240  14.9365995  71.5413463 107.1370458
   6.6650217  68.2752037 107.3803011   7.4908237  67.9755808 107.0001655
   6.3144269  67.5059659 107.8292800  11.6331750  67.6278505 109.4500685
  11.0111760  66.9649210 109.1502912  12.3036617  67.6539637 108.7674332
   4.8658822  66.1938363 108.3391945   4.0290730  65.7660537 108.1575946
   4.8382468  66.3870806 109.2762736  11.7056278  56.1060293 119.0433191
  11.7544433  56.9822416 118.6610960  12.2478792  55.5637686 118.4704834
  22.1911123  66.6501416 118.3234328  21.4006667  66.6325555 117.7838827
  21.9544478  67.1889710 119.0783364  22.3108999  63.4993882 115.6367056
  22.3607003  63.3343890 116.5782579  22.2022922  62.6321141 115.2464937
  11.1945257  66.1782428 102.9259145  11.3433378  66.8617892 102.2725818
  12.0011701  66.1587518 103.4408601  19.6012761  59.4824810 116.9526363
  20.5022624  59.3431275 116.6610361  19.6760735  59.6479265 117.8924540
  13.9355566  56.8591665 115.7979549  13.0658876  57.1525231 115.5262138
  14.1715047  57.4432110 116.5186813  23.8127195  65.9190824 115.8809078
  23.5212004  66.2820804 116.7172539  23.1999327  65.2057832 115.7022410
  25.0122878  63.4843704 108.4011648  25.8469769  63.9233508 108.5649208
  25.1482006  63.0082357 107.5819894  22.0614384  61.0423439 114.3489136
  22.5368505  61.2351085 113.5407987  21.1379949  61.0982624 114.1032519
   8.9497890  62.2047606 103.9320214   8.7043932  61.3009936 104.1300424
   9.1193805  62.2064756 102.9899692  16.6394600  53.0771282 113.3144970
  17.1576544  53.8132309 112.9891458  16.2849733  53.3835275 114.1491729
   8.2193538  57.9375963 101.4306375   7.5262783  58.0120318 100.7746411
   7.9745290  57.1736307 101.9527892  16.8907194  49.4971565 108.8345866
  17.1708948  48.8294754 109.4606293  17.6757801  49.6900660 108.3220530
  14.6940663  68.6730559 100.3970893  14.1214630  69.2920746  99.9441364
  15.2673456  69.2229920 100.9310814  20.7616053  57.9189199 112.5817441
  21.7133475  58.0187296 112.6029665  20.5919503  57.1267467 113.0915526
  18.7830432  55.0044782 112.7676842  18.1880364  55.2849795 112.0723331
  18.4980129  55.4938683 113.5393583  17.9137923  68.9567709 101.5279475
  18.8468596  68.8913270 101.7312350  17.8261135  69.7923976 101.0694007
  20.5425939  68.2733579  98.4883422  20.4639571  67.9393443  99.3819180
  21.3635606  68.7655347  98.4874895  23.2404130  61.1395318 111.6959741
  23.2080450  60.2011319 111.8819425  23.8504754  61.2179355 110.9625566
  15.0787461  60.0091371  97.7386945  16.0246566  59.8797579  97.8075363
  14.7001706  59.2706033  98.2156373  23.3898619  57.9306362 111.7418024
  22.8737667  57.1464818 111.5547953  24.2738567  57.6025078 111.9064544
  21.0509346  51.6747377 107.7013837  20.8534167  51.3662465 108.5857169
  21.6609051  52.4009016 107.8311767  29.0580680  62.2011325 110.8365778
  29.7884069  61.9396613 111.3973481  28.4487626  61.4640047 110.8767846
  27.1395977  60.3419188 111.4340229  26.4129141  60.2075153 110.8256721
  26.7243264  60.6496016 112.2396947  14.9626154  64.0609117 119.1987602
  15.8829163  64.2387716 119.3927649  14.9275737  63.1165163 119.0467301
  13.2630378  57.9341348  97.6741830  12.3561834  57.6374460  97.7504544
  13.5406359  57.6371166  96.8076116   4.1808319  59.2547711 108.1240877
   3.8611103  58.4013019 107.8315251   3.6341747  59.4696289 108.8798844
   7.9588226  61.9710152 111.8410383   8.1774236  62.9027260 111.8598417
   8.3714000  61.6118126 112.6265187  14.8792444  52.4778237 103.8286072
  14.0693172  52.1325322 104.2041318  15.5676861  52.1685781 104.4173683
  16.8082992  51.5556284 105.4510368  17.3614031  51.9751738 106.1100391
  17.0453079  50.6292032 105.4933324  12.8316092  57.5443358 121.2313132
  12.7312819  58.4937715 121.1625223  12.6137634  57.2161597 120.3589202
  12.0329163  54.7928283  97.8153809  12.8948327  55.1183181  98.0749627
  12.2179507  54.0059779  97.3026875   4.0496579  62.8750623 110.0933998
   3.3560050  62.4604575 109.5803953   4.7969570  62.9171159 109.4967417
  20.1861799  53.6656809 104.9589032  19.6060469  54.3241613 104.5767085
  19.9197732  52.8434154 104.5476450  18.6365366  53.0661867 107.1610353
  19.1365144  53.1778402 106.3524672  19.2800974  52.7622920 107.8011161
  12.6947362  60.9740497 120.0478194  12.2114443  61.7740857 120.2542083
  12.7808301  60.9848442 119.0945638   5.9633321  62.8068876 107.9700013
   5.9404009  62.9056564 107.0181896   6.2733958  63.6534027 108.2917179
   8.6220699  64.8645031 112.0846628   9.5763953  64.8328974 112.0176559
   8.4233223  64.4035655 112.8996853   9.2120081  63.4346147 114.6517425
  10.0312970  63.9290226 114.6752262   9.4856889  62.5178116 114.6234993
  18.9686677  55.8256900 104.0145381  18.0812533  56.1106550 103.7965575
  19.3840667  55.6650663 103.1672658  22.3201214  55.8503421 107.7299720
  23.0961604  56.3399873 108.0024337  21.5949348  56.2761475 108.1871589
  24.7573772  56.5631040 108.7873661  25.3518263  56.3226776 108.0766969
  24.8300356  55.8438171 109.4147197   6.9770928  70.4064651 109.1016825
   6.8425396  69.6465052 108.5354823   6.5602990  71.1305551 108.6345614
  18.1129891  65.5901574  98.1093401  18.8165741  65.7951577  98.7251056
  17.3892540  66.1578336  98.3742484  18.9427701  61.3411436 104.2295671
  18.8862903  61.7979987 103.3903303  19.4956044  60.5802120 104.0518514
  22.7532507  57.1301168 105.0545790  22.4969441  56.7297803 105.8853998
  22.1285375  57.8444961 104.9295930  27.0644845  59.8697241 107.5617082
  26.5044403  59.9390430 108.3348644  26.4588348  59.6938225 106.8416578
  10.1340054  71.3033968 109.3135268  10.0172438  72.2479400 109.2113958
   9.3132500  71.0007529 109.7021067  20.0216588  66.0284104 100.1591861
  20.8562192  65.5965302  99.9769336  19.8600931  65.8566117 101.0868755
  19.6762481  62.5316217 101.5248200  19.6211284  62.3660488 100.5836644
  19.0508536  63.2392250 101.6810390   4.4654996  57.7684281 115.3509622
   5.1113859  57.2583235 115.8396847   4.2572147  58.5052963 115.9253048
  16.9908388  64.8365129 120.8501763  17.8599547  65.0105781 120.4888398
  16.5115139  65.6559546 120.7277492  12.9858606  52.0324326 101.1033518
  12.9737276  52.9766166 101.2601789  13.8782028  51.8494471 100.8092980
  11.1594568  71.9562230 112.5291196  12.0621815  71.9885840 112.8457691
  10.9331938  71.0262681 112.5437532  12.9148170  70.7093216 109.1901275
  11.9643801  70.7095078 109.0765647  13.2180656  69.9625951 108.6737310
  16.8010725  48.6267103 105.3579455  16.0343121  48.0725589 105.5036138
  17.2121430  48.6988971 106.2193607  28.6500863  76.5453755 110.2547038
  29.2879273  76.4260502 109.5510378  28.5321706  77.4934599 110.3134990
  25.4590570  76.4981183 110.1908562  25.1209081  76.3822248 109.3029097
  26.3280338  76.0972348 110.1709568  21.3177385  78.3516659 106.1805453
  20.7542251  78.2606596 105.4121741  21.2029780  77.5316564 106.6607946
  25.9410353  77.6516035 116.1494768  25.9298993  77.2568833 115.2775271
  26.1030992  76.9182107 116.7428539  18.8641817  79.8467851 109.0189674
  19.6563109  79.5058675 108.6035973  19.1038468  79.9562826 109.9391827
  26.8976944  82.0187627 101.4919918  26.2464924  82.6041707 101.1053932
  27.6921307  82.5493822 101.5514956  20.8232571  79.1076764 101.8907052
  21.5963447  78.5605751 101.7519928  21.1757970  79.9721013 102.1021514
  22.6617614  80.4353146 115.0973952  22.3707480  81.3398777 114.9820618
  23.2974598  80.4769674 115.8118021  23.5873821  77.8129995 111.6875311
  24.1837393  77.5886017 110.9732274  23.6448792  77.0714740 112.2900759
  23.1598849  75.2669430  99.5225502  23.4124370  74.7450951  98.7608965
  22.2223408  75.1035576  99.6252186  28.2042132  74.2705209 107.3300246
  28.9905221  73.8524632 106.9790663  28.4680836  75.1751301 107.4981894
  28.3752209  79.7078059 102.0288902  27.7398042  79.7812685 102.7409807
  28.0449616  80.2971658 101.3507982  33.6050559  74.2080442 108.2333224
  34.3375731  73.6379659 108.4671054  32.8489915  73.8202042 108.6739730
  22.8795138  77.1697536 101.7249877  22.7631396  76.4942440 102.3930962
  22.9897398  76.6829910 100.9082030  25.2226679  76.6307683 105.4296567
  24.8584886  76.1038304 106.1409488  26.0793795  76.2406152 105.2563052
  31.1275979  67.9202016 112.6927833  30.7959304  68.7897427 112.4689048
  30.5321593  67.6038300 113.3721863  24.8632166  71.6597583 100.4257915
  25.0306568  72.5277819 100.7928386  24.6729335  71.8224865  99.5019204
  27.6207499  80.1214562 112.0923745  27.3208222  81.0239601 111.9839553
  27.2758558  79.8546745 112.9444898  21.0719980  76.5728359 108.1260450
  20.1470477  76.4404573 108.3338142  21.3204394  77.3522578 108.6230392
  31.0204643  72.6397102 109.7721183  30.1121520  72.5712510 109.4779944
  30.9692239  73.1169047 110.6003008  24.8421387  74.1155240 101.4104582
  24.7221012  74.5612291 102.2490062  24.1473975  74.4640558 100.8518120
  18.4328791  76.2161632 108.9604239  18.5621173  76.4696111 109.8743651
  17.7526243  76.8089340 108.6408894  22.6028279  86.8858882 105.0594713
  22.5252308  87.8366707 105.1383194  21.9989922  86.5404755 105.7169639
  25.0945509  74.0586748 117.7156080  24.3178843  74.6180668 117.7058945
  25.7336072  74.5443531 118.2370950  32.8866289  70.8413540 111.5499057
  32.2440669  71.1346074 110.9038851  32.3821218  70.7266461 112.3552253
  30.5406453  74.5876714 102.2384916  31.4524309  74.8204100 102.0632613
  30.0316100  75.1713758 101.6759995  23.3491881  76.8672201 117.2774047
  24.0906565  77.4057245 117.0008871  22.6428866  77.4938490 117.4345599
  28.8247220  79.0101341 115.8746208  29.2330577  78.5683752 115.1300841
  28.1024482  78.4353969 116.1280401  25.1778291  73.9473948 113.2479765
  26.0239486  74.3713362 113.3914414  25.1176928  73.2907573 113.9418329
  29.1476035  79.5702532 109.6298497  28.5184898  79.7348246 108.9274565
  28.7601697  79.9844142 110.4009461  33.0265267  80.5056970 106.9842861
  32.3416305  80.8855871 106.4339894  33.1109116  81.1152297 107.7174809
  28.3277736  71.6078317 114.9060939  28.0838668  72.3620377 114.3695215
  28.6037666  71.9863664 115.7408186  30.2816199  78.1516929 113.5838205
  30.4933094  78.7948689 112.9072586  30.2345947  77.3179246 113.1160135
  27.8842428  70.7634750 110.4874777  27.0226907  71.0616003 110.7791514
  27.9104862  70.9805149 109.5555809  24.7003997  79.3076940 106.8948582
  25.1642343  79.5864643 106.1053205  24.4360795  78.4060385 106.7121673
  21.5928078  78.8548422 109.8328346  22.1629435  79.2835690 109.1945830
  22.1836190  78.5731006 110.5312531  23.6372883  75.4300093 103.7038148
  24.3396926  75.8821136 104.1712074  23.3053512  74.7883911 104.3318041
  22.0853245  74.0211849 118.0789357  21.4551905  74.7028130 118.3124754
  21.9789332  73.9094931 117.1342495  17.3798217  73.6883645 109.0055281
  16.5897271  73.9441174 108.5295392  17.8709464  74.5031983 109.1107322
  31.3962027  81.0288884 111.7560562  32.2179470  80.6269072 111.4743244
  31.3924429  80.9257119 112.7076678  19.3312962  74.0528224 105.9638758
  18.5344126  74.1646919 106.4822254  19.1038555  74.3914877 105.0979648
  25.1618630  80.5772928 113.9121272  25.2263063  81.0393335 114.7479444
  24.4529554  79.9470293 114.0403582  15.6635920  73.9414136 111.4370272
  15.9143958  74.8261146 111.7027848  16.1995468  73.7618737 110.6645364
  39.4868020  77.3727633 108.1045533  38.7331728  76.8035031 107.9489538
  39.6215561  77.3390297 109.0516168  24.8766648  82.2441035 103.7800253
  24.7412322  83.0892571 104.2085101  25.4176460  82.4460313 103.0166187
  21.3633987  68.3232615 120.4414608  20.9700933  67.7698814 121.1162252
  22.1800128  68.6343193 120.8321126  18.3296045  79.7616473 104.3528178
  18.8420566  80.5559723 104.5033743  18.9818758  79.0642764 104.2861779
  20.1390930  82.8782229 106.4350931  20.3157558  83.8000194 106.2471915
  20.9347763  82.5640649 106.8645311  24.2801948  69.7390494 118.0334865
  25.0211662  70.3397647 117.9539327  24.5119871  68.9968132 117.4752907
  19.4243286  74.9246861 116.3113094  19.3096801  74.0232119 116.6120193
  18.5687804  75.1710558 115.9597911  26.5035124  82.8664602 117.9100595
  26.0598978  82.0800980 117.5921499  27.1652338  83.0543752 117.2444486
  21.2622245  84.3960403 112.4361273  21.8129670  84.2677467 111.6638267
  20.4233721  84.6955292 112.0856166  28.6016362  83.1467402 115.9381996
  28.5834837  83.9676283 115.4462265  29.5236282  83.0221477 116.1632137
  25.0589416  80.6611531 116.7805505  25.5917753  79.8999819 116.5504813
  24.5303497  80.3685183 117.5229659  28.2259111  65.7671597 112.3099146
  27.8823381  66.6573239 112.2338257  28.5938074  65.5773255 111.4468731
  16.2944962  78.0905128 105.1287748  17.1320184  78.5002136 104.9121456
  16.4723230  77.1504570 105.0987942  28.1909394  75.7580208 100.8171581
  27.6756017  76.5284813 101.0559969  27.9186702  75.0845344 101.4404643
  25.7756505  70.6029909 105.8756820  24.9198101  70.2136759 105.6962458
  26.1883457  70.6821870 105.0156605  27.3055652  68.1376252 110.2748380
  26.8020447  68.1006387 109.4616185  27.5986258  69.0468995 110.3345036
  23.5498538  68.2214982 109.2814561  24.4151534  68.0257791 108.9220451
  23.6176046  67.9925334 110.2083918  33.1643668  78.5112563 102.7524755
  32.3873111  78.1723722 102.3079917  33.8435149  78.5165186 102.0779720
  27.9795697  73.6307300 102.6431363  27.6745833  73.9453449 103.4941506
  28.9326139  73.7088720 102.6858696  26.4242129  79.7897524 104.2924317
  25.8963491  79.0550283 103.9797554  25.9229632  80.5672200 104.0464285
  31.4034975  77.9846544 109.4091363  30.7458649  78.6745805 109.4971491
  32.2075374  78.3742976 109.7525349  21.1560857  70.4517190 106.6530928
  21.7304608  70.2292371 105.9204121  21.7431839  70.5205884 107.4059529
  30.2140434  76.3390917 107.4595305  30.7272316  76.9720909 107.9617014
  30.8641658  75.7392112 107.0938665  21.4830444  72.4821651 100.6726813
  20.6467756  72.8196337 100.9936088  21.3435213  72.3470631  99.7353950
  23.4583524  67.3258439 105.3805997  22.8047937  67.0107456 104.7562612
  23.4163998  66.7034179 106.1065820  24.5694729  77.6077734  97.2959290
  23.6621791  77.3766987  97.4950439  25.0665761  76.8115353  97.4833271
  27.4762808  86.3175241 100.2155976  26.8024507  86.6206938 100.8240934
  27.8628630  87.1204321  99.8661433  26.6921265  73.8140372 109.7053645
  25.7743826  74.0355319 109.5475333  27.1081408  73.8886683 108.8465352
  27.4756312  75.2131788 104.8356325  28.2228131  75.7253185 104.5263447
  27.7447902  74.8915841 105.6960719  25.7482963  77.7090329 101.8183280
  24.8394182  77.4249362 101.9155749  25.7778046  78.1289407 100.9586587
  30.9802230  81.3196918 105.5874447  30.5264557  80.4787828 105.6439638
  30.3496197  81.9558317 105.9249227  29.9235150  72.2488904 106.8175115
  29.1857906  71.7366290 107.1485357  30.1761923  71.8089286 106.0058392
  29.4235169  83.1573415 106.5224265  29.7158144  83.7178472 105.8036631
  29.9333790  83.4501976 107.2777424  30.0246777  65.0265156 107.4116884
  30.3305654  64.1662520 107.1242799  30.7499382  65.6182776 107.2115878
  16.3171133  75.4295843 105.7998482  16.1195533  74.8365204 105.0749548
  15.7617797  75.1248053 106.5174421  24.2967857  75.3218949 107.9193075
  24.3516466  74.3692786 107.8435552  23.4859059  75.4778388 108.4034373
  25.4459050  79.2499072  99.1571358  25.0078480  78.5334931  98.6976996
  26.1869491  79.4775187  98.5956450  22.2360217  73.9396009 105.6783454
  21.4228082  74.2390180 106.0848646  22.7319211  73.5451698 106.3957936
  24.3868794  83.9353766 107.6117719  24.3444973  84.1614612 106.6826251
  25.3031493  83.7017141 107.7603520  27.8334428  74.4037834 114.5098348
  28.1883816  74.6309307 115.3692814  28.4806559  74.7356210 113.8875603
  33.5632165  77.5256269 105.2147677  33.4250064  77.7157865 104.2868866
  33.2068384  78.2875652 105.6715728  21.7274291  71.5114365 111.2944689
  22.3673671  71.3703124 110.5967652  20.8951822  71.2248878 110.9183291
  33.5901545  79.5932796 110.2258948  34.0238051  79.5008086 111.0742002
  34.3033125  79.5690297 109.5878964  22.5034595  80.8116795 107.4079681
  23.2975194  80.3167115 107.2062256  21.7926288  80.2834658 107.0447387
  27.3229440  83.1934891 111.7592049  27.3766462  83.7625827 112.5269765
  26.4544221  83.3636776 111.3946086  18.8117359  74.9559877 103.4839434
  17.8814947  74.8944332 103.7009396  18.9074831  74.4335829 102.6876075
  18.7302908  71.4814690 106.0717676  18.9909725  72.3960023 105.9626836
  19.5520080  71.0139132 106.2214288  20.2027833  72.8952447 113.2416500
  20.8750886  72.6869809 112.5929149  19.3757620  72.6974533 112.8021732
  34.4517094  79.6356497 112.7591834  34.6452984  80.5402308 113.0051109
  34.3517713  79.1763916 113.5930419  26.1053405  69.5214388 115.2582161
  25.4581320  70.2204337 115.1646637  26.8754420  69.9550532 115.6258409
  29.5132203  79.7863240 118.3332714  29.3617709  79.5573792 117.4162798
  29.5036882  80.7433841 118.3464059  26.2817539  77.3595153 113.3178981
  27.2109599  77.5106312 113.1447948  25.8608569  77.4479173 112.4627627
  25.0805871  81.3845817 111.0877518  24.9416957  81.0164601 111.9603457
  24.2920467  81.8993456 110.9161476  25.6754023  86.4854913 102.4303055
  25.8505779  86.0142957 103.2448678  24.9886811  87.1120680 102.6584316
  26.6311086  80.7627420 108.4766356  26.2960919  80.7228190 109.3724006
  26.1315032  80.0972136 108.0036766  20.6055330  76.1695050 114.0018937
  20.4675128  75.4375289 114.6030476  21.5160254  76.0803950 113.7203125
  29.5670278  78.1083454  98.7503416  28.9499449  77.3830282  98.6536469
  29.0986766  78.8692814  98.4070490  23.2337631  75.8815009 113.4902617
  23.9437250  75.2408201 113.4489235  23.1906939  76.1327904 114.4128798
  31.2224410  82.8182362 116.4109196  31.1636956  82.1341583 115.7439779
  31.6243928  83.5601352 115.9589822  21.9466565  72.8680227 115.3098256
  21.4103922  72.4170965 115.9619853  21.3583273  73.0026136 114.5668721
  20.2415108  89.6344276 109.2042915  20.4811707  90.2662800 109.8821934
  19.3984305  89.2832316 109.4908274  21.3568824  72.3268878  97.8724720
  20.4798290  72.2057679  97.5086967  21.8326577  71.5354957  97.6203609
  31.2241817  80.7821946 114.6423176  30.3368596  80.4447868 114.7649575
  31.7940368  80.0504978 114.8791941  12.8770964  77.1146038 107.9666227
  13.5642004  76.8007768 107.3787243  12.7219093  78.0187403 107.6933479
  17.6805686  72.0036235 112.3951251  17.5963875  71.3961904 111.6601661
  16.8588393  72.4945253 112.3960747  24.7542970  85.4423399 111.6084419
  24.6813142  86.2478370 112.1203724  24.3120363  85.6415364 110.7832440
  24.5432750  84.6795169 105.1187241  23.7600272  85.2216849 105.2125465
  25.2425495  85.1969148 105.5181482  27.8529400  70.4889798 107.7621446
  28.3498100  69.7359760 107.4422516  27.0816382  70.5254115 107.1964655
  35.7059157  76.1930164 109.4039738  35.6949034  77.0754879 109.0333671
  34.8376537  75.8401715 109.2094275  27.2141654  85.3410233 113.7642578
  27.9269626  85.9757698 113.6918479  26.7231682  85.4374099 112.9482580
  28.9359181  79.2461485 105.3359869  28.0015459  79.3662948 105.1664574
  29.1135849  78.3433952 105.0719879  24.4364369  72.6307181 107.4893131
  24.0662156  72.0778222 108.1774036  24.9323461  72.0265315 106.9368131
  32.3231732  75.0878805 105.8709904  32.7892184  75.9206796 105.7970206
  32.7739233  74.6223786 106.5755162  22.2653567  83.0904676 114.5848149
  22.9663027  83.7241159 114.7377543  21.7948682  83.4319408 113.8243788
  30.3907963  81.4322626 102.8696056  30.6667807  81.3179221 103.7789930
  29.5212462  81.0340111 102.8308229  30.2948395  67.4559392 109.9100805
  29.3811475  67.6863618 110.0783012  30.7241496  67.5397836 110.7614837
  30.0654853  75.6449284 112.4100699  29.4126304  75.8925191 111.7553152
  30.4435233  74.8313422 112.0763176  27.0262027  85.6808977 106.5128869
  27.2084422  84.8630633 106.9756622  27.8495013  85.8976669 106.0753759
  27.3604193  84.6077162 103.7743918  27.8891959  84.0969616 103.1614080
  27.6232412  84.2919692 104.6389451  26.1142426  76.3869095 118.8966736
  25.4383063  76.2863224 119.5669111  26.9370060  76.2308308 119.3602733
  17.8621285  82.6241031 111.5179251  18.4474722  81.8784719 111.6507155
  17.6646124  82.9344988 112.4015915  20.7159941  85.6592279 106.5341694
  20.0470316  86.1438406 106.0505734  20.5772810  85.9061499 107.4485072
  12.4538940  75.1946631 110.2383694  12.4923040  74.6610222 111.0320812
  11.9479233  74.6681837 109.6194672  24.8565209  87.6936022 113.1324352
  25.4083517  87.8567644 113.8973437  25.1971403  88.2840460 112.4604377
  19.8329702  70.0411172 113.7346237  19.8971029  70.9026003 113.3223634
  19.7696823  69.4285174 113.0018595  19.3081975  72.1134304 117.3819271
  19.9354014  71.7311382 117.9956795  18.4509894  71.8948506 117.7474963
  29.7076084  82.5197280 118.9873006  30.2515988  83.1327238 118.4927961
  29.1262928  83.0776858 119.5040019  16.0847518  73.9210734 103.3137626
  16.3800959  73.0121412 103.2604679  15.1835554  73.8998473 102.9918628
  27.9933597  85.6417998 110.1188034  27.8684736  84.8407737 109.6098980
  28.6512688  86.1364191 109.6302004  19.6141765  71.9966730 109.2965174
  18.8928351  72.6102698 109.1572648  20.4035021  72.5324495 109.2181820
  30.0568505  83.4427018 111.7467584  29.1098840  83.3232369 111.6745911
  30.4051278  82.5549516 111.8293846  22.4168078  69.3321157 115.5705826
  22.9402480  69.5783453 116.3332135  22.1980412  70.1641191 115.1508963
  17.8135359  71.6024831 103.4376951  17.4848066  70.7222210 103.2552057
  18.1674730  71.5472500 104.3253340  27.0614938  83.2379734 107.9471936
  26.9139901  82.3096441 108.1279507  27.8868432  83.2599825 107.4629012
  20.9277183  71.8897801 103.8052429  21.2673255  72.4183722 103.0831037
  21.3749303  72.2278207 104.5810995  30.6649060  84.0608293 109.0336809
  31.5895608  83.8551154 108.8961260  30.4964363  83.8124694 109.9426151
  23.6220623  70.2734852 113.2555497  23.2817444  69.4742665 113.6576177
  22.9159630  70.5736563 112.6832330  24.2737095  67.3584164 111.7082820
  25.0963164  66.8844642 111.5861710  24.5175159  68.1374648 112.2081506
  22.9145330  70.3872423 102.0045721  23.6353692  70.7653675 101.5009438
  22.2910634  71.1061299 102.1080699  27.0576453  71.0917572 102.9404054
  27.2740067  71.9742209 102.6392882  26.5770520  70.7003785 102.2109696
  21.7975674  74.0503285 109.5174798  21.6520255  74.3643588 110.4099080
  21.3200878  74.6688185 108.9645697  23.6572057  71.0405833 109.5655688
  23.6433626  70.1446926 109.2287986  24.3744485  71.0476497 110.1993974
  25.5098188  71.4743173 111.6108815  25.2515965  72.3960244 111.6093146
  24.9783228  71.0773608 112.3009279  30.4544376  84.5793960 104.3898901
  30.6281254  84.0140383 103.6372753  30.9473268  85.3794855 104.2078391
  16.2721336  76.5908629 112.4562459  15.7274804  77.3668437 112.5882734
  17.1500686  76.9379434 112.2981581  23.0608953  69.9220213 104.8343258
  23.1824864  68.9936859 105.0334145  22.7710995  69.9358899 103.9221573
  25.9300143  67.6075124 107.9709978  25.9521840  67.6714457 107.0161957
  26.3468202  66.7679632 108.1650484  36.3083767  77.3430383 106.0089200
  36.7514913  76.5937708 105.6108324  35.4310278  77.3340519 105.6262932
  31.4419549  83.8960725 101.4895799  32.1370453  84.5167417 101.7083114
  31.7842699  83.0456076 101.7648177  17.0587358  75.7178525 115.3492616
  16.3169094  75.8661161 115.9357247  16.7380102  75.9786791 114.4859366
  33.3410972  81.3460430 103.0183130  33.8662296  81.6847703 102.2932450
  33.2533324  80.4107445 102.8346264  25.0031021  85.2594504 115.1473006
  25.3118147  85.0143650 116.0195706  25.8006503  85.4641142 114.6591877
  25.0251633  87.4132413 107.3778383  24.5856623  86.9208792 108.0711240
  25.7759750  86.8705381 107.1370458  17.5043972  83.6043954 107.3803011
  18.3301992  83.3047726 107.0001655  17.1538024  82.8351577 107.8292800
  22.4725505  82.9570422 109.4500685  21.8505514  82.2941127 109.1502912
  23.1430372  82.9831554 108.7674332  15.7052577  81.5230281 108.3391945
  14.8684485  81.0952455 108.1575946  15.6776222  81.7162724 109.2762736
  22.5450032  71.4352210 119.0433191  22.5938188  72.3114333 118.6610960
  23.0872546  70.8929603 118.4704834  33.0304878  81.9793334 118.3234328
  32.2400422  81.9617473 117.7838827  32.7938233  82.5181627 119.0783364
  33.1502753  78.8285800 115.6367056  33.2000758  78.6635808 116.5782579
  33.0416676  77.9613059 115.2464937  22.0339012  81.5074346 102.9259145
  22.1827132  82.1909810 102.2725818  22.8405455  81.4879436 103.4408601
  30.4406515  74.8116728 116.9526363  31.3416378  74.6723193 116.6610361
  30.5154490  74.9771183 117.8924540  24.7749321  72.1883583 115.7979549
  23.9052630  72.4817149 115.5262138  25.0108801  72.7724028 116.5186813
  34.6520950  81.2482742 115.8809078  34.3605758  81.6112722 116.7172539
  34.0393081  80.5349750 115.7022410  35.8516632  78.8135621 108.4011648
  36.6863524  79.2525425 108.5649208  35.9875761  78.3374275 107.5819894
  32.9008138  76.3715356 114.3489136  33.3762260  76.5643003 113.5407987
  31.9773703  76.4274542 114.1032519  19.7891645  77.5339523 103.9320214
  19.5437687  76.6301853 104.1300424  19.9587559  77.5356674 102.9899692
  27.4788355  68.4063200 113.3144970  27.9970298  69.1424227 112.9891458
  27.1243487  68.7127193 114.1491729  19.0587292  73.2667881 101.4306375
  18.3656537  73.3412236 100.7746411  18.8139044  72.5028225 101.9527892
  27.7300949  64.8263482 108.8345866  28.0102702  64.1586671 109.4606293
  28.5151556  65.0192578 108.3220530  25.5334417  84.0022476 100.3970893
  24.9608384  84.6212663  99.9441364  26.1067211  84.5521838 100.9310814
  31.6009807  73.2481116 112.5817441  32.5527230  73.3479214 112.6029665
  31.4313257  72.4559385 113.0915526  29.6224187  70.3336700 112.7676842
  29.0274119  70.6141712 112.0723331  29.3373883  70.8230600 113.5393583
  28.7531677  84.2859626 101.5279475  29.6862350  84.2205188 101.7312350
  28.6654890  85.1215893 101.0694007  31.3819694  83.6025497  98.4883422
  31.3033325  83.2685360  99.3819180  32.2029360  84.0947265  98.4874895
  34.0797885  76.4687236 111.6959741  34.0474205  75.5303237 111.8819425
  34.6898509  76.5471273 110.9625566  25.9181216  75.3383289  97.7386945
  26.8640320  75.2089497  97.8075363  25.5395461  74.5997951  98.2156373
  34.2292373  73.2598279 111.7418024  33.7131422  72.4756736 111.5547953
  35.1132322  72.9316996 111.9064544  31.8903100  67.0039295 107.7013837
  31.6927921  66.6954383 108.5857169  32.5002806  67.7300934 107.8311767
  39.8974435  77.5303243 110.8365778  40.6277823  77.2688531 111.3973481
  39.2881380  76.7931965 110.8767846  37.9789732  75.6711105 111.4340229
  37.2522895  75.5367070 110.8256721  37.5637019  75.9787934 112.2396947
  25.8019908  79.3901035 119.1987602  26.7222918  79.5679634 119.3927649
  25.7669491  78.4457080 119.0467301  24.1024133  73.2633265  97.6741830
  23.1955588  72.9666378  97.7504544  24.3800114  72.9663083  96.8076116
  15.0202073  74.5839629 108.1240877  14.7004858  73.7304937 107.8315251
  14.4735501  74.7988207 108.8798844  18.7981981  77.3002070 111.8410383
  19.0167991  78.2319178 111.8598417  19.2107755  76.9410044 112.6265187
  25.7186199  67.8070155 103.8286072  24.9086927  67.4617240 104.2041318
  26.4070616  67.4977699 104.4173683  27.6476747  66.8848202 105.4510368
  28.2007785  67.3043655 106.1100391  27.8846833  65.9583950 105.4933324
  23.6709846  72.8735276 121.2313132  23.5706573  73.8229632 121.1625223
  23.4531388  72.5453514 120.3589202  22.8722917  70.1220201  97.8153809
  23.7342081  70.4475099  98.0749627  23.0573262  69.3351696  97.3026875
  14.8890333  78.2042540 110.0933998  14.1953805  77.7896493 109.5803953
  15.6363324  78.2463077 109.4967417  31.0255554  68.9948727 104.9589032
  30.4454223  69.6533531 104.5767085  30.7591487  68.1726072 104.5476450
  29.4759120  68.3953785 107.1610353  29.9758899  68.5070319 106.3524672
  30.1194728  68.0914838 107.8011161  23.5341116  76.3032414 120.0478194
  23.0508198  77.1032774 120.2542083  23.6202055  76.3140359 119.0945638
  16.8027076  78.1360794 107.9700013  16.7797764  78.2348481 107.0181896
  17.1127712  78.9825945 108.2917179  19.4614454  80.1936949 112.0846628
  20.4157707  80.1620891 112.0176559  19.2626977  79.7327573 112.8996853
  20.0513836  78.7638065 114.6517425  20.8706725  79.2582144 114.6752262
  20.3250643  77.8470033 114.6234993  29.8080432  71.1548817 104.0145381
  28.9206287  71.4398468 103.7965575  30.2234421  70.9942581 103.1672658
  33.1594968  71.1795338 107.7299720  33.9355358  71.6691791 108.0024337
  32.4343102  71.6053393 108.1871589  35.5967527  71.8922958 108.7873661
  36.1912018  71.6518694 108.0766969  35.6694110  71.1730088 109.4147197
  17.8164682  85.7356569 109.1016825  17.6819150  84.9756969 108.5354823
  17.3996745  86.4597468 108.6345614  28.9523645  80.9193492  98.1093401
  29.6559496  81.1243495  98.7251056  28.2286294  81.4870254  98.3742484
  29.7821456  76.6703353 104.2295671  29.7256657  77.1271905 103.3903303
  30.3349798  75.9094038 104.0518514  33.5926262  72.4593085 105.0545790
  33.3363196  72.0589721 105.8853998  32.9679130  73.1736879 104.9295930
  37.9038599  75.1989158 107.5617082  37.3438157  75.2682348 108.3348644
  37.2982103  75.0230143 106.8416578  20.9733808  86.6325886 109.3135268
  20.8566192  87.5771318 109.2113958  20.1526255  86.3299447 109.7021067
  30.8610343  81.3576021 100.1591861  31.6955947  80.9257220  99.9769336
  30.6994686  81.1858035 101.0868755  30.5156235  77.8608135 101.5248200
  30.4605039  77.6952406 100.5836644  29.8902290  78.5684167 101.6810390
  15.3048750  73.0976199 115.3509622  15.9507614  72.5875153 115.8396847
  15.0965901  73.8344881 115.9253048  27.8302142  80.1657046 120.8501763
  28.6993302  80.3397699 120.4888398  27.3508894  80.9851463 120.7277492
  23.8252361  67.3616244 101.1033518  23.8131030  68.3058084 101.2601789
  24.7175782  67.1786389 100.8092980  21.9988322  87.2854147 112.5291196
  22.9015569  87.3177758 112.8457691  21.7725693  86.3554598 112.5437532
  23.7541924  86.0385134 109.1901275  22.8037555  86.0386996 109.0765647
  24.0574411  85.2917869 108.6737310  27.6404480  63.9559020 105.3579455
  26.8736876  63.4017507 105.5036138  28.0515185  64.0280889 106.2193607
  19.6446241  70.2443816 119.4484637  20.5077703  69.8880621 119.6587961
  19.0711652  69.9057711 120.1360041  39.4894618  91.8745672 110.2547038
  40.1273028  91.7552420 109.5510378  39.3715461  92.8226516 110.3134990
  36.2984324  91.8273100 110.1908562  35.9602836  91.7114165 109.3029097
  37.1674092  91.4264266 110.1709568  32.1571140  93.6808577 106.1805453
  31.5936005  93.5898514 105.4121741  32.0423535  92.8608481 106.6607946
  36.7804107  92.9807952 116.1494768  36.7692748  92.5860750 115.2775271
  36.9424747  92.2474025 116.7428539  29.7035572  95.1759769 109.0189674
  30.4956864  94.8350593 108.6035973  29.9432222  95.2854744 109.9391827
  37.7370699  97.3479545 101.4919918  37.0858678  97.9333625 101.1053932
  38.5315061  97.8785740 101.5514956  31.6626326  94.4368682 101.8907052
  32.4357202  93.8897669 101.7519928  32.0151725  95.3012931 102.1021514
  33.5011368  95.7645064 115.0973952  33.2101234  96.6690695 114.9820618
  34.1368353  95.8061592 115.8118021  34.4267575  93.1421913 111.6875311
  35.0231147  92.9177935 110.9732274  34.4842547  92.4006658 112.2900759
  33.9992604  90.5961348  99.5225502  34.2518124  90.0742869  98.7608965
  33.0617163  90.4327493  99.6252186  39.0435886  89.5997126 107.3300246
  39.8298976  89.1816549 106.9790663  39.3074591  90.5043218 107.4981894
  39.2145964  95.0369977 102.0288902  38.5791797  95.1104603 102.7409807
  38.8843370  95.6263575 101.3507982  44.4444314  89.5372359 108.2333224
  45.1769486  88.9671576 108.4671054  43.6883669  89.1493960 108.6739730
  33.7188892  92.4989454 101.7249877  33.6025150  91.8234357 102.3930962
  33.8291152  92.0121828 100.9082030  36.0620433  91.9599601 105.4296567
  35.6978641  91.4330222 106.1409488  36.9187549  91.5698070 105.2563052
  41.9669734  83.2493934 112.6927833  41.6353059  84.1189345 112.4689048
  41.3715347  82.9330218 113.3721863  35.7025920  86.9889501 100.4257915
  35.8700323  87.8569737 100.7928386  35.5123089  87.1516782  99.5019204
  38.4601253  95.4506480 112.0923745  38.1601977  96.3531518 111.9839553
  38.1152313  95.1838663 112.9444898  31.9113735  91.9020276 108.1260450
  30.9864231  91.7696490 108.3338142  32.1598148  92.6814496 108.6230392
  41.8598397  87.9689020 109.7721183  40.9515275  87.9004428 109.4779944
  41.8085993  88.4460965 110.6003008  35.6815141  89.4447158 101.4104582
  35.5614766  89.8904209 102.2490062  34.9867730  89.7932476 100.8518120
  29.2722546  91.5453550 108.9604239  29.4014927  91.7988029 109.8743651
  28.5919997  92.1381258 108.6408894  33.4422033 102.2150800 105.0594713
  33.3646063 103.1658625 105.1383194  32.8383677 101.8696672 105.7169639
  35.9339263  89.3878665 117.7156080  35.1572597  89.9472585 117.7058945
  36.5729826  89.8735448 118.2370950  43.7260044  86.1705458 111.5499057
  43.0834424  86.4637991 110.9038851  43.2214972  86.0558378 112.3552253
  41.3800207  89.9168631 102.2384916  42.2918063  90.1496018 102.0632613
  40.8709854  90.5005676 101.6759995  34.1885635  92.1964119 117.2774047
  34.9300320  92.7349163 117.0008871  33.4822621  92.8230407 117.4345599
  39.6640975  94.3393259 115.8746208  40.0724331  93.8975670 115.1300841
  38.9418236  93.7645887 116.1280401  36.0172045  89.2765866 113.2479765
  36.8633240  89.7005279 113.3914414  35.9570683  88.6199490 113.9418329
  39.9869790  94.8994450 109.6298497  39.3578652  95.0640164 108.9274565
  39.5995452  95.3136059 110.4009461  43.8659022  95.8348888 106.9842861
  43.1810060  96.2147789 106.4339894  43.9502871  96.4444214 107.7174809
  39.1671490  86.9370234 114.9060939  38.9232422  87.6912295 114.3695215
  39.4431421  87.3155582 115.7408186  41.1209953  93.4808847 113.5838205
  41.3326848  94.1240607 112.9072586  41.0739701  92.6471163 113.1160135
  38.7236182  86.0926667 110.4874777  37.8620661  86.3907921 110.7791514
  38.7498617  86.3097066 109.5555809  35.5397751  94.6368858 106.8948582
  36.0036097  94.9156561 106.1053205  35.2754550  93.7352302 106.7121673
  32.4321833  94.1840339 109.8328346  33.0023190  94.6127608 109.1945830
  33.0229944  93.9022924 110.5312531  34.4766638  90.7592010 103.7038148
  35.1790681  91.2113054 104.1712074  34.1447266  90.1175829 104.3318041
  32.9246999  89.3503767 118.0789357  32.2945660  90.0320048 118.3124754
  32.8183087  89.2386848 117.1342495  28.2191971  89.0175563 109.0055281
  27.4291025  89.2733091 108.5295392  28.7103219  89.8323901 109.1107322
  42.2355781  96.3580802 111.7560562  43.0573225  95.9560989 111.4743244
  42.2318184  96.2549036 112.7076678  30.1706717  89.3820142 105.9638758
  29.3737880  89.4938836 106.4822254  29.9432309  89.7206794 105.0979648
  36.0012385  95.9064845 113.9121272  36.0656817  96.3685253 114.7479444
  35.2923308  95.2762210 114.0403582  26.5029674  89.2706053 111.4370272
  26.7537713  90.1553063 111.7027848  27.0389223  89.0910655 110.6645364
  50.3261774  92.7019551 108.1045533  49.5725482  92.1326949 107.9489538
  50.4609315  92.6682215 109.0516168  35.7160402  97.5732953 103.7800253
  35.5806077  98.4184489 104.2085101  36.2570215  97.7752230 103.0166187
  32.2027742  83.6524533 120.4414608  31.8094687  83.0990731 121.1162252
  33.0193882  83.9635111 120.8321126  29.1689800  95.0908391 104.3528178
  29.6814320  95.8851641 104.5033743  29.8212512  94.3934681 104.2861779
  30.9784684  98.2074147 106.4350931  31.1551313  99.1292112 106.2471915
  31.7741518  97.8932566 106.8645311  35.1195703  85.0682412 118.0334865
  35.8605416  85.6689565 117.9539327  35.3513626  84.3260050 117.4752907
  30.2637041  90.2538779 116.3113094  30.1490556  89.3524036 116.6120193
  29.4081559  90.5002476 115.9597911  37.3428879  98.1956519 117.9100595
  36.8992733  97.4092898 117.5921499  38.0046092  98.3835670 117.2444486
  32.1016000  99.7252321 112.4361273  32.6523425  99.5969384 111.6638267
  31.2627476 100.0247210 112.0856166  39.4410117  98.4759319 115.9381996
  39.4228592  99.2968200 115.4462265  40.3630037  98.3513395 116.1632137
  35.8983171  95.9903449 116.7805505  36.4311508  95.2291737 116.5504813
  35.3697252  95.6977101 117.5229659  39.0652866  81.0963515 112.3099146
  38.7217135  81.9865156 112.2338257  39.4331828  80.9065172 111.4468731
  27.1338716  93.4197045 105.1287748  27.9713938  93.8294054 104.9121456
  27.3116984  92.4796487 105.0987942  39.0303148  91.0872126 100.8171581
  38.5149772  91.8576730 101.0559969  38.7580457  90.4137262 101.4404643
  36.6150259  85.9321827 105.8756820  35.7591856  85.5428677 105.6962458
  37.0277211  86.0113787 105.0156605  38.1449406  83.4668170 110.2748380
  37.6414202  83.4298305 109.4616185  38.4380013  84.3760913 110.3345036
  34.3892292  83.5506900 109.2814561  35.2545289  83.3549708 108.9220451
  34.4569801  83.3217251 110.2083918  44.0037423  93.8404480 102.7524755
  43.2266865  93.5015640 102.3079917  44.6828904  93.8457104 102.0779720
  38.8189452  88.9599218 102.6431363  38.5139587  89.2745367 103.4941506
  39.7719894  89.0380638 102.6858696  37.2635883  95.1189441 104.2924317
  36.7357245  94.3842201 103.9797554  36.7623386  95.8964118 104.0464285
  42.2428729  93.3138462 109.4091363  41.5852404  94.0037723 109.4971491
  43.0469129  93.7034894 109.7525349  31.9954611  85.7809108 106.6530928
  32.5698363  85.5584289 105.9204121  32.5825594  85.8497802 107.4059529
  41.0534188  91.6682834 107.4595305  41.5666070  92.3012826 107.9617014
  41.7035412  91.0684030 107.0938665  32.3224198  87.8113569 100.6726813
  31.4861510  88.1488255 100.9936088  32.1828968  87.6762548  99.7353950
  34.2977279  82.6550356 105.3805997  33.6441691  82.3399374 104.7562612
  34.2557753  82.0326097 106.1065820  35.4088484  92.9369652  97.2959290
  34.5015545  92.7058905  97.4950439  35.9059516  92.1407271  97.4833271
  38.3156563 101.6467159 100.2155976  37.6418261 101.9498855 100.8240934
  38.7022384 102.4496239  99.8661433  37.5315019  89.1432290 109.7053645
  36.6137581  89.3647237 109.5475333  37.9475163  89.2178600 108.8465352
  38.3150067  90.5423706 104.8356325  39.0621886  91.0545103 104.5263447
  38.5841656  90.2207758 105.6960719  36.5876717  93.0382246 101.8183280
  35.6787936  92.7541279 101.9155749  36.6171801  93.4581325 100.9586587
  41.8195985  96.6488836 105.5874447  41.3658312  95.8079746 105.6439638
  41.1889951  97.2850234 105.9249227  40.7628904  87.5780822 106.8175115
  40.0251661  87.0658208 107.1485357  41.0155678  87.1381204 106.0058392
  40.2628924  98.4865333 106.5224265  40.5551898  99.0470390 105.8036631
  40.7727544  98.7793894 107.2777424  40.8640531  80.3557074 107.4116884
  41.1699408  79.4954437 107.1242799  41.5893136  80.9474694 107.2115878
  27.1564887  90.7587761 105.7998482  26.9589287  90.1657121 105.0749548
  26.6011551  90.4539971 106.5174421  35.1361611  90.6510867 107.9193075
  35.1910221  89.6984703 107.8435552  34.3252813  90.8070306 108.4034373
  36.2852805  94.5790990  99.1571358  35.8472235  93.8626849  98.6976996
  37.0263246  94.8067105  98.5956450  33.0753971  89.2687927 105.6783454
  32.2621837  89.5682097 106.0848646  33.5712965  88.8743615 106.3957936
  35.2262549  99.2645684 107.6117719  35.1838728  99.4906530 106.6826251
  36.1425248  99.0309058 107.7603520  38.6728183  89.7329751 114.5098348
  39.0277570  89.9601224 115.3692814  39.3200314  90.0648128 113.8875603
  44.4025920  92.8548187 105.2147677  44.2643818  93.0449783 104.2868866
  44.0462138  93.6167570 105.6715728  32.5668046  86.8406282 111.2944689
  33.2067425  86.6995041 110.5967652  31.7345576  86.5540796 110.9183291
  44.4295299  94.9224714 110.2258948  44.8631806  94.8300003 111.0742002
  45.1426880  94.8982215 109.5878964  33.3428350  96.1408713 107.4079681
  34.1368948  95.6459033 107.2062256  32.6320042  95.6126576 107.0447387
  38.1623194  98.5226808 111.7592049  38.2160216  99.0917745 112.5269765
  37.2937976  98.6928693 111.3946086  29.6511113  90.2851794 103.4839434
  28.7208701  90.2236250 103.7009396  29.7468585  89.7627747 102.6876075
  29.5696662  86.8106607 106.0717676  29.8303480  87.7251940 105.9626836
  30.3913835  86.3431050 106.2214288  31.0421588  88.2244364 113.2416500
  31.7144641  88.0161727 112.5929149  30.2151374  88.0266450 112.8021732
  45.2910849  94.9648415 112.7591834  45.4846739  95.8694225 113.0051109
  45.1911467  94.5055834 113.5930419  36.9447160  84.8506305 115.2582161
  36.2975075  85.5496255 115.1646637  37.7148175  85.2842449 115.6258409
  40.3525958  95.1155157 118.3332714  40.2011464  94.8865709 117.4162798
  40.3430637  96.0725759 118.3464059  37.1211294  92.6887070 113.3178981
  38.0503354  92.8398230 113.1447948  36.7002324  92.7771091 112.4627627
  35.9199626  96.7137735 111.0877518  35.7810711  96.3456519 111.9603457
  35.1314222  97.2285374 110.9161476  36.5147778 101.8146831 102.4303055
  36.6899533 101.3434874 103.2448678  35.8280566 102.4412597 102.6584316
  37.4704841  96.0919337 108.4766356  37.1354673  96.0520107 109.3724006
  36.9708787  95.4264053 108.0036766  31.4449085  91.4986967 114.0018937
  31.3068883  90.7667206 114.6030476  32.3554008  91.4095867 113.7203125
  40.4064032  93.4375372  98.7503416  39.7893203  92.7122200  98.6536469
  39.9380521  94.1984732  98.4070490  34.0731385  91.2106927 113.4902617
  34.7831004  90.5700119 113.4489235  34.0300694  91.4619822 114.4128798
  42.0618164  98.1474280 116.4109196  42.0030710  97.4633500 115.7439779
  42.4637683  98.8893270 115.9589822  32.7860319  88.1972145 115.3098256
  32.2497676  87.7462883 115.9619853  32.1977028  88.3318053 114.5668721
  31.0808863 104.9636194 109.2042915  31.3205461 105.5954718 109.8821934
  30.2378059 104.6124234 109.4908274  32.1962578  87.6560796  97.8724720
  31.3192045  87.5349597  97.5086967  32.6720331  86.8646874  97.6203609
  42.0635571  96.1113864 114.6423176  41.1762350  95.7739786 114.7649575
  42.6334122  95.3796895 114.8791941  23.7164719  92.4437956 107.9666227
  24.4035758  92.1299686 107.3787243  23.5612847  93.3479320 107.6933479
  28.5199441  87.3328152 112.3951251  28.4357629  86.7253822 111.6601661
  27.6982147  87.8237171 112.3960747  35.5936725 100.7715316 111.6084419
  35.5206896 101.5770288 112.1203724  35.1514118 100.9707282 110.7832440
  35.3826504 100.0087086 105.1187241  34.5994026 100.5508767 105.2125465
  36.0819250 100.5261066 105.5181482  38.6923155  85.8181716 107.7621446
  39.1891854  85.0651678 107.4422516  37.9210136  85.8546032 107.1964655
  46.5452912  91.5222081 109.4039738  46.5342788  92.4046797 109.0333671
  45.6770291  91.1693632 109.2094275  38.0535408 100.6702150 113.7642578
  38.7663381 101.3049615 113.6918479  37.5625437 100.7666016 112.9482580
  39.7752935  94.5753403 105.3359869  38.8409214  94.6954866 105.1664574
  39.9529604  93.6725870 105.0719879  35.2758123  87.9599099 107.4893131
  34.9055911  87.4070139 108.1774036  35.7717216  87.3557232 106.9368131
  43.1625487  90.4170722 105.8709904  43.6285939  91.2498714 105.7970206
  43.6132987  89.9515704 106.5755162  33.1047322  98.4196594 114.5848149
  33.8056781  99.0533077 114.7377543  32.6342437  98.7611325 113.8243788
  41.2301718  96.7614544 102.8696056  41.5061562  96.6471138 103.7789930
  40.3606216  96.3632028 102.8308229  41.1342149  82.7851309 109.9100805
  40.2205229  83.0155536 110.0783012  41.5635251  82.8689753 110.7614837
  40.9048608  90.9741201 112.4100699  40.2520058  91.2217109 111.7553152
  41.2828988  90.1605339 112.0763176  37.8655782 101.0100894 106.5128869
  38.0478176 100.1922550 106.9756622  38.6888768 101.2268587 106.0753759
  38.1997947  99.9369080 103.7743918  38.7285714  99.4261534 103.1614080
  38.4626167  99.6211610 104.6389451  36.9536181  91.7161012 118.8966736
  36.2776818  91.6155142 119.5669111  37.7763815  91.5600226 119.3602733
  28.7015040  97.9532949 111.5179251  29.2868477  97.2076637 111.6507155
  28.5039878  98.2636906 112.4015915  31.5553695 100.9884196 106.5341694
  30.8864070 101.4730324 106.0505734  31.4166565 101.2353417 107.4485072
  23.2932695  90.5238549 110.2383694  23.3316794  89.9902140 111.0320812
  22.7872987  89.9973755 109.6194672  35.6958964 103.0227940 113.1324352
  36.2477272 103.1859561 113.8973437  36.0365157 103.6132378 112.4604377
  30.6723457  85.3703090 113.7346237  30.7364783  86.2317920 113.3223634
  30.6090577  84.7577091 113.0018595  30.1475729  87.4426222 117.3819271
  30.7747768  87.0603299 117.9956795  29.2903648  87.2240424 117.7474963
  40.5469838  97.8489197 118.9873006  41.0909742  98.4619156 118.4927961
  39.9656683  98.4068776 119.5040019  26.9241272  89.2502651 103.3137626
  27.2194713  88.3413330 103.2604679  26.0229308  89.2290391 102.9918628
  38.8327351 100.9709915 110.1188034  38.7078490 100.1699655 109.6098980
  39.4906442 101.4656109 109.6302004  30.4535519  87.3258648 109.2965174
  29.7322105  87.9394616 109.1572648  31.2428775  87.8616413 109.2181820
  40.8962259  98.7718935 111.7467584  39.9492595  98.6524287 111.6745911
  41.2445033  97.8841433 111.8293846  33.2561833  84.6613074 115.5705826
  33.7796235  84.9075371 116.3332135  33.0374166  85.4933109 115.1508963
  28.6529114  86.9316749 103.4376951  28.3241820  86.0514128 103.2552057
  29.0068485  86.8764418 104.3253340  37.9008693  98.5671652 107.9471936
  37.7533655  97.6388359 108.1279507  38.7262186  98.5891742 107.4629012
  31.7670937  87.2189719 103.8052429  32.1067010  87.7475640 103.0831037
  32.2143057  87.5570125 104.5810995  41.5042815  99.3900210 109.0336809
  42.4289362  99.1843072 108.8961260  41.3358118  99.1416612 109.9426151
  34.4614378  85.6026769 113.2555497  34.1211198  84.8034582 113.6576177
  33.7553384  85.9028480 112.6832330  35.1130850  82.6876082 111.7082820
  35.9356919  82.2136560 111.5861710  35.3568913  83.4666566 112.2081506
  33.7539084  85.7164340 102.0045721  34.4747447  86.0945593 101.5009438
  33.1304388  86.4353217 102.1080699  37.8970207  86.4209489 102.9404054
  38.1133821  87.3034127 102.6392882  37.4164274  86.0295703 102.2109696
  32.6369428  89.3795202 109.5174798  32.4914009  89.6935506 110.4099080
  32.1594632  89.9980103 108.9645697  34.4965811  86.3697750 109.5655688
  34.4827380  85.4738844 109.2287986  35.2138239  86.3768414 110.1993974
  36.3491942  86.8035091 111.6108815  36.0909720  87.7252161 111.6093146
  35.8176982  86.4065525 112.3009279  41.2938131  99.9085878 104.3898901
  41.4675008  99.3432300 103.6372753  41.7867022 100.7086773 104.2078391
  27.1115091  91.9200547 112.4562459  26.5668559  92.6960355 112.5882734
  27.9894440  92.2671351 112.2981581  33.9002707  85.2512131 104.8343258
  34.0218618  84.3228777 105.0334145  33.6104750  85.2650817 103.9221573
  36.7693898  82.9367041 107.9709978  36.7915594  83.0006374 107.0161957
  37.1861957  82.0971550 108.1650484  47.1477522  92.6722301 106.0089200
  47.5908668  91.9229626 105.6108324  46.2704032  92.6632437 105.6262932
  42.2813303  99.2252642 101.4895799  42.9764208  99.8459335 101.7083114
  42.6236453  98.3747993 101.7648177  27.8981112  91.0470443 115.3492616
  27.1562848  91.1953079 115.9357247  27.5773857  91.3078709 114.4859366
  44.1804726  96.6752348 103.0183130  44.7056050  97.0139620 102.2932450
  44.0927079  95.7399363 102.8346264  35.8424775 100.5886421 115.1473006
  36.1511902 100.3435568 116.0195706  36.6400257 100.7933060 114.6591877
  35.8645387 102.7424331 107.3778383  35.4250377 102.2500710 108.0711240
  36.6153504 102.1997299 107.1370458  28.3437726  98.9335872 107.3803011
  29.1695746  98.6339644 107.0001655  27.9931778  98.1643494 107.8292800
  33.3119259  98.2862340 109.4500685  32.6899269  97.6233045 109.1502912
  33.9824126  98.3123472 108.7674332  26.5446331  96.8522198 108.3391945
  25.7078239  96.4244373 108.1575946  26.5169977  97.0454642 109.2762736
  33.3843787  86.7644128 119.0433191  33.4331942  87.6406251 118.6610960
  33.9266301  86.2221521 118.4704834  43.8698632  97.3085251 118.3234328
  43.0794176  97.2909390 117.7838827  43.6331987  97.8473545 119.0783364
  43.9896507  94.1577718 115.6367056  44.0394512  93.9927725 116.5782579
  43.8810431  93.2904977 115.2464937  32.8732766  96.8366263 102.9259145
  33.0220887  97.5201728 102.2725818  33.6799210  96.8171353 103.4408601
  41.2800270  90.1408646 116.9526363  42.1810133  90.0015111 116.6610361
  41.3548244  90.3063101 117.8924540  35.6143075  87.5175501 115.7979549
  34.7446385  87.8109067 115.5262138  35.8502556  88.1015946 116.5186813
  45.4914704  96.5774659 115.8809078  45.1999513  96.9404640 116.7172539
  44.8786836  95.8641668 115.7022410  46.6910387  94.1427539 108.4011648
  47.5257278  94.5817343 108.5649208  46.8269515  93.6666192 107.5819894
  43.7401893  91.7007274 114.3489136  44.2156014  91.8934920 113.5407987
  42.8167458  91.7566460 114.1032519  30.6285399  92.8631441 103.9320214
  30.3831441  91.9593771 104.1300424  30.7981314  92.8648592 102.9899692
  38.3182109  83.7355117 113.3144970  38.8364053  84.4716144 112.9891458
  37.9637242  84.0419111 114.1491729  29.8981047  88.5959799 101.4306375
  29.2050292  88.6704154 100.7746411  29.6532799  87.8320142 101.9527892
  38.5694703  80.1555400 108.8345866  38.8496457  79.4878589 109.4606293
  39.3545310  80.3484496 108.3220530  36.3728172  99.3314394 100.3970893
  35.8002139  99.9504581  99.9441364  36.9460965  99.8813756 100.9310814
  42.4403562  88.5773034 112.5817441  43.3920984  88.6771132 112.6029665
  42.2707012  87.7851303 113.0915526  40.4617941  85.6628617 112.7676842
  39.8667873  85.9433630 112.0723331  40.1767638  86.1522518 113.5393583
  39.5925431  99.6151544 101.5279475  40.5256105  99.5497106 101.7312350
  39.5048644 100.4507811 101.0694007  42.2213448  98.9317414  98.4883422
  42.1427080  98.5977278  99.3819180  43.0423115  99.4239182  98.4874895
  44.9191639  91.7979154 111.6959741  44.8867959  90.8595154 111.8819425
  45.5292263  91.8763190 110.9625566  36.7574970  90.6675207  97.7386945
  37.7034075  90.5381415  97.8075363  36.3789215  89.9289869  98.2156373
  45.0686128  88.5890197 111.7418024  44.5525176  87.8048654 111.5547953
  45.9526076  88.2608914 111.9064544  42.7296855  82.3331213 107.7013837
  42.5321676  82.0246301 108.5857169  43.3396560  83.0592852 107.8311767
  50.7368189  92.8595161 110.8365778  51.4671578  92.5980449 111.3973481
  50.1275135  92.1223882 110.8767846  48.8183486  91.0003023 111.4340229
  48.0916650  90.8658988 110.8256721  48.4030773  91.3079852 112.2396947
  36.6413663  94.7192953 119.1987602  37.5616672  94.8971552 119.3927649
  36.6063246  93.7748998 119.0467301  34.9417887  88.5925183  97.6741830
  34.0349343  88.2958296  97.7504544  35.2193868  88.2955001  96.8076116
  25.8595828  89.9131546 108.1240877  25.5398612  89.0596855 107.8315251
  25.3129256  90.1280125 108.8798844  29.6375735  92.6293987 111.8410383
  29.8561745  93.5611095 111.8598417  30.0501509  92.2701962 112.6265187
  36.5579953  83.1362073 103.8286072  35.7480681  82.7909158 104.2041318
  37.2464370  82.8269616 104.4173683  38.4870501  82.2140120 105.4510368
  39.0401540  82.6335573 106.1100391  38.7240588  81.2875868 105.4933324
  34.5103601  88.2027193 121.2313132  34.4100327  89.1521550 121.1625223
  34.2925143  87.8745432 120.3589202  33.7116672  85.4512118  97.8153809
  34.5735836  85.7767017  98.0749627  33.8967016  84.6643614  97.3026875
  25.7284088  93.5334458 110.0933998  25.0347559  93.1188411 109.5803953
  26.4757079  93.5754994 109.4967417  41.8649308  84.3240645 104.9589032
  41.2847978  84.9825449 104.5767085  41.5985241  83.5017989 104.5476450
  40.3152875  83.7245702 107.1610353  40.8152653  83.8362237 106.3524672
  40.9588483  83.4206755 107.8011161  34.3734871  91.6324332 120.0478194
  33.8901952  92.4324692 120.2542083  34.4595810  91.6432277 119.0945638
  27.6420830  93.4652712 107.9700013  27.6191518  93.5640399 107.0181896
  27.9521467  94.3117863 108.2917179  30.3008208  95.5228867 112.0846628
  31.2551462  95.4912809 112.0176559  30.1020732  95.0619490 112.8996853
  30.8907590  94.0929983 114.6517425  31.7100479  94.5874061 114.6752262
  31.1644398  93.1761951 114.6234993  40.6474186  86.4840735 104.0145381
  39.7600042  86.7690386 103.7965575  41.0628176  86.3234498 103.1672658
  43.9988723  86.5087256 107.7299720  44.7749113  86.9983709 108.0024337
  43.2736857  86.9345310 108.1871589  46.4361281  87.2214875 108.7873661
  47.0305772  86.9810611 108.0766969  46.5087865  86.5022006 109.4147197
  28.6558437 101.0648486 109.1016825  28.5212905 100.3048887 108.5354823
  28.2390499 101.7889386 108.6345614  39.7917400  96.2485410  98.1093401
  40.4953250  96.4535412  98.7251056  39.0680049  96.8162172  98.3742484
  40.6215210  91.9995271 104.2295671  40.5650412  92.4563822 103.3903303
  41.1743553  91.2385956 104.0518514  44.4320016  87.7885003 105.0545790
  44.1756950  87.3881639 105.8853998  43.8072884  88.5028797 104.9295930
  48.7432354  90.5281076 107.5617082  48.1831912  90.5974265 108.3348644
  48.1375857  90.3522061 106.8416578  31.8127563 101.9617803 109.3135268
  31.6959947 102.9063236 109.2113958  30.9920009 101.6591365 109.7021067
  41.7004097  96.6867939 100.1591861  42.5349701  96.2549137  99.9769336
  41.5388440  96.5149953 101.0868755  41.3549990  93.1900052 101.5248200
  41.2998793  93.0244324 100.5836644  40.7296045  93.8976085 101.6810390
  26.1442505  88.4268117 115.3509622  26.7901368  87.9167071 115.8396847
  25.9359656  89.1636798 115.9253048  38.6695897  95.4948964 120.8501763
  39.5387056  95.6689616 120.4888398  38.1902648  96.3143381 120.7277492
  34.6646115  82.6908161 101.1033518  34.6524785  83.6350001 101.2601789
  35.5569537  82.5078307 100.8092980  32.8382077 102.6146065 112.5291196
  33.7409324 102.6469675 112.8457691  32.6119447 101.6846516 112.5437532
  34.5935679 101.3677052 109.1901275  33.6431310 101.3678913 109.0765647
  34.8968165 100.6209786 108.6737310  38.4798234  79.2850938 105.3579455
  37.7130630  78.7309425 105.5036138  38.8908939  79.3572807 106.2193607
  30.4839996  85.5735734 119.4484637  31.3471457  85.2172539 119.6587961
  29.9105406  85.2349629 120.1360041  50.3288372 107.2037590 110.2547038
  50.9666782 107.0844337 109.5510378  50.2109215 108.1518434 110.3134990
  47.1378079 107.1565018 110.1908562  46.7996590 107.0406083 109.3029097
  48.0067847 106.7556183 110.1709568  42.9964894 109.0100495 106.1805453
  42.4329760 108.9190432 105.4121741  42.8817289 108.1900399 106.6607946
  47.6197862 108.3099870 116.1494768  47.6086502 107.9152668 115.2775271
  47.7818501 107.5765943 116.7428539  40.5429326 110.5051686 109.0189674
  41.3350618 110.1642511 108.6035973  40.7825977 110.6146661 109.9391827
  48.5764453 112.6771462 101.4919918  47.9252433 113.2625543 101.1053932
  49.3708816 113.2077657 101.5514956  42.5020080 109.7660599 101.8907052
  43.2750956 109.2189587 101.7519928  42.8545479 110.6304849 102.1021514
  44.3405123 111.0936982 115.0973952  44.0494989 111.9982613 114.9820618
  44.9762107 111.1353509 115.8118021  45.2661330 108.4713830 111.6875311
  45.8624902 108.2469853 110.9732274  45.3236301 107.7298576 112.2900759
  44.8386358 105.9253266  99.5225502  45.0911879 105.4034787  98.7608965
  43.9010917 105.7619411  99.6252186  49.8829641 104.9289044 107.3300246
  50.6692730 104.5108467 106.9790663  50.1468345 105.8335136 107.4981894
  50.0539718 110.3661894 102.0288902  49.4185551 110.4396521 102.7409807
  49.7237125 110.9555493 101.3507982  55.2838068 104.8664277 108.2333224
  56.0163240 104.2963494 108.4671054  54.5277424 104.4785878 108.6739730
  44.5582647 107.8281372 101.7249877  44.4418905 107.1526275 102.3930962
  44.6684907 107.3413745 100.9082030  46.9014188 107.2891519 105.4296567
  46.5372395 106.7622140 106.1409488  47.7581304 106.8989988 105.2563052
  52.8063488  98.5785851 112.6927833  52.4746813  99.4481262 112.4689048
  52.2109102  98.2622135 113.3721863  46.5419675 102.3181418 100.4257915
  46.7094077 103.1861655 100.7928386  46.3516844 102.4808700  99.5019204
  49.2995008 110.7798397 112.0923745  48.9995731 111.6823436 111.9839553
  48.9546067 110.5130580 112.9444898  42.7507489 107.2312194 108.1260450
  41.8257986 107.0988408 108.3338142  42.9991903 108.0106413 108.6230392
  52.6992152 103.2980937 109.7721183  51.7909029 103.2296346 109.4779944
  52.6479748 103.7752882 110.6003008  46.5208896 104.7739076 101.4104582
  46.4008521 105.2196127 102.2490062  45.8261484 105.1224393 100.8518120
  40.1116300 106.8745468 108.9604239  40.2408682 107.1279947 109.8743651
  39.4313752 107.4673176 108.6408894  44.2815788 117.5442718 105.0594713
  44.2039817 118.4950543 105.1383194  43.6777431 117.1988590 105.7169639
  46.7733018 104.7170583 117.7156080  45.9966352 105.2764503 117.7058945
  47.4123581 105.2027366 118.2370950  54.5653798 101.4997376 111.5499057
  53.9228178 101.7929909 110.9038851  54.0608727 101.3850296 112.3552253
  52.2193962 105.2460549 102.2384916  53.1311818 105.4787936 102.0632613
  51.7103609 105.8297593 101.6759995  45.0279390 107.5256036 117.2774047
  45.7694074 108.0641080 117.0008871  44.3216375 108.1522325 117.4345599
  50.5034729 109.6685177 115.8746208  50.9118085 109.2267587 115.1300841
  49.7811991 109.0937804 116.1280401  46.8565799 104.6057784 113.2479765
  47.7026995 105.0297197 113.3914414  46.7964437 103.9491408 113.9418329
  50.8263544 110.2286367 109.6298497  50.1972407 110.3932082 108.9274565
  50.4389206 110.6427977 110.4009461  54.7052776 111.1640805 106.9842861
  54.0203814 111.5439707 106.4339894  54.7896625 111.7736132 107.7174809
  50.0065245 102.2662152 114.9060939  49.7626177 103.0204212 114.3695215
  50.2825175 102.6447500 115.7408186  51.9603708 108.8100764 113.5838205
  52.1720603 109.4532524 112.9072586  51.9133456 107.9763081 113.1160135
  49.5629937 101.4218585 110.4874777  48.7014416 101.7199839 110.7791514
  49.5892371 101.6388984 109.5555809  46.3791506 109.9660776 106.8948582
  46.8429852 110.2448479 106.1053205  46.1148304 109.0644220 106.7121673
  43.2715587 109.5132257 109.8328346  43.8416944 109.9419525 109.1945830
  43.8623699 109.2314842 110.5312531  45.3160392 106.0883928 103.7038148
  46.0184435 106.5404972 104.1712074  44.9841021 105.4467747 104.3318041
  43.7640754 104.6795685 118.0789357  43.1339414 105.3611965 118.3124754
  43.6576841 104.5678766 117.1342495  39.0585726 104.3467481 109.0055281
  38.2684780 104.6025009 108.5295392  39.5496973 105.1615818 109.1107322
  53.0749536 111.6872720 111.7560562  53.8966979 111.2852907 111.4743244
  53.0711938 111.5840954 112.7076678  41.0100471 104.7112060 105.9638758
  40.2131635 104.8230754 106.4822254  40.7826064 105.0498712 105.0979648
  46.8406139 111.2356763 113.9121272  46.9050572 111.6977170 114.7479444
  46.1317063 110.6054128 114.0403582  37.3423429 104.5997971 111.4370272
  37.5931467 105.4844981 111.7027848  37.8782977 104.4202573 110.6645364
  61.1655529 108.0311468 108.1045533  60.4119237 107.4618866 107.9489538
  61.3003070 107.9974133 109.0516168  46.5554157 112.9024871 103.7800253
  46.4199831 113.7476406 104.2085101  47.0963969 113.1044148 103.0166187
  43.0421496  98.9816450 120.4414608  42.6488442  98.4282649 121.1162252
  43.8587637  99.2927029 120.8321126  40.0083554 110.4200309 104.3528178
  40.5208075 111.2143559 104.5033743  40.6606267 109.7226599 104.2861779
  41.8178439 113.5366065 106.4350931  41.9945067 114.4584030 106.2471915
  42.6135272 113.2224484 106.8645311  45.9589457 100.3974329 118.0334865
  46.6999171 100.9981483 117.9539327  46.1907380  99.6551967 117.4752907
  41.1030795 105.5830697 116.3113094  40.9884310 104.6815954 116.6120193
  40.2475313 105.8294393 115.9597911  48.1822633 113.5248437 117.9100595
  47.7386487 112.7384816 117.5921499  48.8439847 113.7127588 117.2444486
  42.9409754 115.0544239 112.4361273  43.4917179 114.9261302 111.6638267
  42.1021230 115.3539128 112.0856166  50.2803871 113.8051237 115.9381996
  50.2622346 114.6260118 115.4462265  51.2023791 113.6805312 116.1632137
  46.7376925 111.3195366 116.7805505  47.2705262 110.5583655 116.5504813
  46.2091006 111.0269018 117.5229659  49.9046620  96.4255432 112.3099146
  49.5610890  97.3157074 112.2338257  50.2725583  96.2357090 111.4468731
  37.9732471 108.7488963 105.1287748  38.8107693 109.1585971 104.9121456
  38.1510739 107.8088405 105.0987942  49.8696903 106.4164044 100.8171581
  49.3543526 107.1868648 101.0559969  49.5974211 105.7429180 101.4404643
  47.4544014 101.2613744 105.8756820  46.5985610 100.8720595 105.6962458
  47.8670966 101.3405705 105.0156605  48.9843161  98.7960088 110.2748380
  48.4807956  98.7590223 109.4616185  49.2773767  99.7052830 110.3345036
  45.2286046  98.8798817 109.2814561  46.0939043  98.6841626 108.9220451
  45.2963555  98.6509169 110.2083918  54.8431177 109.1696398 102.7524755
  54.0660620 108.8307558 102.3079917  55.5222658 109.1749021 102.0779720
  49.6583206 104.2891136 102.6431363  49.3533342 104.6037285 103.4941506
  50.6113648 104.3672555 102.6858696  48.1029638 110.4481359 104.2924317
  47.5751000 109.7134119 103.9797554  47.6017141 111.2256035 104.0464285
  53.0822484 108.6430379 109.4091363  52.4246158 109.3329641 109.4971491
  53.8862883 109.0326811 109.7525349  42.8348366 101.1101025 106.6530928
  43.4092117 100.8876207 105.9204121  43.4219348 101.1789720 107.4059529
  51.8927943 106.9974752 107.4595305  52.4059825 107.6304744 107.9617014
  52.5429167 106.3975948 107.0938665  43.1617953 103.1405486 100.6726813
  42.3255265 103.4780173 100.9936088  43.0222722 103.0054466  99.7353950
  45.1371033  97.9842274 105.3805997  44.4835446  97.6691291 104.7562612
  45.0951507  97.3618015 106.1065820  46.2482238 108.2661569  97.2959290
  45.3409300 108.0350823  97.4950439  46.7453270 107.4699188  97.4833271
  49.1550317 116.9759076 100.2155976  48.4812016 117.2790773 100.8240934
  49.5416139 117.7788157  99.8661433  48.3708774 104.4724208 109.7053645
  47.4531335 104.6939155 109.5475333  48.7868917 104.5470518 108.8465352
  49.1543821 105.8715623 104.8356325  49.9015640 106.3837021 104.5263447
  49.4235411 105.5499676 105.6960719  47.4270472 108.3674164 101.8183280
  46.5181691 108.0833197 101.9155749  47.4565555 108.7873243 100.9586587
  52.6589739 111.9780754 105.5874447  52.2052066 111.1371663 105.6439638
  52.0283706 112.6142152 105.9249227  51.6022659 102.9072740 106.8175115
  50.8645415 102.3950126 107.1485357  51.8549432 102.4673121 106.0058392
  51.1022678 113.8157250 106.5224265  51.3945653 114.3762307 105.8036631
  51.6121299 114.1085811 107.2777424  51.7034286  95.6848992 107.4116884
  52.0093163  94.8246355 107.1242799  52.4286891  96.2766612 107.2115878
  37.9958642 106.0879678 105.7998482  37.7983042 105.4949039 105.0749548
  37.4405306 105.7831888 106.5174421  45.9755366 105.9802785 107.9193075
  46.0303975 105.0276621 107.8435552  45.1646568 106.1362224 108.4034373
  47.1246559 109.9082908  99.1571358  46.6865989 109.1918767  98.6976996
  47.8657000 110.1359023  98.5956450  43.9147726 104.5979844 105.6783454
  43.1015591 104.8974015 106.0848646  44.4106720 104.2035533 106.3957936
  46.0656303 114.5937601 107.6117719  46.0232482 114.8198448 106.6826251
  46.9819002 114.3600976 107.7603520  49.5121937 105.0621669 114.5098348
  49.8671325 105.2893142 115.3692814  50.1594068 105.3940046 113.8875603
  55.2419674 108.1840105 105.2147677  55.1037573 108.3741701 104.2868866
  54.8855893 108.9459488 105.6715728  43.4061800 102.1698200 111.2944689
  44.0461180 102.0286959 110.5967652  42.5739331 101.8832713 110.9183291
  55.2689054 110.2516632 110.2258948  55.7025560 110.1591921 111.0742002
  55.9820634 110.2274132 109.5878964  44.1822104 111.4700630 107.4079681
  44.9762703 110.9750950 107.2062256  43.4713797 110.9418493 107.0447387
  49.0016949 113.8518726 111.7592049  49.0553971 114.4209662 112.5269765
  48.1331730 114.0220611 111.3946086  40.4904868 105.6143712 103.4839434
  39.5602456 105.5528168 103.7009396  40.5862340 105.0919665 102.6876075
  40.4090417 102.1398525 106.0717676  40.6697234 103.0543858 105.9626836
  41.2307589 101.6722967 106.2214288  41.8815342 103.5536282 113.2416500
  42.5538395 103.3453644 112.5929149  41.0545129 103.3558368 112.8021732
  56.1304603 110.2940332 112.7591834  56.3240493 111.1986143 113.0051109
  56.0305221 109.8347751 113.5930419  47.7840914 100.1798223 115.2582161
  47.1368829 100.8788173 115.1646637  48.5541929 100.6134367 115.6258409
  51.1919712 110.4447075 118.3332714  51.0405218 110.2157627 117.4162798
  51.1824391 111.4017677 118.3464059  47.9605048 108.0178988 113.3178981
  48.8897108 108.1690148 113.1447948  47.5396078 108.1063009 112.4627627
  46.7593380 112.0429652 111.0877518  46.6204466 111.6748437 111.9603457
  45.9707976 112.5577292 110.9161476  47.3541532 117.1438749 102.4303055
  47.5293288 116.6726792 103.2448678  46.6674320 117.7704515 102.6584316
  48.3098595 111.4211255 108.4766356  47.9748428 111.3812025 109.3724006
  47.8102541 110.7555971 108.0036766  42.2842839 106.8278885 114.0018937
  42.1462637 106.0959124 114.6030476  43.1947763 106.7387785 113.7203125
  51.2457787 108.7667289  98.7503416  50.6286958 108.0414118  98.6536469
  50.7774275 109.5276650  98.4070490  44.9125140 106.5398844 113.4902617
  45.6224758 105.8992037 113.4489235  44.8694448 106.7911739 114.4128798
  52.9011919 113.4766198 116.4109196  52.8424465 112.7925418 115.7439779
  53.3031437 114.2185188 115.9589822  43.6254074 103.5264062 115.3098256
  43.0891431 103.0754801 115.9619853  43.0370782 103.6609971 114.5668721
  41.9202617 120.2928112 109.2042915  42.1599216 120.9246636 109.8821934
  41.0771814 119.9416152 109.4908274  43.0356333 102.9852714  97.8724720
  42.1585799 102.8641514  97.5086967  43.5114086 102.1938792  97.6203609
  52.9029326 111.4405782 114.6423176  52.0156105 111.1031703 114.7649575
  53.4727877 110.7088813 114.8791941  34.5558473 107.7729873 107.9666227
  35.2429513 107.4591603 107.3787243  34.4006602 108.6771238 107.6933479
  39.3593195 102.6620070 112.3951251  39.2751384 102.0545740 111.6601661
  38.5375902 103.1529088 112.3960747  46.4330479 116.1007234 111.6084419
  46.3600651 116.9062206 112.1203724  45.9907872 116.2999200 110.7832440
  46.2220259 115.3379004 105.1187241  45.4387781 115.8800684 105.2125465
  46.9213004 115.8552984 105.5181482  49.5316909 101.1473633 107.7621446
  50.0285609 100.3943596 107.4422516  48.7603891 101.1837950 107.1964655
  57.3846666 106.8513999 109.4039738  57.3736543 107.7338714 109.0333671
  56.5164046 106.4985550 109.2094275  48.8929163 115.9994068 113.7642578
  49.6057135 116.6341533 113.6918479  48.4019191 116.0957934 112.9482580
  50.6146690 109.9045321 105.3359869  49.6802968 110.0246783 105.1664574
  50.7923358 109.0017787 105.0719879  46.1151878 103.2891016 107.4893131
  45.7449665 102.7362057 108.1774036  46.6110970 102.6849150 106.9368131
  54.0019241 105.7462640 105.8709904  54.4679693 106.5790632 105.7970206
  54.4526742 105.2807622 106.5755162  43.9441076 113.7488512 114.5848149
  44.6450536 114.3824994 114.7377543  43.4736191 114.0903243 113.8243788
  52.0695472 112.0906461 102.8696056  52.3455316 111.9763056 103.7789930
  51.1999971 111.6923946 102.8308229  51.9735904  98.1143227 109.9100805
  51.0598984  98.3447454 110.0783012  52.4029005  98.1981671 110.7614837
  51.7442362 106.3033119 112.4100699  51.0913813 106.5509026 111.7553152
  52.1222742 105.4897257 112.0763176  48.7049536 116.3392812 106.5128869
  48.8871931 115.5214468 106.9756622  49.5282522 116.5560504 106.0753759
  49.0391702 115.2660997 103.7743918  49.5679468 114.7553452 103.1614080
  49.3019921 114.9503527 104.6389451  47.7929935 107.0452930 118.8966736
  47.1170572 106.9447059 119.5669111  48.6157569 106.8892144 119.3602733
  39.5408794 113.2824867 111.5179251  40.1262231 112.5368554 111.6507155
  39.3433633 113.5928823 112.4015915  42.3947450 116.3176114 106.5341694
  41.7257825 116.8022242 106.0505734  42.2560319 116.5645334 107.4485072
  34.1326449 105.8530467 110.2383694  34.1710549 105.3194057 111.0320812
  33.6266742 105.3265672 109.6194672  46.5352718 118.3519857 113.1324352
  47.0871026 118.5151479 113.8973437  46.8758912 118.9424295 112.4604377
  41.5117211 100.6995007 113.7346237  41.5758538 101.5609838 113.3223634
  41.4484332 100.0869009 113.0018595  40.9869484 102.7718140 117.3819271
  41.6141523 102.3895217 117.9956795  40.1297403 102.5532342 117.7474963
  51.3863593 113.1781115 118.9873006  51.9303497 113.7911073 118.4927961
  50.8050437 113.7360693 119.5040019  37.7635027 104.5794569 103.3137626
  38.0588468 103.6705247 103.2604679  36.8623063 104.5582308 102.9918628
  49.6721106 116.3001833 110.1188034  49.5472245 115.4991573 109.6098980
  50.3300197 116.7948026 109.6302004  41.2929274 102.6550565 109.2965174
  40.5715860 103.2686533 109.1572648  42.0822530 103.1908330 109.2181820
  51.7356014 114.1010853 111.7467584  50.7886349 113.9816204 111.6745911
  52.0838787 113.2133351 111.8293846  44.0955587  99.9904992 115.5705826
  44.6189989 100.2367289 116.3332135  43.8767921 100.8225027 115.1508963
  39.4922868 102.2608667 103.4376951  39.1635574 101.3806045 103.2552057
  39.8462239 102.2056335 104.3253340  48.7402447 113.8963569 107.9471936
  48.5927410 112.9680277 108.1279507  49.5655941 113.9183660 107.4629012
  42.6064691 102.5481636 103.8052429  42.9460764 103.0767558 103.0831037
  43.0536812 102.8862042 104.5810995  52.3436569 114.7192128 109.0336809
  53.2683117 114.5134989 108.8961260  52.1751872 114.4708529 109.9426151
  45.3008132 100.9318687 113.2555497  44.9604953 100.1326500 113.6576177
  44.5947139 101.2320398 112.6832330  45.9524604  98.0168000 111.7082820
  46.7750673  97.5428478 111.5861710  46.1962668  98.7958483 112.2081506
  44.5932839 101.0456258 102.0045721  45.3141201 101.4237511 101.5009438
  43.9698143 101.7645135 102.1080699  48.7363962 101.7501407 102.9404054
  48.9527576 102.6326045 102.6392882  48.2558029 101.3587620 102.2109696
  43.4763183 104.7087120 109.5174798  43.3307764 105.0227423 110.4099080
  42.9988387 105.3272020 108.9645697  45.3359566 101.6989668 109.5655688
  45.3221135 100.8030761 109.2287986  46.0531994 101.7060332 110.1993974
  47.1885696 102.1327008 111.6108815  46.9303474 103.0544079 111.6093146
  46.6570737 101.7357443 112.3009279  52.1331885 115.2377795 104.3898901
  52.3068763 114.6724218 103.6372753  52.6260776 116.0378690 104.2078391
  37.9508845 107.2492465 112.4562459  37.4062313 108.0252273 112.5882734
  38.8288195 107.5963269 112.2981581  44.7396462 100.5804048 104.8343258
  44.8612373  99.6520695 105.0334145  44.4498504 100.5942734 103.9221573
  47.6087652  98.2658959 107.9709978  47.6309349  98.3298292 107.0161957
  48.0255711  97.4263468 108.1650484  57.9871276 108.0014218 106.0089200
  58.4302422 107.2521544 105.6108324  57.1097787 107.9924355 105.6262932
  53.1207058 114.5544560 101.4895799  53.8157962 115.1751253 101.7083114
  53.4630208 113.7039911 101.7648177  38.7374867 106.3762361 115.3492616
  37.9956603 106.5244996 115.9357247  38.4167611 106.6370626 114.4859366
  55.0198481 112.0044265 103.0183130  55.5449805 112.3431538 102.2932450
  54.9320833 111.0691281 102.8346264  46.6818530 115.9178339 115.1473006
  46.9905656 115.6727486 116.0195706  47.4794012 116.1224978 114.6591877
  46.7039142 118.0716249 107.3778383  46.2644132 117.5792627 108.0711240
  47.4547259 117.5289216 107.1370458  39.1831481 114.2627790 107.3803011
  40.0089501 113.9631561 107.0001655  38.8325533 113.4935412 107.8292800
  44.1513014 113.6154258 109.4500685  43.5293023 112.9524963 109.1502912
  44.8217881 113.6415390 108.7674332  37.3840086 112.1814116 108.3391945
  36.5471994 111.7536290 108.1575946  37.3563731 112.3746559 109.2762736
  44.2237541 102.0936046 119.0433191  44.2725697 102.9698169 118.6610960
  44.7660055 101.5513439 118.4704834  54.7092387 112.6377169 118.3234328
  53.9187931 112.6201308 117.7838827  54.4725741 113.1765463 119.0783364
  54.8290262 109.4869635 115.6367056  54.8788267 109.3219643 116.5782579
  54.7204185 108.6196894 115.2464937  43.7126521 112.1658181 102.9259145
  43.8614641 112.8493645 102.2725818  44.5192964 112.1463271 103.4408601
  52.1194024 105.4700563 116.9526363  53.0203887 105.3307028 116.6610361
  52.1941999 105.6355018 117.8924540  46.4536830 102.8467418 115.7979549
  45.5840139 103.1400984 115.5262138  46.6896310 103.4307863 116.5186813
  56.3308459 111.9066577 115.8809078  56.0393267 112.2696557 116.7172539
  55.7180590 111.1933585 115.7022410  57.5304141 109.4719457 108.4011648
  58.3651033 109.9109261 108.5649208  57.6663270 108.9958110 107.5819894
  54.5795647 107.0299192 114.3489136  55.0549769 107.2226838 113.5407987
  53.6561212 107.0858377 114.1032519  41.4679154 108.1923359 103.9320214
  41.2225196 107.2885689 104.1300424  41.6375068 108.1940509 102.9899692
  49.1575864  99.0647035 113.3144970  49.6757807  99.8008062 112.9891458
  48.8030996  99.3711028 114.1491729  40.7374801 103.9251716 101.4306375
  40.0444046 103.9996071 100.7746411  40.4926553 103.1612060 101.9527892
  49.4088458  95.4847318 108.8345866  49.6890211  94.8170507 109.4606293
  50.1939065  95.6776413 108.3220530  47.2121926 114.6606312 100.3970893
  46.6395893 115.2796499  99.9441364  47.7854720 115.2105673 100.9310814
  53.2797316 103.9064952 112.5817441  54.2314739 104.0063049 112.6029665
  53.1100766 103.1143220 113.0915526  51.3011696 100.9920535 112.7676842
  50.7061628 101.2725548 112.0723331  51.0161392 101.4814436 113.5393583
  50.4319186 114.9443462 101.5279475  51.3649859 114.8789023 101.7312350
  50.3442399 115.7799729 101.0694007  53.0607203 114.2609332  98.4883422
  52.9820834 113.9269196  99.3819180  53.8816869 114.7531100  98.4874895
  55.7585394 107.1271071 111.6959741  55.7261714 106.1887072 111.8819425
  56.3686017 107.2055108 110.9625566  47.5968725 105.9967124  97.7386945
  48.5427829 105.8673332  97.8075363  47.2182970 105.2581786  98.2156373
  55.9079882 103.9182115 111.7418024  55.3918931 103.1340571 111.5547953
  56.7919831 103.5900831 111.9064544  53.5690609  97.6623130 107.7013837
  53.3715430  97.3538219 108.5857169  54.1790315  98.3884769 107.8311767
  61.5761944 108.1887078 110.8365778  62.3065332 107.9272366 111.3973481
  60.9668889 107.4515800 110.8767846  59.6577241 106.3294941 111.4340229
  58.9310404 106.1950906 110.8256721  59.2424528 106.6371769 112.2396947
  47.4807417 110.0484870 119.1987602  48.4010427 110.2263469 119.3927649
  47.4457000 109.1040916 119.0467301  45.7811642 103.9217101  97.6741830
  44.8743097 103.6250213  97.7504544  46.0587623 103.6246919  96.8076116
  36.6989582 105.2423464 108.1240877  36.3792367 104.3888772 107.8315251
  36.1523010 105.4572042 108.8798844  40.4769490 107.9585905 111.8410383
  40.6955500 108.8903013 111.8598417  40.8895264 107.5993880 112.6265187
  47.3973708  98.4653990 103.8286072  46.5874436  98.1201075 104.2041318
  48.0858125  98.1561534 104.4173683  49.3264256  97.5432037 105.4510368
  49.8795294  97.9627491 106.1100391  49.5634342  96.6167785 105.4933324
  45.3497355 103.5319111 121.2313132  45.2494082 104.4813468 121.1625223
  45.1318897 103.2037350 120.3589202  44.5510426 100.7804036  97.8153809
  45.4129590 101.1058934  98.0749627  44.7360771  99.9935532  97.3026875
  36.5677842 108.8626376 110.0933998  35.8741314 108.4480328 109.5803953
  37.3150833 108.9046912 109.4967417  52.7043063  99.6532562 104.9589032
  52.1241732 100.3117366 104.5767085  52.4378996  98.8309907 104.5476450
  51.1546629  99.0537620 107.1610353  51.6546408  99.1654155 106.3524672
  51.7982237  98.7498673 107.8011161  45.2128625 106.9616250 120.0478194
  44.7295707 107.7616610 120.2542083  45.2989564 106.9724195 119.0945638
  38.4814585 108.7944629 107.9700013  38.4585273 108.8932317 107.0181896
  38.7915221 109.6409780 108.2917179  41.1401963 110.8520784 112.0846628
  42.0945216 110.8204727 112.0176559  40.9414486 110.3911408 112.8996853
  41.7301345 109.4221900 114.6517425  42.5494234 109.9165979 114.6752262
  42.0038152 108.5053869 114.6234993  51.4867941 101.8132653 104.0145381
  50.5993796 102.0982303 103.7965575  51.9021930 101.6526416 103.1672658
  54.8382477 101.8379174 107.7299720  55.6142867 102.3275626 108.0024337
  54.1130611 102.2637228 108.1871589  57.2755036 102.5506793 108.7873661
  57.8699527 102.3102529 108.0766969  57.3481619 101.8313924 109.4147197
  39.4952191 116.3940404 109.1016825  39.3606659 115.6340805 108.5354823
  39.0784254 117.1181304 108.6345614  50.6311154 111.5777327  98.1093401
  51.3347005 111.7827330  98.7251056  49.9073803 112.1454089  98.3742484
  51.4608965 107.3287189 104.2295671  51.4044166 107.7855740 103.3903303
  52.0137307 106.5677873 104.0518514  55.2713771 103.1176921 105.0545790
  55.0150705 102.7173556 105.8853998  54.6466639 103.8320714 104.9295930
  59.5826108 105.8572994 107.5617082  59.0225666 105.9266183 108.3348644
  58.9769612 105.6813978 106.8416578  42.6521317 117.2909721 109.3135268
  42.5353701 118.2355153 109.2113958  41.8313764 116.9883282 109.7021067
  52.5397852 112.0159857 100.1591861  53.3743456 111.5841055  99.9769336
  52.3782195 111.8441870 101.0868755  52.1943744 108.5191970 101.5248200
  52.1392548 108.3536241 100.5836644  51.5689799 109.2268003 101.6810390
  36.9836259 103.7560034 115.3509622  37.6295123 103.2458988 115.8396847
  36.7753410 104.4928716 115.9253048  49.5089651 110.8240882 120.8501763
  50.3780811 110.9981534 120.4888398  49.0296403 111.6435299 120.7277492
  45.5039869  98.0200079 101.1033518  45.4918539  98.9641919 101.2601789
  46.3963291  97.8370224 100.8092980  43.6775831 117.9437983 112.5291196
  44.5803078 117.9761593 112.8457691  43.4513201 117.0138434 112.5437532
  45.4329433 116.6968969 109.1901275  44.4825064 116.6970831 109.0765647
  45.7361920 115.9501704 108.6737310  49.3191989  94.6142856 105.3579455
  48.5524385  94.0601342 105.5036138  49.7302694  94.6864724 106.2193607
  41.3233750 100.9027651 119.4484637  42.1865212 100.5464456 119.6587961
  40.7499161 100.5641546 120.1360041  61.1682127 122.5329508 110.2547038
  61.8060537 122.4136255 109.5510378  61.0502970 123.4810352 110.3134990
  57.9771833 122.4856936 110.1908562  57.6390345 122.3698001 109.3029097
  58.8461601 122.0848101 110.1709568  53.8358649 124.3392412 106.1805453
  53.2723514 124.2482349 105.4121741  53.7211044 123.5192317 106.6607946
  58.4591616 123.6391788 116.1494768  58.4480257 123.2444586 115.2775271
  58.6212256 122.9057860 116.7428539  51.3823081 125.8343604 109.0189674
  52.1744373 125.4934429 108.6035973  51.6219731 125.9438579 109.9391827
  59.4158208 128.0063380 101.4919918  58.7646187 128.5917460 101.1053932
  60.2102570 128.5369575 101.5514956  53.3413835 125.0952517 101.8907052
  54.1144711 124.5481504 101.7519928  53.6939234 125.9596766 102.1021514
  55.1798877 126.4228899 115.0973952  54.8888743 127.3274530 114.9820618
  55.8155862 126.4645427 115.8118021  56.1055084 123.8005748 111.6875311
  56.7018656 123.5761770 110.9732274  56.1630056 123.0590493 112.2900759
  55.6780113 121.2545183  99.5225502  55.9305633 120.7326705  98.7608965
  54.7404672 121.0911329  99.6252186  60.7223395 120.2580962 107.3300246
  61.5086485 119.8400385 106.9790663  60.9862100 121.1627054 107.4981894
  60.8933473 125.6953812 102.0288902  60.2579306 125.7688438 102.7409807
  60.5630879 126.2847411 101.3507982  66.1231823 120.1956195 108.2333224
  66.8556994 119.6255412 108.4671054  65.3671178 119.8077795 108.6739730
  55.3976401 123.1573289 101.7249877  55.2812659 122.4818193 102.3930962
  55.5078661 122.6705663 100.9082030  57.7407942 122.6183436 105.4296567
  57.3766149 122.0914057 106.1409488  58.5975058 122.2281905 105.2563052
  63.6457243 113.9077769 112.6927833  63.3140568 114.7773180 112.4689048
  63.0502856 113.5914053 113.3721863  57.3813429 117.6473336 100.4257915
  57.5487832 118.5153572 100.7928386  57.1910598 117.8100618  99.5019204
  60.1388762 126.1090315 112.0923745  59.8389486 127.0115354 111.9839553
  59.7939822 125.8422498 112.9444898  53.5901244 122.5604112 108.1260450
  52.6651740 122.4280326 108.3338142  53.8385657 123.3398331 108.6230392
  63.5385906 118.6272855 109.7721183  62.6302784 118.5588264 109.4779944
  63.4873502 119.1044800 110.6003008  57.3602650 120.1030993 101.4104582
  57.2402275 120.5488044 102.2490062  56.6655238 120.4516311 100.8518120
  50.9510055 122.2037385 108.9604239  51.0802436 122.4571864 109.8743651
  50.2707506 122.7965093 108.6408894  55.1209542 132.8734635 105.0594713
  55.0433572 133.8242460 105.1383194  54.5171186 132.5280508 105.7169639
  57.6126772 120.0462501 117.7156080  56.8360106 120.6056421 117.7058945
  58.2517335 120.5319284 118.2370950  65.4047553 116.8289293 111.5499057
  64.7621933 117.1221827 110.9038851  64.9002481 116.7142214 112.3552253
  63.0587716 120.5752467 102.2384916  63.9705572 120.8079853 102.0632613
  62.5497363 121.1589511 101.6759995  55.8673144 122.8547954 117.2774047
  56.6087829 123.3932998 117.0008871  55.1610130 123.4814243 117.4345599
  61.3428484 124.9977094 115.8746208  61.7511840 124.5559505 115.1300841
  60.6205745 124.4229722 116.1280401  57.6959554 119.9349701 113.2479765
  58.5420749 120.3589115 113.3914414  57.6358192 119.2783326 113.9418329
  61.6657299 125.5578285 109.6298497  61.0366161 125.7223999 108.9274565
  61.2782961 125.9719895 110.4009461  65.5446530 126.4932723 106.9842861
  64.8597569 126.8731624 106.4339894  65.6290380 127.1028050 107.7174809
  60.8458999 117.5954070 114.9060939  60.6019931 118.3496130 114.3695215
  61.1218930 117.9739417 115.7408186  62.7997462 124.1392682 113.5838205
  63.0114357 124.7824442 112.9072586  62.7527210 123.3054999 113.1160135
  60.4023691 116.7510503 110.4874777  59.5408170 117.0491756 110.7791514
  60.4286126 116.9680902 109.5555809  57.2185260 125.2952693 106.8948582
  57.6823606 125.5740396 106.1053205  56.9542059 124.3936138 106.7121673
  54.1109342 124.8424175 109.8328346  54.6810699 125.2711443 109.1945830
  54.7017453 124.5606759 110.5312531  56.1554147 121.4175846 103.7038148
  56.8578190 121.8696889 104.1712074  55.8234775 120.7759664 104.3318041
  54.6034508 120.0087602 118.0789357  53.9733169 120.6903883 118.3124754
  54.4970596 119.8970684 117.1342495  49.8979480 119.6759398 109.0055281
  49.1078534 119.9316927 108.5295392  50.3890728 120.4907736 109.1107322
  63.9143290 127.0164637 111.7560562  64.7360734 126.6144825 111.4743244
  63.9105693 126.9132872 112.7076678  51.8494226 120.0403977 105.9638758
  51.0525389 120.1522672 106.4822254  51.6219818 120.3790630 105.0979648
  57.6799893 126.5648681 113.9121272  57.7444326 127.0269088 114.7479444
  56.9710817 125.9346046 114.0403582  48.1817183 119.9289889 111.4370272
  48.4325222 120.8136899 111.7027848  48.7176732 119.7494490 110.6645364
  72.0049283 123.3603386 108.1045533  71.2512991 122.7910784 107.9489538
  72.1396824 123.3266050 109.0516168  57.3947911 128.2316788 103.7800253
  57.2593586 129.0768324 104.2085101  57.9357724 128.4336066 103.0166187
  53.8815251 114.3108368 120.4414608  53.4882196 113.7574567 121.1162252
  54.6981391 114.6218947 120.8321126  50.8477309 125.7492226 104.3528178
  51.3601829 126.5435476 104.5033743  51.5000021 125.0518517 104.2861779
  52.6572193 128.8657983 106.4350931  52.8338822 129.7875947 106.2471915
  53.4529027 128.5516402 106.8645311  56.7983212 115.7266247 118.0334865
  57.5392925 116.3273400 117.9539327  57.0301135 114.9843885 117.4752907
  51.9424550 120.9122614 116.3113094  51.8278065 120.0107872 116.6120193
  51.0869068 121.1586311 115.9597911  59.0216388 128.8540355 117.9100595
  58.5780242 128.0676733 117.5921499  59.6833601 129.0419505 117.2444486
  53.7803509 130.3836156 112.4361273  54.3310934 130.2553220 111.6638267
  52.9414985 130.6831045 112.0856166  61.1197626 129.1343155 115.9381996
  61.1016101 129.9552036 115.4462265  62.0417546 129.0097230 116.1632137
  57.5770680 126.6487284 116.7805505  58.1099017 125.8875572 116.5504813
  57.0484761 126.3560936 117.5229659  60.7440375 111.7547350 112.3099146
  60.4004644 112.6448992 112.2338257  61.1119337 111.5649008 111.4468731
  48.8126225 124.0780881 105.1287748  49.6501447 124.4877889 104.9121456
  48.9904493 123.1380323 105.0987942  60.7090657 121.7455961 100.8171581
  60.1937281 122.5160566 101.0559969  60.4367966 121.0721097 101.4404643
  58.2937768 116.5905662 105.8756820  57.4379365 116.2012512 105.6962458
  58.7064720 116.6697623 105.0156605  59.8236915 114.1252005 110.2748380
  59.3201711 114.0882140 109.4616185  60.1167522 115.0344748 110.3345036
  56.0679801 114.2090735 109.2814561  56.9332798 114.0133544 108.9220451
  56.1357310 113.9801087 110.2083918  65.6824932 124.4988316 102.7524755
  64.9054374 124.1599475 102.3079917  66.3616413 124.5040939 102.0779720
  60.4976961 119.6183053 102.6431363  60.1927096 119.9329202 103.4941506
  61.4507403 119.6964473 102.6858696  58.9423392 125.7773277 104.2924317
  58.4144754 125.0426036 103.9797554  58.4410895 126.5547953 104.0464285
  63.9216238 123.9722297 109.4091363  63.2639913 124.6621558 109.4971491
  64.7256638 124.3618729 109.7525349  53.6742120 116.4392943 106.6530928
  54.2485872 116.2168124 105.9204121  54.2613102 116.5081637 107.4059529
  62.7321697 122.3266670 107.4595305  63.2453579 122.9596662 107.9617014
  63.3822921 121.7267865 107.0938665  54.0011707 118.4697404 100.6726813
  53.1649019 118.8072090 100.9936088  53.8616477 118.3346384  99.7353950
  55.9764788 113.3134192 105.3805997  55.3229200 112.9983209 104.7562612
  55.9345262 112.6909932 106.1065820  57.0875993 123.5953487  97.2959290
  56.1803054 123.3642740  97.4950439  57.5847025 122.7991106  97.4833271
  59.9944072 132.3050994 100.2155976  59.3205770 132.6082691 100.8240934
  60.3809893 133.1080074  99.8661433  59.2102528 119.8016125 109.7053645
  58.2925090 120.0231072 109.5475333  59.6262672 119.8762436 108.8465352
  59.9937576 121.2007541 104.8356325  60.7409395 121.7128938 104.5263447
  60.2629165 120.8791594 105.6960719  58.2664226 123.6966082 101.8183280
  57.3575445 123.4125115 101.9155749  58.2959310 124.1165160 100.9586587
  63.4983493 127.3072671 105.5874447  63.0445821 126.4663581 105.6439638
  62.8677460 127.9434070 105.9249227  62.4416413 118.2364657 106.8175115
  61.7039170 117.7242043 107.1485357  62.6943187 117.7965039 106.0058392
  61.9416433 129.1449168 106.5224265  62.2339407 129.7054225 105.8036631
  62.4515053 129.4377729 107.2777424  62.5428040 111.0140909 107.4116884
  62.8486917 110.1538273 107.1242799  63.2680645 111.6058529 107.2115878
  48.8352396 121.4171596 105.7998482  48.6376796 120.8240957 105.0749548
  48.2799060 121.1123806 106.5174421  56.8149120 121.3094702 107.9193075
  56.8697730 120.3568539 107.8435552  56.0040322 121.4654141 108.4034373
  57.9640314 125.2374825  99.1571358  57.5259744 124.5210684  98.6976996
  58.7050755 125.4650940  98.5956450  54.7541480 119.9271762 105.6783454
  53.9409346 120.2265933 106.0848646  55.2500474 119.5327451 106.3957936
  56.9050058 129.9229519 107.6117719  56.8626237 130.1490365 106.6826251
  57.8212757 129.6892894 107.7603520  60.3515692 120.3913587 114.5098348
  60.7065079 120.6185060 115.3692814  60.9987823 120.7231963 113.8875603
  66.0813429 123.5132022 105.2147677  65.9431327 123.7033618 104.2868866
  65.7249647 124.2751405 105.6715728  54.2455555 117.4990118 111.2944689
  54.8854934 117.3578877 110.5967652  53.4133085 117.2124631 110.9183291
  66.1082808 125.5808549 110.2258948  66.5419315 125.4883839 111.0742002
  66.8214389 125.5566050 109.5878964  55.0215859 126.7992548 107.4079681
  55.8156457 126.3042868 107.2062256  54.3107551 126.2710411 107.0447387
  59.8410703 129.1810644 111.7592049  59.8947725 129.7501580 112.5269765
  58.9725485 129.3512529 111.3946086  51.3298622 120.9435630 103.4839434
  50.3996210 120.8820085 103.7009396  51.4256094 120.4211583 102.6876075
  51.2484171 117.4690443 106.0717676  51.5090989 118.3835776 105.9626836
  52.0701344 117.0014885 106.2214288  52.7209097 118.8828200 113.2416500
  53.3932150 118.6745562 112.5929149  51.8938883 118.6850286 112.8021732
  66.9698358 125.6232250 112.7591834  67.1634248 126.5278061 113.0051109
  66.8698976 125.1639669 113.5930419  58.6234669 115.5090141 115.2582161
  57.9762584 116.2080090 115.1646637  59.3935684 115.9426285 115.6258409
  62.0313466 125.7738993 118.3332714  61.8798973 125.5449545 117.4162798
  62.0218146 126.7309594 118.3464059  58.7998803 123.3470906 113.3178981
  59.7290863 123.4982065 113.1447948  58.3789833 123.4354926 112.4627627
  57.5987135 127.3721570 111.0877518  57.4598220 127.0040354 111.9603457
  56.8101731 127.8869209 110.9161476  58.1935287 132.4730666 102.4303055
  58.3687042 132.0018710 103.2448678  57.5068075 133.0996433 102.6584316
  59.1492350 126.7503173 108.4766356  58.8142182 126.7103943 109.3724006
  58.6496296 126.0847889 108.0036766  53.1236594 122.1570803 114.0018937
  52.9856392 121.4251042 114.6030476  54.0341517 122.0679703 113.7203125
  62.0851541 124.0959207  98.7503416  61.4680712 123.3706035  98.6536469
  61.6168030 124.8568567  98.4070490  55.7518894 121.8690762 113.4902617
  56.4618513 121.2283954 113.4489235  55.7088203 122.1203657 114.4128798
  63.7405673 128.8058115 116.4109196  63.6818219 128.1217336 115.7439779
  64.1425192 129.5477105 115.9589822  54.4647828 118.8555980 115.3098256
  53.9285185 118.4046718 115.9619853  53.8764537 118.9901889 114.5668721
  53.8750087 118.3144631  97.8724720  52.9979554 118.1933432  97.5086967
  54.3507840 117.5230710  97.6203609  63.7423080 126.7697699 114.6423176
  62.8549859 126.4323621 114.7649575  64.3121631 126.0380731 114.8791941
  45.3952228 123.1021791 107.9666227  46.0823267 122.7883521 107.3787243
  45.2400356 124.0063156 107.6933479  50.1986950 117.9911988 112.3951251
  50.1145138 117.3837657 111.6601661  49.3769656 118.4821006 112.3960747
  57.2724234 131.4299152 111.6084419  57.1994405 132.2354123 112.1203724
  56.8301627 131.6291118 110.7832440  57.0614013 130.6670922 105.1187241
  56.2781535 131.2092602 105.2125465  57.7606759 131.1844901 105.5181482
  60.3710664 116.4765551 107.7621446  60.8679363 115.7235513 107.4422516
  59.5997645 116.5129868 107.1964655  68.2240421 122.1805917 109.4039738
  68.2130297 123.0630632 109.0333671  67.3557800 121.8277468 109.2094275
  59.7322917 131.3285986 113.7642578  60.4450890 131.9633451 113.6918479
  59.2412946 131.4249852 112.9482580  61.4540444 125.2337238 105.3359869
  60.5196723 125.3538701 105.1664574  61.6317113 124.3309705 105.0719879
  56.9545632 118.6182934 107.4893131  56.5843420 118.0653975 108.1774036
  57.4504725 118.0141068 106.9368131  64.8412996 121.0754558 105.8709904
  65.3073448 121.9082549 105.7970206  65.2920496 120.6099539 106.5755162
  54.7834831 129.0780429 114.5848149  55.4844290 129.7116912 114.7377543
  54.3129946 129.4195161 113.8243788  62.9089227 127.4198379 102.8696056
  63.1849071 127.3054974 103.7789930  62.0393725 127.0215864 102.8308229
  62.8129658 113.4435145 109.9100805  61.8992738 113.6739372 110.0783012
  63.2422760 113.5273589 110.7614837  62.5836117 121.6325037 112.4100699
  61.9307567 121.8800944 111.7553152  62.9616497 120.8189175 112.0763176
  59.5443291 131.6684730 106.5128869  59.7265685 130.8506386 106.9756622
  60.3676277 131.8852422 106.0753759  59.8785456 130.5952915 103.7743918
  60.4073223 130.0845370 103.1614080  60.1413676 130.2795445 104.6389451
  58.6323690 122.3744848 118.8966736  57.9564327 122.2738977 119.5669111
  59.4551324 122.2184061 119.3602733  50.3802549 128.6116784 111.5179251
  50.9655986 127.8660472 111.6507155  50.1827387 128.9220741 112.4015915
  53.2341204 131.6468032 106.5341694  52.5651579 132.1314159 106.0505734
  53.0954074 131.8937252 107.4485072  44.9720204 121.1822384 110.2383694
  45.0104303 120.6485975 111.0320812  44.4660496 120.6557590 109.6194672
  57.3746473 133.6811775 113.1324352  57.9264781 133.8443397 113.8973437
  57.7152666 134.2716213 112.4604377  52.3510966 116.0286925 113.7346237
  52.4152292 116.8901756 113.3223634  52.2878086 115.4160927 113.0018595
  51.8263238 118.1010057 117.3819271  52.4535277 117.7187135 117.9956795
  50.9691157 117.8824259 117.7474963  62.2257347 128.5073033 118.9873006
  62.7697251 129.1202991 118.4927961  61.6444192 129.0652611 119.5040019
  48.6028781 119.9086487 103.3137626  48.8982222 118.9997165 103.2604679
  47.7016817 119.8874226 102.9918628  60.5114860 131.6293751 110.1188034
  60.3865999 130.8283491 109.6098980  61.1693951 132.1239944 109.6302004
  52.1323028 117.9842483 109.2965174  51.4109614 118.5978451 109.1572648
  52.9216284 118.5200248 109.2181820  62.5749768 129.4302771 111.7467584
  61.6280104 129.3108122 111.6745911  62.9232541 128.5425269 111.8293846
  54.9349342 115.3196910 115.5705826  55.4583744 115.5659206 116.3332135
  54.7161675 116.1516944 115.1508963  50.3316623 117.5900584 103.4376951
  50.0029329 116.7097963 103.2552057  50.6855994 117.5348253 104.3253340
  59.5796202 129.2255487 107.9471936  59.4321164 128.2972194 108.1279507
  60.4049695 129.2475578 107.4629012  53.4458446 117.8773554 103.8052429
  53.7854518 118.4059475 103.0831037  53.8930566 118.2153960 104.5810995
  63.1830324 130.0484046 109.0336809  64.1076871 129.8426907 108.8961260
  63.0145627 129.8000447 109.9426151  56.1401887 116.2610605 113.2555497
  55.7998707 115.4618418 113.6576177  55.4340893 116.5612316 112.6832330
  56.7918359 113.3459917 111.7082820  57.6144428 112.8720395 111.5861710
  57.0356422 114.1250401 112.2081506  55.4326593 116.3748176 102.0045721
  56.1534956 116.7529428 101.5009438  54.8091897 117.0937052 102.1080699
  59.5757716 117.0793325 102.9404054  59.7921330 117.9617962 102.6392882
  59.0951783 116.6879538 102.2109696  54.3156937 120.0379038 109.5174798
  54.1701518 120.3519341 110.4099080  53.8382141 120.6563938 108.9645697
  56.1753320 117.0281586 109.5655688  56.1614889 116.1322679 109.2287986
  56.8925748 117.0352250 110.1993974  58.0279451 117.4618926 111.6108815
  57.7697229 118.3835997 111.6093146  57.4964491 117.0649361 112.3009279
  62.9725640 130.5669713 104.3898901  63.1462517 130.0016136 103.6372753
  63.4654531 131.3670608 104.2078391  48.7902600 122.5784382 112.4562459
  48.2456068 123.3544190 112.5882734  49.6681949 122.9255187 112.2981581
  55.5790216 115.9095966 104.8343258  55.7006127 114.9812612 105.0334145
  55.2892259 115.9234652 103.9221573  58.4481407 113.5950877 107.9709978
  58.4703103 113.6590210 107.0161957  58.8649466 112.7555385 108.1650484
  68.8265031 123.3306136 106.0089200  69.2696177 122.5813461 105.6108324
  67.9491541 123.3216272 105.6262932  63.9600812 129.8836478 101.4895799
  64.6551717 130.5043170 101.7083114  64.3023962 129.0331829 101.7648177
  49.5768621 121.7054278 115.3492616  48.8350357 121.8536914 115.9357247
  49.2561366 121.9662544 114.4859366  65.8592235 127.3336183 103.0183130
  66.3843559 127.6723456 102.2932450  65.7714588 126.3983198 102.8346264
  57.5212284 131.2470257 115.1473006  57.8299410 131.0019403 116.0195706
  58.3187766 131.4516895 114.6591877  57.5432896 133.4008166 107.3778383
  57.1037886 132.9084545 108.0711240  58.2941013 132.8581134 107.1370458
  50.0225235 129.5919707 107.3803011  50.8483255 129.2923479 107.0001655
  49.6719287 128.8227330 107.8292800  54.9906768 128.9446175 109.4500685
  54.3686778 128.2816880 109.1502912  55.6611635 128.9707307 108.7674332
  48.2233840 127.5106034 108.3391945  47.3865748 127.0828208 108.1575946
  48.1957486 127.7038477 109.2762736  55.0631296 117.4227963 119.0433191
  55.1119451 118.2990086 118.6610960  55.6053810 116.8805357 118.4704834
  65.5486141 127.9669087 118.3234328  64.7581685 127.9493226 117.7838827
  65.3119496 128.5057380 119.0783364  65.6684016 124.8161553 115.6367056
  65.7182021 124.6511561 116.5782579  65.5597940 123.9488812 115.2464937
  54.5520275 127.4950099 102.9259145  54.7008396 128.1785563 102.2725818
  55.3586719 127.4755189 103.4408601  62.9587779 120.7992481 116.9526363
  63.8597642 120.6598946 116.6610361  63.0335753 120.9646936 117.8924540
  57.2930584 118.1759336 115.7979549  56.4233894 118.4692902 115.5262138
  57.5290065 118.7599781 116.5186813  67.1702213 127.2358495 115.8809078
  66.8787022 127.5988475 116.7172539  66.5574345 126.5225503 115.7022410
  68.3697896 124.8011374 108.4011648  69.2044787 125.2401178 108.5649208
  68.5057024 124.3250028 107.5819894  65.4189402 122.3591109 114.3489136
  65.8943523 122.5518756 113.5407987  64.4954967 122.4150295 114.1032519
  52.3072908 123.5215276 103.9320214  52.0618950 122.6177606 104.1300424
  52.4768823 123.5232427 102.9899692  59.9969618 114.3938953 113.3144970
  60.5151562 115.1299980 112.9891458  59.6424751 114.7002946 114.1491729
  51.5768556 119.2543634 101.4306375  50.8837801 119.3287989 100.7746411
  51.3320308 118.4903978 101.9527892  60.2482212 110.8139235 108.8345866
  60.5283966 110.1462424 109.4606293  61.0332819 111.0068331 108.3220530
  58.0515681 129.9898229 100.3970893  57.4789648 130.6088416  99.9441364
  58.6248474 130.5397591 100.9310814  64.1191071 119.2356869 112.5817441
  65.0708493 119.3354967 112.6029665  63.9494521 118.4435138 113.0915526
  62.1405450 116.3212453 112.7676842  61.5455382 116.6017465 112.0723331
  61.8555147 116.8106353 113.5393583  61.2712940 130.2735379 101.5279475
  62.2043614 130.2080941 101.7312350  61.1836153 131.1091646 101.0694007
  63.9000957 129.5901250  98.4883422  63.8214589 129.2561113  99.3819180
  64.7210624 130.0823018  98.4874895  66.5979148 122.4562989 111.6959741
  66.5655468 121.5178990 111.8819425  67.2079772 122.5347026 110.9625566
  58.4362479 121.3259042  97.7386945  59.3821584 121.1965250  97.8075363
  58.0576724 120.5873704  98.2156373  66.7473637 119.2474032 111.7418024
  66.2312685 118.4632489 111.5547953  67.6313585 118.9192749 111.9064544
  64.4084364 112.9915048 107.7013837  64.2109185 112.6830136 108.5857169
  65.0184069 113.7176687 107.8311767  72.4155698 123.5178996 110.8365778
  73.1459087 123.2564284 111.3973481  71.8062644 122.7807718 110.8767846
  70.4970995 121.6586858 111.4340229  69.7704159 121.5242823 110.8256721
  70.0818282 121.9663687 112.2396947  58.3201172 125.3776788 119.1987602
  59.2404181 125.5555387 119.3927649  58.2850755 124.4332833 119.0467301
  56.6205396 119.2509018  97.6741830  55.7136852 118.9542131  97.7504544
  56.8981377 118.9538836  96.8076116  47.5383337 120.5715382 108.1240877
  47.2186121 119.7180690 107.8315251  46.9916765 120.7863960 108.8798844
  51.3163244 123.2877823 111.8410383  51.5349254 124.2194931 111.8598417
  51.7289018 122.9285797 112.6265187  58.2367462 113.7945908 103.8286072
  57.4268190 113.4492993 104.2041318  58.9251879 113.4853452 104.4173683
  60.1658010 112.8723955 105.4510368  60.7189049 113.2919408 106.1100391
  60.4028097 111.9459703 105.4933324  56.1891110 118.8611029 121.2313132
  56.0887836 119.8105385 121.1625223  55.9712652 118.5329267 120.3589202
  55.3904181 116.1095954  97.8153809  56.2523345 116.4350852  98.0749627
  55.5754525 115.3227449  97.3026875  47.4071597 124.1918293 110.0933998
  46.7135068 123.7772246 109.5803953  48.1544588 124.2338830 109.4967417
  63.5436817 114.9824480 104.9589032  62.9635486 115.6409284 104.5767085
  63.2772750 114.1601825 104.5476450  61.9940384 114.3829538 107.1610353
  62.4940162 114.4946072 106.3524672  62.6375992 114.0790591 107.8011161
  56.0522380 122.2908167 120.0478194  55.5689461 123.0908527 120.2542083
  56.1383319 122.3016112 119.0945638  49.3208339 124.1236547 107.9700013
  49.2979027 124.2224234 107.0181896  49.6308976 124.9701698 108.2917179
  51.9795717 126.1812702 112.0846628  52.9338971 126.1496644 112.0176559
  51.7808241 125.7203326 112.8996853  52.5695099 124.7513818 114.6517425
  53.3887988 125.2457897 114.6752262  52.8431907 123.8345786 114.6234993
  62.3261695 117.1424570 104.0145381  61.4387550 117.4274221 103.7965575
  62.7415685 116.9818334 103.1672658  65.6776232 117.1671091 107.7299720
  66.4536622 117.6567544 108.0024337  64.9524366 117.5929146 108.1871589
  68.1148790 117.8798711 108.7873661  68.7093281 117.6394447 108.0766969
  68.1875374 117.1605841 109.4147197  50.3345946 131.7232322 109.1016825
  50.2000414 130.9632722 108.5354823  49.9178008 132.4473221 108.6345614
  61.4704909 126.9069245  98.1093401  62.1740759 127.1119248  98.7251056
  60.7467558 127.4746007  98.3742484  62.3002719 122.6579106 104.2295671
  62.2437921 123.1147658 103.3903303  62.8531062 121.8969791 104.0518514
  66.1107525 118.4468838 105.0545790  65.8544459 118.0465474 105.8853998
  65.4860393 119.1612632 104.9295930  70.4219863 121.1864911 107.5617082
  69.8619421 121.2558101 108.3348644  69.8163366 121.0105896 106.8416578
  53.4915072 132.6201639 109.3135268  53.3747456 133.5647071 109.2113958
  52.6707518 132.3175200 109.7021067  63.3791606 127.3451774 100.1591861
  64.2137210 126.9132973  99.9769336  63.2175949 127.1733788 101.0868755
  63.0337499 123.8483888 101.5248200  62.9786302 123.6828159 100.5836644
  62.4083554 124.5559921 101.6810390  47.8230013 119.0851952 115.3509622
  48.4688877 118.5750906 115.8396847  47.6147165 119.8220634 115.9253048
  60.3483406 126.1532799 120.8501763  61.2174565 126.3273452 120.4888398
  59.8690157 126.9727216 120.7277492  56.3433624 113.3491997 101.1033518
  56.3312294 114.2933837 101.2601789  57.2357046 113.1662142 100.8092980
  54.5169586 133.2729900 112.5291196  55.4196833 133.3053511 112.8457691
  54.2906956 132.3430351 112.5437532  56.2723188 132.0260887 109.1901275
  55.3218819 132.0262749 109.0765647  56.5755674 131.2793622 108.6737310
  60.1585743 109.9434773 105.3579455  59.3918139 109.3893260 105.5036138
  60.5696448 110.0156642 106.2193607  52.1627504 116.2319569 119.4484637
  53.0258966 115.8756374 119.6587961  51.5892915 115.8933464 120.1360041
  72.0075881 137.8621425 110.2547038  72.6454291 137.7428173 109.5510378
  71.8896724 138.8102269 110.3134990  68.8165588 137.8148854 110.1908562
  68.4784099 137.6989918 109.3029097  69.6855356 137.4140019 110.1709568
  64.6752403 139.6684330 106.1805453  64.1117269 139.5774267 105.4121741
  64.5604798 138.8484234 106.6607946  66.9448839 139.1297666 111.6875311
  67.5412411 138.9053688 110.9732274  67.0023810 138.3882411 112.2900759
  66.5173867 136.5837101  99.5225502  66.7699388 136.0618622  98.7608965
  65.5798426 136.4203246  99.6252186  71.5617150 135.5872879 107.3300246
  72.3480239 135.1692302 106.9790663  71.8255854 136.4918971 107.4981894
  71.7327227 141.0245730 102.0288902  71.0973060 141.0980356 102.7409807
  71.4024634 141.6139328 101.3507982  76.9625577 135.5248112 108.2333224
  77.6950749 134.9547329 108.4671054  76.2064933 135.1369713 108.6739730
  66.2370156 138.4865207 101.7249877  66.1206414 137.8110110 102.3930962
  66.3472416 137.9997581 100.9082030  68.5801697 137.9475354 105.4296567
  68.2159904 137.4205975 106.1409488  69.4368813 137.5573823 105.2563052
  68.2207184 132.9765254 100.4257915  68.3881586 133.8445490 100.7928386
  68.0304353 133.1392535  99.5019204  64.4294998 137.8896029 108.1260450
  63.5045495 137.7572244 108.3338142  64.6779412 138.6690249 108.6230392
  74.3779661 133.9564773 109.7721183  73.4696538 133.8880181 109.4779944
  74.3267256 134.4336718 110.6003008  68.1996405 135.4322911 101.4104582
  68.0796030 135.8779962 102.2490062  67.5048993 135.7808229 100.8518120
  61.7903809 137.5329303 108.9604239  61.9196191 137.7863782 109.8743651
  61.1101261 138.1257011 108.6408894  73.8981471 135.9044384 102.2384916
  74.8099327 136.1371771 102.0632613  73.3891118 136.4881429 101.6759995
  68.5353308 135.2641619 113.2479765  69.3814504 135.6881032 113.3914414
  68.4751946 134.6075243 113.9418329  71.2417446 132.0802420 110.4874777
  70.3801925 132.3783674 110.7791514  71.2679880 132.2972819 109.5555809
  68.0579015 140.6244611 106.8948582  68.5217360 140.9032314 106.1053205
  67.7935813 139.7228055 106.7121673  66.9947901 136.7467763 103.7038148
  67.6971944 137.1988807 104.1712074  66.6628530 136.1051582 104.3318041
  60.7373235 135.0051316 109.0055281  59.9472289 135.2608844 108.5295392
  61.2284482 135.8199654 109.1107322  62.6887980 135.3695895 105.9638758
  61.8919144 135.4814589 106.4822254  62.4613573 135.7082547 105.0979648
  59.0210938 135.2581806 111.4370272  59.2718976 136.1428816 111.7027848
  59.5570486 135.0786408 110.6645364  62.7818304 136.2414532 116.3113094
  62.6671819 135.3399789 116.6120193  61.9262822 136.4878229 115.9597911
  71.5834129 127.0839268 112.3099146  71.2398399 127.9740909 112.2338257
  71.9513092 126.8940925 111.4468731  71.5484412 137.0747879 100.8171581
  71.0331035 137.8452484 101.0559969  71.2761720 136.4013015 101.4404643
  69.1331523 131.9197580 105.8756820  68.2773119 131.5304430 105.6962458
  69.5458475 131.9989540 105.0156605  70.6630670 129.4543923 110.2748380
  70.1595465 129.4174058 109.4616185  70.9561276 130.3636666 110.3345036
  66.9073555 129.5382653 109.2814561  67.7726552 129.3425461 108.9220451
  66.9751064 129.3093004 110.2083918  76.5218686 139.8280234 102.7524755
  75.7448129 139.4891393 102.3079917  77.2010167 139.8332857 102.0779720
  71.3370715 134.9474971 102.6431363  71.0320851 135.2621120 103.4941506
  72.2901157 135.0256391 102.6858696  64.5135875 131.7684861 106.6530928
  65.0879626 131.5460042 105.9204121  65.1006857 131.8373555 107.4059529
  73.5715452 137.6558587 107.4595305  74.0847334 138.2888579 107.9617014
  74.2216676 137.0559783 107.0938665  64.8405462 133.7989322 100.6726813
  64.0042774 134.1364008 100.9936088  64.7010231 133.6638301  99.7353950
  66.8158542 128.6426109 105.3805997  66.1622955 128.3275127 104.7562612
  66.7739016 128.0201850 106.1065820  67.9269747 138.9245405  97.2959290
  67.0196809 138.6934658  97.4950439  68.4240779 138.1283024  97.4833271
  70.0496283 135.1308043 109.7053645  69.1318844 135.3522990 109.5475333
  70.4656426 135.2054353 108.8465352  70.8331330 136.5299459 104.8356325
  71.5803149 137.0420856 104.5263447  71.1022920 136.2083511 105.6960719
  69.1057981 139.0257999 101.8183280  68.1969200 138.7417032 101.9155749
  69.1353064 139.4457078 100.9586587  74.3377248 142.6364589 105.5874447
  73.8839575 141.7955499 105.6439638  73.7071215 143.2725987 105.9249227
  73.2810168 133.5656575 106.8175115  72.5432924 133.0533961 107.1485357
  73.5336941 133.1256957 106.0058392  73.3821795 126.3432827 107.4116884
  73.6880672 125.4830190 107.1242799  74.1074400 126.9350447 107.2115878
  59.6746151 136.7463514 105.7998482  59.4770551 136.1532874 105.0749548
  59.1192815 136.4415724 106.5174421  67.6542875 136.6386620 107.9193075
  67.7091484 135.6860456 107.8435552  66.8434077 136.7946059 108.4034373
  68.8034068 140.5666743  99.1571358  68.3653498 139.8502602  98.6976996
  69.5444509 140.7942858  98.5956450  65.5935235 135.2563680 105.6783454
  64.7803100 135.5557850 106.0848646  66.0894229 134.8619369 106.3957936
  76.9207183 138.8423940 105.2147677  76.7825082 139.0325536 104.2868866
  76.5643402 139.6043323 105.6715728  65.0849309 132.8282035 111.2944689
  65.7248689 132.6870794 110.5967652  64.2526840 132.5416549 110.9183291
  62.1692377 136.2727547 103.4839434  61.2389965 136.2112003 103.7009396
  62.2649849 135.7503500 102.6876075  62.0877926 132.7982360 106.0717676
  62.3484743 133.7127694 105.9626836  62.9095098 132.3306803 106.2214288
  63.5602851 134.2120117 113.2416500  64.2325904 134.0037480 112.5929149
  62.7332638 134.0142203 112.8021732  69.4628423 130.8382058 115.2582161
  68.8156338 131.5372008 115.1646637  70.2329438 131.2718202 115.6258409
  63.9630348 137.4862720 114.0018937  63.8250146 136.7542959 114.6030476
  64.8735272 137.3971621 113.7203125  72.9245296 139.4251125  98.7503416
  72.3074467 138.6997953  98.6536469  72.4561784 140.1860485  98.4070490
  66.5912649 137.1982680 113.4902617  67.3012267 136.5575872 113.4489235
  66.5481957 137.4495575 114.4128798  65.3041583 134.1847898 115.3098256
  64.7678940 133.7338636 115.9619853  64.7158291 134.3193806 114.5668721
  64.7143842 133.6436549  97.8724720  63.8373308 133.5225350  97.5086967
  65.1901595 132.8522627  97.6203609  61.0380704 133.3203905 112.3951251
  60.9538893 132.7129575 111.6601661  60.2163411 133.8112924 112.3960747
  71.2104418 131.8057469 107.7621446  71.7073118 131.0527431 107.4422516
  70.4391400 131.8421786 107.1964655  72.2934199 140.5629156 105.3359869
  71.3590477 140.6830619 105.1664574  72.4710867 139.6601623 105.0719879
  67.7939387 133.9474852 107.4893131  67.4237174 133.3945892 108.1774036
  68.2898479 133.3432985 106.9368131  75.6806750 136.4046475 105.8709904
  76.1467202 137.2374467 105.7970206  76.1314251 135.9391457 106.5755162
  73.7482981 142.7490297 102.8696056  74.0242825 142.6346891 103.7789930
  72.8787480 142.3507781 102.8308229  55.8113958 136.5114302 110.2383694
  55.8498058 135.9777893 111.0320812  55.3054251 135.9849508 109.6194672
  63.1904720 131.3578843 113.7346237  63.2546047 132.2193674 113.3223634
  63.1271841 130.7452844 113.0018595  62.6656993 133.4301975 117.3819271
  63.2929032 133.0479052 117.9956795  61.8084912 133.2116177 117.7474963
  59.4422536 135.2378404 103.3137626  59.7375977 134.3289083 103.2604679
  58.5410571 135.2166144 102.9918628  62.9716783 133.3134401 109.2965174
  62.2503368 133.9270369 109.1572648  63.7610038 133.8492166 109.2181820
  65.7743096 130.6488827 115.5705826  66.2977498 130.8951124 116.3332135
  65.5555430 131.4808862 115.1508963  61.1710377 132.9192502 103.4376951
  60.8423083 132.0389881 103.2552057  61.5249748 132.8640171 104.3253340
  64.2852200 133.2065472 103.8052429  64.6248273 133.7351393 103.0831037
  64.7324321 133.5445878 104.5810995  66.9795641 131.5902522 113.2555497
  66.6392462 130.7910336 113.6576177  66.2734648 131.8904233 112.6832330
  67.6312113 128.6751835 111.7082820  68.4538182 128.2012313 111.5861710
  67.8750177 129.4542319 112.2081506  66.2720348 131.7040093 102.0045721
  66.9928710 132.0821346 101.5009438  65.6485652 132.4228970 102.1080699
  70.4151470 132.4085242 102.9404054  70.6315085 133.2909880 102.6392882
  69.9345538 132.0171456 102.2109696  65.1550692 135.3670956 109.5174798
  65.0095273 135.6811259 110.4099080  64.6775896 135.9855856 108.9645697
  67.0147075 132.3573504 109.5655688  67.0008644 131.4614597 109.2287986
  67.7319503 132.3644167 110.1993974  68.8673205 132.7910844 111.6108815
  68.6090983 133.7127914 111.6093146  68.3358246 132.3941278 112.3009279
  66.4183971 131.2387884 104.8343258  66.5399882 130.3104530 105.0334145
  66.1286013 131.2526570 103.9221573  69.2875161 128.9242794 107.9709978
  69.3096858 128.9882127 107.0161957  69.7043220 128.0847303 108.1650484
  79.6658785 138.6598054 106.0089200  80.1089931 137.9105379 105.6108324
  78.7885296 138.6508190 105.6262932  60.4162376 137.0346196 115.3492616
  59.6744112 137.1828832 115.9357247  60.0955120 137.2954462 114.4859366
  76.6985990 142.6628101 103.0183130  77.2237314 143.0015374 102.2932450
  76.6108342 141.7275116 102.8346264  63.1466663 138.8507194 103.9320214
  62.9012705 137.9469524 104.1300424  63.3162577 138.8524345 102.9899692
  70.8363373 129.7230870 113.3144970  71.3545316 130.4591897 112.9891458
  70.4818505 130.0294864 114.1491729  62.4162310 134.5835552 101.4306375
  61.7231555 134.6579907 100.7746411  62.1714062 133.8195895 101.9527892
  71.0875967 126.1431153 108.8345866  71.3677720 125.4754342 109.4606293
  71.8726574 126.3360249 108.3220530  72.9799204 131.6504370 112.7676842
  72.3849137 131.9309383 112.0723331  72.6948901 132.1398271 113.5393583
  69.2756234 136.6550960  97.7386945  70.2215338 136.5257168  97.8075363
  68.8970479 135.9165622  98.2156373  67.4599151 134.5800936  97.6741830
  66.5530606 134.2834049  97.7504544  67.7375132 134.2830754  96.8076116
  58.3777091 135.9007299 108.1240877  58.0579876 135.0472608 107.8315251
  57.8310519 136.1155878 108.8798844  69.0761217 129.1237826 103.8286072
  68.2661945 128.7784911 104.2041318  69.7645633 128.8145369 104.4173683
  71.0051765 128.2015873 105.4510368  71.5582803 128.6211326 106.1100391
  71.2421851 127.2751621 105.4933324  66.2297935 131.4387871  97.8153809
  67.0917099 131.7642770  98.0749627  66.4148280 130.6519367  97.3026875
  74.3830572 130.3116398 104.9589032  73.8029241 130.9701202 104.5767085
  74.1166505 129.4893742 104.5476450  72.8334138 129.7121455 107.1610353
  73.3333917 129.8237990 106.3524672  73.4769746 129.4082508 107.8011161
  73.1655450 132.4716488 104.0145381  72.2781305 132.7566139 103.7965575
  73.5809439 132.3110251 103.1672658  76.5169986 132.4963009 107.7299720
  77.2930376 132.9859462 108.0024337  75.7918120 132.9221063 108.1871589
  78.9542545 133.2090628 108.7873661  79.5487036 132.9686364 108.0766969
  79.0269128 132.4897759 109.4147197  73.1396474 137.9871024 104.2295671
  73.0831675 138.4439575 103.3903303  73.6924816 137.2261709 104.0518514
  76.9501280 133.7760756 105.0545790  76.6938214 133.3757392 105.8853998
  76.3254148 134.4904550 104.9295930  81.2613617 136.5156829 107.5617082
  80.7013175 136.5850018 108.3348644  80.6557121 136.3397814 106.8416578
  74.2185361 142.6743692 100.1591861  75.0530965 142.2424890  99.9769336
  74.0569704 142.5025706 101.0868755  73.8731253 139.1775805 101.5248200
  73.8180057 139.0120077 100.5836644  73.2477308 139.8851838 101.6810390
  58.6623768 134.4143870 115.3509622  59.3082632 133.9042824 115.8396847
  58.4540919 135.1512551 115.9253048  67.1827378 128.6783914 101.1033518
  67.1706048 129.6225754 101.2601789  68.0750800 128.4954060 100.8092980
  70.9979498 125.2726691 105.3579455  70.2311894 124.7185178 105.5036138
  71.4090203 125.3448560 106.2193607  77.6552297 143.9718027 105.3805997
  77.0016709 143.6567044 104.7562612  77.6132771 143.3493768 106.1065820
  79.9154971 144.4529743 103.8286072  79.1055699 144.1076828 104.2041318
  80.6039388 144.1437287 104.4173683  81.8373252 140.6018609 105.3579455
  81.0705648 140.0477095 105.5036138  82.2483957 140.6740477 106.2193607
   6.9713356  22.8932042  96.9792344   7.6091766  22.7738789  96.2755684
   6.8534199  23.8412886  97.0380296   3.7803062  22.8459470  96.9153869
   3.4421574  22.7300535  96.0274404   4.6492830  22.4450635  96.8954875
   5.2189436  28.3665914  88.2165225   4.5677416  28.9519995  87.8299238
   6.0133799  28.8972109  88.2760262   1.9086313  24.1608282  98.4120618
   2.5049885  23.9364305  97.6977581   1.9661285  23.4193028  99.0146066
   1.4811341  21.6147717  86.2470809   1.7336862  21.0929239  85.4854272
   0.5435900  21.4513863  86.3497493   6.5254624  20.6183496  94.0545552
   7.3117713  20.2002919  93.7035969   6.7893329  21.5229588  94.2227201
   6.6964702  26.0556346  88.7534209   6.0610535  26.1290973  89.4655114
   6.3662108  26.6449945  88.0753288  11.9263051  20.5558729  94.9578531
  12.6588223  19.9857946  95.1916360  11.1702407  20.1680329  95.3985036
   1.2007630  23.5175823  88.4495184   1.0843888  22.8420727  89.1176268
   1.3109890  23.0308197  87.6327337   3.5439171  22.9785971  92.1541873
   3.1797378  22.4516591  92.8654795   4.4006287  22.5884440  91.9808359
   5.9419991  26.4692849  98.8169052   5.6420714  27.3717888  98.7084859
   5.5971051  26.2025032  99.6690205   9.3417135  18.9875389  96.4966489
   8.4334012  18.9190798  96.2025250   9.2904731  19.4647334  97.3248315
   3.1633879  20.4633528  88.1349888   3.0433504  20.9090578  88.9735369
   2.4686467  20.8118845  87.5763427  11.2078781  17.1891828  98.2744363
  10.5653162  17.4824361  97.6284158  10.7033710  17.0744748  99.0797560
   8.8618945  20.9355001  88.9630223   9.7736801  21.1682388  88.7877920
   8.3528592  21.5192045  88.4005301   7.4688527  25.9180819  96.3543804
   6.8397390  26.0826533  95.6519872   7.0814189  26.3322429  97.1254768
  11.3477759  26.8535257  93.7088168  10.6628797  27.2334159  93.1585201
  11.4321609  27.4630584  94.4420116   8.6028691  24.4995216 100.3083511
   8.8145586  25.1426976  99.6317892   8.5558439  23.6657533  99.8405441
   3.0216489  25.6555227  93.6193889   3.4854835  25.9342930  92.8298512
   2.7573287  24.7538672  93.4366980   1.9585375  21.7778380  90.4283454
   2.6609419  22.2299423  90.8957381   1.6266004  21.1362199  91.0563347
   9.7174519  27.3767172  98.4805869  10.5391963  26.9747359  98.1988550
   9.7136922  27.2735406  99.4321984   3.4831122  26.9251215 100.6366579
   3.5475555  27.3871622 101.4724751   2.7742046  26.2948580 100.7648889
  17.8080512  23.7205920  94.8290840  17.0544220  23.1513318  94.6734845
  17.9428053  23.6868585  95.7761475   3.1979140  28.5919322  90.5045559
   3.0624815  29.4370858  90.9330407   3.7388952  28.7938600  89.7411493
   6.9228854  29.4945689 102.6627303   6.9047330  30.3154570 102.1707572
   7.8448774  29.3699764 102.8877444   6.5121886  22.1058495  87.5416888
   5.9968510  22.8763100  87.7805275   6.2399195  21.4323632  88.1649949
  11.4856160  24.8590850  89.4770062  10.7085603  24.5202010  89.0325224
  12.1647641  24.8643473  88.8025027   6.3008189  19.9785587  89.3676669
   5.9958325  20.2931737  90.2186812   7.2538632  20.0567007  89.4104002
   4.7454621  26.1375811  91.0169623   4.2175983  25.4028570  90.7042861
   4.2442124  26.9150487  90.7709592   9.7247467  24.3324831  96.1336669
   9.0671142  25.0224093  96.2216798  10.5287866  24.7221263  96.4770656
   8.5352926  22.6869204  94.1840611   9.0484808  23.3199196  94.6862321
   9.1854150  22.0870400  93.8183971   2.8907221  23.9556021  84.0204596
   1.9834283  23.7245275  84.2195745   3.3878253  23.1593640  84.2078578
   5.7975300  32.6653528  86.9401282   5.1236999  32.9685225  87.5486240
   6.1841122  33.4682609  86.5906739   5.0133757  20.1618660  96.4298952
   4.0956318  20.3833607  96.2720640   5.4293901  20.2364970  95.5710659
   5.7968805  21.5610075  91.5601632   6.5440624  22.0731472  91.2508754
   6.0660394  21.2394128  92.4206026   4.0695455  24.0568616  88.5428586
   3.1606674  23.7727649  88.6401056   4.0990539  24.4767695  87.6831893
   9.3014722  27.6675205  92.3119754   8.8477049  26.8266115  92.3684944
   8.6708689  28.3036604  92.6494534   8.2447642  18.5967191  93.5420421
   7.5070399  18.0844578  93.8730664   8.4974415  18.1567573  92.7303698
   7.7447662  29.5051702  93.2469572   8.0370636  30.0656759  92.5281938
   8.2546282  29.7980263  94.0022731   2.6180349  21.6697237  94.6438382
   2.6728959  20.7171073  94.5680858   1.8071551  21.8256676  95.1279680
   3.7671543  25.5977360  85.8816665   3.3290973  24.8813219  85.4222302
   4.5081984  25.8253474  85.3201756   2.7081287  30.2832053  94.3363025
   2.6657466  30.5092900  93.4071557   3.6243986  30.0495428  94.4848826
  11.8844657  23.8734557  91.9392983  11.7462556  24.0636153  91.0114173
  11.5280876  24.6353939  92.3961035  11.9114037  25.9411084  96.9504255
  12.3450544  25.8486373  97.7987309  12.6245618  25.9168584  96.3124271
   5.6441932  29.5413178  98.4837356   5.6978954  30.1104114  99.2515071
   4.7756713  29.7115063  98.1191393  12.7729587  25.9834784  99.4837140
  12.9665477  26.8880595  99.7296415  12.6730205  25.5242203 100.3175725
   4.6030032  23.7073440 100.0424287   5.5322092  23.8584599  99.8693255
   4.1821062  23.7957461  99.1872934   3.4018363  27.7324104  97.8122825
   3.2629449  27.3642889  98.6848763   2.6132960  28.2471744  97.6406783
   3.9966515  32.8333201  89.1548362   4.1718271  32.3621244  89.9693984
   3.3099303  33.4598967  89.3829622   4.9523579  27.1105707  95.2011663
   4.6173411  27.0706477  96.0969313   4.4527524  26.4450423  94.7282073
   7.8882770  24.4561741  85.4748722   7.2711941  23.7308569  85.3781775
   7.4199259  25.2171102  85.1315797   9.5436902  29.1660650 103.1354503
   9.4849448  28.4819870 102.4685086   9.9456420  29.9079640 102.6835129
   9.5454309  27.1300234 101.3668483   8.6581088  26.7926155 101.4894881
  10.1152860  26.3983265 101.6037248   3.0755463  31.7901686  98.3329726
   3.0025634  32.5956657  98.8449030   2.6332856  31.9893652  97.5077747
   2.8645242  31.0273456  91.8432547   2.0812764  31.5695136  91.9370772
   3.5637987  31.5447436  92.2426788  14.0271650  22.5408451  96.1285044
  14.0161526  23.4233166  95.7578977  13.1589029  22.1880002  95.9339581
   5.5354146  31.6888520 100.4887884   6.2482118  32.3235985 100.4163786
   5.0444175  31.7852386  99.6727886   7.2571673  25.5939773  92.0605176
   6.3227952  25.7141235  91.8909880   7.4348342  24.6912239  91.7965186
  10.6444224  21.4357092  92.5955210  11.1104677  22.2685083  92.5215513
  11.0951725  20.9702073  93.3000469   8.7120455  27.7800913  89.5941362
   8.9880299  27.6657508  90.5035236   7.8424954  27.3818398  89.5553535
   8.3867346  21.9927571  99.1346006   7.7338796  22.2403478  98.4798458
   8.7647726  21.1791709  98.8008483   5.3474520  32.0287264  93.2374176
   5.5296914  31.2108920  93.7001928   6.1707506  32.2454956  92.7999066
   5.6816685  30.9555449  90.4989224   6.2104451  30.4447904  89.8859386
   5.9444905  30.6397979  91.3634757   3.1777702  34.0414309  99.8569659
   3.7296010  34.2045931 100.6218744   3.5183895  34.6318747  99.1849683
   6.3146089  31.9896285  96.8433341   6.1897228  31.1886025  96.3344286
   6.9725180  32.4842478  96.3547311   8.3780997  29.7905305  98.4712891
   7.4311333  29.6710656  98.3991218   8.7263770  28.9027803  98.5539152
   5.3827431  29.5858021  94.6717243   5.2352393  28.6574729  94.8524813
   6.2080924  29.6078112  94.1874318   8.9861552  30.4086580  95.7582116
   9.9108100  30.2029441  95.6206567   8.8176856  30.1602981  96.6671457
   8.7756869  30.9272247  91.1144207   8.9493746  30.3618670  90.3618060
   9.2685760  31.7273142  90.9323697  14.6296260  23.6908670  92.7334507
  15.0727406  22.9415996  92.3353630  13.7522770  23.6818807  92.3508239
   9.7632041  30.2439012  88.2141106  10.4582946  30.8645704  88.4328420
  10.1055191  29.3934363  88.4893483  11.6623464  27.6938717  89.7428436
  12.1874788  28.0325990  89.0177756  11.5745817  26.7585733  89.5591571
   3.3243513  31.6072791 101.8718313   3.6330639  31.3621938 102.7441013
   4.1218995  31.8119429 101.3837183   3.3464125  33.7610701  94.1023690
   2.9069115  33.2687079  94.7956546   4.0972242  33.2183668  93.8615765
  11.3517370  28.3271621 105.0479634  10.5612914  28.3095760 104.5084134
  11.1150725  28.8659915 105.8028671  11.4715245  25.1764087 102.3612363
  11.5213250  25.0114095 103.3027886  11.3629169  24.3091346 101.9710244
  12.9733442  27.5961029 102.6054384  12.6818250  27.9591009 103.4417845
  12.3605573  26.8828037 102.4267716  14.1729124  25.1613909  95.1256955
  15.0076016  25.6003713  95.2894515  14.3088253  24.6852562  94.3065200
  11.2220630  22.7193643 101.0734442  11.6974752  22.9121290 100.2653294
  10.2986196  22.7752829 100.8277826   3.8546909  30.3500763  87.1216199
   3.2820877  30.9690951  86.6686671   4.4279703  30.9000125  87.6556121
   9.9222299  19.5959404  99.3062748  10.8739722  19.6957501  99.3274972
   9.7525750  18.8037672  99.8160832   7.0744169  30.6337914  88.2524781
   8.0074842  30.5683475  88.4557657   6.9867382  31.4694180  87.7939314
   9.7032186  29.9503784  85.2128729   9.6245817  29.6163648  86.1064487
  10.5241853  30.4425552  85.2120201  12.4010377  22.8165523  98.4205048
  12.3686697  21.8781524  98.6064731  13.0111001  22.8949560  97.6870873
   4.2393708  21.6861576  84.4632252   5.1852813  21.5567784  84.5320670
   3.8607953  20.9476238  84.9401680  12.5504866  19.6076567  98.4663331
  12.0343914  18.8235023  98.2793260  13.4344814  19.2795283  98.6309850
  18.2186927  23.8781530  97.5611084  18.9490315  23.6166818  98.1218788
  17.6093872  23.1410252  97.6013152  16.3002224  22.0189393  98.1585536
  15.5735388  21.8845358  97.5502027  15.8849511  22.3266221  98.9642254
   9.3468046  15.3427014  91.6834339   8.7666715  16.0011818  91.3012391
   9.0803979  14.5204359  91.2721757   8.1292924  17.5027105  90.7390687
   7.2418779  17.7876755  90.5210882   8.5446913  17.3420868  89.8917964
  11.4807460  17.5273626  94.4545027  12.2567851  18.0170078  94.7269643
  10.7555595  17.9531680  94.9116896  13.9180019  18.2401245  95.5118967
  14.5124510  17.9996981  94.8012275  13.9906603  17.5208375  96.1392504
   7.2736138  27.2671779  84.8338707   7.9771988  27.4721782  85.4496363
   6.5498786  27.8348541  85.0987791   8.1033948  23.0181641  90.9540977
   8.0469149  23.4750192  90.1148610   8.6562290  22.2572325  90.7763820
  11.9138754  18.8071372  91.7791097  11.6575688  18.4068008  92.6099305
  11.2891622  19.5215166  91.6541236  16.2251092  21.5467446  94.2862388
  15.6650650  21.6160635  95.0593950  15.6194595  21.3708430  93.5661885
   9.1822835  27.7054309  86.8837167  10.0168439  27.2735507  86.7014642
   9.0207178  27.5336322  87.8114062   8.8368727  24.2086422  88.2493507
   8.7817531  24.0430693  87.3081951   8.2114783  24.9162455  88.4055696
   2.0754417  32.3863421  95.9146582   1.1250048  32.3865283  95.8010954
   2.3786903  31.6396156  95.3982616  17.8107110  38.2223960  96.9792344
  18.4485520  38.1030707  96.2755684  17.6927953  39.1704804  97.0380296
  14.6196817  38.1751388  96.9153869  14.2815328  38.0592452  96.0274404
  15.4886585  37.7742553  96.8954875  10.4783632  40.0286864  92.9050760
   9.9148497  39.9376801  92.1367048  10.3636027  39.2086769  93.3853252
  15.1016600  39.3286239 102.8740074  15.0905240  38.9339038 102.0020578
  15.2637239  38.5952312 103.4673846   8.0248064  41.5238056  95.7434980
   8.8169356  41.1828880  95.3281280   8.2644714  41.6333031  96.6637134
  16.0583191  43.6957832  88.2165225  15.4071171  44.2811912  87.8299238
  16.8527554  44.2264027  88.2760262   9.9838818  40.7846969  88.6152359
  10.7569694  40.2375956  88.4765235  10.3364217  41.6491218  88.8266820
  11.8223861  42.1123351 101.8219258  11.5313727  43.0168982 101.7065925
  12.4580845  42.1539879 102.5363328  12.7480067  39.4900200  98.4120618
  13.3443640  39.2656222  97.6977581  12.8055039  38.7484945  99.0146066
  12.3205096  36.9439635  86.2470809  12.5730617  36.4221156  85.4854272
  11.3829655  36.7805781  86.3497493  17.3648379  35.9475413  94.0545552
  18.1511468  35.5294837  93.7035969  17.6287083  36.8521506  94.2227201
  17.5358456  41.3848264  88.7534209  16.9004289  41.4582890  89.4655114
  17.2055862  41.9741863  88.0753288  22.7656806  35.8850647  94.9578531
  23.4981978  35.3149863  95.1916360  22.0096162  35.4972247  95.3985036
  12.0401385  38.8467741  88.4495184  11.9237643  38.1712644  89.1176268
  12.1503645  38.3600115  87.6327337  14.3832926  38.3077888  92.1541873
  14.0191133  37.7808509  92.8654795  15.2400041  37.9176357  91.9808359
  20.2882226  29.5972221  99.4173139  19.9565551  30.4667632  99.1934354
  19.6927840  29.2808505 100.0967170  14.0238413  33.3367788  87.1503222
  14.1912815  34.2048024  87.5173693  13.8335582  33.4995070  86.2264511
  16.7813746  41.7984767  98.8169052  16.4814469  42.7009806  98.7084859
  16.4364805  41.5316950  99.6690205  10.2326227  38.2498564  94.8505756
   9.3076724  38.1174778  95.0583448  10.4810640  39.0292783  95.3475699
  20.1810890  34.3167307  96.4966489  19.2727767  34.2482715  96.2025250
  20.1298485  34.7939252  97.3248315  14.0027633  35.7925445  88.1349888
  13.8827259  36.2382496  88.9735369  13.3080222  36.1410763  87.5763427
   7.5935038  37.8931837  95.6849546   7.7227419  38.1466316  96.5988957
   6.9132490  38.4859545  95.3654201  11.7634526  48.5629087  91.7840020
  11.6858555  49.5136912  91.8628500  11.1596169  48.2174960  92.4414946
  14.2551755  35.7356953 104.4401387  13.4785089  36.2950873 104.4304251
  14.8942318  36.2213736 104.9616257  22.0472536  32.5183745  98.2744363
  21.4046916  32.8116279  97.6284158  21.5427464  32.4036666  99.0797560
  19.7012700  36.2646919  88.9630223  20.6130556  36.4974305  88.7877920
  19.1922347  36.8483963  88.4005301  12.5098128  38.5442406 104.0019354
  13.2512812  39.0827450 103.7254177  11.8035113  39.1708695 104.1590905
  17.9853467  40.6871546 102.5991515  18.3936823  40.2453957 101.8546147
  17.2630729  40.1124174 102.8525708  14.3384537  35.6244153  99.9725072
  15.1845732  36.0483567 100.1159721  14.2783175  34.9677777 100.6663635
  18.3082282  41.2472737  96.3543804  17.6791144  41.4118451  95.6519872
  17.9207944  41.6614347  97.1254768  22.1871514  42.1827175  93.7088168
  21.5022552  42.5626076  93.1585201  22.2715363  42.7922502  94.4420116
  17.4883983  33.2848522 101.6306246  17.2444914  34.0390582 101.0940521
  17.7643913  33.6633869 102.4653493  19.4422445  39.8287134 100.3083511
  19.6539341  40.4718894  99.6317892  19.3952194  38.9949450  99.8405441
  17.0448674  32.4404955  97.2120083  16.1833153  32.7386208  97.5036821
  17.0711109  32.6575353  96.2801116  13.8610244  40.9847145  93.6193889
  14.3248589  41.2634848  92.8298512  13.5967042  40.0830590  93.4366980
  10.7534325  40.5318627  96.5573652  11.3235682  40.9605895  95.9191137
  11.3442437  40.2501211  97.2557838  12.7979130  37.1070297  90.4283454
  13.5003173  37.5591341  90.8957381  12.4659758  36.4654116  91.0563347
  11.2459491  35.6982054 104.8034664  10.6158152  36.3798335 105.0370060
  11.1395579  35.5865136 103.8587802   6.5404464  35.3653850  95.7300588
   5.7503518  35.6211379  95.2540698   7.0315711  36.1802188  95.8352628
  20.5568273  42.7059089  98.4805869  21.3785717  42.3039277  98.1988550
  20.5530676  42.6027323  99.4321984   8.4919209  35.7298429  92.6884064
   7.6950372  35.8417124  93.2067560   8.2644801  36.0685082  91.8224955
  14.3224877  42.2543133 100.6366579  14.3869309  42.7163540 101.4724751
  13.6135801  41.6240498 100.7648889   4.8242167  35.6184341  98.1615579
   5.0750205  36.5031350  98.4273155   5.3601715  35.4388942  97.3890670
  28.6474266  39.0497838  94.8290840  27.8937975  38.4805236  94.6734845
  28.7821808  39.0160502  95.7761475  14.0372894  43.9211240  90.5045559
  13.9018569  44.7662776  90.9330407  14.5782707  44.1230518  89.7411493
   7.4902292  41.4386678  91.0773485   8.0026812  42.2329928  91.2279049
   8.1425005  40.7412969  91.0107086   9.2997177  44.5552434  93.1596238
   9.4763805  45.4770399  92.9717222  10.0954010  44.2410854  93.5890618
  13.4408195  31.4160699 104.7580171  14.1817908  32.0167852 104.6784634
  13.6726118  30.6738337 104.1998214   8.5849533  36.6017066 103.0358401
   8.4703048  35.7002324 103.3365500   7.7294051  36.8480763 102.6843217
  15.6641371  44.5434807 104.6345902  15.2205225  43.7571185 104.3166806
  16.3258584  44.7313957 103.9689792  10.4228492  46.0730608  99.1606580
  10.9735917  45.9447672  98.3883574   9.5839968  46.3725497  98.8101473
  17.7622609  44.8237607 102.6627303  17.7441084  45.6446488 102.1707572
  18.6842529  44.6991682 102.8877444  14.2195663  42.3381736 103.5050811
  14.7524000  41.5770024 103.2750119  13.6909744  42.0455388 104.2474966
  17.3865358  27.4441802  99.0344453  17.0429627  28.3343444  98.9583564
  17.7544321  27.2543460  98.1714038   5.4551209  39.7675332  91.8533055
   6.2926431  40.1772341  91.6366763   5.6329476  38.8274775  91.8233249
  17.3515641  37.4350413  87.5416888  16.8362264  38.2055018  87.7805275
  17.0792949  36.7615549  88.1649949  14.9362752  32.2800114  92.6002126
  14.0804348  31.8906964  92.4207765  15.3489704  32.3592075  91.7401912
  16.4661898  29.8146457  96.9993686  15.9626694  29.7776592  96.1861491
  16.7592505  30.7239200  97.0590343  12.7104784  29.8985187  96.0059868
  13.5757781  29.7027996  95.6465757  12.7782293  29.6695539  96.9329225
  22.3249915  40.1882768  89.4770062  21.5479358  39.8493927  89.0325224
  23.0041396  40.1935391  88.8025027  17.1401944  35.3077505  89.3676669
  16.8352079  35.6223654  90.2186812  18.0932386  35.3858925  89.4104002
  15.5848376  41.4667728  91.0169623  15.0569737  40.7320488  90.7042861
  15.0835878  42.2442405  90.7709592  20.5641222  39.6616749  96.1336669
  19.9064896  40.3516010  96.2216798  21.3681621  40.0513181  96.4770656
  10.3167103  32.1287395  93.3776235  10.8910855  31.9062576  92.6449428
  10.9038086  32.1976089  94.1304836  19.3746681  38.0161122  94.1840611
  19.8878562  38.6491114  94.6862321  20.0247904  37.4162317  93.8183971
  10.6436690  34.1591856  87.3972120   9.8074003  34.4966542  87.7181395
  10.5041460  34.0240836  86.4599257  12.6189771  29.0028644  92.1051304
  11.9654183  28.6877661  91.4807919  12.5770245  28.3804384  92.8311127
  13.7300976  39.2847939  84.0204596  12.8228038  39.0537192  84.2195745
  14.2272008  38.4885558  84.2078578  16.6369055  47.9945446  86.9401282
  15.9630754  48.2977143  87.5486240  17.0234877  48.7974526  86.5906739
  15.8527511  35.4910577  96.4298952  14.9350073  35.7125524  96.2720640
  16.2687655  35.5656888  95.5710659  16.6362559  36.8901993  91.5601632
  17.3834378  37.4023390  91.2508754  16.9054149  36.5686046  92.4206026
  14.9089209  39.3860534  88.5428586  14.0000429  39.1019566  88.6401056
  14.9384293  39.8059612  87.6831893  20.1408477  42.9967123  92.3119754
  19.6870804  42.1558033  92.3684944  19.5102443  43.6328521  92.6494534
  19.0841396  33.9259109  93.5420421  18.3464153  33.4136495  93.8730664
  19.3368170  33.4859491  92.7303698  18.5841416  44.8343620  93.2469572
  18.8764390  45.3948677  92.5281938  19.0940037  45.1272181  94.0022731
  19.1853024  26.7035361  94.1362191  19.4911900  25.8432725  93.8488106
  19.9105628  27.2952981  93.9361185   5.4777380  37.1066048  92.5243789
   5.2801780  36.5135408  91.7994855   4.9224044  36.8018258  93.2419727
  13.4574103  36.9989154  94.6438382  13.5122713  36.0462991  94.5680858
  12.6465305  37.1548593  95.1279680  14.6065297  40.9269277  85.8816665
  14.1684727  40.2105136  85.4222302  15.3475738  41.1545392  85.3201756
  11.3966463  35.6166214  92.4028761  10.5834329  35.9160385  92.8093953
  11.8925458  35.2221903  93.1203243  13.5475041  45.6123971  94.3363025
  13.5051220  45.8384817  93.4071557  14.4637740  45.3787345  94.4848826
  16.9940675  36.0808038 101.2343654  17.3490063  36.3079512 102.0938120
  17.6412806  36.4126415 100.6120910  22.7238412  39.2026474  91.9392983
  22.5856311  39.3928070  91.0114173  22.3674631  39.9645857  92.3961035
  10.8880538  33.1884569  98.0189995  11.5279917  33.0473329  97.3212959
  10.0558069  32.9019083  97.6428597  22.7507792  41.2703001  96.9504255
  23.1844298  41.1778290  97.7987309  23.4639372  41.2460502  96.3124271
  11.6640842  42.4887000  94.1324988  12.4581440  41.9937320  93.9307563
  10.9532534  41.9604863  93.7692694  16.4835686  44.8705095  98.4837356
  16.5372709  45.4396032  99.2515071  15.6150468  45.0406980  98.1191393
   7.9723605  36.6330082  90.2084741   7.0421194  36.5714537  90.4254703
   8.0681077  36.1106034  89.4121382   7.8909155  33.1584894  92.7962982
   8.1515972  34.0730228  92.6872143   8.7126327  32.6909337  92.9459595
   9.3634080  34.5722652  99.9661807  10.0357133  34.3640014  99.3174456
   8.5363866  34.3744738  99.5267039  23.6123341  41.3126702  99.4837140
  23.8059231  42.2172512  99.7296415  23.5123959  40.8534121 100.3175725
  15.2659652  31.1984593 101.9827468  14.6187567  31.8974542 101.8891944
  16.0360667  31.6320736 102.3503716  18.6738450  41.4633445 105.0578021
  18.5223956  41.2343996 104.1408105  18.6643129  42.4204046 105.0709366
  15.4423786  39.0365357 100.0424287  16.3715846  39.1876517  99.8693255
  15.0214816  39.1249378  99.1872934  14.2412118  43.0616022  97.8122825
  14.1023204  42.6934806  98.6848763  13.4526714  43.5763661  97.6406783
  14.8360270  48.1625118  89.1548362  15.0112026  47.6913162  89.9693984
  14.1493058  48.7890885  89.3829622  15.7917333  42.4397625  95.2011663
  15.4567166  42.3998395  96.0969313  15.2921279  41.7742341  94.7282073
   9.7661577  37.8465255 100.7264244   9.6281375  37.1145493 101.3275783
  10.6766501  37.7574155 100.4448432  18.7276525  39.7853659  85.4748722
  18.1105695  39.0600487  85.3781775  18.2593013  40.5463019  85.1315797
  12.3943878  37.5585214 100.2147924  13.1043496  36.9178406 100.1734542
  12.3513186  37.8098109 101.1374104  20.3830656  44.4952567 103.1354503
  20.3243203  43.8111787 102.4685086  20.7850175  45.2371557 102.6835129
  11.1072812  34.5450432 102.0343563  10.5710169  34.0941170 102.6865159
  10.5189520  34.6796341 101.2914027   9.4021355  51.3114481  95.9288222
   9.6417953  51.9433005  96.6067240   8.5590552  50.9602521  96.2153581
  10.5175071  34.0039083  84.5970027   9.6404537  33.8827884  84.2332273
  10.9932824  33.2125162  84.3448915  20.3848064  42.4592151 101.3668483
  19.4974842  42.1218073 101.4894881  20.9546615  41.7275182 101.6037248
   2.0377211  38.7916243  94.6911534   2.7248251  38.4777973  94.1032549
   1.8825340  39.6957608  94.4178785   6.8411933  33.6806440  99.1196558
   6.7570122  33.0732109  98.3846968   6.0194639  34.1715458  99.1206054
  13.9149217  47.1193604  98.3329726  13.8419389  47.9248575  98.8449030
  13.4726610  47.3185569  97.5077747  13.7038997  46.3565374  91.8432547
  12.9206519  46.8987054  91.9370772  14.4031742  46.8739353  92.2426788
  17.0135647  32.1660003  94.4866753  17.5104346  31.4129965  94.1667823
  16.2422628  32.2024320  93.9209962  24.8665404  37.8700369  96.1285044
  24.8555280  38.7525084  95.7578977  23.9982784  37.5171919  95.9339581
  16.3747901  47.0180438 100.4887884  17.0875873  47.6527902 100.4163786
  15.8837929  47.1144304  99.6727886  18.0965428  40.9231690  92.0605176
  17.1621706  41.0433153  91.8909880  18.2742096  40.0204157  91.7965186
  13.5970616  34.3077386  94.2138437  13.2268403  33.7548426  94.9019343
  14.0929708  33.7035520  93.6613437  21.4837979  36.7649010  92.5955210
  21.9498431  37.5977001  92.5215513  21.9345479  36.2993991  93.3000469
  11.4259814  44.7674881 101.3093455  12.1269274  45.4011364 101.4622849
  10.9554929  45.1089613 100.5489094  19.5514210  43.1092831  89.5941362
  19.8274054  42.9949425  90.5035236  18.6818709  42.7110316  89.5553535
  19.4554642  29.1329597  96.6346112  18.5417721  29.3633823  96.8028318
  19.8847743  29.2168041  97.4860144  19.2261100  37.3219489  99.1346006
  18.5732550  37.5695396  98.4798458  19.6041480  36.5083627  98.8008483
  16.1868274  47.3579182  93.2374176  16.3690669  46.5400838  93.7001928
  17.0101260  47.5746874  92.7999066  16.5210439  46.2847367  90.4989224
  17.0498206  45.7739821  89.8859386  16.7838659  45.9689897  91.3634757
  15.2748673  38.0639300 105.6212043  14.5989310  37.9633429 106.2914418
  16.0976307  37.9078513 106.0848040   7.0227532  44.3011236  98.2424558
   7.6080969  43.5554924  98.3752462   6.8252371  44.6115193  99.1261222
   9.8766187  47.3362484  93.2587000   9.2076563  47.8208611  92.7751040
   9.7379057  47.5831704  94.1730379   1.6145187  36.8716836  96.9629001
   1.6529286  36.3380427  97.7566119   1.1085480  36.3452042  96.3439978
  14.0171456  49.3706227  99.8569659  14.5689764  49.5337849 100.6218744
  14.3577649  49.9610665  99.1849683   8.9935949  31.7181377 100.4591543
   9.0577276  32.5796208 100.0468941   8.9303069  31.1055378  99.7263902
   8.4688222  33.7904509 104.1064578   9.0960261  33.4081587 104.7202102
   7.6116141  33.5718711 104.4720270  18.8682330  44.1967485 105.7118313
  19.4122234  44.8097443 105.2173268  18.2869175  44.7547063 106.2285326
   5.2453765  35.5980938  90.0382932   5.5407206  34.6891617  89.9849986
   4.3441800  35.5768678  89.7163935  17.1539843  47.3188203  96.8433341
  17.0290983  46.5177942  96.3344286  17.8118934  47.8134396  96.3547311
   8.7748012  33.6736935  96.0210481   8.0534597  34.2872903  95.8817954
   9.5641267  34.2094700  95.9427127  19.2174752  45.1197223  98.4712891
  18.2705087  45.0002574  98.3991218  19.5657525  44.2319721  98.5539152
  11.5774325  31.0091362 102.2951133  12.1008727  31.2553658 103.0577442
  11.3586658  31.8411396 101.8754270   6.9741606  33.2795036  90.1622258
   6.6454312  32.3992415  89.9797363   7.3280977  33.2242705  91.0498647
  16.2221185  44.9149939  94.6717243  16.0746147  43.9866646  94.8524813
  17.0474678  44.9370030  94.1874318  10.0883429  33.5668006  90.5297735
  10.4279502  34.0953927  89.8076344  10.5355550  33.9048412  91.3056302
  19.8255307  45.7378498  95.7582116  20.7501854  45.5321359  95.6206567
  19.6570610  45.4894899  96.6671457  12.7826870  31.9505057  99.9800803
  12.4423690  31.1512870 100.3821483  12.0765876  32.2506768  99.4077636
  13.4343342  29.0354369  98.4328126  14.2569411  28.5614847  98.3107017
  13.6781405  29.8144853  98.9326813  12.0751576  32.0642628  88.7291028
  12.7959939  32.4423880  88.2254745  11.4516881  32.7831504  88.8326006
  16.2182699  32.7687777  89.6649360  16.4346314  33.6512414  89.3638188
  15.7376766  32.3773990  88.9355002  10.9581921  35.7273490  96.2420105
  10.8126501  36.0413793  97.1344386  10.4807124  36.3458390  95.6891004
  12.8178304  32.7176038  96.2900994  12.8039872  31.8217131  95.9533292
  13.5350732  32.7246701  96.9239281  14.6704434  33.1513378  98.3354122
  14.4122212  34.0730449  98.3338452  14.1389475  32.7543812  99.0254586
  19.6150623  46.2564165  91.1144207  19.7887501  45.6910588  90.3618060
  20.1079514  47.0565060  90.9323697   5.4327583  38.2678834  99.1807766
   4.8881051  39.0438642  99.3128040   6.3106933  38.6149639  99.0226888
  12.2215199  31.5990418  91.5588565  12.3431111  30.6707064  91.7579452
  11.9317242  31.6129104  90.6466880  15.0906390  29.2845328  94.6955284
  15.1128087  29.3484662  93.7407264  15.5074449  28.4449837  94.8895791
  25.4690014  39.0200588  92.7334507  25.9121160  38.2707913  92.3353630
  24.5916524  39.0110724  92.3508239  20.6025796  45.5730929  88.2141106
  21.2976700  46.1937622  88.4328420  20.9448946  44.7226281  88.4893483
   6.2193605  37.3948730 102.0737923   5.4775341  37.5431366 102.6602553
   5.8986349  37.6556996 101.2104672  22.5017219  43.0230635  89.7428436
  23.0268543  43.3617908  89.0177756  22.4139571  42.0877650  89.5591571
  14.1637267  46.9364709 101.8718313  14.4724394  46.6913855 102.7441013
  14.9612749  47.1411347 101.3837183  14.1857879  49.0902618  94.1023690
  13.7462870  48.5978997  94.7956546  14.9365996  48.5475586  93.8615765
   6.6650218  45.2814159  94.1048318   7.4908238  44.9817931  93.7246961
   6.3144270  44.5121782  94.5538106  11.6331752  44.6340627  96.1745991
  11.0111761  43.9711332  95.8748219  12.3036618  44.6601759  95.4919639
   4.8658823  43.2000486  95.0637251   4.0290732  42.7722660  94.8821252
   4.8382469  43.3932929  96.0008042  11.7056279  33.1122415 105.7678497
  11.7544435  33.9884538 105.3856267  12.2478793  32.5699808 105.1950140
  22.1911125  43.6563539 105.0479634  21.4006668  43.6387677 104.5084134
  21.9544479  44.1951832 105.8028671  22.3109000  40.5056005 102.3612363
  22.3607005  40.3406012 103.3027886  22.2022923  39.6383264 101.9710244
  11.1945258  43.1844551  89.6504452  11.3433379  43.8680015  88.9971124
  12.0011702  43.1649641  90.1653907  19.6012762  36.4886933 103.6771670
  20.5022625  36.3493398 103.3855667  19.6760737  36.6541388 104.6169847
  13.9355567  33.8653788 102.5224856  13.0658877  34.1587354 102.2507444
  14.1715048  34.4494233 103.2432120  23.8127197  42.9252946 102.6054384
  23.5212005  43.2882927 103.4417845  23.1999328  42.2119955 102.4267716
  25.0122879  40.4905826  95.1256955  25.8469770  40.9295630  95.2894515
  25.1482008  40.0144479  94.3065200  22.0614385  38.0485561 101.0734442
  22.5368506  38.2413207 100.2653294  21.1379950  38.1044747 100.8277826
   8.9497891  39.2109728  90.6565521   8.7043933  38.3072058  90.8545731
   9.1193806  39.2126879  89.7144999  16.6394601  30.0833405 100.0390276
  17.1576545  30.8194432  99.7136765  16.2849734  30.3897398 100.8737035
   8.2193539  34.9438086  88.1551682   7.5262784  35.0182441  87.4991718
   7.9745291  34.1798430  88.6773199  16.8907195  26.5033687  95.5591173
  17.1708949  25.8356876  96.1851599  17.6757802  26.6962783  95.0465837
  14.6940664  45.6792681  87.1216199  14.1214631  46.2982868  86.6686671
  15.2673458  46.2292043  87.6556121  20.7616054  34.9251321  99.3062748
  21.7133477  35.0249419  99.3274972  20.5919504  34.1329590  99.8160832
  18.7830433  32.0106904  99.4922149  18.1880365  32.2911917  98.7968638
  18.4980130  32.5000805 100.2638890  17.9137924  45.9629831  88.2524781
  18.8468597  45.8975393  88.4557657  17.8261137  46.7986098  87.7939314
  20.5425940  45.2795702  85.2128729  20.4639572  44.9455565  86.1064487
  21.3635607  45.7717470  85.2120201  23.2404132  38.1457441  98.4205048
  23.2080452  37.2073442  98.6064731  23.8504755  38.2241478  97.6870873
  15.0787462  37.0153494  84.4632252  16.0246567  36.8859702  84.5320670
  14.7001707  36.2768156  84.9401680  23.3898620  34.9368484  98.4663331
  22.8737669  34.1526941  98.2793260  24.2738569  34.6087201  98.6309850
  21.0509347  28.6809500  94.4259143  20.8534168  28.3724588  95.3102475
  21.6609053  29.4071139  94.5557073  29.0580681  39.2073448  97.5611084
  29.7884070  38.9458736  98.1218788  28.4487627  38.4702170  97.6013152
  27.1395979  37.3481310  98.1585536  26.4129142  37.2137275  97.5502027
  26.7243265  37.6558139  98.9642254  14.9626155  41.0671240 105.9232909
  15.8829164  41.2449839 106.1172955  14.9275738  40.1227285 105.7712608
  13.2630380  34.9403470  84.3987137  12.3561835  34.6436583  84.4749850
  13.5406361  34.6433288  83.5321423   4.1808320  36.2609834  94.8486183
   3.8611104  35.4075142  94.5560557   3.6341748  36.4758412  95.6044151
   7.9588228  38.9772275  98.5655690   8.1774237  39.9089382  98.5843724
   8.3714001  38.6180249  99.3510494  14.8792445  29.4840360  90.5531378
  14.0693174  29.1387445  90.9286624  15.5676862  29.1747904  91.1418990
  16.8082994  28.5618407  92.1755675  17.3614032  28.9813860  92.8345698
  17.0453080  27.6354155  92.2178631  12.8316093  34.5505480 107.9558439
  12.7312820  35.4999837 107.8870530  12.6137635  34.2223719 107.0834509
  12.0329164  31.7990405  84.5399116  12.8948328  32.1245304  84.7994933
  12.2179508  31.0121901  84.0272182   4.0496580  39.8812745  96.8179305
   3.3560051  39.4666698  96.3049259   4.7969571  39.9233282  96.2212724
  20.1861801  30.6718932  91.6834339  19.6060470  31.3303736  91.3012391
  19.9197733  29.8496277  91.2721757  18.6365367  30.0723990  93.8855659
  19.1365145  30.1840524  93.0769978  19.2800975  29.7685042  94.5256468
  12.6947363  37.9802619 106.7723500  12.2114445  38.7802979 106.9787389
  12.7808302  37.9910564 105.8190944   5.9633323  39.8130999  94.6945320
   5.9404011  39.9118686  93.7427203   6.2733959  40.6596150  95.0162486
   8.6220700  41.8707154  98.8091934   9.5763954  41.8391096  98.7421866
   8.4233224  41.4097778  99.6242160   9.2120083  40.4408270 101.3762732
  10.0312972  40.9352349 101.3997569   9.4856890  39.5240238 101.3480299
  18.9686679  32.8319022  90.7390687  18.0812534  33.1168673  90.5210882
  19.3840668  32.6712786  89.8917964  22.3201215  32.8565543  94.4545027
  23.0961605  33.3461996  94.7269643  21.5949349  33.2823598  94.9116896
  24.7573774  33.5693163  95.5118967  25.3518264  33.3288898  94.8012275
  24.8300357  32.8500293  96.1392504   6.9770929  47.4126773  95.8262132
   6.8425397  46.6527174  95.2600130   6.5602991  48.1367673  95.3590921
  18.1129892  42.5963697  84.8338707  18.8165742  42.8013699  85.4496363
  17.3892541  43.1640459  85.0987791  18.9427702  38.3473558  90.9540977
  18.8862904  38.8042110  90.1148610  19.4956045  37.5864243  90.7763820
  22.7532508  34.1363290  91.7791097  22.4969443  33.7359926  92.6099305
  22.1285376  34.8507084  91.6541236  27.0644846  36.8759363  94.2862388
  26.5044404  36.9452553  95.0593950  26.4588350  36.7000348  93.5661885
  10.1340055  48.3096090  96.0380575  10.0172439  49.2541523  95.9359265
   9.3132501  48.0069652  96.4266374  20.0216590  43.0346226  86.8837167
  20.8562194  42.6027425  86.7014642  19.8600933  42.8628240  87.8114062
  19.6762482  39.5378340  88.2493507  19.6211286  39.3722611  87.3081951
  19.0508537  40.2454372  88.4055696   4.4654997  34.7746404 102.0754929
   5.1113860  34.2645358 102.5642154   4.2572148  35.5115086 102.6498354
  16.9908389  41.8427251 107.5747069  17.8599549  42.0167904 107.2133704
  16.5115140  42.6621668 107.4522799  12.9858607  29.0386449  87.8278825
  12.9737277  29.9828288  87.9847096  13.8782029  28.8556594  87.5338286
  11.1594569  48.9624352  99.2536503  12.0621816  48.9947963  99.5702998
  10.9331939  48.0324803  99.2682839  12.9148171  47.7155339  95.9146582
  11.9643802  47.7157201  95.8010954  13.2180657  46.9688073  95.3982616
  16.8010727  25.6329225  92.0824762  16.0343123  25.0787712  92.2281444
  17.2121432  25.7051094  92.9438914  28.6500865  53.5515877  96.9792344
  29.2879275  53.4322625  96.2755684  28.5321708  54.4996721  97.0380296
  25.4590571  53.5043305  96.9153869  25.1209083  53.3884370  96.0274404
  26.3280339  53.1034471  96.8954875  21.3177387  55.3578782  92.9050760
  20.7542252  55.2668719  92.1367048  21.2029782  54.5378686  93.3853252
  25.9410354  54.6578157 102.8740074  25.9298995  54.2630955 102.0020578
  26.1030993  53.9244230 103.4673846  18.8641819  56.8529973  95.7434980
  19.6563111  56.5120798  95.3281280  19.1038469  56.9624948  96.6637134
  26.8976945  59.0249750  88.2165225  26.2464925  59.6103830  87.8299238
  27.6921308  59.5555944  88.2760262  20.8232573  56.1138887  88.6152359
  21.5963449  55.5667874  88.4765235  21.1757971  56.9783136  88.8266820
  22.6617615  57.4415269 101.8219258  22.3707481  58.3460900 101.7065925
  23.2974599  57.4831797 102.5363328  23.5873822  54.8192117  98.4120618
  24.1837394  54.5948140  97.6977581  23.6448794  54.0776863  99.0146066
  28.2042133  51.2767331  94.0545552  28.9905222  50.8586754  93.7035969
  28.4680838  52.1813423  94.2227201  28.3752211  56.7140181  88.7534209
  27.7398044  56.7874808  89.4655114  28.0449617  57.3033780  88.0753288
  33.6050560  51.2142564  94.9578531  34.3375732  50.6441781  95.1916360
  32.8489916  50.8264165  95.3985036  22.8795139  54.1759659  88.4495184
  22.7631397  53.5004562  89.1176268  22.9897399  53.6892033  87.6327337
  25.2226680  53.6369806  92.1541873  24.8584887  53.1100427  92.8654795
  26.0793796  53.2468275  91.9808359  31.1275981  44.9264138  99.4173139
  30.7959305  45.7959549  99.1934354  30.5321594  44.6100422 100.0967170
  27.6207500  57.1276684  98.8169052  27.3208223  58.0301723  98.7084859
  27.2758560  56.8608868  99.6690205  21.0719982  53.5790481  94.8505756
  20.1470478  53.4466695  95.0583448  21.3204395  54.3584701  95.3475699
  31.0204644  49.6459225  96.4966489  30.1121521  49.5774633  96.2025250
  30.9692240  50.1231170  97.3248315  18.4328793  53.2223755  95.6849546
  18.5621174  53.4758234  96.5988957  17.7526244  53.8151463  95.3654201
  22.6028280  63.8921005  91.7840020  22.5252310  64.8428830  91.8628500
  21.9989924  63.5466877  92.4414946  25.0945510  51.0648870 104.4401387
  24.3178844  51.6242790 104.4304251  25.7336073  51.5505653 104.9616257
  32.8866290  47.8475663  98.2744363  32.2440671  48.1408196  97.6284158
  32.3821219  47.7328583  99.0797560  23.3491882  53.8734324 104.0019354
  24.0906566  54.4119368 103.7254177  22.6428868  54.5000612 104.1590905
  28.8247222  56.0163464 102.5991515  29.2330578  55.5745875 101.8546147
  28.1024483  55.4416092 102.8525708  25.1778292  50.9536071  99.9725072
  26.0239487  51.3775484 100.1159721  25.1176929  50.2969695 100.6663635
  29.1476036  56.5764655  96.3543804  28.5184899  56.7410369  95.6519872
  28.7601698  56.9906264  97.1254768  28.3277737  48.6140439 101.6306246
  28.0838669  49.3682500 101.0940521  28.6037668  48.9925787 102.4653493
  30.2816200  55.1579052 100.3083511  30.4933095  55.8010811  99.6317892
  30.2345948  54.3241368  99.8405441  27.8842429  47.7696872  97.2120083
  27.0226908  48.0678126  97.5036821  27.9104863  47.9867271  96.2801116
  24.7003998  56.3139063  93.6193889  25.1642344  56.5926766  92.8298512
  24.4360796  55.4122507  93.4366980  21.5928079  55.8610544  96.5573652
  22.1629436  56.2897813  95.9191137  22.1836191  55.5793129  97.2557838
  23.6372884  52.4362215  90.4283454  24.3396928  52.8883259  90.8957381
  23.3053513  51.7946034  91.0563347  22.0853246  51.0273972 104.8034664
  21.4551906  51.7090253 105.0370060  21.9789334  50.9157053 103.8587802
  17.3798218  50.6945768  95.7300588  16.5897272  50.9503296  95.2540698
  17.8709466  51.5094106  95.8352628  31.3962028  58.0351007  98.4805869
  32.2179472  57.6331194  98.1988550  31.3924431  57.9319241  99.4321984
  19.3312964  51.0590347  92.6884064  18.5344127  51.1709041  93.2067560
  19.1038556  51.3976999  91.8224955  25.1618631  57.5835050 100.6366579
  25.2263064  58.0455458 101.4724751  24.4529555  56.9532415 100.7648889
  15.6635921  50.9476258  98.1615579  15.9143960  51.8323268  98.4273155
  16.1995470  50.7680860  97.3890670  24.8766649  59.2503158  90.5045559
  24.7412324  60.0954693  90.9330407  25.4176461  59.4522435  89.7411493
  21.3633989  45.3294738 107.1659915  20.9700934  44.7760936 107.8407559
  22.1800129  45.6405316 107.5566432  18.3296046  56.7678596  91.0773485
  18.8420567  57.5621846  91.2279049  18.9818759  56.0704886  91.0107086
  20.1390931  59.8844352  93.1596238  20.3157559  60.8062317  92.9717222
  20.9347765  59.5702771  93.5890618  24.2801950  46.7452617 104.7580171
  25.0211663  47.3459770 104.6784634  24.5119872  46.0030254 104.1998214
  19.4243288  51.9308984 103.0358401  19.3096803  51.0294241 103.3365500
  18.5687805  52.1772681 102.6843217  26.5035125  59.8726724 104.6345902
  26.0598979  59.0863103 104.3166806  27.1652339  60.0605875 103.9689792
  21.2622246  61.4022526  99.1606580  21.8129672  61.2739589  98.3883574
  20.4233722  61.7017415  98.8101473  28.6016363  60.1529524 102.6627303
  28.5834839  60.9738405 102.1707572  29.5236283  60.0283599 102.8877444
  25.0589418  57.6673654 103.5050811  25.5917754  56.9061942 103.2750119
  24.5303499  57.3747306 104.2474966  28.2259113  42.7733720  99.0344453
  27.8823382  43.6635361  98.9583564  28.5938075  42.5835377  98.1714038
  16.2944963  55.0967250  91.8533055  17.1320185  55.5064258  91.6366763
  16.4723231  54.1566692  91.8233249  25.7756506  47.6092032  92.6002126
  24.9198103  47.2198882  92.4207765  26.1883458  47.6883992  91.7401912
  27.3055653  45.1438375  96.9993686  26.8020448  45.1068510  96.1861491
  27.5986260  46.0531118  97.0590343  23.5498539  45.2277105  96.0059868
  24.4151536  45.0319913  95.6465757  23.6176048  44.9987456  96.9329225
  26.4242130  56.7959646  91.0169623  25.8963492  56.0612406  90.7042861
  25.9229633  57.5734323  90.7709592  31.4034976  54.9908667  96.1336669
  30.7458651  55.6807928  96.2216798  32.2075375  55.3805099  96.4770656
  21.1560858  47.4579312  93.3776235  21.7304610  47.2354494  92.6449428
  21.7431840  47.5268007  94.1304836  30.2140435  53.3453039  94.1840611
  30.7272317  53.9783031  94.6862321  30.8641659  52.7454235  93.8183971
  21.4830445  49.4883773  87.3972120  20.6467757  49.8258460  87.7181395
  21.3435215  49.3532753  86.4599257  23.4583526  44.3320561  92.1051304
  22.8047938  44.0169579  91.4807919  23.4164000  43.7096302  92.8311127
  27.4762809  63.3237364  86.9401282  26.8024508  63.6269060  87.5486240
  27.8628631  64.1266444  86.5906739  26.6921266  50.8202495  96.4298952
  25.7743827  51.0417442  96.2720640  27.1081410  50.8948805  95.5710659
  27.4756314  52.2193911  91.5601632  28.2228133  52.7315308  91.2508754
  27.7447903  51.8977963  92.4206026  25.7482964  54.7152451  88.5428586
  24.8394183  54.4311484  88.6401056  25.7778048  55.1351530  87.6831893
  30.9802231  58.3259041  92.3119754  30.5264558  57.4849951  92.3684944
  30.3496198  58.9620439  92.6494534  29.9235151  49.2551027  93.5420421
  29.1857908  48.7428413  93.8730664  30.1761924  48.8151408  92.7303698
  29.4235171  60.1635537  93.2469572  29.7158145  60.7240595  92.5281938
  29.9333791  60.4564098  94.0022731  30.0246778  42.0327279  94.1362191
  30.3305655  41.1724642  93.8488106  30.7499383  42.6244899  93.9361185
  16.3171134  52.4357965  92.5243789  16.1195534  51.8427326  91.7994855
  15.7617798  52.1310176  93.2419727  24.2967858  52.3281072  94.6438382
  24.3516468  51.3754908  94.5680858  23.4859060  52.4840511  95.1279680
  22.2360218  50.9458132  92.4028761  21.4228083  51.2452302  92.8093953
  22.7319212  50.5513820  93.1203243  24.3868796  60.9415889  94.3363025
  24.3444974  61.1676735  93.4071557  25.3031495  60.7079263  94.4848826
  27.8334430  51.4099956 101.2343654  28.1883817  51.6371429 102.0938120
  28.4806561  51.7418333 100.6120910  21.7274293  48.5176487  98.0189995
  22.3673672  48.3765246  97.3212959  20.8951823  48.2311001  97.6428597
  33.5901546  56.5994919  96.9504255  34.0238053  56.5070208  97.7987309
  34.3033127  56.5752419  96.3124271  22.5034596  57.8178918  94.1324988
  23.2975195  57.3229238  93.9307563  21.7926289  57.2896781  93.7692694
  27.3229441  60.1997013  98.4837356  27.3766463  60.7687949  99.2515071
  26.4544222  60.3698898  98.1191393  18.8117360  51.9621999  90.2084741
  17.8814948  51.9006455  90.4254703  18.9074832  51.4397952  89.4121382
  18.7302909  48.4876812  92.7962982  18.9909726  49.4022145  92.6872143
  19.5520081  48.0201255  92.9459595  20.2027834  49.9014569  99.9661807
  20.8750888  49.6931931  99.3174456  19.3757621  49.7036655  99.5267039
  34.4517096  56.6418620  99.4837140  34.6452986  57.5464430  99.7296415
  34.3517714  56.1826039 100.3175725  26.1053406  46.5276510 101.9827468
  25.4581321  47.2266460 101.8891944  26.8754422  46.9612654 102.3503716
  29.5132204  56.7925362 105.0578021  29.3617711  56.5635914 104.1408105
  29.5036884  57.7495964 105.0709366  26.2817541  54.3657275 100.0424287
  27.2109601  54.5168435  99.8693255  25.8608571  54.4541296  99.1872934
  25.0805872  58.3907940  97.8122825  24.9416958  58.0226724  98.6848763
  24.2920469  58.9055579  97.6406783  25.6754024  63.4917036  89.1548362
  25.8505780  63.0205079  89.9693984  24.9886812  64.1182802  89.3829622
  26.6311088  57.7689542  95.2011663  26.2960920  57.7290312  96.0969313
  26.1315033  57.1034258  94.7282073  20.6055332  53.1757172 100.7264244
  20.4675130  52.4437411 101.3275783  21.5160255  53.0866072 100.4448432
  23.2337632  52.8877132 100.2147924  23.9437251  52.2470324 100.1734542
  23.1906940  53.1390026 101.1374104  31.2224411  59.8244485 103.1354503
  31.1636957  59.1403705 102.4685086  31.6243929  60.5663475 102.6835129
  21.9466566  49.8742350 102.0343563  21.4103923  49.4233088 102.6865159
  21.3583275  50.0088258 101.2914027  20.2415110  66.6406399  95.9288222
  20.4811708  67.2724923  96.6067240  19.3984306  66.2894439  96.2153581
  21.3568825  49.3331001  84.5970027  20.4798292  49.2119802  84.2332273
  21.8326578  48.5417079  84.3448915  31.2241818  57.7884069 101.3668483
  30.3368597  57.4509991 101.4894881  31.7940369  57.0567100 101.6037248
  12.8770965  54.1208161  94.6911534  13.5642005  53.8069891  94.1032549
  12.7219094  55.0249525  94.4178785  17.6805687  49.0098357  99.1196558
  17.5963876  48.4024027  98.3846968  16.8588394  49.5007376  99.1206054
  24.7542972  62.4485521  98.3329726  24.6813143  63.2540493  98.8449030
  24.3120365  62.6477487  97.5077747  24.5432751  61.6857291  91.8432547
  23.7600273  62.2278971  91.9370772  25.2425496  62.2031271  92.2426788
  27.8529401  47.4951921  94.4866753  28.3498101  46.7421883  94.1667823
  27.0816383  47.5316237  93.9209962  27.2141655  62.3472355 100.4887884
  27.9269627  62.9819820 100.4163786  26.7231684  62.4436221  99.6727886
  28.9359182  56.2523608  92.0605176  28.0015461  56.3725070  91.8909880
  29.1135850  55.3496075  91.7965186  24.4364370  49.6369304  94.2138437
  24.0662158  49.0840344  94.9019343  24.9323463  49.0327437  93.6613437
  32.3231733  52.0940927  92.5955210  32.7892186  52.9268919  92.5215513
  32.7739234  51.6285909  93.3000469  22.2653569  60.0966799 101.3093455
  22.9663028  60.7303282 101.4622849  21.7948684  60.4381530 100.5489094
  30.3907964  58.4384749  89.5941362  30.6667808  58.3241343  90.5035236
  29.5212463  58.0402233  89.5553535  30.2948396  44.4621514  96.6346112
  29.3811476  44.6925741  96.8028318  30.7241498  44.5459958  97.4860144
  30.0654855  52.6511406  99.1346006  29.4126305  52.8987314  98.4798458
  30.4435235  51.8375544  98.8008483  27.0262028  62.6871099  93.2374176
  27.2084423  61.8692755  93.7001928  27.8495015  62.9038792  92.7999066
  27.3604194  61.6139285  90.4989224  27.8891960  61.1031739  89.8859386
  27.6232414  61.2981815  91.3634757  26.1142428  53.3931217 105.6212043
  25.4383065  53.2925347 106.2914418  26.9370062  53.2370431 106.0848040
  17.8621287  59.6303154  98.2424558  18.4474724  58.8846842  98.3752462
  17.6646125  59.9407111  99.1261222  20.7159942  62.6654401  93.2587000
  20.0470317  63.1500529  92.7751040  20.5772812  62.9123622  94.1730379
  12.4538941  52.2008754  96.9629001  12.4923041  51.6672345  97.7566119
  11.9479234  51.6743960  96.3439978  24.8565211  64.6998145  99.8569659
  25.4083519  64.8629766 100.6218744  25.1971404  65.2902583  99.1849683
  19.8329704  47.0473295 100.4591543  19.8971030  47.9088125 100.0468941
  19.7696824  46.4347296  99.7263902  19.3081976  49.1196427 104.1064578
  19.9354015  48.7373504 104.7202102  18.4509895  48.9010629 104.4720270
  29.7076085  59.5259402 105.7118313  30.2515989  60.1389360 105.2173268
  29.1262930  60.0838981 106.2285326  16.0847519  50.9272856  90.0382932
  16.3800960  50.0183535  89.9849986  15.1835555  50.9060596  89.7163935
  27.9933598  62.6480120  96.8433341  27.8684737  61.8469860  96.3344286
  28.6512689  63.1426314  96.3547311  19.6141766  49.0028853  96.0210481
  18.8928352  49.6164820  95.8817954  20.4035022  49.5386618  95.9427127
  30.0568506  60.4489140  98.4712891  29.1098842  60.3294492  98.3991218
  30.4051279  59.5611638  98.5539152  22.4168080  46.3383279 102.2951133
  22.9402481  46.5845576 103.0577442  22.1980413  47.1703314 101.8754270
  17.8135361  48.6086954  90.1622258  17.4848067  47.7284333  89.9797363
  18.1674731  48.5534623  91.0498647  27.0614939  60.2441857  94.6717243
  26.9139902  59.3158564  94.8524813  27.8868433  60.2661947  94.1874318
  20.9277184  48.8959924  90.5297735  21.2673256  49.4245845  89.8076344
  21.3749304  49.2340330  91.3056302  30.6649061  61.0670415  95.7582116
  31.5895609  60.8613277  95.6206567  30.4964365  60.8186816  96.6671457
  23.6220625  47.2796974  99.9800803  23.2817445  46.4804787 100.3821483
  22.9159631  47.5798685  99.4077636  24.2737096  44.3646287  98.4328126
  25.0963166  43.8906765  98.3107017  24.5175160  45.1436771  98.9326813
  22.9145331  47.3934545  88.7291028  23.6353693  47.7715798  88.2254745
  22.2910635  48.1123422  88.8326006  21.7975675  51.0565407  96.2420105
  21.6520256  51.3705710  97.1344386  21.3200879  51.6750308  95.6891004
  23.6572058  48.0467955  96.2900994  23.6433627  47.1509049  95.9533292
  24.3744486  48.0538619  96.9239281  25.5098189  48.4805296  98.3354122
  25.2515967  49.4022366  98.3338452  24.9783229  48.0835730  99.0254586
  30.4544378  61.5856083  91.1144207  30.6281255  61.0202505  90.3618060
  30.9473269  62.3856978  90.9323697  16.2721337  53.5970752  99.1807766
  15.7274805  54.3730560  99.3128040  17.1500687  53.9441556  99.0226888
  23.0608954  46.9282336  91.5588565  23.1824865  45.9998982  91.7579452
  22.7710996  46.9421022  90.6466880  25.9300144  44.6137246  94.6955284
  25.9521841  44.6776579  93.7407264  26.3468203  43.7741755  94.8895791
  31.4419550  60.9022847  88.2141106  32.1370455  61.5229540  88.4328420
  31.7842700  60.0518198  88.4893483  17.0587359  52.7240648 102.0737923
  16.3169095  52.8723283 102.6602553  16.7380103  52.9848914 101.2104672
  25.0031022  62.2656626 101.8718313  25.3118148  62.0205773 102.7441013
  25.8006504  62.4703265 101.3837183  25.0251634  64.4194536  94.1023690
  24.5856624  63.9270915  94.7956546  25.7759751  63.8767504  93.8615765
  17.5043973  60.6106077  94.1048318  18.3301993  60.3109849  93.7246961
  17.1538025  59.8413699  94.5538106  22.4725506  59.9632545  96.1745991
  21.8505515  59.3003250  95.8748219  23.1430373  59.9893677  95.4919639
  15.7052578  58.5292403  95.0637251  14.8684486  58.1014578  94.8821252
  15.6776223  58.7224847  96.0008042  22.5450034  48.4414333 105.7678497
  22.5938189  49.3176456 105.3856267  23.0872548  47.8991726 105.1950140
  33.0304879  58.9855456 105.0479634  32.2400423  58.9679595 104.5084134
  32.7938234  59.5243750 105.8028671  33.1502754  55.8347923 102.3612363
  33.2000759  55.6697930 103.3027886  33.0416678  54.9675182 101.9710244
  22.0339013  58.5136468  89.6504452  22.1827133  59.1971933  88.9971124
  22.8405456  58.4941558  90.1653907  30.4406517  51.8178851 103.6771670
  31.3416379  51.6785316 103.3855667  30.5154491  51.9833306 104.6169847
  24.7749322  49.1945705 102.5224856  23.9052631  49.4879271 102.2507444
  25.0108802  49.7786150 103.2432120  34.6520951  58.2544864 102.6054384
  34.3605759  58.6174845 103.4417845  34.0393082  57.5411872 102.4267716
  32.9008139  53.3777479 101.0734442  33.3762261  53.5705125 100.2653294
  31.9773705  53.4336665 100.8277826  19.7891646  54.5401646  90.6565521
  19.5437688  53.6363976  90.8545731  19.9587560  54.5418796  89.7144999
  27.4788356  45.4125322 100.0390276  27.9970300  46.1486349  99.7136765
  27.1243489  45.7189316 100.8737035  19.0587293  50.2730004  88.1551682
  18.3656538  50.3474359  87.4991718  18.8139045  49.5090347  88.6773199
  27.7300950  41.8325605  95.5591173  28.0102704  41.1648794  96.1851599
  28.5151557  42.0254701  95.0465837  25.5334418  61.0084599  87.1216199
  24.9608386  61.6274786  86.6686671  26.1067212  61.5583960  87.6556121
  31.6009808  50.2543239  99.3062748  32.5527231  50.3541337  99.3274972
  31.4313259  49.4621507  99.8160832  29.6224188  47.3398822  99.4922149
  29.0274120  47.6203835  98.7968638  29.3373884  47.8292723 100.2638890
  28.7531678  61.2921749  88.2524781  29.6862351  61.2267311  88.4557657
  28.6654891  62.1278016  87.7939314  34.0797886  53.4749359  98.4205048
  34.0474206  52.5365359  98.6064731  34.6898510  53.5533395  97.6870873
  34.2292375  50.2660402  98.4663331  33.7131423  49.4818859  98.2793260
  35.1132323  49.9379119  98.6309850  31.8903102  44.0101418  94.4259143
  31.6927923  43.7016506  95.3102475  32.5002807  44.7363056  94.5557073
  25.8019910  56.3963158 105.9232909  26.7222919  56.5741757 106.1172955
  25.7669493  55.4519203 105.7712608  15.0202075  51.5901751  94.8486183
  14.7004859  50.7367060  94.5560557  14.4735503  51.8050329  95.6044151
  18.7981982  54.3064192  98.5655690  19.0167992  55.2381300  98.5843724
  19.2107756  53.9472167  99.3510494  25.7186200  44.8132278  90.5531378
  24.9086928  44.4679363  90.9286624  26.4070617  44.5039821  91.1418990
  27.6476748  43.8910324  92.1755675  28.2007787  44.3105778  92.8345698
  27.8846834  42.9646073  92.2178631  23.6709847  49.8797398 107.9558439
  23.5706574  50.8291755 107.8870530  23.4531389  49.5515637 107.0834509
  22.8722919  47.1282323  84.5399116  23.7342083  47.4537221  84.7994933
  23.0573263  46.3413819  84.0272182  14.8890335  55.2104663  96.8179305
  14.1953806  54.7958616  96.3049259  15.6363326  55.2525199  96.2212724
  31.0255555  46.0010850  91.6834339  30.4454224  46.6595654  91.3012391
  30.7591488  45.1788194  91.2721757  29.4759122  45.4015907  93.8855659
  29.9758900  45.5132442  93.0769978  30.1194730  45.0976960  94.5256468
  23.5341117  53.3094537 106.7723500  23.0508199  54.1094897 106.9787389
  23.6202056  53.3202482 105.8190944  16.8027077  55.1422917  94.6945320
  16.7797765  55.2410604  93.7427203  17.1127714  55.9888067  95.0162486
  19.4614455  57.1999072  98.8091934  20.4157708  57.1683014  98.7421866
  19.2626978  56.7389695  99.6242160  20.0513837  55.7700188 101.3762732
  20.8706726  56.2644266 101.3997569  20.3250645  54.8532156 101.3480299
  29.8080433  48.1610940  90.7390687  28.9206288  48.4460591  90.5210882
  30.2234422  48.0004703  89.8917964  33.1594969  48.1857461  94.4545027
  33.9355359  48.6753913  94.7269643  32.4343104  48.6115515  94.9116896
  35.5967528  48.8985080  95.5118967  36.1912019  48.6580816  94.8012275
  35.6694112  48.1792211  96.1392504  17.8164684  62.7418691  95.8262132
  17.6819152  61.9819092  95.2600130  17.3996746  63.4659591  95.3590921
  29.7821457  53.6765476  90.9540977  29.7256658  54.1334027  90.1148610
  30.3349799  52.9156161  90.7763820  33.5926263  49.4655208  91.7791097
  33.3363197  49.0651843  92.6099305  32.9679131  50.1799002  91.6541236
  20.9733810  63.6388008  96.0380575  20.8566194  64.5833441  95.9359265
  20.1526256  63.3361570  96.4266374  30.5156236  54.8670257  88.2493507
  30.4605040  54.7014529  87.3081951  29.8902292  55.5746290  88.4055696
  15.3048751  50.1038322 102.0754929  15.9507615  49.5937276 102.5642154
  15.0965902  50.8407003 102.6498354  27.8302143  57.1719169 107.5747069
  28.6993303  57.3459821 107.2133704  27.3508895  57.9913586 107.4522799
  23.8252362  44.3678366  87.8278825  23.8131032  45.3120206  87.9847096
  24.7175784  44.1848512  87.5338286  21.9988324  64.2916270  99.2536503
  22.9015570  64.3239880  99.5702998  21.7725694  63.3616721  99.2682839
  23.7541926  63.0447257  95.9146582  22.8037557  63.0449118  95.8010954
  24.0574412  62.2979991  95.3982616  27.6404481  40.9621143  92.0824762
  26.8736877  40.4079630  92.2281444  28.0515186  41.0343012  92.9438914
  19.6446242  47.2505939 106.1729943  20.5077704  46.8942743 106.3833268
  19.0711653  46.9119833 106.8605347  39.4894619  68.8807795  96.9792344
  40.1273029  68.7614542  96.2755684  39.3715462  69.8288639  97.0380296
  36.2984325  68.8335223  96.9153869  35.9602837  68.7176288  96.0274404
  37.1674094  68.4326388  96.8954875  32.1571141  70.6870700  92.9050760
  31.5936006  70.5960636  92.1367048  32.0423536  69.8670604  93.3853252
  36.7804108  69.9870075 102.8740074  36.7692749  69.5922873 102.0020578
  36.9424748  69.2536147 103.4673846  29.7035573  72.1821891  95.7434980
  30.4956865  71.8412716  95.3281280  29.9432223  72.2916866  96.6637134
  37.7370700  74.3541667  88.2165225  37.0858680  74.9395748  87.8299238
  38.5315063  74.8847862  88.2760262  31.6626327  71.4430804  88.6152359
  32.4357203  70.8959791  88.4765235  32.0151726  72.3075054  88.8266820
  33.5011370  72.7707187 101.8219258  33.2101236  73.6752817 101.7065925
  34.1368354  72.8123714 102.5363328  34.4267576  70.1484035  98.4120618
  35.0231149  69.9240058  97.6977581  34.4842548  69.4068781  99.0146066
  33.9992605  67.6023470  86.2470809  34.2518126  67.0804992  85.4854272
  33.0617164  67.4389616  86.3497493  39.0435888  66.6059249  94.0545552
  39.8298977  66.1878672  93.7035969  39.3074592  67.5105341  94.2227201
  39.2145965  72.0432099  88.7534209  38.5791798  72.1166726  89.4655114
  38.8843371  72.6325698  88.0753288  44.4444315  66.5434482  94.9578531
  45.1769487  65.9733699  95.1916360  43.6883671  66.1556082  95.3985036
  33.7188894  69.5051576  88.4495184  33.6025152  68.8296480  89.1176268
  33.8291154  69.0183950  87.6327337  36.0620435  68.9661724  92.1541873
  35.6978642  68.4392345  92.8654795  36.9187550  68.5760193  91.9808359
  41.9669735  60.2556056  99.4173139  41.6353060  61.1251467  99.1934354
  41.3715349  59.9392340 100.0967170  35.7025922  63.9951623  87.1503222
  35.8700324  64.8631860  87.5173693  35.5123091  64.1578905  86.2264511
  38.4601255  72.4568602  98.8169052  38.1601978  73.3593641  98.7084859
  38.1152314  72.1900785  99.6690205  31.9113736  68.9082399  94.8505756
  30.9864233  68.7758613  95.0583448  32.1598149  69.6876618  95.3475699
  41.8598399  64.9751142  96.4966489  40.9515276  64.9066551  96.2025250
  41.8085994  65.4523087  97.3248315  35.6815142  66.4509281  88.1349888
  35.5614768  66.8966331  88.9735369  34.9867731  66.7994598  87.5763427
  29.2722547  68.5515673  95.6849546  29.4014928  68.8050151  96.5988957
  28.5919999  69.1443381  95.3654201  33.4422035  79.2212922  91.7840020
  33.3646064  80.1720748  91.8628500  32.8383678  78.8758795  92.4414946
  35.9339264  66.3940788 104.4401387  35.1572598  66.9534708 104.4304251
  36.5729827  66.8797571 104.9616257  43.7260045  63.1767581  98.2744363
  43.0834425  63.4700114  97.6284158  43.2214973  63.0620501  99.0797560
  41.3800209  66.9230754  88.9630223  42.2918065  67.1558141  88.7877920
  40.8709856  67.5067798  88.4005301  34.1885637  69.2026241 104.0019354
  34.9300321  69.7411285 103.7254177  33.4822622  69.8292530 104.1590905
  39.6640976  71.3455382 102.5991515  40.0724332  70.9037792 101.8546147
  38.9418238  70.7708009 102.8525708  36.0172046  66.2827989  99.9725072
  36.8633241  66.7067402 100.1159721  35.9570684  65.6261613 100.6663635
  39.9869791  71.9056572  96.3543804  39.3578653  72.0702286  95.6519872
  39.5995453  72.3198182  97.1254768  43.8659023  72.8411010  93.7088168
  43.1810061  73.2209912  93.1585201  43.9502872  73.4506337  94.4420116
  39.1671492  63.9432357 101.6306246  38.9232423  64.6974417 101.0940521
  39.4431422  64.3217704 102.4653493  41.1209954  70.4870969 100.3083511
  41.3326850  71.1302729  99.6317892  41.0739703  69.6533286  99.8405441
  38.7236183  63.0988790  97.2120083  37.8620662  63.3970043  97.5036821
  38.7498618  63.3159189  96.2801116  35.5397753  71.6430980  93.6193889
  36.0036098  71.9218683  92.8298512  35.2754551  70.7414425  93.4366980
  32.4321834  71.1902462  96.5573652  33.0023191  71.6189730  95.9191137
  33.0229946  70.9085047  97.2557838  34.4766639  67.7654133  90.4283454
  35.1790682  68.2175176  90.8957381  34.1447267  67.1237952  91.0563347
  32.9247000  66.3565889 104.8034664  32.2945661  67.0382170 105.0370060
  32.8183088  66.2448971 103.8587802  28.2191973  66.0237685  95.7300588
  27.4291027  66.2795214  95.2540698  28.7103220  66.8386023  95.8352628
  42.2355782  73.3642925  98.4805869  43.0573226  72.9623112  98.1988550
  42.2318185  73.2611159  99.4321984  30.1706718  66.3882265  92.6884064
  29.3737881  66.5000959  93.2067560  29.9432310  66.7268917  91.8224955
  36.0012386  72.9126968 100.6366579  36.0656818  73.3747375 101.4724751
  35.2923310  72.2824333 100.7648889  26.5029676  66.2768176  98.1615579
  26.7537714  67.1615186  98.4273155  27.0389224  66.0972777  97.3890670
  50.3261775  69.7081673  94.8290840  49.5725484  69.1389071  94.6734845
  50.4609317  69.6744338  95.7761475  35.7160403  74.5795075  90.5045559
  35.5806078  75.4246611  90.9330407  36.2570216  74.7814353  89.7411493
  32.2027743  60.6586655 107.1659915  31.8094689  60.1052854 107.8407559
  33.0193883  60.9697234 107.5566432  29.1689801  72.0970513  91.0773485
  29.6814321  72.8913764  91.2279049  29.8212514  71.3996804  91.0107086
  30.9784686  75.2136270  93.1596238  31.1551314  76.1354234  92.9717222
  31.7741519  74.8994689  93.5890618  35.1195704  62.0744534 104.7580171
  35.8605417  62.6751688 104.6784634  35.3513627  61.3322172 104.1998214
  30.2637042  67.2600902 103.0358401  30.1490557  66.3586159 103.3365500
  29.4081560  67.5064598 102.6843217  37.3428880  75.2018642 104.6345902
  36.8992734  74.4155021 104.3166806  38.0046093  75.3897792 103.9689792
  32.1016001  76.7314444  99.1606580  32.6523426  76.6031507  98.3883574
  31.2627477  77.0309333  98.8101473  39.4410118  75.4821442 102.6627303
  39.4228593  76.3030323 102.1707572  40.3630038  75.3575517 102.8877444
  35.8983172  72.9965571 103.5050811  36.4311509  72.2353860 103.2750119
  35.3697253  72.7039223 104.2474966  27.1338718  70.4259168  91.8533055
  27.9713940  70.8356176  91.6366763  27.3116985  69.4858610  91.8233249
  39.0303150  68.0934248  87.5416888  38.5149773  68.8638853  87.7805275
  38.7580458  67.4199385  88.1649949  36.6150261  62.9383949  92.6002126
  35.7591857  62.5490800  92.4207765  37.0277213  63.0175910  91.7401912
  38.1449407  60.4730292  96.9993686  37.6414203  60.4360428  96.1861491
  38.4380014  61.3823035  97.0590343  34.3892293  60.5569022  96.0059868
  35.2545290  60.3611831  95.6465757  34.4569802  60.3279374  96.9329225
  44.0037424  70.8466603  89.4770062  43.2266867  70.5077763  89.0325224
  44.6828905  70.8519226  88.8025027  38.8189453  65.9661341  89.3676669
  38.5139588  66.2807490  90.2186812  39.7719895  66.0442760  89.4104002
  37.2635885  72.1251564  91.0169623  36.7357246  71.3904323  90.7042861
  36.7623387  72.9026240  90.7709592  42.2428731  70.3200584  96.1336669
  41.5852405  71.0099846  96.2216798  43.0469130  70.7097016  96.4770656
  31.9954612  62.7871230  93.3776235  32.5698364  62.5646412  92.6449428
  32.5825595  62.8559925  94.1304836  41.0534190  68.6744957  94.1840611
  41.5666071  69.3074949  94.6862321  41.7035413  68.0746153  93.8183971
  32.3224199  64.8175691  87.3972120  31.4861512  65.1550378  87.7181395
  32.1828969  64.6824671  86.4599257  35.4088485  69.9431774  84.0204596
  34.5015547  69.7121028  84.2195745  35.9059517  69.1469393  84.2078578
  38.3156564  78.6529281  86.9401282  37.6418263  78.9560978  87.5486240
  38.7022386  79.4558362  86.5906739  37.5315020  66.1494413  96.4298952
  36.6137582  66.3709360  96.2720640  37.9475164  66.2240723  95.5710659
  38.3150068  67.5485828  91.5601632  39.0621887  68.0607225  91.2508754
  38.5841658  67.2269881  92.4206026  36.5876718  70.0444369  88.5428586
  35.6787938  69.7603402  88.6401056  36.6171802  70.4643448  87.6831893
  41.8195986  73.6550958  92.3119754  41.3658313  72.8141868  92.3684944
  41.1889952  74.2912357  92.6494534  40.7628905  64.5842945  93.5420421
  40.0251662  64.0720331  93.8730664  41.0155679  64.1443326  92.7303698
  40.2628925  75.4927455  93.2469572  40.5551899  76.0532512  92.5281938
  40.7727546  75.7856016  94.0022731  27.1564889  67.7649883  92.5243789
  26.9589289  67.1719244  91.7994855  26.6011553  67.4602093  93.2419727
  35.1361612  67.6572990  94.6438382  35.1910222  66.7046826  94.5680858
  34.3252814  67.8132429  95.1279680  36.2852806  71.5853113  85.8816665
  35.8472236  70.8688972  85.4222302  37.0263247  71.8129227  85.3201756
  33.0753972  66.2750049  92.4028761  32.2621838  66.5744220  92.8093953
  33.5712966  65.8805738  93.1203243  35.2262550  76.2707806  94.3363025
  35.1838729  76.4968653  93.4071557  36.1425249  76.0371181  94.4848826
  38.6728184  66.7391874 101.2343654  39.0277572  66.9663347 102.0938120
  39.3200315  67.0710251 100.6120910  44.4025921  69.8610310  91.9392983
  44.2643820  70.0511906  91.0114173  44.0462140  70.6229692  92.3961035
  32.5668047  63.8468405  98.0189995  33.2067426  63.7057164  97.3212959
  31.7345578  63.5602918  97.6428597  44.4295301  71.9286837  96.9504255
  44.8631807  71.8362126  97.7987309  45.1426881  71.9044337  96.3124271
  33.3428351  73.1470835  94.1324988  34.1368949  72.6521155  93.9307563
  32.6320043  72.6188698  93.7692694  38.1623195  75.5288931  98.4837356
  38.2160218  76.0979867  99.2515071  37.2937977  75.6990816  98.1191393
  29.6511114  67.2913917  90.2084741  28.7208703  67.2298372  90.4254703
  29.7468586  66.7689870  89.4121382  29.5696663  63.8168730  92.7962982
  29.8303481  64.7314063  92.6872143  30.3913836  63.3493172  92.9459595
  31.0421589  65.2306487  99.9661807  31.7144642  65.0223849  99.3174456
  30.2151375  65.0328573  99.5267039  45.2910850  71.9710537  99.4837140
  45.4846740  72.8756348  99.7296415  45.1911468  71.5117956 100.3175725
  36.9447161  61.8568428 101.9827468  36.2975076  62.5558378 101.8891944
  37.7148176  62.2904572 102.3503716  40.3525959  72.1217280 105.0578021
  40.2011465  71.8927832 104.1408105  40.3430638  73.0787882 105.0709366
  37.1211295  69.6949193 100.0424287  38.0503355  69.8460352  99.8693255
  36.7002325  69.7833214  99.1872934  35.9199627  73.7199857  97.8122825
  35.7810713  73.3518642  98.6848763  35.1314223  74.2347497  97.6406783
  36.5147779  78.8208954  89.1548362  36.6899535  78.3496997  89.9693984
  35.8280567  79.4474720  89.3829622  37.4704842  73.0981460  95.2011663
  37.1354675  73.0582230  96.0969313  36.9708788  72.4326176  94.7282073
  31.4449086  68.5049090 100.7264244  31.3068884  67.7729329 101.3275783
  32.3554010  68.4157990 100.4448432  40.4064034  70.4437494  85.4748722
  39.7893204  69.7184322  85.3781775  39.9380522  71.2046855  85.1315797
  34.0731387  68.2169049 100.2147924  34.7831005  67.5762241 100.1734542
  34.0300695  68.4681944 101.1374104  42.0618165  75.1536403 103.1354503
  42.0030712  74.4695623 102.4685086  42.4637684  75.8955393 102.6835129
  32.7860321  65.2034267 102.0343563  32.2497678  64.7525006 102.6865159
  32.1977029  65.3380176 101.2914027  31.0808864  81.9698316  95.9288222
  31.3205462  82.6016841  96.6067240  30.2378061  81.6186357  96.2153581
  42.0635573  73.1175987 101.3668483  41.1762351  72.7801908 101.4894881
  42.6334124  72.3859018 101.6037248  23.7164720  69.4500078  94.6911534
  24.4035760  69.1361808  94.1032549  23.5612848  70.3541443  94.4178785
  28.5199442  64.3390275  99.1196558  28.4357631  63.7315944  98.3846968
  27.6982148  64.8299293  99.1206054  35.5936726  77.7777439  98.3329726
  35.5206898  78.5832410  98.8449030  35.1514119  77.9769405  97.5077747
  35.3826506  77.0149209  91.8432547  34.5994028  77.5570889  91.9370772
  36.0819251  77.5323189  92.2426788  38.6923156  62.8243838  94.4866753
  39.1891855  62.0713801  94.1667823  37.9210137  62.8608155  93.9209962
  46.5452913  68.5284204  96.1285044  46.5342789  69.4108919  95.7578977
  45.6770293  68.1755755  95.9339581  38.0535410  77.6764273 100.4887884
  38.7663382  78.3111738 100.4163786  37.5625438  77.7728139  99.6727886
  39.7752937  71.5815526  92.0605176  38.8409215  71.7016988  91.8909880
  39.9529605  70.6787992  91.7965186  35.2758125  64.9661221  94.2138437
  34.9055912  64.4132262  94.9019343  35.7717217  64.3619355  93.6613437
  43.1625488  67.4232845  92.5955210  43.6285940  68.2560837  92.5215513
  43.6132988  66.9577826  93.3000469  33.1047323  75.4258716 101.3093455
  33.8056783  76.0595199 101.4622849  32.6342438  75.7673448 100.5489094
  41.2301719  73.7676666  89.5941362  41.5061563  73.6533261  90.5035236
  40.3606218  73.3694151  89.5553535  40.9048609  67.9803324  99.1346006
  40.2520059  68.2279231  98.4798458  41.2828989  67.1667462  98.8008483
  37.8655783  78.0163017  93.2374176  38.0478178  77.1984673  93.7001928
  38.6888769  78.2330709  92.7999066  38.1997948  76.9431202  90.4989224
  38.7285715  76.4323657  89.8859386  38.4626168  76.6273732  91.3634757
  36.9536182  68.7223135 105.6212043  36.2776819  68.6217264 106.2914418
  37.7763816  68.5662349 106.0848040  28.7015041  74.9595071  98.2424558
  29.2868478  74.2138759  98.3752462  28.5039880  75.2699028  99.1261222
  31.5553696  77.9946319  93.2587000  30.8864072  78.4792446  92.7751040
  31.4166566  78.2415539  94.1730379  23.2932696  67.5300672  96.9629001
  23.3316795  66.9964262  97.7566119  22.7872989  67.0035877  96.3439978
  35.6958965  80.0290062  99.8569659  36.2477273  80.1921684 100.6218744
  36.0365158  80.6194500  99.1849683  30.6723458  62.3765212 100.4591543
  30.7364785  63.2380043 100.0468941  30.6090578  61.7639214  99.7263902
  30.1475731  64.4488345 104.1064578  30.7747770  64.0665422 104.7202102
  29.2903650  64.2302547 104.4720270  40.5469839  74.8551320 105.7118313
  41.0909743  75.4681278 105.2173268  39.9656684  75.4130898 106.2285326
  26.9241274  66.2564774  90.0382932  27.2194715  65.3475452  89.9849986
  26.0229309  66.2352513  89.7163935  38.8327352  77.9772038  96.8433341
  38.7078492  77.1761778  96.3344286  39.4906443  78.4718231  96.3547311
  30.4535521  64.3320770  96.0210481  29.7322106  64.9456738  95.8817954
  31.2428776  64.8678535  95.9427127  40.8962261  75.7781058  98.4712891
  39.9492596  75.6586409  98.3991218  41.2445034  74.8903556  98.5539152
  33.2561834  61.6675197 102.2951133  33.7796236  61.9137493 103.0577442
  33.0374167  62.4995232 101.8754270  28.6529115  63.9378871  90.1622258
  28.3241821  63.0576250  89.9797363  29.0068486  63.8826540  91.0498647
  37.9008694  75.5733774  94.6717243  37.7533656  74.6450482  94.8524813
  38.7262187  75.5953865  94.1874318  31.7670938  64.2251841  90.5297735
  32.1067011  64.7537763  89.8076344  32.2143059  64.5632247  91.3056302
  41.5042816  76.3962333  95.7582116  42.4289363  76.1905194  95.6206567
  41.3358119  76.1478734  96.6671457  34.4614379  62.6088892  99.9800803
  34.1211199  61.8096705 100.3821483  33.7553385  62.9090603  99.4077636
  35.1130851  59.6938204  98.4328126  35.9356920  59.2198683  98.3107017
  35.3568914  60.4728688  98.9326813  33.7539085  62.7226463  88.7291028
  34.4747448  63.1007716  88.2254745  33.1304390  63.4415340  88.8326006
  37.8970208  63.4271612  89.6649360  38.1133823  64.3096250  89.3638188
  37.4164275  63.0357825  88.9355002  32.6369430  66.3857325  96.2420105
  32.4914010  66.6997628  97.1344386  32.1594633  67.0042225  95.6891004
  34.4965813  63.3759873  96.2900994  34.4827381  62.4800966  95.9533292
  35.2138241  63.3830537  96.9239281  36.3491943  63.8097213  98.3354122
  36.0909721  64.7314284  98.3338452  35.8176984  63.4127648  99.0254586
  41.2938132  76.9148000  91.1144207  41.4675010  76.3494423  90.3618060
  41.7867023  77.7148895  90.9323697  27.1115092  68.9262669  99.1807766
  26.5668560  69.7022477  99.3128040  27.9894442  69.2733474  99.0226888
  33.9002708  62.2574253  91.5588565  34.0218620  61.3290900  91.7579452
  33.6104751  62.2712939  90.6466880  47.1477523  69.6784423  92.7334507
  47.5908669  68.9291749  92.3353630  46.2704033  69.6694560  92.3508239
  42.2813305  76.2314765  88.2141106  42.9764209  76.8521457  88.4328420
  42.6236455  75.3810116  88.4893483  27.8981114  68.0532566 102.0737923
  27.1562850  68.2015201 102.6602553  27.5773858  68.3140831 101.2104672
  44.1804728  73.6814470  89.7428436  44.7056052  74.0201743  89.0177756
  44.0927080  72.7461486  89.5591571  35.8424776  77.5948544 101.8718313
  36.1511903  77.3497691 102.7441013  36.6400258  77.7995182 101.3837183
  35.8645388  79.7486454  94.1023690  35.4250379  79.2562832  94.7956546
  36.6153505  79.2059421  93.8615765  28.3437727  75.9397994  94.1048318
  29.1695747  75.6401766  93.7246961  27.9931779  75.1705617  94.5538106
  33.3119261  75.2924463  96.1745991  32.6899270  74.6295168  95.8748219
  33.9824127  75.3185595  95.4919639  26.5446332  73.8584321  95.0637251
  25.7078241  73.4306495  94.8821252  26.5169978  74.0516764  96.0008042
  33.3843788  63.7706251 105.7678497  33.4331943  64.6468374 105.3856267
  33.9266302  63.2283644 105.1950140  43.8698634  74.3147374 105.0479634
  43.0794177  74.2971513 104.5084134  43.6331988  74.8535668 105.8028671
  43.9896509  71.1639840 102.3612363  44.0394514  70.9989848 103.3027886
  43.8810432  70.2967099 101.9710244  32.8732767  73.8428386  89.6504452
  33.0220888  74.5263850  88.9971124  33.6799211  73.8233476  90.1653907
  41.2800271  67.1470768 103.6771670  42.1810134  67.0077233 103.3855667
  41.3548246  67.3125223 104.6169847  35.6143076  64.5237623 102.5224856
  34.7446386  64.8171189 102.2507444  35.8502557  65.1078068 103.2432120
  45.4914706  73.5836782 102.6054384  45.1999514  73.9466762 103.4417845
  44.8786837  72.8703790 102.4267716  46.6910388  71.1489662  95.1256955
  47.5257279  71.5879466  95.2894515  46.8269517  70.6728315  94.3065200
  43.7401894  68.7069396 101.0734442  44.2156015  68.8997043 100.2653294
  42.8167459  68.7628582 100.8277826  30.6285400  69.8693564  90.6565521
  30.3831442  68.9655894  90.8545731  30.7981315  69.8710714  89.7144999
  38.3182110  60.7417240 100.0390276  38.8364054  61.4778267  99.7136765
  37.9637243  61.0481233 100.8737035  29.8981048  65.6021921  88.1551682
  29.2050293  65.6766276  87.4991718  29.6532800  64.8382265  88.6773199
  36.3728173  76.3376516  87.1216199  35.8002140  76.9566704  86.6686671
  36.9460967  76.8875878  87.6556121  42.4403563  65.5835157  99.3062748
  43.3920986  65.6833254  99.3274972  42.2707013  64.7913425  99.8160832
  40.4617942  62.6690740  99.4922149  39.8667874  62.9495753  98.7968638
  40.1767639  63.1584641 100.2638890  39.5925433  76.6213667  88.2524781
  40.5256106  76.5559228  88.4557657  39.5048646  77.4569933  87.7939314
  42.2213449  75.9379537  85.2128729  42.1427081  75.6039401  86.1064487
  43.0423116  76.4301305  85.2120201  44.9191641  68.8041276  98.4205048
  44.8867961  67.8657277  98.6064731  45.5292264  68.8825313  97.6870873
  36.7574971  67.6737329  84.4632252  37.7034076  67.5443537  84.5320670
  36.3789216  66.9351991  84.9401680  45.0686129  65.5952320  98.4663331
  44.5525178  64.8110776  98.2793260  45.9526078  65.2671036  98.6309850
  50.7368190  69.8657283  97.5611084  51.4671579  69.6042571  98.1218788
  50.1275136  69.1286005  97.6013152  48.8183488  68.0065146  98.1585536
  48.0916651  67.8721111  97.5502027  48.4030774  68.3141974  98.9642254
  36.6413664  71.7255075 105.9232909  37.5616673  71.9033674 106.1172955
  36.6063247  70.7811121 105.7712608  34.9417889  65.5987306  84.3987137
  34.0349344  65.3020418  84.4749850  35.2193870  65.3017124  83.5321423
  25.8595829  66.9193669  94.8486183  25.5398613  66.0658977  94.5560557
  25.3129257  67.1342247  95.6044151  29.6375737  69.6356110  98.5655690
  29.8561746  70.5673218  98.5843724  30.0501510  69.2764084  99.3510494
  38.4870503  59.2202242  92.1755675  39.0401541  59.6397696  92.8345698
  38.7240589  58.2937990  92.2178631  34.5103602  65.2089316 107.9558439
  34.4100329  66.1583673 107.8870530  34.2925144  64.8807555 107.0834509
  25.7284089  70.5396581  96.8179305  25.0347560  70.1250533  96.3049259
  26.4757080  70.5817117  96.2212724  34.3734872  68.6386455 106.7723500
  33.8901954  69.4386815 106.9787389  34.4595811  68.6494399 105.8190944
  27.6420832  70.4714834  94.6945320  27.6191520  70.5702522  93.7427203
  27.9521468  71.3179985  95.0162486  30.3008209  72.5290989  98.8091934
  31.2551463  72.4974932  98.7421866  30.1020733  72.0681613  99.6242160
  30.8907592  71.0992105 101.3762732  31.7100481  71.5936184 101.3997569
  31.1644399  70.1824074 101.3480299  43.9988724  63.5149379  94.4545027
  44.7749114  64.0045831  94.7269643  43.2736858  63.9407433  94.9116896
  46.4361282  64.2276998  95.5118967  47.0305773  63.9872734  94.8012275
  46.5087866  63.5084128  96.1392504  28.6558438  78.0710609  95.8262132
  28.5212906  77.3111010  95.2600130  28.2390500  78.7951509  95.3590921
  39.7917401  73.2547532  84.8338707  40.4953251  73.4597535  85.4496363
  39.0680050  73.8224294  85.0987791  40.6215211  69.0057394  90.9540977
  40.5650413  69.4625945  90.1148610  41.1743554  68.2448078  90.7763820
  44.4320017  64.7947125  91.7791097  44.1756952  64.3943761  92.6099305
  43.8072885  65.5090919  91.6541236  48.7432355  67.5343199  94.2862388
  48.1831913  67.6036388  95.0593950  48.1375859  67.3584183  93.5661885
  31.8127564  78.9679926  96.0380575  31.6959948  79.9125358  95.9359265
  30.9920010  78.6653487  96.4266374  41.7004099  73.6930062  86.8837167
  42.5349703  73.2611260  86.7014642  41.5388442  73.5212075  87.8114062
  41.3549991  70.1962175  88.2493507  41.2998795  70.0306446  87.3081951
  40.7296046  70.9038208  88.4055696  26.1442506  65.4330239 102.0754929
  26.7901369  64.9229193 102.5642154  25.9359657  66.1698921 102.6498354
  38.6695898  72.5011087 107.5747069  39.5387058  72.6751739 107.2133704
  38.1902649  73.3205504 107.4522799  32.8382078  79.6208188  99.2536503
  33.7409325  79.6531798  99.5702998  32.6119448  78.6908639  99.2682839
  34.5935680  78.3739174  95.9146582  33.6431311  78.3741036  95.8010954
  34.8968166  77.6271909  95.3982616  30.4839997  62.5797856 106.1729943
  31.3471458  62.2234661 106.3833268  29.9105407  62.2411751 106.8605347
  50.3288374  84.2099713  96.9792344  50.9666784  84.0906460  96.2755684
  50.2109217  85.1580557  97.0380296  47.1378080  84.1627141  96.9153869
  46.7996591  84.0468205  96.0274404  48.0067848  83.7618306  96.8954875
  42.9964896  86.0162617  92.9050760  42.4329761  85.9252554  92.1367048
  42.8817291  85.1962522  93.3853252  47.6197863  85.3161992 102.8740074
  47.6086504  84.9214791 102.0020578  47.7818502  84.5828065 103.4673846
  40.5429328  87.5113809  95.7434980  41.3350620  87.1704633  95.3281280
  40.7825978  87.6208784  96.6637134  48.5764454  89.6833585  88.2165225
  47.9252434  90.2687665  87.8299238  49.3708817  90.2139780  88.2760262
  42.5020082  86.7722722  88.6152359  43.2750958  86.2251709  88.4765235
  42.8545480  87.6366971  88.8266820  44.3405124  88.0999104 101.8219258
  44.0494990  89.0044735 101.7065925  44.9762108  88.1415632 102.5363328
  45.2661331  85.4775953  98.4120618  45.8624903  85.2531975  97.6977581
  45.3236302  84.7360698  99.0146066  44.8386359  82.9315388  86.2470809
  45.0911880  82.4096909  85.4854272  43.9010918  82.7681534  86.3497493
  49.8829642  81.9351167  94.0545552  50.6692731  81.5170590  93.7035969
  50.1468347  82.8397259  94.2227201  50.0539720  87.3724017  88.7534209
  49.4185553  87.4458643  89.4655114  49.7237126  87.9617616  88.0753288
  55.2838069  81.8726400  94.9578531  56.0163241  81.3025617  95.1916360
  54.5277425  81.4848000  95.3985036  44.5582648  84.8343494  88.4495184
  44.4418906  84.1588397  89.1176268  44.6684908  84.3475868  87.6327337
  46.9014189  84.2953641  92.1541873  46.5372396  83.7684262  92.8654795
  47.7581305  83.9052110  91.9808359  52.8063490  75.5847974  99.4173139
  52.4746814  76.4543385  99.1934354  52.2109103  75.2684258 100.0967170
  46.5419676  79.3243541  87.1503222  46.7094078  80.1923777  87.5173693
  46.3516845  79.4870823  86.2264511  49.2995009  87.7860520  98.8169052
  48.9995732  88.6885559  98.7084859  48.9546069  87.5192703  99.6690205
  42.7507491  84.2374317  94.8505756  41.8257987  84.1050531  95.0583448
  42.9991904  85.0168536  95.3475699  52.6992153  80.3043060  96.4966489
  51.7909030  80.2358468  96.2025250  52.6479749  80.7815005  97.3248315
  46.5208897  81.7801198  88.1349888  46.4008522  82.2258249  88.9735369
  45.8261485  82.1286516  87.5763427  40.1116302  83.8807590  95.6849546
  40.2408683  84.1342069  96.5988957  39.4313753  84.4735298  95.3654201
  44.2815789  94.5504840  91.7840020  44.2039819  95.5012665  91.8628500
  43.6777433  94.2050713  92.4414946  46.7733019  81.7232706 104.4401387
  45.9966353  82.2826626 104.4304251  47.4123582  82.2089489 104.9616257
  54.5653799  78.5059498  98.2744363  53.9228180  78.7992032  97.6284158
  54.0608728  78.3912419  99.0797560  52.2193963  82.2522672  88.9630223
  53.1311819  82.4850058  88.7877920  51.7103610  82.8359716  88.4005301
  45.0279391  84.5318159 104.0019354  45.7694075  85.0703203 103.7254177
  44.3216377  85.1584448 104.1590905  50.5034731  86.6747299 102.5991515
  50.9118087  86.2329710 101.8546147  49.7811992  86.0999927 102.8525708
  46.8565801  81.6119906  99.9725072  47.7026996  82.0359320 100.1159721
  46.7964438  80.9553530 100.6663635  50.8263545  87.2348490  96.3543804
  50.1972408  87.3994204  95.6519872  50.4389207  87.6490100  97.1254768
  54.7052777  88.1702928  93.7088168  54.0203815  88.5501829  93.1585201
  54.7896627  88.7798255  94.4420116  50.0065246  79.2724275 101.6306246
  49.7626178  80.0266335 101.0940521  50.2825177  79.6509622 102.4653493
  51.9603709  85.8162887 100.3083511  52.1720604  86.4594647  99.6317892
  51.9133457  84.9825203  99.8405441  49.5629938  78.4280708  97.2120083
  48.7014417  78.7261961  97.5036821  49.5892372  78.6451106  96.2801116
  46.3791507  86.9722898  93.6193889  46.8429853  87.2510601  92.8298512
  46.1148305  86.0706343  93.4366980  43.2715588  86.5194380  96.5573652
  43.8416945  86.9481648  95.9191137  43.8623700  86.2376964  97.2557838
  45.3160393  83.0946050  90.4283454  46.0184437  83.5467094  90.8957381
  44.9841022  82.4529869  91.0563347  43.7640755  81.6857807 104.8034664
  43.1339415  82.3674088 105.0370060  43.6576843  81.5740889 103.8587802
  39.0585727  81.3529603  95.7300588  38.2684781  81.6087132  95.2540698
  39.5496975  82.1677941  95.8352628  53.0749537  88.6934842  98.4805869
  53.8966981  88.2915030  98.1988550  53.0711940  88.5903076  99.4321984
  41.0100473  81.7174182  92.6884064  40.2131636  81.8292877  93.2067560
  40.7826065  82.0560835  91.8224955  46.8406140  88.2418886 100.6366579
  46.9050573  88.7039293 101.4724751  46.1317064  87.6116251 100.7648889
  37.3423430  81.6060094  98.1615579  37.5931469  82.4907104  98.4273155
  37.8782979  81.4264695  97.3890670  61.1655530  85.0373591  94.8290840
  60.4119238  84.4680989  94.6734845  61.3003071  85.0036255  95.7761475
  46.5554158  89.9086993  90.5045559  46.4199833  90.7538529  90.9330407
  47.0963970  90.1106271  89.7411493  43.0421498  75.9878573 107.1659915
  42.6488443  75.4344772 107.8407559  43.8587638  76.2989151 107.5566432
  40.0083555  87.4262431  91.0773485  40.5208076  88.2205681  91.2279049
  40.6606268  86.7288722  91.0107086  41.8178440  90.5428187  93.1596238
  41.9945068  91.4646152  92.9717222  42.6135274  90.2286607  93.5890618
  45.9589459  77.4036452 104.7580171  46.6999172  78.0043605 104.6784634
  46.1907381  76.6614090 104.1998214  41.1030797  82.5892819 103.0358401
  40.9884312  81.6878077 103.3365500  40.2475314  82.8356516 102.6843217
  48.1822634  90.5310560 104.6345902  47.7386488  89.7446938 104.3166806
  48.8439848  90.7189710 103.9689792  42.9409755  92.0606361  99.1606580
  43.4917181  91.9323425  98.3883574  42.1021231  92.3601250  98.8101473
  50.2803872  90.8113360 102.6627303  50.2622348  91.6322241 102.1707572
  51.2023792  90.6867435 102.8877444  46.7376927  88.3257489 103.5050811
  47.2705263  87.5645777 103.2750119  46.2091008  88.0331141 104.2474966
  49.9046621  73.4317555  99.0344453  49.5610891  74.3219197  98.9583564
  50.2725584  73.2419213  98.1714038  37.9732472  85.7551085  91.8533055
  38.8107694  86.1648094  91.6366763  38.1510740  84.8150528  91.8233249
  49.8696904  83.4226166  87.5416888  49.3543528  84.1930771  87.7805275
  49.5974213  82.7491302  88.1649949  47.4544015  78.2675867  92.6002126
  46.5985612  77.8782717  92.4207765  47.8670967  78.3467828  91.7401912
  48.9843162  75.8022210  96.9993686  48.4807957  75.7652345  96.1861491
  49.2773769  76.7114953  97.0590343  45.2286048  75.8860940  96.0059868
  46.0939045  75.6903749  95.6465757  45.2963557  75.6571292  96.9329225
  54.8431178  86.1758521  89.4770062  54.0660621  85.8369680  89.0325224
  55.5222659  86.1811144  88.8025027  49.6583207  81.2953258  89.3676669
  49.3533343  81.6099407  90.2186812  50.6113649  81.3734678  89.4104002
  48.1029639  87.4543482  91.0169623  47.5751001  86.7196241  90.7042861
  47.6017142  88.2318158  90.7709592  53.0822485  85.6492502  96.1336669
  52.4246160  86.3391763  96.2216798  53.8862884  86.0388934  96.4770656
  42.8348367  78.1163148  93.3776235  43.4092119  77.8938329  92.6449428
  43.4219349  78.1851842  94.1304836  51.8927944  84.0036875  94.1840611
  52.4059826  84.6366867  94.6862321  52.5429168  83.4038070  93.8183971
  43.1617954  80.1467609  87.3972120  42.3255266  80.4842295  87.7181395
  43.0222724  80.0116589  86.4599257  45.1371035  74.9904397  92.1051304
  44.4835447  74.6753414  91.4807919  45.0951509  74.3680137  92.8311127
  46.2482239  85.2723692  84.0204596  45.3409301  85.0412945  84.2195745
  46.7453271  84.4761311  84.2078578  49.1550318  93.9821199  86.9401282
  48.4812017  94.2852896  87.5486240  49.5416140  94.7850279  86.5906739
  48.3708775  81.4786330  96.4298952  47.4531336  81.7001277  96.2720640
  48.7868919  81.5532641  95.5710659  49.1543823  82.8777746  91.5601632
  49.9015642  83.3899143  91.2508754  49.4235412  82.5561799  92.4206026
  47.4270473  85.3736287  88.5428586  46.5181692  85.0895319  88.6401056
  47.4565557  85.7935365  87.6831893  52.6589740  88.9842876  92.3119754
  52.2052067  88.1433786  92.3684944  52.0283707  89.6204275  92.6494534
  51.6022660  79.9134862  93.5420421  50.8645417  79.4012248  93.8730664
  51.8549433  79.4735244  92.7303698  51.1022679  90.8219373  93.2469572
  51.3945654  91.3824430  92.5281938  51.6121300  91.1147934  94.0022731
  51.7034287  72.6911114  94.1362191  52.0093164  71.8308478  93.8488106
  52.4286892  73.2828734  93.9361185  37.9958643  83.0941801  92.5243789
  37.7983043  82.5011161  91.7994855  37.4405307  82.7894011  93.2419727
  45.9755367  82.9864907  94.6438382  46.0303977  82.0338744  94.5680858
  45.1646569  83.1424346  95.1279680  47.1246561  86.9145030  85.8816665
  46.6865991  86.1980889  85.4222302  47.8657002  87.1421145  85.3201756
  43.9147727  81.6041967  92.4028761  43.1015592  81.9036138  92.8093953
  44.4106721  81.2097656  93.1203243  46.0656305  91.5999724  94.3363025
  46.0232483  91.8260570  93.4071557  46.9819004  91.3663099  94.4848826
  49.5121938  82.0683791 101.2343654  49.8671326  82.2955265 102.0938120
  50.1594070  82.4002168 100.6120910  55.2419675  85.1902227  91.9392983
  55.1037574  85.3803823  91.0114173  54.8855894  85.9521610  92.3961035
  43.4061802  79.1760323  98.0189995  44.0461181  79.0349082  97.3212959
  42.5739332  78.8894836  97.6428597  55.2689055  87.2578754  96.9504255
  55.7025562  87.1654043  97.7987309  55.9820636  87.2336255  96.3124271
  44.1822105  88.4762753  94.1324988  44.9762704  87.9813073  93.9307563
  43.4713798  87.9480616  93.7692694  49.0016950  90.8580848  98.4837356
  49.0553972  91.4271785  99.2515071  48.1331731  91.0282734  98.1191393
  40.4904869  82.6205835  90.2084741  39.5602457  82.5590290  90.4254703
  40.5862341  82.0981787  89.4121382  40.4090418  79.1460648  92.7962982
  40.6697235  80.0605981  92.6872143  41.2307590  78.6785090  92.9459595
  41.8815343  80.5598405  99.9661807  42.5538397  80.3515767  99.3174456
  41.0545130  80.3620491  99.5267039  56.1304605  87.3002455  99.4837140
  56.3240495  88.2048266  99.7296415  56.0305223  86.8409874 100.3175725
  47.7840915  77.1860346 101.9827468  47.1368830  77.8850295 101.8891944
  48.5541931  77.6196490 102.3503716  51.1919713  87.4509198 105.0578021
  51.0405220  87.2219749 104.1408105  51.1824393  88.4079799 105.0709366
  47.9605050  85.0241111 100.0424287  48.8897110  85.1752270  99.8693255
  47.5396080  85.1125131  99.1872934  46.7593381  89.0491775  97.8122825
  46.6204467  88.6810559  98.6848763  45.9707978  89.5639414  97.6406783
  47.3541533  94.1500871  89.1548362  47.5293289  93.6788915  89.9693984
  46.6674321  94.7766638  89.3829622  48.3098597  88.4273378  95.2011663
  47.9748429  88.3874148  96.0969313  47.8102542  87.7618094  94.7282073
  42.2842841  83.8341008 100.7264244  42.1462639  83.1021246 101.3275783
  43.1947764  83.7449908 100.4448432  51.2457788  85.7729412  85.4748722
  50.6286959  85.0476240  85.3781775  50.7774277  86.5338772  85.1315797
  44.9125141  83.5460967 100.2147924  45.6224760  82.9054159 100.1734542
  44.8694449  83.7973862 101.1374104  52.9011920  90.4828320 103.1354503
  52.8424466  89.7987540 102.4685086  53.3031438  91.2247310 102.6835129
  43.6254075  80.5326185 102.0343563  43.0891432  80.0816923 102.6865159
  43.0370784  80.6672094 101.2914027  41.9202619  97.2990234  95.9288222
  42.1599217  97.9308758  96.6067240  41.0771815  96.9478274  96.2153581
  43.0356334  79.9914836  84.5970027  42.1585800  79.8703637  84.2332273
  43.5114087  79.2000915  84.3448915  52.9029327  88.4467904 101.3668483
  52.0156106  88.1093826 101.4894881  53.4727878  87.7150935 101.6037248
  34.5558474  84.7791996  94.6911534  35.2429514  84.4653726  94.1032549
  34.4006603  85.6833361  94.4178785  39.3593196  79.6682193  99.1196558
  39.2751385  79.0607862  98.3846968  38.5375903  80.1591211  99.1206054
  46.4330481  93.1069357  98.3329726  46.3600652  93.9124328  98.8449030
  45.9907874  93.3061322  97.5077747  46.2220260  92.3441127  91.8432547
  45.4387782  92.8862807  91.9370772  46.9213005  92.8615106  92.2426788
  49.5316910  78.1535756  94.4866753  50.0285610  77.4005718  94.1667823
  48.7603892  78.1900073  93.9209962  57.3846668  83.8576122  96.1285044
  57.3736544  84.7400837  95.7578977  56.5164047  83.5047672  95.9339581
  48.8929164  93.0056191 100.4887884  49.6057136  93.6403655 100.4163786
  48.4019193  93.1020057  99.6727886  50.6146691  86.9107443  92.0605176
  49.6802970  87.0308906  91.8909880  50.7923359  86.0079910  91.7965186
  46.1151879  80.2953139  94.2138437  45.7449667  79.7424179  94.9019343
  46.6110972  79.6911273  93.6613437  54.0019242  82.7524763  92.5955210
  54.4679695  83.5852754  92.5215513  54.4526743  82.2869744  93.3000469
  43.9441078  90.7550634 101.3093455  44.6450537  91.3887117 101.4622849
  43.4736193  91.0965366 100.5489094  52.0695473  89.0968584  89.5941362
  52.3455317  88.9825178  90.5035236  51.1999972  88.6986069  89.5553535
  51.9735905  75.1205350  96.6346112  51.0598985  75.3509576  96.8028318
  52.4029007  75.2043794  97.4860144  51.7442364  83.3095242  99.1346006
  51.0913814  83.5571149  98.4798458  52.1222743  82.4959380  98.8008483
  48.7049537  93.3454935  93.2374176  48.8871932  92.5276591  93.7001928
  49.5282523  93.5622627  92.7999066  49.0391703  92.2723120  90.4989224
  49.5679469  91.7615574  89.8859386  49.3019923  91.9565650  91.3634757
  47.7929937  84.0515053 105.6212043  47.1170574  83.9509182 106.2914418
  48.6157571  83.8954266 106.0848040  39.5408796  90.2886989  98.2424558
  40.1262233  89.5430677  98.3752462  39.3433634  90.5990946  99.1261222
  42.3947451  93.3238237  93.2587000  41.7257826  93.8084364  92.7751040
  42.2560321  93.5707457  94.1730379  34.1326450  82.8592589  96.9629001
  34.1710550  82.3256180  97.7566119  33.6266743  82.3327795  96.3439978
  46.5352720  95.3581980  99.8569659  47.0871028  95.5213602 100.6218744
  46.8758913  95.9486418  99.1849683  41.5117213  77.7057130 100.4591543
  41.5758539  78.5671961 100.0468941  41.4484333  77.0931132  99.7263902
  40.9869485  79.7780262 104.1064578  41.6141524  79.3957340 104.7202102
  40.1297404  79.5594464 104.4720270  51.3863594  90.1843238 105.7118313
  51.9303498  90.7973196 105.2173268  50.8050439  90.7422816 106.2285326
  37.7635028  81.5856692  90.0382932  38.0588469  80.6767370  89.9849986
  36.8623064  81.5644431  89.7163935  49.6721107  93.3063956  96.8433341
  49.5472246  92.5053695  96.3344286  50.3300198  93.8010149  96.3547311
  41.2929275  79.6612688  96.0210481  40.5715861  80.2748656  95.8817954
  42.0822531  80.1970453  95.9427127  51.7356015  91.1072976  98.4712891
  50.7886351  90.9878327  98.3991218  52.0838788  90.2195474  98.5539152
  44.0955589  76.9967115 102.2951133  44.6189990  77.2429411 103.0577442
  43.8767922  77.8287149 101.8754270  39.4922870  79.2670789  90.1622258
  39.1635576  78.3868168  89.9797363  39.8462240  79.2118458  91.0498647
  48.7402448  90.9025692  94.6717243  48.5927411  89.9742399  94.8524813
  49.5655942  90.9245783  94.1874318  42.6064693  79.5543759  90.5297735
  42.9460765  80.0829680  89.8076344  43.0536813  79.8924165  91.3056302
  52.3436570  91.7254251  95.7582116  53.2683118  91.5197112  95.6206567
  52.1751874  91.4770652  96.6671457  45.3008134  77.9380810  99.9800803
  44.9604954  77.1388623 100.3821483  44.5947140  78.2382521  99.4077636
  45.9524605  75.0230122  98.4328126  46.7750675  74.5490600  98.3107017
  46.1962669  75.8020606  98.9326813  44.5932840  78.0518381  88.7291028
  45.3141202  78.4299633  88.2254745  43.9698144  78.7707257  88.8326006
  48.7363963  78.7563530  89.6649360  48.9527577  79.6388167  89.3638188
  48.2558030  78.3649743  88.9355002  43.4763184  81.7149243  96.2420105
  43.3307765  82.0289546  97.1344386  42.9988388  82.3334143  95.6891004
  45.3359567  78.7051791  96.2900994  45.3221136  77.8092884  95.9533292
  46.0531995  78.7122454  96.9239281  47.1885698  79.1389131  98.3354122
  46.9303476  80.0606202  98.3338452  46.6570738  78.7419565  99.0254586
  52.1331887  92.2439918  91.1144207  52.3068764  91.6786341  90.3618060
  52.6260778  93.0440813  90.9323697  37.9508846  84.2554587  99.1807766
  37.4062314  85.0314395  99.3128040  38.8288196  84.6025392  99.0226888
  44.7396463  77.5866171  91.5588565  44.8612374  76.6582817  91.7579452
  44.4498505  77.6004857  90.6466880  47.6087653  75.2721081  94.6955284
  47.6309350  75.3360415  93.7407264  48.0255712  74.4325590  94.8895791
  57.9871278  85.0076341  92.7334507  58.4302424  84.2583666  92.3353630
  57.1097788  84.9986477  92.3508239  53.1207059  91.5606682  88.2141106
  53.8157964  92.1813375  88.4328420  53.4630209  90.7102034  88.4893483
  38.7374868  83.3824483 102.0737923  37.9956604  83.5307119 102.6602553
  38.4167612  83.6432749 101.2104672  55.0198482  89.0106388  89.7428436
  55.5449806  89.3493661  89.0177756  54.9320835  88.0753403  89.5591571
  46.6818531  92.9240462 101.8718313  46.9905657  92.6789608 102.7441013
  47.4794013  93.1287100 101.3837183  46.7039143  95.0778371  94.1023690
  46.2644133  94.5854750  94.7956546  47.4547260  94.5351339  93.8615765
  39.1831482  91.2689912  94.1048318  40.0089502  90.9693684  93.7246961
  38.8325534  90.4997535  94.5538106  44.1513015  90.6216380  96.1745991
  43.5293024  89.9587085  95.8748219  44.8217882  90.6477512  95.4919639
  37.3840087  89.1876239  95.0637251  36.5471995  88.7598413  94.8821252
  37.3563732  89.3808682  96.0008042  44.2237543  79.0998168 105.7678497
  44.2725698  79.9760291 105.3856267  44.7660057  78.5575561 105.1950140
  54.7092388  89.6439292 105.0479634  53.9187932  89.6263430 104.5084134
  54.4725743  90.1827585 105.8028671  54.8290263  86.4931758 102.3612363
  54.8788268  86.3281765 103.3027886  54.7204187  85.6259017 101.9710244
  43.7126522  89.1720304  89.6504452  43.8614642  89.8555768  88.9971124
  44.5192965  89.1525394  90.1653907  52.1194026  82.4762686 103.6771670
  53.0203888  82.3369151 103.3855667  52.1942000  82.6417141 104.6169847
  46.4536831  79.8529541 102.5224856  45.5840140  80.1463107 102.2507444
  46.6896311  80.4369986 103.2432120  56.3308460  88.9128700 102.6054384
  56.0393268  89.2758680 103.4417845  55.7180591  88.1995708 102.4267716
  57.5304142  86.4781579  95.1256955  58.3651034  86.9171383  95.2894515
  57.6663271  86.0020233  94.3065200  54.5795648  84.0361314 101.0734442
  55.0549770  84.2288960 100.2653294  53.6561214  84.0920500 100.8277826
  41.4679155  85.1985481  90.6565521  41.2225197  84.2947811  90.8545731
  41.6375069  85.2002632  89.7144999  49.1575865  76.0709158 100.0390276
  49.6757809  76.8070185  99.7136765  48.8030998  76.3773151 100.8737035
  40.7374802  80.9313839  88.1551682  40.0444047  81.0058194  87.4991718
  40.4926554  80.1674183  88.6773199  49.4088459  72.4909440  95.5591173
  49.6890213  71.8232629  96.1851599  50.1939066  72.6838536  95.0465837
  47.2121927  91.6668434  87.1216199  46.6395895  92.2858621  86.6686671
  47.7854721  92.2167796  87.6556121  53.2797317  80.9127074  99.3062748
  54.2314740  81.0125172  99.3274972  53.1100768  80.1205343  99.8160832
  51.3011697  77.9982657  99.4922149  50.7061629  78.2787670  98.7968638
  51.0161393  78.4876558 100.2638890  50.4319187  91.9505584  88.2524781
  51.3649860  91.8851146  88.4557657  50.3442400  92.7861851  87.7939314
  53.0607204  91.2671455  85.2128729  52.9820835  90.9331318  86.1064487
  53.8816871  91.7593223  85.2120201  55.7585395  84.1333194  98.4205048
  55.7261715  83.1949195  98.6064731  56.3686019  84.2117231  97.6870873
  47.5968726  83.0029247  84.4632252  48.5427831  82.8735455  84.5320670
  47.2182971  82.2643909  84.9401680  55.9079884  80.9244237  98.4663331
  55.3918932  80.1402694  98.2793260  56.7919832  80.5962954  98.6309850
  53.5690610  74.6685253  94.4259143  53.3715432  74.3600341  95.3102475
  54.1790316  75.3946892  94.5557073  61.5761945  85.1949201  97.5611084
  62.3065333  84.9334489  98.1218788  60.9668890  84.4577923  97.6013152
  59.6577242  83.3357063  98.1585536  58.9310406  83.2013028  97.5502027
  59.2424529  83.6433892  98.9642254  47.4807418  87.0546993 105.9232909
  48.4010428  87.2325592 106.1172955  47.4457002  86.1103038 105.7712608
  45.7811643  80.9279223  84.3987137  44.8743098  80.6312336  84.4749850
  46.0587624  80.6309041  83.5321423  36.6989583  82.2485587  94.8486183
  36.3792368  81.3950895  94.5560557  36.1523012  82.4634165  95.6044151
  40.4769491  84.9648028  98.5655690  40.6955501  85.8965136  98.5843724
  40.8895265  84.6056002  99.3510494  47.3973709  75.4716113  90.5531378
  46.5874437  75.1263198  90.9286624  48.0858126  75.1623657  91.1418990
  49.3264257  74.5494160  92.1755675  49.8795296  74.9689613  92.8345698
  49.5634343  73.6229908  92.2178631  45.3497356  80.5381233 107.9558439
  45.2494083  81.4875590 107.8870530  45.1318898  80.2099472 107.0834509
  44.5510428  77.7866159  84.5399116  45.4129592  78.1121057  84.7994933
  44.7360772  76.9997654  84.0272182  36.5677843  85.8688498  96.8179305
  35.8741315  85.4542451  96.3049259  37.3150834  85.9109035  96.2212724
  52.7043064  76.6594685  91.6834339  52.1241733  77.3179489  91.3012391
  52.4378997  75.8372030  91.2721757  51.1546631  76.0599743  93.8855659
  51.6546409  76.1716277  93.0769978  51.7982238  75.7560796  94.5256468
  45.2128626  83.9678372 106.7723500  44.7295708  84.7678732 106.9787389
  45.2989565  83.9786317 105.8190944  38.4814586  85.8006752  94.6945320
  38.4585274  85.8994439  93.7427203  38.7915223  86.6471903  95.0162486
  41.1401964  87.8582907  98.8091934  42.0945217  87.8266849  98.7421866
  40.9414487  87.3973531  99.6242160  41.7301346  86.4284023 101.3762732
  42.5494235  86.9228102 101.3997569  42.0038154  85.5115991 101.3480299
  51.4867942  78.8194775  90.7390687  50.5993797  79.1044426  90.5210882
  51.9021931  78.6588539  89.8917964  54.8382478  78.8441296  94.4545027
  55.6142868  79.3337749  94.7269643  54.1130613  79.2699351  94.9116896
  57.2755037  79.5568916  95.5118967  57.8699528  79.3164652  94.8012275
  57.3481621  78.8376046  96.1392504  39.4952193  93.4002526  95.8262132
  39.3606661  92.6402927  95.2600130  39.0784255  94.1243426  95.3590921
  50.6311156  88.5839450  84.8338707  51.3347006  88.7889453  85.4496363
  49.9073804  89.1516212  85.0987791  51.4608966  84.3349311  90.9540977
  51.4044167  84.7917863  90.1148610  52.0137308  83.5739996  90.7763820
  55.2713772  80.1239043  91.7791097  55.0150706  79.7235679  92.6099305
  54.6466640  80.8382837  91.6541236  59.5826110  82.8635116  94.2862388
  59.0225668  82.9328306  95.0593950  58.9769613  82.6876101  93.5661885
  42.6521319  94.2971844  96.0380575  42.5353703  95.2417276  95.9359265
  41.8313765  93.9945405  96.4266374  52.5397853  89.0221979  86.8837167
  53.3743457  88.5903178  86.7014642  52.3782196  88.8503993  87.8114062
  52.1943745  85.5254093  88.2493507  52.1392549  85.3598364  87.3081951
  51.5689801  86.2330125  88.4055696  36.9836260  80.7622157 102.0754929
  37.6295124  80.2521111 102.5642154  36.7753411  81.4990839 102.6498354
  49.5089652  87.8303004 107.5747069  50.3780812  88.0043657 107.2133704
  49.0296404  88.6497421 107.4522799  45.5039871  75.0262202  87.8278825
  45.4918541  75.9704041  87.9847096  46.3963293  74.8432347  87.5338286
  43.6775833  94.9500105  99.2536503  44.5803079  94.9823716  99.5702998
  43.4513203  94.0200556  99.2682839  45.4329435  93.7031092  95.9146582
  44.4825066  93.7032954  95.8010954  45.7361921  92.9563827  95.3982616
  49.3191990  71.6204978  92.0824762  48.5524386  71.0663465  92.2281444
  49.7302695  71.6926847  92.9438914  41.3233751  77.9089774 106.1729943
  42.1865213  77.5526579 106.3833268  40.7499162  77.5703669 106.8605347
  61.1682128  99.5391630  96.9792344  61.8060538  99.4198378  96.2755684
  61.0502971 100.4872474  97.0380296  57.9771834  99.4919058  96.9153869
  57.6390346  99.3760123  96.0274404  58.8461603  99.0910224  96.8954875
  53.8358650 101.3454535  92.9050760  53.2723515 101.2544472  92.1367048
  53.7211045 100.5254439  93.3853252  58.4591617 100.6453910 102.8740074
  58.4480258 100.2506708 102.0020578  58.6212257  99.9119983 103.4673846
  51.3823082 102.8405726  95.7434980  52.1744374 102.4996551  95.3281280
  51.6219732 102.9500702  96.6637134  59.4158209 105.0125503  88.2165225
  58.7646189 105.5979583  87.8299238  60.2102572 105.5431697  88.2760262
  53.3413836 102.1014640  88.6152359  54.1144712 101.5543627  88.4765235
  53.6939235 102.9658889  88.8266820  55.1798879 103.4291022 101.8219258
  54.8888745 104.3336653 101.7065925  55.8155863 103.4707550 102.5363328
  56.1055085 100.8067870  98.4120618  56.7018658 100.5823893  97.6977581
  56.1630057 100.0652616  99.0146066  55.6780114  98.2607306  86.2470809
  55.9305635  97.7388827  85.4854272  54.7404673  98.0973451  86.3497493
  60.7223397  97.2643084  94.0545552  61.5086486  96.8462507  93.7035969
  60.9862101  98.1689176  94.2227201  60.8933474 102.7015934  88.7534209
  60.2579307 102.7750561  89.4655114  60.5630880 103.2909533  88.0753288
  55.3976403 100.1635412  88.4495184  55.2812661  99.4880315  89.1176268
  55.5078662  99.6767786  87.6327337  57.7407944  99.6245559  92.1541873
  57.3766151  99.0976180  92.8654795  58.5975059  99.2344028  91.9808359
  57.3813431  94.6535459  87.1503222  57.5487833  95.5215695  87.5173693
  57.1910600  94.8162740  86.2264511  60.1388764 103.1152437  98.8169052
  59.8389487 104.0177476  98.7084859  59.7939823 102.8484621  99.6690205
  53.5901245  99.5666234  94.8505756  52.6651742  99.4342448  95.0583448
  53.8385658 100.3460454  95.3475699  57.3602651  97.1093116  88.1349888
  57.2402277  97.5550167  88.9735369  56.6655240  97.4578434  87.5763427
  50.9510056  99.2099508  95.6849546  51.0802437  99.4633987  96.5988957
  50.2707508  99.8027216  95.3654201  55.1209543 109.8796758  91.7840020
  55.0433573 110.8304583  91.8628500  54.5171187 109.5342630  92.4414946
  57.6126773  97.0524623 104.4401387  56.8360107  97.6118543 104.4304251
  58.2517336  97.5381406 104.9616257  55.8673146  99.8610077 104.0019354
  56.6087830 100.3995121 103.7254177  55.1610131 100.4876365 104.1590905
  61.3428485 102.0039217 102.5991515  61.7511841 101.5621628 101.8546147
  60.6205747 101.4291845 102.8525708  57.6959555  96.9411824  99.9725072
  58.5420750  97.3651237 100.1159721  57.6358193  96.2845448 100.6663635
  61.6657300 102.5640408  96.3543804  61.0366162 102.7286122  95.6519872
  61.2782962 102.9782017  97.1254768  65.5446532 103.4994846  93.7088168
  64.8597570 103.8793747  93.1585201  65.6290381 104.1090172  94.4420116
  60.8459001  94.6016192 101.6306246  60.6019932  95.3558253 101.0940521
  61.1218931  94.9801540 102.4653493  62.7997463 101.1454805 100.3083511
  63.0114359 101.7886564  99.6317892  62.7527212 100.3117121  99.8405441
  60.4023692  93.7572625  97.2120083  59.5408171  94.0553879  97.5036821
  60.4286127  93.9743024  96.2801116  57.2185262 102.3014816  93.6193889
  57.6823607 102.5802519  92.8298512  56.9542060 101.3998260  93.4366980
  54.1109343 101.8486297  96.5573652  54.6810700 102.2773566  95.9191137
  54.7017455 101.5668882  97.2557838  56.1554148  98.4237968  90.4283454
  56.8578191  98.8759012  90.8957381  55.8234776  97.7821787  91.0563347
  54.6034509  97.0149725 104.8034664  53.9733170  97.6966006 105.0370060
  54.4970597  96.9032806 103.8587802  49.8979482  96.6821521  95.7300588
  49.1078536  96.9379049  95.2540698  50.3890729  97.4969859  95.8352628
  63.9143291 104.0226760  98.4805869  64.7360735 103.6206947  98.1988550
  63.9105694 103.9194994  99.4321984  51.8494227  97.0466100  92.6884064
  51.0525390  97.1584794  93.2067560  51.6219819  97.3852752  91.8224955
  57.6799895 103.5710803 100.6366579  57.7444327 104.0331211 101.4724751
  56.9710819 102.9408168 100.7648889  48.1817185  96.9352011  98.1615579
  48.4325223  97.8199021  98.4273155  48.7176733  96.7556613  97.3890670
  57.3947912 105.2378911  90.5045559  57.2593587 106.0830447  90.9330407
  57.9357725 105.4398188  89.7411493  53.8815252  91.3170491 107.1659915
  53.4882198  90.7636689 107.8407559  54.6981392  91.6281069 107.5566432
  50.8477310 102.7554349  91.0773485  51.3601830 103.5497599  91.2279049
  51.5000023 102.0580639  91.0107086  52.6572194 105.8720105  93.1596238
  52.8338823 106.7938070  92.9717222  53.4529028 105.5578524  93.5890618
  56.7983213  92.7328370 104.7580171  57.5392926  93.3335523 104.6784634
  57.0301136  91.9906008 104.1998214  51.9424551  97.9184737 103.0358401
  51.8278066  97.0169994 103.3365500  51.0869069  98.1648434 102.6843217
  59.0216389 105.8602477 104.6345902  58.5780243 105.0738856 104.3166806
  59.6833602 106.0481628 103.9689792  53.7803510 107.3898279  99.1606580
  54.3310935 107.2615342  98.3883574  52.9414986 107.6893168  98.8101473
  61.1197627 106.1405277 102.6627303  61.1016102 106.9614158 102.1707572
  62.0417547 106.0159352 102.8877444  57.5770681 103.6549407 103.5050811
  58.1099018 102.8937695 103.2750119  57.0484762 103.3623059 104.2474966
  60.7440376  88.7609473  99.0344453  60.4004645  89.6511114  98.9583564
  61.1119339  88.5711130  98.1714038  48.8126227 101.0843003  91.8533055
  49.6501449 101.4940011  91.6366763  48.9904494 100.1442445  91.8233249
  58.2937770  93.5967785  92.6002126  57.4379366  93.2074635  92.4207765
  58.7064721  93.6759745  91.7401912  59.8236916  91.1314128  96.9993686
  59.3201712  91.0944263  96.1861491  60.1167523  92.0406871  97.0590343
  56.0679802  91.2152858  96.0059868  56.9332799  91.0195666  95.6465757
  56.1357311  90.9863209  96.9329225  60.4976962  96.6245176  89.3676669
  60.1927097  96.9391325  90.2186812  61.4507404  96.7026596  89.4104002
  58.9423394 102.7835399  91.0169623  58.4144755 102.0488159  90.7042861
  58.4410896 103.5610076  90.7709592  63.9216240 100.9784420  96.1336669
  63.2639914 101.6683681  96.2216798  64.7256639 101.3680852  96.4770656
  53.6742121  93.4455065  93.3776235  54.2485873  93.2230247  92.6449428
  54.2613104  93.5143760  94.1304836  62.7321699  99.3328792  94.1840611
  63.2453580  99.9658784  94.6862321  63.3822922  98.7329988  93.8183971
  54.0011708  95.4759527  87.3972120  53.1649021  95.8134213  87.7181395
  53.8616478  95.3408506  86.4599257  55.9764789  90.3196314  92.1051304
  55.3229201  90.0045332  91.4807919  55.9345263  89.6972055  92.8311127
  57.0875994 100.6015609  84.0204596  56.1803056 100.3704863  84.2195745
  57.5847026  99.8053229  84.2078578  59.9944073 109.3113117  86.9401282
  59.3205772 109.6144813  87.5486240  60.3809895 110.1142197  86.5906739
  59.2102529  96.8078248  96.4298952  58.2925091  97.0293195  96.2720640
  59.6262673  96.8824558  95.5710659  59.9937577  98.2069664  91.5601632
  60.7409396  98.7191061  91.2508754  60.2629167  97.8853716  92.4206026
  58.2664227 100.7028204  88.5428586  57.3575447 100.4187237  88.6401056
  58.2959311 101.1227283  87.6831893  63.4983495 104.3134794  92.3119754
  63.0445822 103.4725704  92.3684944  62.8677461 104.9496192  92.6494534
  62.4416414  95.2426780  93.5420421  61.7039171  94.7304166  93.8730664
  62.6943188  94.8027161  92.7303698  61.9416434 106.1511291  93.2469572
  62.2339408 106.7116348  92.5281938  62.4515055 106.4439852  94.0022731
  62.5428042  88.0203032  94.1362191  62.8486918  87.1600395  93.8488106
  63.2680646  88.6120652  93.9361185  48.8352398  98.4233718  92.5243789
  48.6376798  97.8303079  91.7994855  48.2799062  98.1185929  93.2419727
  56.8149121  98.3156825  94.6438382  56.8697731  97.3630661  94.5680858
  56.0040323  98.4716264  95.1279680  57.9640315 102.2436948  85.8816665
  57.5259745 101.5272807  85.4222302  58.7050756 102.4713063  85.3201756
  54.7541481  96.9333885  92.4028761  53.9409347  97.2328055  92.8093953
  55.2500475  96.5389573  93.1203243  56.9050059 106.9291642  94.3363025
  56.8626238 107.1552488  93.4071557  57.8212758 106.6955016  94.4848826
  60.3515693  97.3975709 101.2343654  60.7065081  97.6247182 102.0938120
  60.9987824  97.7294086 100.6120910  54.2455556  94.5052240  98.0189995
  54.8854935  94.3640999  97.3212959  53.4133087  94.2186754  97.6428597
  55.0215860 103.8054671  94.1324988  55.8156458 103.3104991  93.9307563
  54.3107552 103.2772534  93.7692694  59.8410704 106.1872766  98.4837356
  59.8947727 106.7563702  99.2515071  58.9725486 106.3574651  98.1191393
  51.3298623  97.9497752  90.2084741  50.3996212  97.8882208  90.4254703
  51.4256095  97.4273705  89.4121382  51.2484172  94.4752565  92.7962982
  51.5090990  95.3897898  92.6872143  52.0701345  94.0077008  92.9459595
  52.7209098  95.8890322  99.9661807  53.3932151  95.6807684  99.3174456
  51.8938884  95.6912408  99.5267039  58.6234670  92.5152263 101.9827468
  57.9762585  93.2142213 101.8891944  59.3935685  92.9488407 102.3503716
  62.0313468 102.7801115 105.0578021  61.8798974 102.5511667 104.1408105
  62.0218147 103.7371717 105.0709366  58.7998804 100.3533028 100.0424287
  59.7290864 100.5044188  99.8693255  58.3789834 100.4417049  99.1872934
  57.5987136 104.3783693  97.8122825  57.4598222 104.0102477  98.6848763
  56.8101732 104.8931332  97.6406783  58.1935288 109.4792789  89.1548362
  58.3687044 109.0080832  89.9693984  57.5068076 110.1058555  89.3829622
  59.1492351 103.7565295  95.2011663  58.8142184 103.7166065  96.0969313
  58.6496297 103.0910011  94.7282073  53.1236595  99.1632925 100.7264244
  52.9856393  98.4313164 101.3275783  54.0341519  99.0741825 100.4448432
  55.7518896  98.8752885 100.2147924  56.4618514  98.2346077 100.1734542
  55.7088204  99.1265780 101.1374104  63.7405674 105.8120238 103.1354503
  63.6818221 105.1279458 102.4685086  64.1425193 106.5539228 102.6835129
  54.4647830  95.8618103 102.0343563  53.9285187  95.4108841 102.6865159
  53.8764538  95.9964011 101.2914027  52.7596373 112.6282152  95.9288222
  52.9992971 113.2600676  96.6067240  51.9165570 112.2770192  96.2153581
  53.8750089  95.3206754  84.5970027  52.9979555  95.1995555  84.2332273
  54.3507842  94.5292832  84.3448915  63.7423082 103.7759822 101.3668483
  62.8549860 103.4385744 101.4894881  64.3121633 103.0442853 101.6037248
  45.3952229 100.1083914  94.6911534  46.0823269  99.7945644  94.1032549
  45.2400357 101.0125278  94.4178785  50.1986951  94.9974110  99.1196558
  50.1145140  94.3899780  98.3846968  49.3769657  95.4883129  99.1206054
  57.2724235 108.4361274  98.3329726  57.1994407 109.2416246  98.8449030
  56.8301628 108.6353240  97.5077747  57.0614015 107.6733044  91.8432547
  56.2781537 108.2154724  91.9370772  57.7606760 108.1907024  92.2426788
  60.3710665  93.4827674  94.4866753  60.8679364  92.7297636  94.1667823
  59.5997646  93.5191990  93.9209962  59.7322919 108.3348108 100.4887884
  60.4450891 108.9695573 100.4163786  59.2412947 108.4311974  99.6727886
  61.4540445 102.2399361  92.0605176  60.5196724 102.3600823  91.8909880
  61.6317114 101.3371828  91.7965186  56.9545634  95.6245057  94.2138437
  56.5843421  95.0716097  94.9019343  57.4504726  95.0203190  93.6613437
  54.7834832 106.0842552 101.3093455  55.4844292 106.7179035 101.4622849
  54.3129947 106.4257283 100.5489094  62.9089228 104.4260502  89.5941362
  63.1849072 104.3117096  90.5035236  62.0393727 104.0277986  89.5553535
  62.5836118  98.6387159  99.1346006  61.9307568  98.8863067  98.4798458
  62.9616498  97.8251297  98.8008483  59.5443292 108.6746852  93.2374176
  59.7265686 107.8568508  93.7001928  60.3676278 108.8914545  92.7999066
  59.8785457 107.6015038  90.4989224  60.4073224 107.0907492  89.8859386
  60.1413677 107.2857568  91.3634757  58.6323691  99.3806970 105.6212043
  57.9564328  99.2801100 106.2914418  59.4551325  99.2246184 106.0848040
  50.3802550 105.6178907  98.2424558  50.9655987 104.8722595  98.3752462
  50.1827389 105.9282864  99.1261222  53.2341205 108.6530154  93.2587000
  52.5651581 109.1376282  92.7751040  53.0954075 108.8999375  94.1730379
  44.9720205  98.1884507  96.9629001  45.0104304  97.6548098  97.7566119
  44.4660498  97.6619713  96.3439978  57.3746474 110.6873898  99.8569659
  57.9264782 110.8505519 100.6218744  57.7152667 111.2778336  99.1849683
  52.3510967  93.0349048 100.4591543  52.4152294  93.8963878 100.0468941
  52.2878087  92.4223049  99.7263902  51.8263240  95.1072180 104.1064578
  52.4535279  94.7249257 104.7202102  50.9691159  94.8886382 104.4720270
  62.2257348 105.5135155 105.7118313  62.7697252 106.1265114 105.2173268
  61.6444193 106.0714734 106.2285326  48.6028782  96.9148609  90.0382932
  48.8982224  96.0059288  89.9849986  47.7016818  96.8936349  89.7163935
  60.5114861 108.6355873  96.8433341  60.3866001 107.8345613  96.3344286
  61.1693952 109.1302067  96.3547311  52.1323029  94.9904606  96.0210481
  51.4109615  95.6040573  95.8817954  52.9216285  95.5262371  95.9427127
  62.5749770 106.4364893  98.4712891  61.6280105 106.3170245  98.3991218
  62.9232543 105.5487391  98.5539152  54.9349343  92.3259032 102.2951133
  55.4583745  92.5721329 103.0577442  54.7161676  93.1579067 101.8754270
  50.3316624  94.5962707  90.1622258  50.0029330  93.7160086  89.9797363
  50.6855995  94.5410376  91.0498647  59.5796203 106.2317610  94.6717243
  59.4321165 105.3034317  94.8524813  60.4049696 106.2537700  94.1874318
  53.4458447  94.8835677  90.5297735  53.7854520  95.4121598  89.8076344
  53.8930568  95.2216083  91.3056302  63.1830325 107.0546168  95.7582116
  64.1076872 106.8489030  95.6206567  63.0145628 106.8062569  96.6671457
  56.1401888  93.2672727  99.9800803  55.7998708  92.4680540 100.3821483
  55.4340894  93.5674438  99.4077636  56.7918360  90.3522040  98.4328126
  57.6144429  89.8782518  98.3107017  57.0356423  91.1312524  98.9326813
  55.4326594  93.3810298  88.7291028  56.1534957  93.7591551  88.2254745
  54.8091899  94.0999175  88.8326006  59.5757717  94.0855447  89.6649360
  59.7921332  94.9680085  89.3638188  59.0951784  93.6941661  88.9355002
  54.3156939  97.0441160  96.2420105  54.1701519  97.3581463  97.1344386
  53.8382142  97.6626061  95.6891004  56.1753322  94.0343708  96.2900994
  56.1614890  93.1384802  95.9533292  56.8925750  94.0414372  96.9239281
  58.0279452  94.4681049  98.3354122  57.7697230  95.3898119  98.3338452
  57.4964493  94.0711483  99.0254586  62.9725641 107.5731836  91.1144207
  63.1462519 107.0078258  90.3618060  63.4654532 108.3732731  90.9323697
  48.7902601  99.5846505  99.1807766  48.2456069 100.3606313  99.3128040
  49.6681951  99.9317309  99.0226888  55.5790217  92.9158089  91.5588565
  55.7006129  91.9874735  91.7579452  55.2892260  92.9296775  90.6466880
  58.4481408  90.6012999  94.6955284  58.4703105  90.6652332  93.7407264
  58.8649467  89.7617508  94.8895791  49.5768623  98.7116401 102.0737923
  48.8350359  98.8599036 102.6602553  49.2561367  98.9724667 101.2104672
  57.5212285 108.2532379 101.8718313  57.8299412 108.0081526 102.7441013
  58.3187767 108.4579018 101.3837183  57.5432897 110.4070289  94.1023690
  57.1037888 109.9146668  94.7956546  58.2941014 109.8643257  93.8615765
  50.0225236 106.5981830  94.1048318  50.8483256 106.2985602  93.7246961
  49.6719288 105.8289452  94.5538106  54.9906770 105.9508298  96.1745991
  54.3686779 105.2879003  95.8748219  55.6611636 105.9769430  95.4919639
  48.2233841 104.5168156  95.0637251  47.3865750 104.0890331  94.8821252
  48.1957487 104.7100600  96.0008042  55.0631297  94.4290086 105.7678497
  55.1119452  95.3052209 105.3856267  55.6053811  93.8867479 105.1950140
  65.5486143 104.9731209 105.0479634  64.7581686 104.9555348 104.5084134
  65.3119497 105.5119503 105.8028671  65.6684018 101.8223676 102.3612363
  65.7182023 101.6573683 103.3027886  65.5597941 100.9550935 101.9710244
  54.5520276 104.5012221  89.6504452  54.7008397 105.1847686  88.9971124
  55.3586720 104.4817311  90.1653907  62.9587780  97.8054604 103.6771670
  63.8597643  97.6661069 103.3855667  63.0335755  97.9709059 104.6169847
  57.2930585  95.1821458 102.5224856  56.4233895  95.4755025 102.2507444
  57.5290066  95.7661903 103.2432120  67.1702215 104.2420617 102.6054384
  66.8787023 104.6050598 103.4417845  66.5574346 103.5287625 102.4267716
  65.4189403  99.3653232 101.0734442  65.8943524  99.5580878 100.2653294
  64.4954968  99.4212418 100.8277826  52.3072909 100.5277399  90.6565521
  52.0618951  99.6239729  90.8545731  52.4768824 100.5294549  89.7144999
  59.9969619  91.4001075 100.0390276  60.5151563  92.1362102  99.7136765
  59.6424752  91.7065069 100.8737035  51.5768557  96.2605757  88.1551682
  50.8837802  96.3350112  87.4991718  51.3320309  95.4966100  88.6773199
  60.2482213  87.8201358  95.5591173  60.5283967  87.1524547  96.1851599
  61.0332820  88.0130454  95.0465837  58.0515682 106.9960352  87.1216199
  57.4789649 107.6150539  86.6686671  58.6248476 107.5459714  87.6556121
  58.4362480  98.3321165  84.4632252  59.3821585  98.2027373  84.5320670
  58.0576725  97.5935826  84.9401680  58.3201173 102.3838911 105.9232909
  59.2404182 102.5617510 106.1172955  58.2850756 101.4394956 105.7712608
  56.6205398  96.2571141  84.3987137  55.7136853  95.9604254  84.4749850
  56.8981379  95.9600959  83.5321423  47.5383338  97.5777504  94.8486183
  47.2186122  96.7242813  94.5560557  46.9916766  97.7926083  95.6044151
  51.3163246 100.2939945  98.5655690  51.5349255 101.2257053  98.5843724
  51.7289019  99.9347920  99.3510494  58.2367463  90.8008031  90.5531378
  57.4268192  90.4555116  90.9286624  58.9251880  90.4915574  91.1418990
  60.1658012  89.8786077  92.1755675  60.7189050  90.2981531  92.8345698
  60.4028098  88.9521826  92.2178631  56.1891111  95.8673151 107.9558439
  56.0887838  96.8167508 107.8870530  55.9712653  95.5391390 107.0834509
  55.3904182  93.1158076  84.5399116  56.2523346  93.4412975  84.7994933
  55.5754526  92.3289572  84.0272182  47.4071598 101.1980416  96.8179305
  46.7135069 100.7834369  96.3049259  48.1544589 101.2400952  96.2212724
  61.9940385  91.3891660  93.8855659  62.4940163  91.5008195  93.0769978
  62.6375993  91.0852713  94.5256468  56.0522381  99.2970290 106.7723500
  55.5689463 100.0970650 106.9787389  56.1383320  99.3078235 105.8190944
  49.3208341 101.1298670  94.6945320  49.2979029 101.2286357  93.7427203
  49.6308977 101.9763820  95.0162486  51.9795718 103.1874825  98.8091934
  52.9338972 103.1558767  98.7421866  51.7808242 102.7265448  99.6242160
  52.5695101 101.7575941 101.3762732  53.3887990 102.2520019 101.3997569
  52.8431908 100.8407909 101.3480299  50.3345947 108.7294444  95.8262132
  50.2000415 107.9694845  95.2600130  49.9178009 109.4535344  95.3590921
  62.3002720  99.6641229  90.9540977  62.2437922 100.1209780  90.1148610
  62.8531063  98.9031914  90.7763820  53.4915073 109.6263761  96.0380575
  53.3747457 110.5709194  95.9359265  52.6707519 109.3237323  96.4266374
  47.8230015  96.0914075 102.0754929  48.4688878  95.5813029 102.5642154
  47.6147166  96.8282756 102.6498354  60.3483407 103.1594922 107.5747069
  61.2174567 103.3335574 107.2133704  59.8690158 103.9789339 107.4522799
  56.3433625  90.3554119  87.8278825  56.3312295  91.2995959  87.9847096
  57.2357047  90.1724265  87.5338286  54.5169587 110.2792023  99.2536503
  55.4196834 110.3115633  99.5702998  54.2906957 109.3492474  99.2682839
  56.2723189 109.0323010  95.9146582  55.3218820 109.0324871  95.8010954
  56.5755675 108.2855744  95.3982616  60.1585745  86.9496896  92.0824762
  59.3918140  86.3955383  92.2281444  60.5696450  87.0218765  92.9438914
  52.1627506  93.2381692 106.1729943  53.0258967  92.8818497 106.3833268
  51.5892916  92.8995586 106.8605347  64.6752405 116.6746453  92.9050760
  64.1117270 116.5836389  92.1367048  64.5604800 115.8546357  93.3853252
  69.2985372 115.9745828 102.8740074  69.2874013 115.5798626 102.0020578
  69.4606011 115.2411900 103.4673846  62.2216837 118.1697644  95.7434980
  63.0138129 117.8288469  95.3281280  62.4613487 118.2792619  96.6637134
  64.1807591 117.4306557  88.6152359  64.9538467 116.8835544  88.4765235
  64.5332989 118.2950807  88.8266820  66.0192633 118.7582940 101.8219258
  65.7282499 119.6628570 101.7065925  66.6549617 118.7999467 102.5363328
  66.9448840 116.1359788  98.4120618  67.5412412 115.9115811  97.6977581
  67.0023811 115.3944534  99.0146066  66.2370157 115.4927329  88.4495184
  66.1206415 114.8172233  89.1176268  66.3472417 115.0059703  87.6327337
  64.4295000 114.8958152  94.8505756  63.5045496 114.7634366  95.0583448
  64.6779413 115.6752371  95.3475699  61.7903811 114.5391426  95.6849546
  61.9196192 114.7925904  96.5988957  61.1101262 115.1319134  95.3654201
  65.9603298 125.2088676  91.7840020  65.8827328 126.1596501  91.8628500
  65.3564942 124.8634548  92.4414946  68.4520528 112.3816541 104.4401387
  67.6753862 112.9410461 104.4304251  69.0911091 112.8673324 104.9616257
  66.7066900 115.1901994 104.0019354  67.4481584 115.7287038 103.7254177
  66.0003886 115.8168283 104.1590905  72.1822240 117.3331135 102.5991515
  72.5905596 116.8913545 101.8546147  71.4599501 116.7583762 102.8525708
  68.5353310 112.2703742  99.9725072  69.3814505 112.6943155 100.1159721
  68.4751947 111.6137366 100.6663635  64.9503097 117.1778215  96.5573652
  65.5204454 117.6065483  95.9191137  65.5411209 116.8960800  97.2557838
  65.4428264 112.3441642 104.8034664  64.8126924 113.0257923 105.0370060
  65.3364352 112.2324724 103.8587802  60.7373236 112.0113439  95.7300588
  59.9472290 112.2670967  95.2540698  61.2284484 112.8261776  95.8352628
  62.6887982 112.3758018  92.6884064  61.8919145 112.4876712  93.2067560
  62.4613574 112.7144670  91.8224955  68.5193649 118.9002721 100.6366579
  68.5838082 119.3623128 101.4724751  67.8104573 118.2700086 100.7648889
  59.0210939 112.2643929  98.1615579  59.2718978 113.1490939  98.4273155
  59.5570488 112.0848530  97.3890670  64.7209007 106.6462408 107.1659915
  64.3275952 106.0928607 107.8407559  65.5375147 106.9572987 107.5566432
  61.6871064 118.0846267  91.0773485  62.1995585 118.8789517  91.2279049
  62.3393777 117.3872557  91.0107086  63.4965949 121.2012023  93.1596238
  63.6732577 122.1229987  92.9717222  64.2922783 120.8870442  93.5890618
  67.6376968 108.0620287 104.7580171  68.3786681 108.6627441 104.6784634
  67.8694890 107.3197925 104.1998214  62.7818306 113.2476655 103.0358401
  62.6671821 112.3461912 103.3365500  61.9262823 113.4940351 102.6843217
  69.8610143 121.1894395 104.6345902  69.4173997 120.4030774 104.3166806
  70.5227357 121.3773545 103.9689792  64.6197264 122.7190197  99.1606580
  65.1704690 122.5907260  98.3883574  63.7808740 123.0185086  98.8101473
  71.9591381 121.4697195 102.6627303  71.9409857 122.2906076 102.1707572
  72.8811301 121.3451270 102.8877444  68.4164436 118.9841324 103.5050811
  68.9492772 118.2229613 103.2750119  67.8878517 118.6914976 104.2474966
  59.6519981 116.4134921  91.8533055  60.4895203 116.8231929  91.6366763
  59.8298249 115.4734363  91.8233249  67.9269748 115.9307527  84.0204596
  67.0196810 115.6996781  84.2195745  68.4240780 115.1345146  84.2078578
  70.8337827 124.6405034  86.9401282  70.1599526 124.9436731  87.5486240
  71.2203649 125.4434115  86.5906739  59.6746152 113.7525636  92.5243789
  59.4770552 113.1594997  91.7994855  59.1192816 113.4477846  93.2419727
  67.6542876 113.6448743  94.6438382  67.7091486 112.6922579  94.5680858
  66.8434078 113.8008182  95.1279680  67.7443814 122.2583559  94.3363025
  67.7019992 122.4844406  93.4071557  68.6606513 122.0246934  94.4848826
  71.1909447 112.7267627 101.2343654  71.5458835 112.9539100 102.0938120
  71.8381579 113.0586004 100.6120910  65.0849311 109.8344158  98.0189995
  65.7248690 109.6932917  97.3212959  64.2526841 109.5478671  97.6428597
  65.8609614 119.1346588  94.1324988  66.6550213 118.6396908  93.9307563
  65.1501307 118.6064451  93.7692694  62.1692378 113.2789670  90.2084741
  61.2389966 113.2174126  90.4254703  62.2649850 112.7565623  89.4121382
  62.0877927 109.8044483  92.7962982  62.3484744 110.7189816  92.6872143
  62.9095099 109.3368925  92.9459595  63.5602852 111.2182240  99.9661807
  64.2325906 111.0099602  99.3174456  62.7332639 111.0204326  99.5267039
  72.8707222 118.1093033 105.0578021  72.7192729 117.8803585 104.1408105
  72.8611902 119.0663635 105.0709366  69.6392559 115.6824946 100.0424287
  70.5684619 115.8336105  99.8693255  69.2183589 115.7708967  99.1872934
  68.4380890 119.7075610  97.8122825  68.2991976 119.3394395  98.6848763
  67.6495487 120.2223250  97.6406783  69.0329042 124.8084707  89.1548362
  69.2080798 124.3372750  89.9693984  68.3461830 125.4350473  89.3829622
  63.9630350 114.4924843 100.7264244  63.8250147 113.7605082 101.3275783
  64.8735273 114.4033743 100.4448432  66.5912650 114.2044802 100.2147924
  67.3012269 113.5637995 100.1734542  66.5481958 114.4557697 101.1374104
  65.3041584 111.1910020 102.0343563  64.7678941 110.7400759 102.6865159
  64.7158293 111.3255929 101.2914027  63.5990128 127.9574070  95.9288222
  63.8386726 128.5892594  96.6067240  62.7559324 127.6062110  96.2153581
  56.2345983 115.4375831  94.6911534  56.9217023 115.1237561  94.1032549
  56.0794112 116.3417196  94.4178785  61.0380705 110.3266028  99.1196558
  60.9538894 109.7191697  98.3846968  60.2163412 110.8175046  99.1206054
  68.1117990 123.7653192  98.3329726  68.0388161 124.5708163  98.8449030
  67.6695383 123.9645158  97.5077747  67.9007769 123.0024962  91.8432547
  67.1175291 123.5446642  91.9370772  68.6000514 123.5198942  92.2426788
  70.5716673 123.6640026 100.4887884  71.2844645 124.2987491 100.4163786
  70.0806702 123.7603892  99.6727886  65.6228587 121.4134469 101.3093455
  66.3238046 122.0470952 101.4622849  65.1523702 121.7549201 100.5489094
  70.3837046 124.0038770  93.2374176  70.5659441 123.1860426  93.7001928
  71.2070032 124.2206462  92.7999066  70.7179212 122.9306955  90.4989224
  71.2466978 122.4199410  89.8859386  70.9807432 122.6149485  91.3634757
  69.4717446 114.7098888 105.6212043  68.7958083 114.6093017 106.2914418
  70.2945079 114.5538102 106.0848040  61.2196305 120.9470824  98.2424558
  61.8049741 120.2014512  98.3752462  61.0221143 121.2574781  99.1261222
  64.0734960 123.9822072  93.2587000  63.4045335 124.4668200  92.7751040
  63.9347830 124.2291292  94.1730379  55.8113959 113.5176425  96.9629001
  55.8498059 112.9840015  97.7566119  55.3054252 112.9911630  96.3439978
  68.2140228 126.0165815  99.8569659  68.7658537 126.1797437 100.6218744
  68.5546422 126.6070253  99.1849683  63.1904722 108.3640965 100.4591543
  63.2546048 109.2255796 100.0468941  63.1271842 107.7514967  99.7263902
  62.6656994 110.4364098 104.1064578  63.2929033 110.0541175 104.7202102
  61.8084913 110.2178300 104.4720270  73.0651103 120.8427073 105.7118313
  73.6091007 121.4557031 105.2173268  72.4837948 121.4006651 106.2285326
  59.4422537 112.2440527  90.0382932  59.7375978 111.3351205  89.9849986
  58.5410573 112.2228266  89.7163935  62.9716784 110.3196523  96.0210481
  62.2503370 110.9332491  95.8817954  63.7610040 110.8554288  95.9427127
  65.7743098 107.6550950 102.2951133  66.2977499 107.9013246 103.0577442
  65.5555431 108.4870985 101.8754270  61.1710379 109.9254625  90.1622258
  60.8423085 109.0452003  89.9797363  61.5249749 109.8702293  91.0498647
  65.1550693 112.3733078  96.2420105  65.0095274 112.6873381  97.1344386
  64.6775897 112.9917978  95.6891004  59.6296355 114.9138422  99.1807766
  59.0849823 115.6898230  99.3128040  60.5075705 115.2609227  99.0226888
  60.4162377 114.0408319 102.0737923  59.6744113 114.1890954 102.6602553
  60.0955121 114.3016584 101.2104672  68.3606040 123.5824297 101.8718313
  68.6693166 123.3373444 102.7441013  69.1581522 123.7870935 101.3837183
  68.3826652 125.7362207  94.1023690  67.9431642 125.2438585  94.7956546
  69.1334769 125.1935174  93.8615765  60.8618991 121.9273747  94.1048318
  61.6877011 121.6277519  93.7246961  60.5113043 121.1581370  94.5538106
  65.8300524 121.2800216  96.1745991  65.2080533 120.6170921  95.8748219
  66.5005391 121.3061348  95.4919639  59.0627596 119.8460074  95.0637251
  58.2259504 119.4182248  94.8821252  59.0351241 120.0392517  96.0008042
  65.9025051 109.7582004 105.7678497  65.9513207 110.6344127 105.3856267
  66.4447566 109.2159397 105.1950140  65.3914031 119.8304139  89.6504452
  65.5402151 120.5139603  88.9971124  66.1980474 119.8109229  90.1653907
  68.1324340 110.5113376 102.5224856  67.2627649 110.8046942 102.2507444
  68.3683820 111.0953821 103.2432120  63.1466664 115.8569317  90.6565521
  62.9012706 114.9531647  90.8545731  63.3162578 115.8586467  89.7144999
  62.4162311 111.5897674  88.1551682  61.7231556 111.6642029  87.4991718
  62.1714063 110.8258018  88.6773199  68.8909436 122.3252269  87.1216199
  68.3183404 122.9442457  86.6686671  69.4642230 122.8751631  87.6556121
  69.1594927 117.7130828 105.9232909  70.0797937 117.8909427 106.1172955
  69.1244511 116.7686874 105.7712608  58.3777092 112.9069422  94.8486183
  58.0579877 112.0534730  94.5560557  57.8310521 113.1218000  95.6044151
  62.1557000 115.6231863  98.5655690  62.3743010 116.5548971  98.5843724
  62.5682774 115.2639837  99.3510494  67.0284865 111.1965069 107.9558439
  66.9281592 112.1459426 107.8870530  66.8106407 110.8683308 107.0834509
  58.2465352 116.5272334  96.8179305  57.5528824 116.1126286  96.3049259
  58.9938343 116.5692870  96.2212724  66.8916135 114.6262208 106.7723500
  66.4083217 115.4262568 106.9787389  66.9777074 114.6370153 105.8190944
  60.1602095 116.4590587  94.6945320  60.1372783 116.5578275  93.7427203
  60.4702731 117.3055738  95.0162486  62.8189473 118.5166742  98.8091934
  63.7732726 118.4850685  98.7421866  62.6201996 118.0557366  99.6242160
  63.4088855 117.0867858 101.3762732  64.2281744 117.5811937 101.3997569
  63.6825663 116.1699827 101.3480299  61.1739702 124.0586362  95.8262132
  61.0394170 123.2986763  95.2600130  60.7571764 124.7827262  95.3590921
  64.3308828 124.9555679  96.0380575  64.2141212 125.9001111  95.9359265
  63.5101274 124.6529240  96.4266374  58.6623769 111.4205992 102.0754929
  59.3082633 110.9104946 102.5642154  58.4540920 112.1574674 102.6498354
  71.1877161 118.4886840 107.5747069  72.0568321 118.6627492 107.2133704
  70.7083913 119.3081257 107.4522799  65.3563342 125.6083941  99.2536503
  66.2590588 125.6407551  99.5702998  65.1300712 124.6784392  99.2682839
  67.1116944 124.3614927  95.9146582  66.1612575 124.3616789  95.8010954
  67.4149430 123.6147662  95.3982616  63.0021260 108.5673609 106.1729943
  63.8652722 108.2110414 106.3833268  62.4286671 108.2287504 106.8605347
  82.8469637 130.1975466  96.9792344  83.4848047 130.0782213  96.2755684
  82.7290480 131.1456310  97.0380296  79.6559343 130.1502894  96.9153869
  79.3177855 130.0343958  96.0274404  80.5249112 129.7494059  96.8954875
  75.5146159 132.0038370  92.9050760  74.9511024 131.9128307  92.1367048
  75.3998554 131.1838275  93.3853252  73.0610591 133.4989562  95.7434980
  73.8531883 133.1580386  95.3281280  73.3007241 133.6084537  96.6637134
  81.0945718 135.6709338  88.2165225  80.4433698 136.2563418  87.8299238
  81.8890081 136.2015533  88.2760262  75.0201345 132.7598475  88.6152359
  75.7932221 132.2127462  88.4765235  75.3726744 133.6242724  88.8266820
  76.8586388 134.0874857 101.8219258  76.5676254 134.9920488 101.7065925
  77.4943372 134.1291385 102.5363328  77.7842594 131.4651706  98.4120618
  78.3806167 131.2407728  97.6977581  77.8417566 130.7236451  99.0146066
  77.3567623 128.9191141  86.2470809  77.6093144 128.3972662  85.4854272
  76.4192182 128.7557287  86.3497493  82.4010906 127.9226920  94.0545552
  83.1873995 127.5046343  93.7035969  82.6649610 128.8273012  94.2227201
  82.5720983 133.3599770  88.7534209  81.9366816 133.4334396  89.4655114
  82.2418389 133.9493369  88.0753288  87.8019333 127.8602153  94.9578531
  88.5344505 127.2901370  95.1916360  87.0458688 127.4723753  95.3985036
  77.0763912 130.8219247  88.4495184  76.9600170 130.1464151  89.1176268
  77.1866171 130.3351621  87.6327337  79.4195453 130.2829394  92.1541873
  79.0553660 129.7560015  92.8654795  80.2762568 129.8927863  91.9808359
  79.0600939 125.3119294  87.1503222  79.2275342 126.1799530  87.5173693
  78.8698109 125.4746576  86.2264511  81.8176273 133.7736273  98.8169052
  81.5176996 134.6761312  98.7084859  81.4727332 133.5068456  99.6690205
  75.2688754 130.2250070  94.8505756  74.3439251 130.0926284  95.0583448
  75.5173167 131.0044289  95.3475699  79.0390160 127.7676951  88.1349888
  78.9189786 128.2134002  88.9735369  78.3442749 128.1162269  87.5763427
  72.6297565 129.8683343  95.6849546  72.7589946 130.1217822  96.5988957
  71.9495016 130.4611051  95.3654201  76.7997052 140.5380593  91.7840020
  76.7221082 141.4888418  91.8628500  76.1958696 140.1926466  92.4414946
  84.7375227 128.2398425  88.9630223  85.6493083 128.4725811  88.7877920
  84.2284874 128.8235469  88.4005301  77.5460655 130.5193912 104.0019354
  78.2875339 131.0578956 103.7254177  76.8397640 131.1460201 104.1590905
  83.0215994 132.6623052 102.5991515  83.4299350 132.2205463 101.8546147
  82.2993256 132.0875680 102.8525708  83.3444809 133.2224243  96.3543804
  82.7153671 133.3869957  95.6519872  82.9570471 133.6365853  97.1254768
  87.2234041 134.1578681  93.7088168  86.5385079 134.5377582  93.1585201
  87.3077890 134.7674008  94.4420116  84.4784972 131.8038640 100.3083511
  84.6901868 132.4470400  99.6317892  84.4314721 130.9700956  99.8405441
  78.8972771 132.9598651  93.6193889  79.3611116 133.2386354  92.8298512
  78.6329569 132.0582096  93.4366980  75.7896852 132.5070133  96.5573652
  76.3598209 132.9357401  95.9191137  76.3804964 132.2252717  97.2557838
  77.8341657 129.0821804  90.4283454  78.5365700 129.5342847  90.8957381
  77.5022285 128.4405622  91.0563347  71.5766991 127.3405356  95.7300588
  70.7866045 127.5962885  95.2540698  72.0678238 128.1553694  95.8352628
  85.5930800 134.6810595  98.4805869  86.4148244 134.2790783  98.1988550
  85.5893203 134.5778830  99.4321984  73.5281736 127.7049935  92.6884064
  72.7312899 127.8168630  93.2067560  73.3007328 128.0436588  91.8224955
  79.3587404 134.2294639 100.6366579  79.4231836 134.6915046 101.4724751
  78.6498328 133.5992004 100.7648889  69.8604694 127.5935847  98.1615579
  70.1112732 128.4782857  98.4273155  70.3964242 127.4140448  97.3890670
  93.6836793 131.0249344  94.8290840  92.9300502 130.4556742  94.6734845
  93.8184335 130.9912008  95.7761475  79.0735421 135.8962746  90.5045559
  78.9381096 136.7414282  90.9330407  79.6145234 136.0982024  89.7411493
  72.5264819 133.4138184  91.0773485  73.0389339 134.2081434  91.2279049
  73.1787532 132.7164475  91.0107086  74.3359703 136.5303940  93.1596238
  74.5126332 137.4521905  92.9717222  75.1316537 136.2162360  93.5890618
  73.6212060 128.5768572 103.0358401  73.5065575 127.6753830 103.3365500
  72.7656578 128.8232269 102.6843217  80.7003898 136.5186313 104.6345902
  80.2567752 135.7322691 104.3166806  81.3621111 136.7065463 103.9689792
  75.4591019 138.0482114  99.1606580  76.0098444 137.9199178  98.3883574
  74.6202495 138.3477003  98.8101473  82.7985136 136.7989113 102.6627303
  82.7803611 137.6197994 102.1707572  83.7205056 136.6743188 102.8877444
  79.2558190 134.3133242 103.5050811  79.7886527 133.5521530 103.2750119
  78.7272271 134.0206894 104.2474966  70.4913736 131.7426838  91.8533055
  71.3288958 132.1523847  91.6366763  70.6692003 130.8026281  91.8233249
  82.3878168 129.4101919  87.5416888  81.8724791 130.1806524  87.7805275
  82.1155476 128.7367055  88.1649949  79.9725279 124.2551620  92.6002126
  79.1166875 123.8658470  92.4207765  80.3852230 124.3343581  91.7401912
  87.3612442 132.1634274  89.4770062  86.5841885 131.8245433  89.0325224
  88.0403923 132.1686897  88.8025027  82.1764471 127.2829011  89.3676669
  81.8714606 127.5975160  90.2186812  83.1294913 127.3610431  89.4104002
  80.6210903 133.4419235  91.0169623  80.0932264 132.7071994  90.7042861
  80.1198405 134.2193911  90.7709592  85.6003749 131.6368255  96.1336669
  84.9427423 132.3267516  96.2216798  86.4044148 132.0264687  96.4770656
  84.4109208 129.9912628  94.1840611  84.9241089 130.6242620  94.6862321
  85.0610431 129.3913823  93.8183971  75.6799217 126.1343362  87.3972120
  74.8436530 126.4718048  87.7181395  75.5403987 125.9992342  86.4599257
  78.7663503 131.2599445  84.0204596  77.8590565 131.0288698  84.2195745
  79.2634535 130.4637064  84.2078578  81.6731582 139.9696952  86.9401282
  80.9993281 140.2728649  87.5486240  82.0597404 140.7726032  86.5906739
  80.8890038 127.4662083  96.4298952  79.9712600 127.6877030  96.2720640
  81.3050182 127.5408394  95.5710659  81.6725086 128.8653499  91.5601632
  82.4196905 129.3774896  91.2508754  81.9416676 128.5437552  92.4206026
  79.9451736 131.3612040  88.5428586  79.0362956 131.0771072  88.6401056
  79.9746820 131.7811118  87.6831893  85.1771004 134.9718629  92.3119754
  84.7233331 134.1309539  92.3684944  84.5464970 135.6080028  92.6494534
  83.6203943 136.8095126  93.2469572  83.9126917 137.3700183  92.5281938
  84.1302564 137.1023687  94.0022731  70.5139907 129.0817554  92.5243789
  70.3164307 128.4886915  91.7994855  69.9586571 128.7769764  93.2419727
  78.4936630 128.9740660  94.6438382  78.5485240 128.0214497  94.5680858
  77.6827832 129.1300099  95.1279680  79.6427824 132.9020783  85.8816665
  79.2047254 132.1856642  85.4222302  80.3838265 133.1296898  85.3201756
  76.4328990 127.5917720  92.4028761  75.6196856 127.8911891  92.8093953
  76.9287984 127.1973409  93.1203243  78.5837568 137.5875477  94.3363025
  78.5413747 137.8136323  93.4071557  79.5000267 137.3538852  94.4848826
  87.7600939 131.1777980  91.9392983  87.6218837 131.3679576  91.0114173
  87.4037158 131.9397363  92.3961035  87.7870318 133.2454507  96.9504255
  88.2206825 133.1529796  97.7987309  88.5001899 133.2212008  96.3124271
  76.7003369 134.4638506  94.1324988  77.4943967 133.9688826  93.9307563
  75.9895061 133.9356369  93.7692694  81.5198213 136.8456602  98.4837356
  81.5735236 137.4147538  99.2515071  80.6512995 137.0158487  98.1191393
  73.0086132 128.6081588  90.2084741  72.0783720 128.5466043  90.4254703
  73.1043604 128.0857540  89.4121382  88.6485868 133.2878208  99.4837140
  88.8421758 134.1924019  99.7296415  88.5486486 132.8285627 100.3175725
  83.7100977 133.4384951 105.0578021  83.5586483 133.2095502 104.1408105
  83.7005656 134.3955552 105.0709366  80.4786313 131.0116864 100.0424287
  81.4078373 131.1628023  99.8693255  80.0577343 131.1000884  99.1872934
  79.2774645 135.0367528  97.8122825  79.1385731 134.6686312  98.6848763
  78.4889241 135.5515167  97.6406783  79.8722797 140.1376624  89.1548362
  80.0474553 139.6664668  89.9693984  79.1855585 140.7642391  89.3829622
  80.8279860 134.4149131  95.2011663  80.4929693 134.3749901  96.0969313
  80.3283806 133.7493847  94.7282073  74.8024104 129.8216761 100.7264244
  74.6643902 129.0897000 101.3275783  75.7129028 129.7325661 100.4448432
  83.7639052 131.7605165  85.4748722  83.1468222 131.0351993  85.3781775
  83.2955540 132.5214525  85.1315797  77.4306405 129.5336720 100.2147924
  78.1406023 128.8929912 100.1734542  77.3875713 129.7849615 101.1374104
  85.4193183 136.4704073 103.1354503  85.3605730 135.7863293 102.4685086
  85.8212702 137.2123063 102.6835129  75.5537598 125.9790589  84.5970027
  74.6767064 125.8579390  84.2332273  76.0295351 125.1876668  84.3448915
  85.4210591 134.4343657 101.3668483  84.5337369 134.0969579 101.4894881
  85.9909142 133.7026689 101.6037248  67.0739738 130.7667749  94.6911534
  67.7610778 130.4529479  94.1032549  66.9187866 131.6709114  94.4178785
  78.9511744 139.0945110  98.3329726  78.8781916 139.9000081  98.8449030
  78.5089137 139.2937075  97.5077747  78.7401524 138.3316880  91.8432547
  77.9569046 138.8738560  91.9370772  79.4394269 138.8490859  92.2426788
  89.9027931 129.8451875  96.1285044  89.8917807 130.7276590  95.7578977
  89.0345311 129.4923425  95.9339581  81.4110428 138.9931944 100.4887884
  82.1238400 139.6279408 100.4163786  80.9200456 139.0895810  99.6727886
  83.1327954 132.8983196  92.0605176  82.1984233 133.0184659  91.8909880
  83.3104623 131.9955663  91.7965186  78.6333143 126.2828892  94.2138437
  78.2630930 125.7299932  94.9019343  79.1292235 125.6787026  93.6613437
  86.5200506 128.7400516  92.5955210  86.9860958 129.5728507  92.5215513
  86.9708006 128.2745497  93.3000469  76.4622341 136.7426387 101.3093455
  77.1631801 137.3762870 101.4622849  75.9917456 137.0841119 100.5489094
  84.5876737 135.0844337  89.5941362  84.8636581 134.9700931  90.5035236
  83.7181236 134.6861822  89.5553535  81.2230801 139.3330688  93.2374176
  81.4053195 138.5152344  93.7001928  82.0463787 139.5498380  92.7999066
  81.5572966 138.2598873  90.4989224  82.0860733 137.7491327  89.8859386
  81.8201186 137.9441403  91.3634757  80.3111200 130.0390806 105.6212043
  79.6351837 129.9384935 106.2914418  81.1338834 129.8830019 106.0848040
  72.0590059 136.2762742  98.2424558  72.6443496 135.5306430  98.3752462
  71.8614898 136.5866699  99.1261222  74.9128714 139.3113990  93.2587000
  74.2439090 139.7960117  92.7751040  74.7741584 139.5583210  94.1730379
  66.6507714 128.8468342  96.9629001  66.6891813 128.3131933  97.7566119
  66.1448007 128.3203548  96.3439978  79.0533983 141.3457733  99.8569659
  79.6052291 141.5089355 100.6218744  79.3940176 141.9362171  99.1849683
  73.5050749 125.7656015 104.1064578  74.1322788 125.3833093 104.7202102
  72.6478668 125.5470217 104.4720270  83.9044857 136.1718991 105.7118313
  84.4484761 136.7848949 105.2173268  83.3231702 136.7298569 106.2285326
  70.2816291 127.5732445  90.0382932  70.5769733 126.6643123  89.9849986
  69.3804327 127.5520184  89.7163935  82.1902370 139.2939709  96.8433341
  82.0653510 138.4929448  96.3344286  82.8481461 139.7885902  96.3547311
  84.2537279 137.0948729  98.4712891  83.3067614 136.9754080  98.3991218
  84.6020052 136.2071227  98.5539152  72.0104133 125.2546542  90.1622258
  71.6816839 124.3743921  89.9797363  72.3643504 125.1994211  91.0498647
  81.2583712 136.8901445  94.6717243  81.1108674 135.9618152  94.8524813
  82.0837205 136.9121536  94.1874318  84.8617834 137.7130004  95.7582116
  85.7864381 137.5072865  95.6206567  84.6933137 137.4646405  96.6671457
  81.2545226 124.7439283  89.6649360  81.4708841 125.6263920  89.3638188
  80.7739293 124.3525496  88.9355002  75.9944448 127.7024996  96.2420105
  75.8489028 128.0165299  97.1344386  75.5169651 128.3209896  95.6891004
  84.6513150 138.2315671  91.1144207  84.8250028 137.6662094  90.3618060
  85.1442041 139.0316566  90.9323697  70.4690110 130.2430340  99.1807766
  69.9243578 131.0190148  99.3128040  71.3469460 130.5901145  99.0226888
  90.5052541 130.9952094  92.7334507  90.9483687 130.2459419  92.3353630
  89.6279051 130.9862230  92.3508239  85.6388322 137.5482436  88.2141106
  86.3339227 138.1689128  88.4328420  85.9811473 136.6977787  88.4893483
  71.2556132 129.3700236 102.0737923  70.5137868 129.5182872 102.6602553
  70.9348876 129.6308502 101.2104672  87.5379746 134.9982141  89.7428436
  88.0631070 135.3369414  89.0177756  87.4502098 134.0629156  89.5591571
  79.1999794 138.9116215 101.8718313  79.5086921 138.6665361 102.7441013
  79.9975276 139.1162853 101.3837183  79.2220406 141.0654124  94.1023690
  78.7825397 140.5730503  94.7956546  79.9728523 140.5227092  93.8615765
  71.7012745 137.2565665  94.1048318  72.5270765 136.9569437  93.7246961
  71.3506797 136.4873288  94.5538106  76.6694278 136.6092133  96.1745991
  76.0474288 135.9462838  95.8748219  77.3399145 136.6353265  95.4919639
  69.9021350 135.1751992  95.0637251  69.0653259 134.7474166  94.8821252
  69.8744996 135.3684435  96.0008042  87.2273652 135.6315045 105.0479634
  86.4369195 135.6139184 104.5084134  86.9907006 136.1703338 105.8028671
  87.3471527 132.4807511 102.3612363  87.3969532 132.3157518 103.3027886
  87.2385450 131.6134770 101.9710244  76.2307785 135.1596057  89.6504452
  76.3795906 135.8431521  88.9971124  77.0374229 135.1401147  90.1653907
  84.6375289 128.4638439 103.6771670  85.5385152 128.3244904 103.3855667
  84.7123264 128.6292894 104.6169847  88.8489724 134.9004453 102.6054384
  88.5574532 135.2634433 103.4417845  88.2361855 134.1871461 102.4267716
  90.0485406 132.4657332  95.1256955  90.8832297 132.9047136  95.2894515
  90.1844535 131.9895986  94.3065200  87.0976912 130.0237067 101.0734442
  87.5731033 130.2164713 100.2653294  86.1742477 130.0796253 100.8277826
  73.9860418 131.1861234  90.6565521  73.7406460 130.2823564  90.8545731
  74.1556333 131.1878385  89.7144999  73.2556066 126.9189592  88.1551682
  72.5625311 126.9933947  87.4991718  73.0107818 126.1549936  88.6773199
  79.7303191 137.6544187  87.1216199  79.1577158 138.2734374  86.6686671
  80.3035985 138.2043549  87.6556121  82.9500451 137.9381337  88.2524781
  83.8831124 137.8726899  88.4557657  82.8623664 138.7737604  87.7939314
  85.5788467 137.2547208  85.2128729  85.5002099 136.9207071  86.1064487
  86.3998134 137.7468976  85.2120201  88.2766659 130.1208947  98.4205048
  88.2442979 129.1824948  98.6064731  88.8867282 130.1992984  97.6870873
  80.1149989 128.9905000  84.4632252  81.0609094 128.8611208  84.5320670
  79.7364234 128.2519662  84.9401680  88.4261147 126.9119990  98.4663331
  87.9100196 126.1278447  98.2793260  89.3101096 126.5838707  98.6309850
  94.0943208 131.1824954  97.5611084  94.8246597 130.9210242  98.1218788
  93.4850154 130.4453676  97.6013152  92.1758506 129.3232816  98.1585536
  91.4491669 129.1888781  97.5502027  91.7605792 129.6309645  98.9642254
  79.9988682 133.0422746 105.9232909  80.9191691 133.2201345 106.1172955
  79.9638265 132.0978791 105.7712608  78.2992907 126.9154976  84.3987137
  77.3924362 126.6188089  84.4749850  78.5768888 126.6184794  83.5321423
  69.2170847 128.2361340  94.8486183  68.8973631 127.3826648  94.5560557
  68.6704275 128.4509918  95.6044151  72.9950755 130.9523781  98.5655690
  73.2136764 131.8840889  98.5843724  73.4076528 130.5931755  99.3510494
  77.0691691 123.7741912  84.5399116  77.9310855 124.0996810  84.7994933
  77.2542035 122.9873407  84.0272182  69.0859107 131.8564251  96.8179305
  68.3922578 131.4418204  96.3049259  69.8332098 131.8984788  96.2212724
  85.2224328 122.6470438  91.6834339  84.6422997 123.3055242  91.3012391
  84.9560260 121.8247783  91.2721757  70.9995849 131.7882505  94.6945320
  70.9766538 131.8870192  93.7427203  71.3096486 132.6347656  95.0162486
  73.6583227 133.8458660  98.8091934  74.6126481 133.8142602  98.7421866
  73.4595751 133.3849284  99.6242160  74.2482609 132.4159776 101.3762732
  75.0675498 132.9103855 101.3997569  74.5219417 131.4991744 101.3480299
  84.0049206 124.8070528  90.7390687  83.1175061 125.0920179  90.5210882
  84.4203195 124.6464292  89.8917964  87.3563742 124.8317049  94.4545027
  88.1324132 125.3213502  94.7269643  86.6311876 125.2575104  94.9116896
  89.7936300 125.5444669  95.5118967  90.3880791 125.3040405  94.8012275
  89.8662884 124.8251799  96.1392504  72.0133456 139.3878280  95.8262132
  71.8787924 138.6278680  95.2600130  71.5965518 140.1119179  95.3590921
  83.1492419 134.5715203  84.8338707  83.8528269 134.7765206  85.4496363
  82.4255068 135.1391965  85.0987791  83.9790229 130.3225064  90.9540977
  83.9225431 130.7793616  90.1148610  84.5318572 129.5615749  90.7763820
  87.7895035 126.1114796  91.7791097  87.5331970 125.7111432  92.6099305
  87.1647903 126.8258590  91.6541236  92.1007373 128.8510869  94.2862388
  91.5406931 128.9204059  95.0593950  91.4950877 128.6751854  93.5661885
  75.1702582 140.2847597  96.0380575  75.0534966 141.2293029  95.9359265
  74.3495028 139.9821158  96.4266374  85.0579117 135.0097732  86.8837167
  85.8924720 134.5778931  86.7014642  84.8963459 134.8379746  87.8114062
  84.7125009 131.5129846  88.2493507  84.6573813 131.3474117  87.3081951
  84.0871064 132.2205878  88.4055696  69.5017524 126.7497910 102.0754929
  70.1476387 126.2396864 102.5642154  69.2934675 127.4866592 102.6498354
  82.0270916 133.8178757 107.5747069  82.8962076 133.9919410 107.2133704
  81.5477667 134.6373174 107.4522799  76.1957096 140.9375858  99.2536503
  77.0984343 140.9699469  99.5702998  75.9694466 140.0076309  99.2682839
  77.9510698 139.6906845  95.9146582  77.0006329 139.6908707  95.8010954
  78.2543184 138.9439580  95.3982616  73.8415015 123.8965527 106.1729943
  74.7046476 123.5402332 106.3833268  73.2680425 123.5579422 106.8605347
  93.6863392 145.5267383  96.9792344  94.3241802 145.4074131  96.2755684
  93.5684235 146.4748227  97.0380296  90.4953098 145.4794811  96.9153869
  90.1571609 145.3635876  96.0274404  91.3642866 145.0785977  96.8954875
  86.3539914 147.3330288  92.9050760  85.7904779 147.2420225  92.1367048
  86.2392309 146.5130192  93.3853252  88.6236349 146.7943624  98.4120618
  89.2199921 146.5699646  97.6977581  88.6811320 146.0528369  99.0146066
  88.1961377 144.2483059  86.2470809  88.4486898 143.7264580  85.4854272
  87.2585936 144.0849204  86.3497493  93.2404660 143.2518837  94.0545552
  94.0267749 142.8338260  93.7035969  93.5043364 144.1564929  94.2227201
  98.6413087 143.1894070  94.9578531  99.3738259 142.6193287  95.1916360
  97.8852443 142.8015671  95.3985036  87.9157666 146.1511165  88.4495184
  87.7993924 145.4756068  89.1176268  88.0259926 145.6643539  87.6327337
  90.2589207 145.6121312  92.1541873  89.8947414 145.0851933  92.8654795
  91.1156323 145.2219781  91.9808359  96.1638508 136.9015645  99.4173139
  95.8321832 137.7711055  99.1934354  95.5684121 136.5851929 100.0967170
  89.8994694 140.6411212  87.1503222  90.0669096 141.5091448  87.5173693
  89.7091863 140.8038493  86.2264511  86.1082509 145.5541987  94.8505756
  85.1833005 145.4218201  95.0583448  86.3566922 146.3336207  95.3475699
  96.0567171 141.6210731  96.4966489  95.1484048 141.5526139  96.2025250
  96.0054767 142.0982676  97.3248315  89.8783915 143.0968869  88.1349888
  89.7583540 143.5425920  88.9735369  89.1836503 143.4454187  87.5763427
  83.4691320 145.1975261  95.6849546  83.5983701 145.4509740  96.5988957
  82.7888771 145.7902969  95.3654201  97.9228817 139.8227169  98.2744363
  97.2803198 140.1159702  97.6284158  97.4183746 139.7080089  99.0797560
  95.5768981 143.5690342  88.9630223  96.4886837 143.8017729  88.7877920
  95.0678628 144.1527386  88.4005301  90.2140819 142.9287577  99.9725072
  91.0602014 143.3526990 100.1159721  90.1539456 142.2721201 100.6663635
  92.9204956 139.7448378  97.2120083  92.0589435 140.0429632  97.5036821
  92.9467390 139.9618777  96.2801116  89.7366525 148.2890569  93.6193889
  90.2004871 148.5678272  92.8298512  89.4723323 147.3874013  93.4366980
  88.6735411 144.4113721  90.4283454  89.3759455 144.8634765  90.8957381
  88.3416040 143.7697540  91.0563347  82.4160745 142.6697274  95.7300588
  81.6259799 142.9254802  95.2540698  82.9071993 143.4845612  95.8352628
  84.3675491 143.0341853  92.6884064  83.5706654 143.1460547  93.2067560
  84.1401083 143.3728505  91.8224955  80.6998448 142.9227764  98.1615579
  80.9506487 143.8074774  98.4273155  81.2357997 142.7432366  97.3890670
  84.4605815 143.9060490 103.0358401  84.3459330 143.0045747 103.3365500
  83.6050332 144.1524187 102.6843217  93.2621639 134.7485226  99.0344453
  92.9185909 135.6386867  98.9583564  93.6300602 134.5586883  98.1714038
  93.2271922 144.7393837  87.5416888  92.7118546 145.5098441  87.7805275
  92.9549231 144.0658973  88.1649949  90.8119033 139.5843538  92.6002126
  89.9560630 139.1950388  92.4207765  91.2245985 139.6635498  91.7401912
  92.3418180 137.1189881  96.9993686  91.8382975 137.0820016  96.1861491
  92.6348787 138.0282624  97.0590343  88.5861066 137.2028611  96.0059868
  89.4514062 137.0071419  95.6465757  88.6538575 136.9738962  96.9329225
  93.0158225 142.6120929  89.3676669  92.7108361 142.9267078  90.2186812
  93.9688667 142.6902349  89.4104002  86.1923385 139.4330819  93.3776235
  86.7667137 139.2106000  92.6449428  86.7794367 139.5019513  94.1304836
  95.2502962 145.3204545  94.1840611  95.7634844 145.9534537  94.6862321
  95.9004186 144.7205741  93.8183971  86.5192972 141.4635280  87.3972120
  85.6830284 141.8009966  87.7181395  86.3797742 141.3284259  86.4599257
  88.4946053 136.3072067  92.1051304  87.8410465 135.9921085  91.4807919
  88.4526527 135.6847808  92.8311127  89.6057257 146.5891362  84.0204596
  88.6984319 146.3580616  84.2195745  90.1028289 145.7928982  84.2078578
  91.7283793 142.7954001  96.4298952  90.8106354 143.0168948  96.2720640
  92.1443936 142.8700311  95.5710659  92.5118841 144.1945417  91.5601632
  93.2590660 144.7066814  91.2508754  92.7810430 143.8729469  92.4206026
  90.7845491 146.6903957  88.5428586  89.8756710 146.4062990  88.6401056
  90.8140575 147.1103036  87.6831893  94.9597678 141.2302533  93.5420421
  94.2220435 140.7179919  93.8730664  95.2124451 140.7902914  92.7303698
  95.0609305 134.0078785  94.1362191  95.3668182 133.1476148  93.8488106
  95.7861910 134.5996405  93.9361185  81.3533661 144.4109471  92.5243789
  81.1558061 143.8178832  91.7994855  80.7980325 144.1061682  93.2419727
  89.3330385 144.3032578  94.6438382  89.3878995 143.3506414  94.5680858
  88.5221587 144.4592017  95.1279680  90.4821579 148.2312701  85.8816665
  90.0441009 147.5148560  85.4222302  91.2232019 148.4588816  85.3201756
  87.2722745 142.9209638  92.4028761  86.4590610 143.2203808  92.8093953
  87.7681739 142.5265326  93.1203243  86.7636820 140.4927993  98.0189995
  87.4036199 140.3516752  97.3212959  85.9314350 140.2062507  97.6428597
  83.8479887 143.9373505  90.2084741  82.9177475 143.8757961  90.4254703
  83.9437359 143.4149458  89.4121382  83.7665436 140.4628318  92.7962982
  84.0272253 141.3773651  92.6872143  84.5882608 139.9952761  92.9459595
  85.2390361 141.8766075  99.9661807  85.9113415 141.6683438  99.3174456
  84.4120148 141.6788161  99.5267039  91.1415933 138.5028016 101.9827468
  90.4943848 139.2017966 101.8891944  91.9116949 138.9364160 102.3503716
  85.6417859 145.1508678 100.7264244  85.5037656 144.4188917 101.3275783
  86.5522782 145.0617578 100.4448432  94.6032806 147.0897083  85.4748722
  93.9861977 146.3643911  85.3781775  94.1349295 147.8506443  85.1315797
  88.2700159 144.8628638 100.2147924  88.9799778 144.2221830 100.1734542
  88.2269467 145.1141533 101.1374104  86.9829093 141.8493856 102.0343563
  86.4466450 141.3984594 102.6865159  86.3945802 141.9839764 101.2914027
  86.3931352 141.3082507  84.5970027  85.5160818 141.1871308  84.2332273
  86.8689105 140.5168585  84.3448915  82.7168214 140.9849863  99.1196558
  82.6326403 140.3775533  98.3846968  81.8950921 141.4758882  99.1206054
  92.8891928 139.4703427  94.4866753  93.3860628 138.7173389  94.1667823
  92.1178910 139.5067743  93.9209962  93.9721709 148.2275114  92.0605176
  93.0377988 148.3476576  91.8909880  94.1498377 147.3247581  91.7965186
  89.4726897 141.6120810  94.2138437  89.1024685 141.0591850  94.9019343
  89.9685989 141.0078943  93.6613437  97.3594260 144.0692433  92.5955210
  97.8254713 144.9020425  92.5215513  97.8101761 143.6037415  93.3000469
  95.3310923 136.4373020  96.6346112  94.4174003 136.6677247  96.8028318
  95.7604025 136.5211464  97.4860144  77.4901468 144.1760260  96.9629001
  77.5285568 143.6423851  97.7566119  76.9841761 143.6495466  96.3439978
  84.8692231 139.0224801 100.4591543  84.9333557 139.8839631 100.0468941
  84.8059351 138.4098802  99.7263902  84.3444503 141.0947933 104.1064578
  84.9716542 140.7125010 104.7202102  83.4872422 140.8762135 104.4720270
  81.1210046 142.9024362  90.0382932  81.4163487 141.9935041  89.9849986
  80.2198082 142.8812102  89.7163935  84.6504293 140.9780359  96.0210481
  83.9290879 141.5916326  95.8817954  85.4397549 141.5138124  95.9427127
  87.4530606 138.3134785 102.2951133  87.9765008 138.5597082 103.0577442
  87.2342940 139.1454820 101.8754270  82.8497888 140.5838460  90.1622258
  82.5210594 139.7035839  89.9797363  83.2037258 140.5286129  91.0498647
  85.9639711 140.8711430  90.5297735  86.3035783 141.3997351  89.8076344
  86.4111831 141.2091836  91.3056302  88.6583152 139.2548480  99.9800803
  88.3179972 138.4556293 100.3821483  87.9522158 139.5550191  99.4077636
  89.3099623 136.3397793  98.4328126  90.1325693 135.8658271  98.3107017
  89.5537687 137.1188277  98.9326813  87.9507858 139.3686051  88.7291028
  88.6716220 139.7467304  88.2254745  87.3273162 140.0874928  88.8326006
  92.0938981 140.0731200  89.6649360  92.3102595 140.9555838  89.3638188
  91.6133048 139.6817414  88.9355002  86.8338202 143.0316913  96.2420105
  86.6882783 143.3457217  97.1344386  86.3563406 143.6501814  95.6891004
  88.6934585 140.0219461  96.2900994  88.6796154 139.1260555  95.9533292
  89.4107013 140.0290125  96.9239281  90.5460716 140.4556802  98.3354122
  90.2878494 141.3773872  98.3338452  90.0145756 140.0587236  99.0254586
  88.0971481 138.9033842  91.5588565  88.2187392 137.9750488  91.7579452
  87.8073523 138.9172528  90.6466880  90.9662671 136.5888752  94.6955284
  90.9884368 136.6528085  93.7407264  91.3830730 135.7493261  94.8895791
  82.0949886 144.6992154 102.0737923  81.3531622 144.8474789 102.6602553
  81.7742630 144.9600420 101.2104672  84.8254173 146.5153152  90.6565521
  84.5800215 145.6115482  90.8545731  84.9950087 146.5170302  89.7144999
  92.5150883 137.3876828 100.0390276  93.0332827 138.1237855  99.7136765
  92.1606016 137.6940822 100.8737035  84.0949820 142.2481510  88.1551682
  83.4019065 142.3225865  87.4991718  83.8501572 141.4841853  88.6773199
  92.7663477 133.8077111  95.5591173  93.0465231 133.1400300  96.1851599
  93.5514084 134.0006207  95.0465837  94.6586715 139.3150328  99.4922149
  94.0636647 139.5955341  98.7968638  94.3736411 139.8044229 100.2638890
  90.9543744 144.3196918  84.4632252  91.9002849 144.1903126  84.5320670
  90.5757989 143.5811580  84.9401680  96.9265628 135.9852924  94.4259143
  96.7290450 135.6768012  95.3102475  97.5365334 136.7114563  94.5557073
  89.1386661 142.2446894  84.3987137  88.2318116 141.9480007  84.4749850
  89.4162642 141.9476712  83.5321423  80.0564601 143.5653257  94.8486183
  79.7367386 142.7118566  94.5560557  79.5098030 143.7801836  95.6044151
  90.7548727 136.7883784  90.5531378  89.9449455 136.4430869  90.9286624
  91.4433144 136.4791327  91.1418990  92.6839275 135.8661831  92.1755675
  93.2370314 136.2857284  92.8345698  92.9209361 134.9397579  92.2178631
  87.9085446 139.1033829  84.5399116  88.7704610 139.4288728  84.7994933
  88.0935790 138.3165325  84.0272182  96.0618082 137.9762356  91.6834339
  95.4816751 138.6347160  91.3012391  95.7954015 137.1539700  91.2721757
  94.5121649 137.3767413  93.8855659  95.0121427 137.4883948  93.0769978
  95.1557256 137.0728466  94.5256468  94.8442960 140.1362446  90.7390687
  93.9568815 140.4212097  90.5210882  95.2596949 139.9756209  89.8917964
  98.1957496 140.1608967  94.4545027  98.9717886 140.6505419  94.7269643
  97.4705630 140.5867021  94.9116896 100.6330055 140.8736586  95.5118967
 101.2274546 140.6332322  94.8012275 100.7056639 140.1543717  96.1392504
  94.8183984 145.6516982  90.9540977  94.7619185 146.1085533  90.1148610
  95.3712326 144.8907667  90.7763820  98.6288790 141.4406714  91.7791097
  98.3725724 141.0403350  92.6099305  98.0041658 142.1550508  91.6541236
  95.5518763 146.8421763  88.2493507  95.4967567 146.6766035  87.3081951
  94.9264819 147.5497796  88.4055696  80.3411278 142.0789828 102.0754929
  80.9870142 141.5688782 102.5642154  80.1328429 142.8158509 102.6498354
  88.8614889 136.3429872  87.8278825  88.8493559 137.2871712  87.9847096
  89.7538311 136.1600018  87.5338286  92.6767008 132.9372649  92.0824762
  91.9099404 132.3831136  92.2281444  93.0877713 133.0094518  92.9438914
  17.8107111  15.2286082  83.7037651  18.4485521  15.1092830  83.0000991
  17.6927954  16.1766926  83.7625603  14.6196818  15.1813510  83.6399175
  14.2815329  15.0654575  82.7519710  15.4886586  14.7804675  83.6200182
  10.4783633  17.0348987  79.6296066   9.9148499  16.9438924  78.8612354
  10.3636029  16.2148891  80.1098559  15.1016601  16.3348362  89.5985381
  15.0905242  15.9401160  88.7265885  15.2637240  15.6014435  90.1919152
   8.0248065  18.5300178  82.4680287   8.8169357  18.1891003  82.0526586
   8.2644716  18.6395153  83.3882440  16.0583192  20.7019954  74.9410531
  15.4071172  21.2874035  74.5544545  16.8527555  21.2326149  75.0005569
   9.9838819  17.7909092  75.3397666  10.7569695  17.2438079  75.2010541
  10.3364218  18.6553341  75.5512127  11.8223862  19.1185474  88.5464565
  11.5313728  20.0231105  88.4311231  12.4580846  19.1602001  89.2608635
  12.7480069  16.4962322  85.1365925  13.3443641  16.2718345  84.4222888
  12.8055040  15.7547068  85.7391372  12.3205097  13.9501758  72.9716116
  12.5730618  13.4283279  72.2099579  11.3829656  13.7867903  73.0742799
  17.3648380  12.9537536  80.7790859  18.1511469  12.5356959  80.4281276
  17.6287084  13.8583628  80.9472507  17.5358457  18.3910386  75.4779516
  16.9004290  18.4645013  76.1900420  17.2055864  18.9803985  74.7998595
  22.7656807  12.8912769  81.6823837  23.4981979  12.3211986  81.9161667
  22.0096163  12.5034370  82.1230343  12.0401386  15.8529864  75.1740491
  11.9237644  15.1774767  75.8421575  12.1503646  15.3662238  74.3572644
  14.3832927  15.3140011  78.8787180  14.0191134  14.7870632  79.5900101
  15.2400043  14.9238480  78.7053665  16.7813747  18.8046889  85.5414359
  16.4814470  19.7071928  85.4330166  16.4364806  18.5379073  86.3935512
  10.2326228  15.2560686  81.5751063   9.3076725  15.1236900  81.7828755
  10.4810642  16.0354905  82.0721005  20.1810891  11.3229430  83.2211796
  19.2727768  11.2544838  82.9270557  20.1298487  11.8001374  84.0493621
  14.0027635  12.7987568  74.8595195  13.8827260  13.2444619  75.6980675
  13.3080223  13.1472886  74.3008733  11.7634527  25.5691210  78.5085326
  11.6858556  26.5199035  78.5873807  11.1596170  25.2237082  79.1660253
  14.2551757  12.7419075  91.1646693  13.4785091  13.3012995  91.1549558
  14.8942320  13.2275858  91.6861563  22.0472537   9.5245868  84.9989670
  21.4046917   9.8178401  84.3529464  21.5427466   9.4098788  85.8042867
  19.7012701  13.2709041  75.6875529  20.6130557  13.5036428  75.5123227
  19.1922348  13.8546085  75.1250608  12.5098129  15.5504529  90.7264660
  13.2512813  16.0889572  90.4499484  11.8035114  16.1770817  90.8836212
  17.9853468  17.6933669  89.3236822  18.3936825  17.2516080  88.5791454
  17.2630730  17.1186296  89.5771015  14.3384539  12.6306276  86.6970379
  15.1845734  13.0545689  86.8405028  14.2783176  11.9739900  87.3908942
  18.3082283  18.2534860  83.0789111  17.6791146  18.4180574  82.3765178
  17.9207945  18.6676469  83.8500075  22.1871515  19.1889297  80.4333474
  21.5022553  19.5688199  79.8830508  22.2715364  19.7984624  81.1665422
  17.4883984  10.2910644  88.3551552  17.2444916  11.0452705  87.8185828
  17.7643914  10.6695992  89.1898799  19.4422447  16.8349256  87.0328818
  19.6539342  17.4781016  86.3563199  19.3952195  16.0011573  86.5650748
  17.0448676   9.4467077  83.9365390  16.1833155   9.7448331  84.2282128
  17.0711110   9.6637476  83.0046423  13.8610245  17.9909268  80.3439196
  14.3248591  18.2696971  79.5543818  13.5967043  17.0892712  80.1612286
  10.7534326  17.5380749  83.2818959  11.3235683  17.9668018  82.6436443
  11.3442438  17.2563334  83.9803145  12.7979131  14.1132420  77.1528761
  13.5003174  14.5653464  77.6202687  12.4659760  13.4716239  77.7808654
  20.5568275  19.7121212  85.2051175  21.3785718  19.3101399  84.9233857
  20.5530677  19.6089446  86.1567291  14.3224878  19.2605255  87.3611886
  14.3869311  19.7225662  88.1970058  13.6135802  18.6302620  87.4894196
  28.6474268  16.0559960  81.5536147  27.8937976  15.4867358  81.3980151
  28.7821809  16.0222625  82.5006781  14.0372896  20.9273363  77.2290866
  13.9018570  21.7724898  77.6575714  14.5782708  21.1292640  76.4656800
   7.4902293  18.4448801  77.8018791   8.0026814  19.2392051  77.9524356
   8.1425006  17.7475091  77.7352393   9.2997178  21.5614557  79.8841544
   9.4763806  22.4832522  79.6962528  10.0954011  21.2472976  80.3135924
  15.6641372  21.5496929  91.3591208  15.2205226  20.7633308  91.0412113
  16.3258586  21.7376080  90.6935099  10.4228493  23.0792731  85.8851887
  10.9735918  22.9509794  85.1128881   9.5839969  23.3787620  85.5346779
  17.7622610  21.8299729  89.3872609  17.7441085  22.6508610  88.8952879
  18.6842530  21.7053804  89.6122751  14.2195664  19.3443859  90.2296118
  14.7524001  18.5832147  89.9995426  13.6909745  19.0517510  90.9720272
  17.3515642  14.4412536  74.2662195  16.8362265  15.2117140  74.5050582
  17.0792950  13.7677672  74.8895256  22.3249916  17.1944890  76.2015368
  21.5479359  16.8556050  75.7570530  23.0041397  17.1997513  75.5270333
  17.1401945  12.3139628  76.0921976  16.8352081  12.6285777  76.9432119
  18.0932387  12.3921048  76.1349309  15.5848377  18.4729851  77.7414930
  15.0569739  17.7382611  77.4288167  15.0835880  19.2504527  77.4954898
  20.5641223  16.6678872  82.8581976  19.9064897  17.3578133  82.9462105
  21.3681622  17.0575304  83.2015962  19.3746682  15.0223244  80.9085918
  19.8878564  15.6553236  81.4107628  20.0247906  14.4224440  80.5429278
  13.7300977  16.2910061  70.7449903  12.8228039  16.0599315  70.9441052
  14.2272009  15.4947681  70.9323884  16.6369056  25.0007569  73.6646589
  15.9630755  25.3039265  74.2731547  17.0234878  25.8036649  73.3152046
  15.8527513  12.4972700  83.1544258  14.9350074  12.7187647  82.9965946
  16.2687656  12.5719010  82.2955966  16.6362560  13.8964115  78.2846939
  17.3834379  14.4085513  77.9754061  16.9054150  13.5748168  79.1451332
  14.9089211  16.3922656  75.2673893  14.0000430  16.1081689  75.3646363
  14.9384294  16.8121735  74.4077200  20.1408478  20.0029246  79.0365061
  19.6870805  19.1620156  79.0930251  19.5102445  20.6390644  79.3739841
  19.0841398  10.9321232  80.2665728  18.3464154  10.4198618  80.5975971
  19.3368171  10.4921613  79.4549005  18.5841417  21.8405742  79.9714879
  18.8764392  22.4010800  79.2527244  19.0940038  22.1334303  80.7268038
  13.4574105  14.0051277  81.3683688  13.5122714  13.0525113  81.2926165
  12.6465307  14.1610716  81.8524987  14.6065298  17.9331400  72.6061972
  14.1684728  17.2167259  72.1467609  15.3475739  18.1607515  72.0447063
  13.5475042  22.6186093  81.0608332  13.5051221  22.8446940  80.1316864
  14.4637741  22.3849468  81.2094133  16.9940676  13.0870161  87.9588961
  17.3490064  13.3141634  88.8183427  17.6412807  13.4188538  87.3366216
  22.7238413  16.2088597  78.6638290  22.5856312  16.3990193  77.7359479
  22.3674632  16.9707980  79.1206341  22.7507793  18.2765124  83.6749562
  23.1844299  18.1840413  84.5232616  23.4639374  18.2522624  83.0369578
  11.6640843  19.4949123  80.8570295  12.4581442  18.9999443  80.6552870
  10.9532536  18.9666986  80.4938000  16.4835688  21.8767218  85.2082662
  16.5372710  22.4458154  85.9760378  15.6150469  22.0469103  84.8436699
  23.6123342  18.3188825  86.2082447  23.8059232  19.2234635  86.4541722
  23.5123961  17.8596244  87.0421032  18.6738451  18.4695567  91.7823328
  18.5223957  18.2406119  90.8653411  18.6643131  19.4266169  91.7954673
  15.4423787  16.0427480  86.7669594  16.3715847  16.1938640  86.5938561
  15.0214817  16.1311501  85.9118241  14.2412119  20.0678144  84.5368132
  14.1023205  19.6996929  85.4094070  13.4526715  20.5825784  84.3652089
  14.8360271  25.1687241  75.8793668  15.0112027  24.6975284  76.6939291
  14.1493059  25.7953007  76.1074929  15.7917334  19.4459747  81.9256969
  15.4567167  19.4060517  82.8214619  15.2921280  18.7804463  81.4527380
   9.7661578  14.8527377  87.4509551   9.6281376  14.1207616  88.0521090
  10.6766502  14.7636277  87.1693738  18.7276526  16.7915782  72.1994029
  18.1105697  16.0662610  72.1027082  18.2593014  17.5525142  71.8561103
  12.3943879  14.5647337  86.9393230  13.1043498  13.9240529  86.8979849
  12.3513187  14.8160231  87.8619411  20.3830658  21.5014690  89.8599809
  20.3243204  20.8173910  89.1930392  20.7850176  22.2433680  89.4080435
   9.4021356  28.3176604  82.6533528   9.6417955  28.9495128  83.3312547
   8.5590553  27.9664644  82.9398888  20.3848065  19.4654274  88.0913789
  19.4974844  19.1280196  88.2140188  20.9546616  18.7337305  88.3282555
  13.9149218  24.1255726  85.0575032  13.8419390  24.9310698  85.5694337
  13.4726611  24.3247692  84.2323054  13.7038998  23.3627496  78.5677854
  12.9206520  23.9049176  78.6616078  14.4031743  23.8801476  78.9672095
  24.8665405  14.8762491  82.8530351  24.8555282  15.7587207  82.4824284
  23.9982785  14.5234042  82.6584888  16.3747902  24.0242560  87.2133191
  17.0875874  24.6590025  87.1409092  15.8837931  24.1206426  86.3973193
  18.0965429  17.9293813  78.7850483  17.1621708  18.0495275  78.6155187
  18.2742097  17.0266280  78.5210493  21.4837980  13.7711132  79.3200517
  21.9498432  14.6039124  79.2460819  21.9345481  13.3056114  80.0245775
  11.4259815  21.7737004  88.0338762  12.1269275  22.4073487  88.1868156
  10.9554930  22.1151735  87.2734401  19.5514211  20.1154953  76.3186669
  19.8274055  20.0011548  77.2280543  18.6818710  19.7172438  76.2798842
  19.2261101  14.3281611  85.8591312  18.5732552  14.5757519  85.2043765
  19.6041481  13.5145749  85.5253789  16.1868275  24.3641304  79.9619482
  16.3690670  23.5462960  80.4247235  17.0101261  24.5808997  79.5244372
  16.5210441  23.2909489  77.2234531  17.0498207  22.7801944  76.6104693
  16.7838660  22.9752020  78.0880064  15.2748674  15.0701422  92.3457349
  14.5989311  14.9695551  93.0159724  16.0976308  14.9140636  92.8093346
   7.0227533  21.3073359  84.9669865   7.6080970  20.5617047  85.0997769
   6.8252372  21.6177315  85.8506528   9.8766189  24.3424606  79.9832307
   9.2076564  24.8270734  79.4996347   9.7379058  24.5893827  80.8975685
  14.0171457  26.3768350  86.5814965  14.5689765  26.5399971  87.3464050
  14.3577651  26.9672787  85.9094990  18.8682332  21.2029607  92.4363620
  19.4122236  21.8159565  91.9418574  18.2869176  21.7609186  92.9530633
  17.1539845  24.3250325  83.5678647  17.0290984  23.5240065  83.0589593
  17.8118936  24.8196519  83.0792617  19.2174753  22.1259345  85.1958198
  18.2705088  22.0064696  85.1236524  19.5657526  21.2381843  85.2784459
  16.2221186  21.9212061  81.3962550  16.0746149  20.9928769  81.5770120
  17.0474680  21.9432152  80.9119625  19.8255308  22.7440620  82.4827422
  20.7501856  22.5383482  82.3451874  19.6570611  22.4957021  83.3916764
  19.6150624  23.2626288  77.8389514  19.7887502  22.6972710  77.0863366
  20.1079516  24.0627183  77.6569004  25.4690015  16.0262711  79.4579814
  25.9121161  15.2770036  79.0598937  24.5916526  16.0172847  79.0753546
  20.6025797  22.5793052  74.9386412  21.2976701  23.1999745  75.1573727
  20.9448947  21.7288403  75.2138790  22.5017220  20.0292758  76.4673743
  23.0268544  20.3680030  75.7423063  22.4139572  19.0939773  76.2836878
  14.1637269  23.9426831  88.5963620  14.4724395  23.6975978  89.4686319
  14.9612751  24.1473470  88.1082490  14.1857881  26.0964741  80.8268996
  13.7462871  25.6041120  81.5201853  14.9365998  25.5537709  80.5861071
   6.6650220  22.2876282  80.8293624   7.4908240  21.9880054  80.4492268
   6.3144272  21.5183904  81.2783413  11.6331753  21.6402750  82.8991298
  11.0111762  20.9773455  82.5993526  12.3036620  21.6663882  82.2164946
   4.8658825  20.2062608  81.7882558   4.0290733  19.7784783  81.6066559
   4.8382470  20.3995052  82.7253349  22.1911126  20.6625661  91.7724941
  21.4006670  20.6449800  91.2329440  21.9544481  21.2013955  92.5273978
  22.3109001  17.5118128  89.0857669  22.3607006  17.3468135  90.0273192
  22.2022924  16.6445387  88.6955550  11.1945260  20.1906673  76.3749758
  11.3433380  20.8742138  75.7216431  12.0011703  20.1711763  76.8899214
  19.6012763  13.4949056  90.4016976  20.5022626  13.3555520  90.1100974
  19.6760738  13.6603510  91.3415154  23.8127198  19.9315069  89.3299691
  23.5212006  20.2945050  90.1663152  23.1999329  19.2182077  89.1513023
  25.0122880  17.4967949  81.8502261  25.8469772  17.9357753  82.0139822
  25.1482009  17.0206602  81.0310507  22.0614386  15.0547684  87.7979749
  22.5368508  15.2475330  86.9898600  21.1379951  15.1106870  87.5523133
   8.9497893  16.2171851  77.3810827   8.7043935  15.3134181  77.5791037
   9.1193807  16.2189001  76.4390305  14.6940665  22.6854804  73.8461506
  14.1214632  23.3044991  73.3931978  15.2673459  23.2354165  74.3801428
  20.7616055  11.9313444  86.0308055  21.7133478  12.0311541  86.0520279
  20.5919506  11.1391712  86.5406139  18.7830435   9.0169027  86.2167456
  18.1880367   9.2974040  85.5213944  18.4980131   9.5062928  86.9884197
  17.9137925  22.9691954  74.9770088  18.8468598  22.9037516  75.1802964
  17.8261138  23.8048221  74.5184621  20.5425942  22.2857824  71.9374036
  20.4639573  21.9517688  72.8309794  21.3635608  22.7779592  71.9365508
  23.2404133  15.1519564  85.1450354  23.2080453  14.2135564  85.3310038
  23.8504757  15.2303600  84.4116179  15.0787464  14.0215616  71.1877558
  16.0246568  13.8921825  71.2565976  14.7001709  13.2830278  71.6646986
  23.3898621  11.9430607  85.1908637  22.8737670  11.1589064  85.0038566
  24.2738570  11.6149324  85.3555157  29.0580683  16.2135570  84.2856391
  29.7884071  15.9520858  84.8464094  28.4487628  15.4764292  84.3258459
  27.1395980  14.3543433  84.8830842  26.4129143  14.2199398  84.2747334
  26.7243267  14.6620262  85.6887560  14.9626156  18.0733363  92.6478215
  15.8829166  18.2511962  92.8418262  14.9275739  17.1289408  92.4957915
   7.9588229  15.9834397  85.2900996   8.1774239  16.9151505  85.3089030
   8.3714003  15.6242372  86.0755800  20.1861802   7.6781055  78.4079646
  19.6060471   8.3365859  78.0257698  19.9197735   6.8558399  77.9967063
  12.6947364  14.9864742  93.4968807  12.2114446  15.7865102  93.7032696
  12.7808303  14.9972687  92.5436251   5.9633324  16.8193122  81.4190626
   5.9404012  16.9180809  80.4672509   6.2733960  17.6658272  81.7407793
   8.6220702  18.8769277  85.5337241   9.5763955  18.8453219  85.4667172
   8.4233225  18.4159900  86.3487467   9.2120084  17.4470393  88.1008038
  10.0312973  17.9414471  88.1242876   9.4856892  16.5302361  88.0725606
  18.9686680   9.8381145  77.4635994  18.0812535  10.1230796  77.2456189
  19.3840669   9.6774908  76.6163271  22.3201216   9.8627666  81.1790333
  23.0961606  10.3524118  81.4514950  21.5949350  10.2885720  81.6362203
  24.7573775  10.5755285  82.2364274  25.3518266  10.3351021  81.5257582
  24.8300358   9.8562416  82.8637810   6.9770930  24.4188896  82.5507439
   6.8425398  23.6589297  81.9845437   6.5602993  25.1429796  82.0836228
  18.1129893  19.6025820  71.5584014  18.8165744  19.8075822  72.1741670
  17.3892542  20.1702581  71.8233097  18.9427704  15.3535681  77.6786284
  18.8862905  15.8104232  76.8393917  19.4956046  14.5926365  77.5009127
  22.7532510  11.1425413  78.5036404  22.4969444  10.7422048  79.3344611
  22.1285378  11.8569207  78.3786543  27.0644848  13.8821486  81.0107695
  26.5044405  13.9514675  81.7839257  26.4588351  13.7062471  80.2907191
  10.1340056  25.3158213  82.7625881  10.0172440  26.2603646  82.6604572
   9.3132503  25.0131775  83.1511681  20.0216591  20.0408349  73.6082474
  20.8562195  19.6089547  73.4259949  19.8600934  19.8690362  74.5359369
  19.6762483  16.5440462  74.9738813  19.6211287  16.3784734  74.0327257
  19.0508538  17.2516495  75.1301003  16.9908390  18.8489374  94.2992376
  17.8599550  19.0230026  93.9379011  16.5115142  19.6683791  94.1768105
  11.1594570  25.9686475  85.9781810  12.0621817  26.0010085  86.2948305
  10.9331941  25.0386926  85.9928146  12.9148172  24.7217462  82.6391888
  11.9643803  24.7219323  82.5256261  13.2180659  23.9750196  82.1227923
  28.6500866  30.5578000  83.7037651  29.2879276  30.4384747  83.0000991
  28.5321709  31.5058844  83.7625603  25.4590572  30.5105428  83.6399175
  25.1209084  30.3946493  82.7519710  26.3280340  30.1096593  83.6200182
  21.3177388  32.3640904  79.6296066  20.7542253  32.2730841  78.8612354
  21.2029783  31.5440809  80.1098559  25.9410355  31.6640280  89.5985381
  25.9298996  31.2693078  88.7265885  26.1030995  30.9306352  90.1919152
  18.8641820  33.8592096  82.4680287  19.6563112  33.5182921  82.0526586
  19.1038470  33.9687071  83.3882440  26.8976947  36.0311872  74.9410531
  26.2464926  36.6165953  74.5544545  27.6921309  36.5618067  75.0005569
  20.8232574  33.1201009  75.3397666  21.5963450  32.5729996  75.2010541
  21.1757973  33.9845259  75.5512127  22.6617616  34.4477392  88.5464565
  22.3707482  35.3523022  88.4311231  23.2974601  34.4893919  89.2608635
  23.5873823  31.8254240  85.1365925  24.1837395  31.6010262  84.4222888
  23.6448795  31.0838986  85.7391372  23.1598852  29.2793675  72.9716116
  23.4124372  28.7575197  72.2099579  22.2223411  29.1159821  73.0742799
  28.2042134  28.2829454  80.7790859  28.9905224  27.8648877  80.4281276
  28.4680839  29.1875546  80.9472507  28.3752212  33.7202304  75.4779516
  27.7398045  33.7936931  76.1900420  28.0449618  34.3095903  74.7998595
  22.8795140  31.1821781  75.1740491  22.7631398  30.5066685  75.8421575
  22.9897400  30.6954155  74.3572644  25.2226681  30.6431928  78.8787180
  24.8584889  30.1162549  79.5900101  26.0793797  30.2530398  78.7053665
  31.1275982  21.9326261  86.1418446  30.7959307  22.8021672  85.9179661
  30.5321595  21.6162545  86.8212476  24.8632168  25.6721828  73.8748528
  25.0306571  26.5402065  74.2418999  24.6729337  25.8349110  72.9509818
  27.6207501  34.1338807  85.5414359  27.3208225  35.0363846  85.4330166
  27.2758561  33.8670990  86.3935512  21.0719983  30.5852604  81.5751063
  20.1470479  30.4528818  81.7828755  21.3204396  31.3646823  82.0721005
  31.0204645  26.6521347  83.2211796  30.1121523  26.5836756  82.9270557
  30.9692241  27.1293292  84.0493621  24.8421389  28.1279486  74.8595195
  24.7221014  28.5736536  75.6980675  24.1473978  28.4764803  74.3008733
  18.4328794  30.2285877  82.4094852  18.5621175  30.4820356  83.3234264
  17.7526245  30.8213585  82.0899507  22.6028281  40.8983127  78.5085326
  22.5252311  41.8490952  78.5873807  21.9989925  40.5529000  79.1660253
  25.0945511  28.0710993  91.1646693  24.3178845  28.6304913  91.1549558
  25.7336074  28.5567776  91.6861563  32.8866292  24.8537786  84.9989670
  32.2440672  25.1470319  84.3529464  32.3821220  24.7390706  85.8042867
  30.5406455  28.6000959  75.6875529  31.4524311  28.8328346  75.5123227
  30.0316102  29.1838003  75.1250608  23.3491883  30.8796446  90.7264660
  24.0906568  31.4181490  90.4499484  22.6428869  31.5062735  90.8836212
  28.8247223  33.0225587  89.3236822  29.2330579  32.5807997  88.5791454
  28.1024484  32.4478214  89.5771015  25.1778293  27.9598193  86.6970379
  26.0239488  28.3837607  86.8405028  25.1176931  27.3031818  87.3908942
  29.1476038  33.5826777  83.0789111  28.5184900  33.7472491  82.3765178
  28.7601700  33.9968387  83.8500075  33.0265270  34.5181215  80.4333474
  32.3416308  34.8980116  79.8830508  33.1109119  35.1276542  81.1665422
  28.3277738  25.6202562  88.3551552  28.0838670  26.3744622  87.8185828
  28.6037669  25.9987909  89.1898799  30.2816201  32.1641174  87.0328818
  30.4933096  32.8072934  86.3563199  30.2345949  31.3303491  86.5650748
  27.8842430  24.7758995  83.9365390  27.0226909  25.0740248  84.2282128
  27.9104865  24.9929394  83.0046423  24.7004000  33.3201185  80.3439196
  25.1642345  33.5988888  79.5543818  24.4360798  32.4184630  80.1612286
  21.5928081  32.8672667  83.2818959  22.1629438  33.2959935  82.6436443
  22.1836192  32.5855252  83.9803145  23.6372886  29.4424338  77.1528761
  24.3396929  29.8945381  77.6202687  23.3053514  28.8008157  77.7808654
  22.0853247  28.0336094  91.5279970  21.4551908  28.7152375  91.7615367
  21.9789335  27.9219176  90.5833109  17.3798220  27.7007890  82.4545894
  16.5897274  27.9565419  81.9786005  17.8709467  28.5156228  82.5597935
  31.3962029  35.0413130  85.2051175  32.2179473  34.6393317  84.9233857
  31.3924432  34.9381364  86.1567291  19.3312965  28.0652470  79.4129371
  18.5344128  28.1771164  79.9312867  19.1038557  28.4039122  78.5470262
  25.1618633  34.5897173  87.3611886  25.2263065  35.0517580  88.1970058
  24.4529556  33.9594538  87.4894196  15.6635923  27.9538381  84.8860885
  15.9143961  28.8385391  85.1518461  16.1995471  27.7742982  84.1135977
  24.8766650  36.2565280  77.2290866  24.7412325  37.1016816  77.6575714
  25.4176463  36.4584558  76.4656800  21.3633990  22.3356860  93.8905221
  20.9700935  21.7823059  94.5652866  22.1800130  22.6467439  94.2811739
  18.3296048  33.7740718  77.8018791  18.8420568  34.5683969  77.9524356
  18.9818760  33.0767009  77.7352393  20.1390932  36.8906475  79.8841544
  20.3157561  37.8124439  79.6962528  20.9347766  36.5764894  80.3135924
  24.2801951  23.7514739  91.4825478  25.0211664  24.3521892  91.4029940
  24.5119874  23.0092377  90.9243520  19.4243289  28.9371107  89.7603708
  19.3096804  28.0356364  90.0610806  18.5687807  29.1834803  89.4088524
  26.5035127  36.8788847  91.3591208  26.0598981  36.0925225  91.0412113
  27.1652340  37.0667997  90.6935099  21.2622248  38.4084648  85.8851887
  21.8129673  38.2801712  85.1128881  20.4233724  38.7079537  85.5346779
  28.6016365  37.1591647  89.3872609  28.5834840  37.9800528  88.8952879
  29.5236285  37.0345722  89.6122751  25.0589419  34.6735776  90.2296118
  25.5917756  33.9124064  89.9995426  24.5303500  34.3809428  90.9720272
  28.2259114  19.7795842  85.7589760  27.8823383  20.6697484  85.6828870
  28.5938076  19.5897500  84.8959345  16.2944964  32.1029373  78.5778362
  17.1320186  32.5126381  78.3612069  16.4723232  31.1628815  78.5478556
  28.1909396  29.7704453  74.2662195  27.6756020  30.5409058  74.5050582
  27.9186705  29.0969590  74.8895256  25.7756508  24.6154154  79.3247433
  24.9198104  24.2261005  79.1453072  26.1883459  24.6946115  78.4647219
  27.3055654  22.1500497  83.7238993  26.8020450  22.1130633  82.9106798
  27.5986261  23.0593240  83.7835649  23.5498540  22.2339227  82.7305175
  24.4151537  22.0382036  82.3711064  23.6176049  22.0049579  83.6574531
  33.1643671  32.5236808  76.2015368  32.3873113  32.1847967  75.7570530
  33.8435152  32.5289431  75.5270333  27.9795700  27.6431545  76.0921976
  27.6745835  27.9577695  76.9432119  28.9326142  27.7212965  76.1349309
  26.4242131  33.8021769  77.7414930  25.8963493  33.0674528  77.4288167
  25.9229634  34.5796445  77.4954898  31.4034978  31.9970789  82.8581976
  30.7458652  32.6870051  82.9462105  32.2075377  32.3867221  83.2015962
  21.1560859  24.4641435  80.1021541  21.7304611  24.2416617  79.3694734
  21.7431842  24.5330130  80.8550143  30.2140436  30.3515162  80.9085918
  30.7272318  30.9845154  81.4107628  30.8641660  29.7516357  80.5429278
  21.4830446  26.4945896  74.1217427  20.6467758  26.8320583  74.4426701
  21.3435216  26.3594876  73.1844564  23.4583527  21.3382684  78.8296611
  22.8047939  21.0231701  78.2053226  23.4164001  20.7158424  79.5556434
  24.5694732  31.6201979  70.7449903  23.6621793  31.3891232  70.9441052
  25.0665764  30.8239598  70.9323884  26.6921267  27.8264617  83.1544258
  25.7743829  28.0479564  82.9965946  27.1081411  27.9010928  82.2955966
  27.4756315  29.2256033  78.2846939  28.2228134  29.7377430  77.9754061
  27.7447904  28.9040086  79.1451332  25.7482965  31.7214574  75.2673893
  24.8394184  31.4373607  75.3646363  25.7778049  32.1413652  74.4077200
  30.9802233  35.3321163  79.0365061  30.5264560  34.4912073  79.0930251
  30.3496199  35.9682562  79.3739841  29.9235152  26.2613149  80.2665728
  29.1857909  25.7490536  80.5975971  30.1761926  25.8213531  79.4549005
  29.4235172  37.1697660  79.9714879  29.7158146  37.7302717  79.2527244
  29.9333792  37.4626221  80.7268038  30.0246779  19.0389401  80.8607497
  30.3305656  18.1786765  80.5733412  30.7499384  19.6307022  80.6606491
  16.3171135  29.4420088  79.2489095  16.1195535  28.8489449  78.5240162
  15.7617799  29.1372298  79.9665034  24.2967859  29.3343194  81.3683688
  24.3516469  28.3817031  81.2926165  23.4859061  29.4902634  81.8524987
  25.4459053  33.2623318  72.6061972  25.0078483  32.5459176  72.1467609
  26.1869494  33.4899432  72.0447063  22.2360219  27.9520254  79.1274067
  21.4228085  28.2514425  79.5339259  22.7319213  27.5575943  79.8448549
  24.3868797  37.9478011  81.0608332  24.3444976  38.1738857  80.1316864
  25.3031496  37.7141386  81.2094133  27.8334431  28.4162079  87.9588961
  28.1883818  28.6433552  88.8183427  28.4806562  28.7480455  87.3366216
  33.5632168  31.5380515  78.6638290  33.4250066  31.7282111  77.7359479
  33.2068387  32.2999897  79.1206341  21.7274294  25.5238610  84.7435302
  22.3673673  25.3827369  84.0458265  20.8951824  25.2373123  84.3673904
  33.5901547  33.6057042  83.6749562  34.0238054  33.5132331  84.5232616
  34.3033128  33.5814542  83.0369578  22.5034598  34.8241040  80.8570295
  23.2975196  34.3291360  80.6552870  21.7926290  34.2958903  80.4938000
  27.3229442  37.2059136  85.2082662  27.3766464  37.7750072  85.9760378
  26.4544224  37.3761021  84.8436699  18.8117361  28.9684122  76.9330047
  17.8814949  28.9068577  77.1500009  18.9074833  28.4460075  76.1366689
  18.7302910  25.4938935  79.5208289  18.9909728  26.4084268  79.4117449
  19.5520083  25.0263377  79.6704902  20.2027836  26.9076692  86.6907113
  20.8750889  26.6994054  86.0419762  19.3757622  26.7098778  86.2512346
  34.4517097  33.6480742  86.2082447  34.6452987  34.5526553  86.4541722
  34.3517715  33.1888161  87.0421032  26.1053408  23.5338633  88.7072774
  25.4581323  24.2328582  88.6137251  26.8754423  23.9674777  89.0749023
  29.5132206  33.7987485  91.7823328  29.3617712  33.5698037  90.8653411
  29.5036885  34.7558086  91.7954673  26.2817542  31.3719398  86.7669594
  27.2109602  31.5230557  86.5938561  25.8608572  31.4603419  85.9118241
  25.0805874  35.3970062  84.5368132  24.9416959  35.0288847  85.4094070
  24.2920470  35.9117702  84.3652089  26.6311089  34.7751665  81.9256969
  26.2960921  34.7352435  82.8214619  26.1315035  34.1096381  81.4527380
  20.6055333  30.1819295  87.4509551  20.4675131  29.4499534  88.0521090
  21.5160256  30.0928195  87.1693738  29.5670281  32.1207699  72.1994029
  28.9499451  31.3954527  72.1027082  29.0986769  32.8817059  71.8561103
  23.2337634  29.8939254  86.9393230  23.9437252  29.2532446  86.8979849
  23.1906942  30.1452149  87.8619411  31.2224412  36.8306608  89.8599809
  31.1636958  36.1465828  89.1930392  31.6243931  37.5725598  89.4080435
  21.9466567  26.8804472  88.7588870  21.4103924  26.4295211  89.4110466
  21.3583276  27.0150381  88.0159334  20.2415111  43.6468521  82.6533528
  20.4811709  44.2787046  83.3312547  19.3984307  43.2956561  82.9398888
  21.3568826  26.3393124  71.3215333  20.4798293  26.2181924  70.9577580
  21.8326580  25.5479202  71.0694222  31.2241819  34.7946192  88.0913789
  30.3368598  34.4572113  88.2140188  31.7940371  34.0629223  88.3282555
  12.8770967  31.1270283  81.4156841  13.5642006  30.8132013  80.8277856
  12.7219095  32.0311648  81.1424092  17.6805689  26.0160480  85.8441864
  17.5963877  25.4086149  85.1092274  16.8588395  26.5069498  85.8451361
  24.7542973  39.4547644  85.0575032  24.6813144  40.2602615  85.5694337
  24.3120366  39.6539610  84.2323054  24.5432752  38.6919414  78.5677854
  23.7600274  39.2341094  78.6616078  25.2425498  39.2093394  78.9672095
  27.8529403  24.5014043  81.2112059  28.3498102  23.7484006  80.8913130
  27.0816384  24.5378360  80.6455269  35.7059160  30.2054409  82.8530351
  35.6949036  31.0879124  82.4824284  34.8376539  29.8525960  82.6584888
  27.2141656  39.3534478  87.2133191  27.9269629  39.9881943  87.1409092
  26.7231685  39.4498344  86.3973193  28.9359183  33.2585731  78.7850483
  28.0015462  33.3787193  78.6155187  29.1135852  32.3558197  78.5210493
  24.4364371  26.6431426  80.9383744  24.0662159  26.0902467  81.6264649
  24.9323464  26.0389560  80.3858744  22.2653570  37.1028921  88.0338762
  22.9663029  37.7365404  88.1868156  21.7948685  37.4443653  87.2734401
  30.3907966  35.4446871  76.3186669  30.6667810  35.3303466  77.2280543
  29.5212464  35.0464356  76.2798842  30.2948397  21.4683637  83.3591418
  29.3811477  21.6987864  83.5273625  30.7241499  21.5522081  84.2105451
  30.0654856  29.6573529  85.8591312  29.4126306  29.9049436  85.2043765
  30.4435236  28.8437667  85.5253789  27.3604195  38.6201407  77.2234531
  27.8891962  38.1093862  76.6104693  27.6232415  38.3043937  78.0880064
  26.1142429  30.3993340  92.3457349  25.4383066  30.2987469  93.0159724
  26.9370063  30.2432554  92.8093346  17.8621288  36.6365276  84.9669865
  18.4474725  35.8908964  85.0997769  17.6646126  36.9469233  85.8506528
  20.7159943  39.6716524  79.9832307  20.0470318  40.1562651  79.4996347
  20.5772813  39.9185744  80.8975685  12.4538943  29.2070877  83.6874308
  12.4923042  28.6734467  84.4811426  11.9479236  28.6806082  83.0685285
  24.8565212  41.7060267  86.5814965  25.4083520  41.8691889  87.3464050
  25.1971405  42.2964705  85.9094990  19.8329705  24.0535417  87.1836850
  19.8971031  24.9150248  86.7714248  19.7696825  23.4409419  86.4509208
  19.3081978  26.1258550  90.8309884  19.9354016  25.7435627  91.4447409
  18.4509896  25.9072752  91.1965577  29.7076086  36.5321525  92.4363620
  30.2515990  37.1451483  91.9418574  29.1262931  37.0901103  92.9530633
  16.0847520  27.9334979  76.7628239  16.3800961  27.0245657  76.7095293
  15.1835556  27.9122718  76.4409241  27.9933599  39.6542243  83.5678647
  27.8684738  38.8531983  83.0589593  28.6512690  40.1488436  83.0792617
  19.6141767  26.0090975  82.7455788  18.8928353  26.6226943  82.6063261
  20.4035023  26.5448740  82.6672434  30.0568507  37.4551263  85.1958198
  29.1098843  37.3356614  85.1236524  30.4051281  36.5673761  85.2784459
  22.4168081  23.3445402  89.0196439  22.9402483  23.5907698  89.7822749
  22.1980414  24.1765437  88.5999577  17.8135362  25.6149076  76.8867564
  17.4848068  24.7346455  76.7042670  18.1674733  25.5596745  77.7743953
  27.0614941  37.2503979  81.3962550  26.9139903  36.3220687  81.5770120
  27.8868434  37.2724070  80.9119625  20.9277185  25.9022046  77.2543042
  21.2673258  26.4307967  76.5321650  21.3749305  26.2402452  78.0301608
  30.6649063  38.0732538  82.4827422  31.5895610  37.8675399  82.3451874
  30.4964366  37.8248939  83.3916764  23.6220626  24.2859097  86.7046110
  23.2817446  23.4866910  87.1066790  22.9159632  24.5860808  86.1322943
  24.2737098  21.3708409  85.1573433  25.0963167  20.8968888  85.0352323
  24.5175161  22.1498893  85.6572119  22.9145332  24.3996668  75.4536335
  23.6353695  24.7777921  74.9500051  22.2910636  25.1185545  75.5571313
  27.0576455  25.1041817  76.3894667  27.2740069  25.9866455  76.0883495
  26.5770522  24.7128030  75.6600309  21.7975676  28.0627530  82.9665412
  21.6520257  28.3767833  83.8589693  21.3200880  28.6812430  82.4136310
  23.6572059  25.0530078  83.0146301  23.6433628  24.1571171  82.6778599
  24.3744487  25.0600742  83.6484587  25.5098190  25.4867418  85.0599429
  25.2515968  26.4084489  85.0583759  24.9783230  25.0897853  85.7499893
  30.4544379  38.5918205  77.8389514  30.6281256  38.0264628  77.0863366
  30.9473270  39.3919100  77.6569004  16.2721339  30.6032874  85.9053073
  15.7274807  31.3792682  86.0373347  17.1500688  30.9503679  85.7472194
  23.0608955  23.9344458  78.2833871  23.1824866  23.0061104  78.4824759
  22.7710998  23.9483144  77.3712187  25.9300146  21.6199369  81.4200591
  25.9521842  21.6838702  80.4652571  26.3468205  20.7803877  81.6141097
  31.4419551  37.9084970  74.9386412  32.1370456  38.5291662  75.1573727
  31.7842701  37.0580321  75.2138790  17.0587360  29.7302771  88.7983230
  16.3169096  29.8785406  89.3847860  16.7380105  29.9911036  87.9349979
  33.3410974  35.3584675  76.4673743  33.8662298  35.6971948  75.7423063
  33.2533327  34.4231691  76.2836878  25.0031023  39.2718749  88.5963620
  25.3118150  39.0267896  89.4686319  25.8006505  39.4765387  88.1082490
  17.5043974  37.6168199  80.8293624  18.3301994  37.3171971  80.4492268
  17.1538026  36.8475822  81.2783413  22.4725507  36.9694668  82.8991298
  21.8505517  36.3065373  82.5993526  23.1430374  36.9955799  82.2164946
  15.7052579  35.5354526  81.7882558  14.8684487  35.1076700  81.6066559
  15.6776225  35.7286969  82.7253349  22.5450035  25.4476456  92.4923804
  22.5938190  26.3238578  92.1101573  23.0872549  24.9053849  91.9195447
  33.0304880  35.9917579  91.7724941  32.2400424  35.9741718  91.2329440
  32.7938235  36.5305873  92.5273978  33.1502756  32.8410045  89.0857669
  33.2000760  32.6760053  90.0273192  33.0416679  31.9737304  88.6955550
  22.0339014  35.5198591  76.3749758  22.1827135  36.2034055  75.7216431
  22.8405458  35.5003681  76.8899214  30.4406518  28.8240973  90.4016976
  31.3416381  28.6847438  90.1100974  30.5154492  28.9895428  91.3415154
  24.7749323  26.2007828  89.2470163  23.9052633  26.4941394  88.9752751
  25.0108804  26.7848273  89.9677426  34.6520952  35.2606987  89.3299691
  34.3605761  35.6236967  90.1663152  34.0393084  34.5473995  89.1513023
  35.8516635  32.8259867  81.8502261  36.6863526  33.2649671  82.0139822
  35.9875763  32.3498520  81.0310507  32.9008141  30.3839601  87.7979749
  33.3762262  30.5767248  86.9898600  31.9773706  30.4398787  87.5523133
  19.7891647  31.5463769  77.3810827  19.5437689  30.6426099  77.5791037
  19.9587562  31.5480919  76.4390305  27.4788357  22.4187445  86.7635583
  27.9970301  23.1548472  86.4382071  27.1243490  22.7251438  87.5982342
  19.0587295  27.2792126  74.8796989  18.3656540  27.3536481  74.2237025
  18.8139047  26.5152470  75.4018506  27.7300951  18.8387727  82.2836480
  28.0102705  18.1710917  82.9096906  28.5151558  19.0316823  81.7711143
  25.5334420  38.0146721  73.8461506  24.9608387  38.6336909  73.3931978
  26.1067213  38.5646083  74.3801428  31.6009810  27.2605361  86.0308055
  32.5527232  27.3603459  86.0520279  31.4313260  26.4683630  86.5406139
  29.6224189  24.3460945  86.2167456  29.0274121  24.6265957  85.5213944
  29.3373886  24.8354846  86.9884197  28.7531680  38.2983872  74.9770088
  29.6862353  38.2329433  75.1802964  28.6654892  39.1340138  74.5184621
  31.3819696  37.6149742  71.9374036  31.3033328  37.2809605  72.8309794
  32.2029363  38.1071510  71.9365508  34.0797887  30.4811481  85.1450354
  34.0474207  29.5427482  85.3310038  34.6898511  30.5595518  84.4116179
  25.9181218  29.3507534  71.1877558  26.8640323  29.2213742  71.2565976
  25.5395463  28.6122196  71.6646986  34.2292376  27.2722525  85.1908637
  33.7131424  26.4880981  85.0038566  35.1132324  26.9441241  85.3555157
  31.8903103  21.0163540  81.1504450  31.6927924  20.7078628  82.0347782
  32.5002808  21.7425179  81.2802380  37.9789734  29.6835351  84.8830842
  37.2522898  29.5491316  84.2747334  37.5637021  29.9912179  85.6887560
  25.8019911  33.4025280  92.6478215  26.7222920  33.5803879  92.8418262
  25.7669494  32.4581326  92.4957915  24.1024135  27.2757511  71.1232444
  23.1955591  26.9790623  71.1995157  24.3800116  26.9787329  70.2566730
  15.0202076  28.5963874  81.5731490  14.7004860  27.7429182  81.2805864
  14.4735504  28.8112452  82.3289457  18.7981983  31.3126315  85.2900996
  19.0167993  32.2443423  85.3089030  19.2107757  30.9534289  86.0755800
  25.7186201  21.8194400  77.2776685  24.9086929  21.4741485  77.6531931
  26.4070618  21.5101944  77.8664296  27.6476749  20.8972447  78.9000981
  28.2007788  21.3167900  79.5591005  27.8846836  19.9708195  78.9423937
  23.6709849  26.8859521  94.6803745  23.5706576  27.8353878  94.6115836
  23.4531391  26.5577760  93.8079815  22.8722920  24.1344446  71.2644423
  23.7342084  24.4599344  71.5240240  23.0573264  23.3475942  70.7517489
  14.8890336  32.2166785  83.5424612  14.1953807  31.8020738  83.0294566
  15.6363327  32.2587322  82.9458030  31.0255556  23.0072972  78.4079646
  30.4454226  23.6657776  78.0257698  30.7591489  22.1850317  77.9967063
  29.4759123  22.4078030  80.6100966  29.9758901  22.5194564  79.8015285
  30.1194731  22.1039083  81.2501775  23.5341119  30.3156660  93.4968807
  23.0508200  31.1157020  93.7032696  23.6202058  30.3264604  92.5436251
  16.8027078  32.1485039  81.4190626  16.7797766  32.2472726  80.4672509
  17.1127715  32.9950190  81.7407793  19.4614456  34.2061194  85.5337241
  20.4157710  34.1745137  85.4667172  19.2626980  33.7451818  86.3487467
  20.0513838  32.7762310  88.1008038  20.8706727  33.2706389  88.1242876
  20.3250646  31.8594278  88.0725606  29.8080434  25.1673063  77.4635994
  28.9206290  25.4522713  77.2456189  30.2234424  25.0066826  76.6163271
  33.1594971  25.1919584  81.1790333  33.9355361  25.6816036  81.4514950
  32.4343105  25.6177638  81.6362203  35.5967529  25.9047203  82.2364274
  36.1912020  25.6642939  81.5257582  35.6694113  25.1854333  82.8637810
  17.8164685  39.7480814  82.5507439  17.6819153  38.9881215  81.9845437
  17.3996747  40.4721714  82.0836228  28.9523648  34.9317737  71.5584014
  29.6559498  35.1367740  72.1741670  28.2286297  35.4994499  71.8233097
  29.7821458  30.6827599  77.6786284  29.7256660  31.1396150  76.8393917
  30.3349801  29.9218283  77.5009127  20.9733811  40.6450131  82.7625881
  20.8566195  41.5895563  82.6604572  20.1526257  40.3423692  83.1511681
  30.8610345  35.3700266  73.6082474  31.6955949  34.9381465  73.4259949
  30.6994688  35.1982280  74.5359369  30.5156238  31.8732380  74.9738813
  30.4605041  31.7076651  74.0327257  29.8902293  32.5808413  75.1301003
  15.3048753  27.1100444  88.8000236  15.9507616  26.5999398  89.2887461
  15.0965904  27.8469126  89.3743661  27.8302145  34.1781292  94.2992376
  28.6993304  34.3521944  93.9379011  27.3508896  34.9975708  94.1768105
  23.8252363  21.3740489  74.5524132  23.8131033  22.3182329  74.7092403
  24.7175785  21.1910634  74.2583593  21.9988325  41.2978393  85.9781810
  22.9015572  41.3302003  86.2948305  21.7725695  40.3678844  85.9928146
  23.7541927  40.0509379  82.6391888  22.8037558  40.0511241  82.5256261
  24.0574413  39.3042114  82.1227923  27.6404482  17.9683265  78.8070069
  26.8736878  17.4141752  78.9526751  28.0515187  18.0405134  79.6684220
  19.6446244  24.2568061  92.8975250  20.5077705  23.9004866  93.1078574
  19.0711654  23.9181956  93.5850654  41.9669736  37.2618179  86.1418446
  41.6353061  38.1313590  85.9179661  41.3715350  36.9454463  86.8212476
  35.9339266  43.4002911  91.1646693  35.1572600  43.9596831  91.1549558
  36.5729829  43.8859693  91.6861563  34.1885638  46.2088364  90.7264660
  34.9300322  46.7473408  90.4499484  33.4822623  46.8354653  90.8836212
  32.9247002  43.3628012  91.5279970  32.2945662  44.0444293  91.7615367
  32.8183089  43.2511094  90.5833109  26.5029677  43.2830299  84.8860885
  26.7537715  44.1677308  85.1518461  27.0389225  43.1034900  84.1135977
  32.2027744  37.6648778  93.8905221  31.8094690  37.1114976  94.5652866
  33.0193885  37.9759356  94.2811739  35.1195705  39.0806657  91.4825478
  35.8605419  39.6813810  91.4029940  35.3513628  38.3384295  90.9243520
  30.2637043  44.2663024  89.7603708  30.1490558  43.3648281  90.0610806
  29.4081561  44.5126721  89.4088524  39.0652868  35.1087760  85.7589760
  38.7217138  35.9989402  85.6828870  39.4331831  34.9189418  84.8959345
  36.6150262  39.9446072  79.3247433  35.7591858  39.5552922  79.1453072
  37.0277214  40.0238033  78.4647219  38.1449409  37.4792415  83.7238993
  37.6414204  37.4422550  82.9106798  38.4380015  38.3885158  83.7835649
  34.3892295  37.5631145  82.7305175  35.2545291  37.3673953  82.3711064
  34.4569803  37.3341497  83.6574531  34.2977281  36.6674602  78.8296611
  33.6441694  36.3523619  78.2053226  34.2557755  36.0450342  79.5556434
  36.9447162  38.8630551  88.7072774  36.2975077  39.5620500  88.6137251
  37.7148177  39.2966694  89.0749023  31.4449087  45.5111213  87.4509551
  31.3068885  44.7791451  88.0521090  32.3554011  45.4220113  87.1693738
  32.7860322  42.2096390  88.7588870  32.2497679  41.7587128  89.4110466
  32.1977030  42.3442299  88.0159334  28.5199443  41.3452397  85.8441864
  28.4357632  40.7378067  85.1092274  27.6982150  41.8361416  85.8451361
  36.9536183  45.7285258  92.3457349  36.2776820  45.6279387  93.0159724
  37.7763817  45.5724471  92.8093346  23.2932697  44.5362794  83.6874308
  23.3316797  44.0026385  84.4811426  22.7872990  44.0098000  83.0685285
  30.6723459  39.3827335  87.1836850  30.7364786  40.2442166  86.7714248
  30.6090580  38.7701336  86.4509208  30.1475732  41.4550467  90.8309884
  30.7747771  41.0727545  91.4447409  29.2903651  41.2364669  91.1965577
  33.2561835  38.6737320  89.0196439  33.7796237  38.9199616  89.7822749
  33.0374169  39.5057354  88.5999577  34.4614380  39.6151015  86.7046110
  34.1211201  38.8158828  87.1066790  33.7553387  39.9152725  86.1322943
  35.1130852  36.7000327  85.1573433  35.9356921  36.2260805  85.0352323
  35.3568916  37.4790811  85.6572119  37.8970210  40.4333734  76.3894667
  38.1133824  41.3158372  76.0883495  37.4164277  40.0419948  75.6600309
  36.3491945  40.8159336  85.0599429  36.0909722  41.7376407  85.0583759
  35.8176985  40.4189770  85.7499893  33.9002710  39.2636376  78.2833871
  34.0218621  38.3353022  78.4824759  33.6104752  39.2775062  77.3712187
  36.7693900  36.9491286  81.4200591  36.7915597  37.0130619  80.4652571
  37.1861959  36.1095795  81.6141097  27.8981115  45.0594688  88.7983230
  27.1562851  45.2077324  89.3847860  27.5773859  45.3202954  87.9349979
  33.3843789  40.7768373  92.4923804  33.4331945  41.6530496  92.1101573
  33.9266303  40.2345766  91.9195447  35.6143078  41.5299746  89.2470163
  34.7446387  41.8233312  88.9752751  35.8502558  42.1140191  89.9677426
  38.3182112  37.7479363  86.7635583  38.8364055  38.4840390  86.4382071
  37.9637244  38.0543356  87.5982342  36.5579956  37.1486318  77.2776685
  35.7480684  36.8033403  77.6531931  37.2464373  36.8393862  77.8664296
  38.4870504  36.2264365  78.9000981  39.0401542  36.6459818  79.5591005
  38.7240590  35.3000113  78.9423937  34.5103603  42.2151438  94.6803745
  34.4100330  43.1645795  94.6115836  34.2925145  41.8869677  93.8079815
  33.7116674  39.4636363  71.2644423  34.5735838  39.7891262  71.5240240
  33.8967019  38.6767859  70.7517489  41.8649311  38.3364890  78.4079646
  41.2847980  38.9949694  78.0257698  41.5985244  37.5142234  77.9967063
  34.3734873  45.6448577  93.4968807  33.8901955  46.4448937  93.7032696
  34.4595812  45.6556522  92.5436251  26.1442507  42.4392362  88.8000236
  26.7901371  41.9291316  89.2887461  25.9359658  43.1761043  89.3743661
  34.6646118  36.7032406  74.5524132  34.6524787  37.6474246  74.7092403
  35.5569539  36.5202552  74.2583593  30.4839998  39.5859979  92.8975250
  31.3471460  39.2296784  93.1078574  29.9105409  39.2473874  93.5850654
  40.5429329  64.5175931  82.4680287  41.3350621  64.1766756  82.0526586
  40.7825979  64.6270906  83.3882440  48.5764456  66.6895707  74.9410531
  47.9252435  67.2749788  74.5544545  49.3708818  67.2201902  75.0005569
  44.3405125  65.1061227  88.5464565  44.0494991  66.0106858  88.4311231
  44.9762110  65.1477755  89.2608635  44.2815790  71.5566963  78.5085326
  44.2039820  72.5074788  78.5873807  43.6777434  71.2112835  79.1660253
  54.7052779  65.1765050  80.4333474  54.0203817  65.5563952  79.8830508
  54.7896628  65.7860377  81.1665422  46.8406142  65.2481008  87.3611886
  46.9050574  65.7101415  88.1970058  46.1317065  64.6178373  87.4894196
  61.1655531  62.0435713  81.5536147  60.4119240  61.4743111  81.3980151
  61.3003072  62.0098378  82.5006781  46.5554159  66.9149116  77.2290866
  46.4199834  67.7600651  77.6575714  47.0963972  67.1168393  76.4656800
  41.8178441  67.5490310  79.8841544  41.9945070  68.4708275  79.6962528
  42.6135275  67.2348729  80.3135924  48.1822636  67.5372682  91.3591208
  47.7386490  66.7509061  91.0412113  48.8439849  67.7251833  90.6935099
  42.9409757  69.0668484  85.8851887  43.4917182  68.9385547  85.1128881
  42.1021233  69.3663373  85.5346779  50.2803874  67.8175482  89.3872609
  50.2622349  68.6384363  88.8952879  51.2023794  67.6929557  89.6122751
  46.7376928  65.3319612  90.2296118  47.2705265  64.5707900  89.9995426
  46.2091009  65.0393263  90.9720272  49.1550320  70.9883322  73.6646589
  48.4812018  71.2915018  74.2731547  49.5416142  71.7912402  73.3152046
  52.6589742  65.9904999  79.0365061  52.2052069  65.1495909  79.0930251
  52.0283708  66.6266397  79.3739841  51.1022681  67.8281495  79.9714879
  51.3945655  68.3886553  79.2527244  51.6121301  68.1210056  80.7268038
  46.0656306  68.6061847  81.0608332  46.0232485  68.8322693  80.1316864
  46.9819005  68.3725221  81.2094133  49.0016951  67.8642971  85.2082662
  49.0553973  68.4333907  85.9760378  48.1331733  68.0344856  84.8436699
  51.1919715  64.4571320  91.7823328  51.0405221  64.2281872  90.8653411
  51.1824394  65.4141922  91.7954673  46.7593383  66.0553898  84.5368132
  46.6204468  65.6872682  85.4094070  45.9707979  66.5701537  84.3652089
  47.3541535  71.1562994  75.8793668  47.5293290  70.6851037  76.6939291
  46.6674323  71.7828760  76.1074929  52.9011921  67.4890443  89.8599809
  52.8424467  66.8049663  89.1930392  53.3031440  68.2309433  89.4080435
  41.9202620  74.3052357  82.6533528  42.1599218  74.9370881  83.3312547
  41.0771816  73.9540397  82.9398888  46.4330482  70.1131479  85.0575032
  46.3600653  70.9186451  85.5694337  45.9907875  70.3123445  84.2323054
  46.2220261  69.3503249  78.5677854  45.4387783  69.8924929  78.6616078
  46.9213007  69.8677229  78.9672095  48.8929165  70.0118313  87.2133191
  49.6057138  70.6465778  87.1409092  48.4019194  70.1082179  86.3973193
  43.9441079  67.7612757  88.0338762  44.6450538  68.3949240  88.1868156
  43.4736194  68.1027488  87.2734401  52.0695475  66.1030706  76.3186669
  52.3455319  65.9887301  77.2280543  51.1999973  65.7048191  76.2798842
  48.7049539  70.3517057  79.9619482  48.8871933  69.5338713  80.4247235
  49.5282525  70.5684750  79.5244372  49.0391704  69.2785242  77.2234531
  49.5679471  68.7677697  76.6104693  49.3019924  68.9627773  78.0880064
  39.5408797  67.2949112  84.9669865  40.1262234  66.5492800  85.0997769
  39.3433635  67.6053068  85.8506528  42.3947452  70.3300359  79.9832307
  41.7257827  70.8146487  79.4996347  42.2560322  70.5769580  80.8975685
  46.5352721  72.3644103  86.5814965  47.0871029  72.5275724  87.3464050
  46.8758914  72.9548540  85.9094990  51.3863595  67.1905360  92.4363620
  51.9303499  67.8035318  91.9418574  50.8050440  67.7484939  92.9530633
  49.6721108  70.3126078  83.5678647  49.5472247  69.5115818  83.0589593
  50.3300199  70.8072272  83.0792617  51.7356016  68.1135098  85.1958198
  50.7886352  67.9940449  85.1236524  52.0838790  67.2257596  85.2784459
  48.7402450  67.9087814  81.3962550  48.5927412  66.9804522  81.5770120
  49.5655943  67.9307905  80.9119625  52.3436572  68.7316373  82.4827422
  53.2683119  68.5259235  82.3451874  52.1751875  68.4832774  83.3916764
  52.1331888  69.2502041  77.8389514  52.3068765  68.6848463  77.0863366
  52.6260779  70.0502936  77.6569004  53.1207060  68.5668805  74.9386412
  53.8157965  69.1875498  75.1573727  53.4630210  67.7164156  75.2138790
  46.6818532  69.9302584  88.5963620  46.9905659  69.6851731  89.4686319
  47.4794014  70.1349223  88.1082490  46.7039144  72.0840494  80.8268996
  46.2644134  71.5916873  81.5201853  47.4547261  71.5413462  80.5861071
  39.1831483  68.2752035  80.8293624  40.0089503  67.9755807  80.4492268
  38.8325535  67.5059657  81.2783413  44.1513016  67.6278503  82.8991298
  43.5293026  66.9649208  82.5993526  44.8217883  67.6539635  82.2164946
  54.7092389  66.6501414  91.7724941  53.9187933  66.6325553  91.2329440
  54.4725744  67.1889708  92.5273978  47.2121929  68.6730557  73.8461506
  46.6395896  69.2920744  73.3931978  47.7854722  69.2229918  74.3801428
  50.4319188  68.9567707  74.9770088  51.3649862  68.8913269  75.1802964
  50.3442401  69.7923974  74.5184621  53.0607205  68.2733577  71.9374036
  52.9820837  67.9393441  72.8309794  53.8816872  68.7655345  71.9365508
  47.4807420  64.0609116  92.6478215  48.4010429  64.2387715  92.8418262
  47.4457003  63.1165161  92.4957915  39.4952194  70.4064649  82.5507439
  39.3606662  69.6465050  81.9845437  39.0784256  71.1305549  82.0836228
  42.6521320  71.3033966  82.7625881  42.5353704  72.2479399  82.6604572
  41.8313766  71.0007528  83.1511681  49.5089654  64.8365127  94.2992376
  50.3780813  65.0105779  93.9379011  49.0296405  65.6559544  94.1768105
  43.6775834  71.9562228  85.9781810  44.5803081  71.9885838  86.2948305
  43.4513204  71.0262679  85.9928146  45.4329436  70.7093215  82.6391888
  44.4825067  70.7095076  82.5256261  45.7361922  69.9625949  82.1227923
  53.8358651  78.3516657  79.6296066  53.2723517  78.2606594  78.8612354
  53.7211046  77.5316562  80.1098559  51.3823083  79.8467849  82.4680287
  52.1744375  79.5058674  82.0526586  51.6219734  79.9562824  83.3882440
  55.1798880  80.4353145  88.5464565  54.8888746  81.3398775  88.4311231
  55.8155864  80.4769672  89.2608635  57.7407945  76.6307681  78.8787180
  57.3766152  76.1038302  79.5900101  58.5975061  76.2406151  78.7053665
  53.5901246  76.5728357  81.5751063  52.6651743  76.4404571  81.7828755
  53.8385660  77.3522576  82.0721005  50.9510057  76.2161630  82.4094852
  51.0802439  76.4696109  83.3234264  50.2707509  76.8089338  82.0899507
  55.1209545  86.8858880  78.5085326  55.0433574  87.8366706  78.5873807
  54.5171188  86.5404753  79.1660253  57.6126775  74.0586746  91.1646693
  56.8360109  74.6180666  91.1549558  58.2517338  74.5443529  91.6861563
  55.8673147  76.8672199  90.7264660  56.6087831  77.4057243  90.4499484
  55.1610132  77.4938488  90.8836212  61.3428486  79.0101340  89.3236822
  61.7511842  78.5683750  88.5791454  60.6205748  78.4353967  89.5771015
  54.1109344  78.8548420  83.2818959  54.6810701  79.2835688  82.6436443
  54.7017456  78.5731005  83.9803145  54.6034511  74.0211847  91.5279970
  53.9733171  74.7028128  91.7615367  54.4970598  73.9094929  90.5833109
  49.8979483  73.6883643  82.4545894  49.1078537  73.9441172  81.9786005
  50.3890730  74.5031981  82.5597935  51.8494228  74.0528223  79.4129371
  51.0525392  74.1646917  79.9312867  51.6219821  74.3914875  78.5470262
  57.6799896  80.5772926  87.3611886  57.7444329  81.0393333  88.1970058
  56.9710820  79.9470291  87.4894196  48.1817186  73.9414134  84.8860885
  48.4325224  74.8261144  85.1518461  48.7176734  73.7618735  84.1135977
  53.8815253  68.3232613  93.8905221  53.4882199  67.7698812  94.5652866
  54.6981394  68.6343192  94.2811739  50.8477311  79.7616471  77.8018791
  51.3601832  80.5559722  77.9524356  51.5000024  79.0642762  77.7352393
  52.6572196  82.8782228  79.8841544  52.8338824  83.8000192  79.6962528
  53.4529029  82.5640647  80.3135924  51.9424552  74.9246860  89.7603708
  51.8278067  74.0232117  90.0610806  51.0869070  75.1710556  89.4088524
  59.0216390  82.8664600  91.3591208  58.5780244  82.0800978  91.0412113
  59.6833604  83.0543750  90.6935099  53.7803511  84.3960401  85.8851887
  54.3310936  84.2677465  85.1128881  52.9414987  84.6955291  85.5346779
  61.1197628  83.1467400  89.3872609  61.1016103  83.9676281  88.8952879
  62.0417548  83.0221475  89.6122751  57.5770682  80.6611529  90.2296118
  58.1099019  79.8999817  89.9995426  57.0484763  80.3685181  90.9720272
  48.8126228  78.0905126  78.5778362  49.6501450  78.5002134  78.3612069
  48.9904496  77.1504568  78.5478556  58.2937771  70.6029907  79.3247433
  57.4379367  70.2136758  79.1453072  58.7064723  70.6821868  78.4647219
  56.0679803  68.2214980  82.7305175  56.9332800  68.0257789  82.3711064
  56.1357312  67.9925332  83.6574531  53.6742123  70.4517188  80.1021541
  54.2485874  70.2292370  79.3694734  54.2613105  70.5205883  80.8550143
  55.9764790  67.3258437  78.8296611  55.3229203  67.0107454  78.2053226
  55.9345264  66.7034177  79.5556434  48.8352399  75.4295841  79.2489095
  48.6376799  74.8365202  78.5240162  48.2799063  75.1248051  79.9665034
  56.8149123  75.3218948  81.3683688  56.8697732  74.3692784  81.2926165
  56.0040325  75.4778387  81.8524987  54.7541483  73.9396007  79.1274067
  53.9409348  74.2390178  79.5339259  55.2500477  73.5451696  79.8448549
  56.9050060  83.9353764  81.0608332  56.8626239  84.1614611  80.1316864
  57.8212759  83.7017139  81.2094133  54.2455557  71.5114363  84.7435302
  54.8854937  71.3703122  84.0458265  53.4133088  71.2248876  84.3673904
  55.0215861  80.8116793  80.8570295  55.8156460  80.3167113  80.6552870
  54.3107554  80.2834656  80.4938000  51.3298625  74.9559875  76.9330047
  50.3996213  74.8944330  77.1500009  51.4256097  74.4335828  76.1366689
  51.2484174  71.4814688  79.5208289  51.5090991  72.3960021  79.4117449
  52.0701346  71.0139130  79.6704902  52.7209099  72.8952445  86.6907113
  53.3932152  72.6869807  86.0419762  51.8938886  72.6974531  86.2512346
  62.0313469  79.7863238  91.7823328  61.8798975  79.5573790  90.8653411
  62.0218148  80.7433839  91.7954673  57.5987137  81.3845815  84.5368132
  57.4598223  81.0164600  85.4094070  56.8101733  81.8993455  84.3652089
  53.1236596  76.1695048  87.4509551  52.9856394  75.4375287  88.0521090
  54.0341520  76.0803948  87.1693738  54.4647831  72.8680225  88.7588870
  53.9285188  72.4170964  89.4110466  53.8764539  73.0026134  88.0159334
  52.7596374  89.6344274  82.6533528  52.9992973  90.2662799  83.3312547
  51.9165571  89.2832314  82.9398888  45.3952230  77.1146036  81.4156841
  46.0823270  76.8007766  80.8277856  45.2400359  78.0187401  81.1424092
  50.1986952  72.0036233  85.8441864  50.1145141  71.3961902  85.1092274
  49.3769659  72.4945251  85.8451361  60.3710666  70.4889796  81.2112059
  60.8679366  69.7359759  80.8913130  59.5997648  70.5254113  80.6455269
  56.9545635  72.6307179  80.9383744  56.5843422  72.0778220  81.6264649
  57.4504727  72.0265313  80.3858744  54.7834833  83.0904674  88.0338762
  55.4844293  83.7241157  88.1868156  54.3129948  83.4319406  87.2734401
  59.5443293  85.6808975  79.9619482  59.7265688  84.8630631  80.4247235
  60.3676279  85.8976667  79.5244372  58.6323692  76.3869093  92.3457349
  57.9564329  76.2863222  93.0159724  59.4551326  76.2308307  92.8093346
  50.3802551  82.6241029  84.9669865  50.9655988  81.8784717  85.0997769
  50.1827390  82.9344986  85.8506528  53.2341207  85.6592277  79.9832307
  52.5651582  86.1438404  79.4996347  53.0954076  85.9061497  80.8975685
  44.9720206  75.1946630  83.6874308  45.0104306  74.6610220  84.4811426
  44.4660499  74.6681835  83.0685285  52.3510968  70.0411170  87.1836850
  52.4152295  70.9026001  86.7714248  52.2878089  69.4285172  86.4509208
  51.8263241  72.1134303  90.8309884  52.4535280  71.7311380  91.4447409
  50.9691160  71.8948505  91.1965577  62.2257350  82.5197278  92.4363620
  62.7697254  83.1327236  91.9418574  61.6444194  83.0776856  92.9530633
  48.6028784  73.9210732  76.7628239  48.8982225  73.0121410  76.7095293
  47.7016820  73.8998471  76.4409241  52.1323031  71.9966728  82.7455788
  51.4109617  72.6102696  82.6063261  52.9216287  72.5324493  82.6672434
  54.9349344  69.3321155  89.0196439  55.4583746  69.5783451  89.7822749
  54.7161678  70.1641190  88.5999577  50.3316625  71.6024829  76.8867564
  50.0029331  70.7222208  76.7042670  50.6855996  71.5472498  77.7743953
  53.4458448  71.8897799  77.2543042  53.7854521  72.4183720  76.5321650
  53.8930569  72.2278205  78.0301608  55.4326596  70.3872421  75.4536335
  56.1534958  70.7653674  74.9500051  54.8091900  71.1061298  75.5571313
  54.3156940  74.0503283  82.9665412  54.1701521  74.3643586  83.8589693
  53.8382144  74.6688183  82.4136310  56.1753323  71.0405831  83.0146301
  56.1614892  70.1446924  82.6778599  56.8925751  71.0476495  83.6484587
  48.7902602  76.5908627  85.9053073  48.2456070  77.3668435  86.0373347
  49.6681952  76.9379432  85.7472194  55.5790219  69.9220211  78.2833871
  55.7006130  68.9936857  78.4824759  55.2892261  69.9358897  77.3712187
  58.4481409  67.6075122  81.4200591  58.4703106  67.6714455  80.4652571
  58.8649468  66.7679630  81.6141097  49.5768624  75.7178524  88.7983230
  48.8350360  75.8661159  89.3847860  49.2561368  75.9786789  87.9349979
  57.5432899  87.4132412  80.8268996  57.1037889  86.9208790  81.5201853
  58.2941016  86.8705379  80.5861071  50.0225238  83.6043952  80.8293624
  50.8483258  83.3047724  80.4492268  49.6719290  82.8351575  81.2783413
  54.9906771  82.9570421  82.8991298  54.3686780  82.2941126  82.5993526
  55.6611638  82.9831553  82.2164946  48.2233843  81.5230279  81.7882558
  47.3865751  81.0952453  81.6066559  48.1957488  81.7162722  82.7253349
  55.0631298  71.4352209  92.4923804  55.1119454  72.3114331  92.1101573
  55.6053812  70.8929602  91.9195447  57.2930587  72.1883581  89.2470163
  56.4233896  72.4817147  88.9752751  57.5290067  72.7724026  89.9677426
  52.3072911  77.5339522  77.3810827  52.0618953  76.6301852  77.5791037
  52.4768825  77.5356672  76.4390305  51.5768558  73.2667879  74.8796989
  50.8837803  73.3412234  74.2237025  51.3320310  72.5028223  75.4018506
  58.3201174  79.3901033  92.6478215  59.2404184  79.5679632  92.8418262
  58.2850757  78.4457079  92.4957915  47.5383339  74.5839627  81.5731490
  47.2186124  73.7304935  81.2805864  46.9916767  74.7988205  82.3289457
  51.3163247  77.3002068  85.2900996  51.5349257  78.2319176  85.3089030
  51.7289021  76.9410042  86.0755800  56.1891112  72.8735274  94.6803745
  56.0887839  73.8229631  94.6115836  55.9712654  72.5453513  93.8079815
  47.4071599  78.2042538  83.5424612  46.7135071  77.7896491  83.0294566
  48.1544590  78.2463075  82.9458030  56.0522382  76.3032413  93.4968807
  55.5689464  77.1032773  93.7032696  56.1383321  76.3140357  92.5436251
  49.3208342  78.1360792  81.4190626  49.2979030  78.2348480  80.4672509
  49.6308978  78.9825943  81.7407793  51.9795720  80.1936947  85.5337241
  52.9338973  80.1620890  85.4667172  51.7808243  79.7327571  86.3487467
  52.5695102  78.7638063  88.1008038  53.3887991  79.2582142  88.1242876
  52.8431909  77.8470031  88.0725606  50.3345948  85.7356567  82.5507439
  50.2000416  84.9756968  81.9845437  49.9178011  86.4597467  82.0836228
  53.4915074  86.6325884  82.7625881  53.3747458  87.5771316  82.6604572
  52.6707521  86.3299445  83.1511681  47.8230016  73.0976197  88.8000236
  48.4688880  72.5875151  89.2887461  47.6147167  73.8344879  89.3743661
  60.3483408  80.1657045  94.2992376  61.2174568  80.3397697  93.9379011
  59.8690160  80.9851461  94.1768105  54.5169588  87.2854146  85.9781810
  55.4196835  87.3177756  86.2948305  54.2906958  86.3554597  85.9928146
  56.2723190  86.0385132  82.6391888  55.3218821  86.0386994  82.5256261
  56.5755677  85.2917867  82.1227923  52.1627507  70.2443814  92.8975250
  53.0258969  69.8880619  93.1078574  51.5892918  69.9057709  93.5850654
  62.2216838  95.1759767  82.4680287  63.0138130  94.8350591  82.0526586
  62.4613488  95.2854742  83.3882440  68.1996407  89.4447156  74.8595195
  68.0796032  89.8904207  75.6980675  67.5048996  89.7932474  74.3008733
  61.7903812  91.5453548  82.4094852  61.9196193  91.7988027  83.3234264
  61.1101263  92.1381256  82.0899507  60.7373237  89.0175561  82.4545894
  59.9472291  89.2733090  81.9786005  61.2284485  89.8323899  82.5597935
  64.7209008  83.6524531  93.8905221  64.3275953  83.0990729  94.5652866
  65.5375148  83.9635109  94.2811739  63.4965950  98.2074145  79.8841544
  63.6732579  99.1292110  79.6962528  64.2922784  97.8932565  80.3135924
  62.7818307  90.2538777  89.7603708  62.6671822  89.3524035  90.0610806
  61.9262825  90.5002474  89.4088524  59.6519982  93.4197043  78.5778362
  60.4895204  93.8294052  78.3612069  59.8298250  92.4796486  78.5478556
  59.6746153  90.7587759  79.2489095  59.4770553  90.1657119  78.5240162
  59.1192817  90.4539969  79.9665034  56.2345985  92.4437954  81.4156841
  56.9217024  92.1299684  80.8277856  56.0794113  93.3479319  81.1424092
  55.8113961  90.5238547  83.6874308  55.8498060  89.9902138  84.4811426
  55.3054253  89.9973753  83.0685285  62.6656995  87.4426220  90.8309884
  63.2929034  87.0603298  91.4447409  61.8084914  87.2240422  91.1965577
  59.6296357  91.9200545  85.9053073  59.0849825  92.6960353  86.0373347
  60.5075706  92.2671350  85.7472194  79.6658788  92.6722299  79.4579814
  80.1089934  91.9229624  79.0598937  78.7885298  92.6632435  79.0753546
  60.4162378  91.0470441  88.7983230  59.6744114  91.1953077  89.3847860
  60.0955123  91.3078707  87.9349979  60.8618992  98.9335870  80.8293624
  61.6877012  98.6339642  80.4492268  60.5113044  98.1643493  81.2783413
  59.0627597  96.8522197  81.7882558  58.2259505  96.4244371  81.6066559
  59.0351243  97.0454640  82.7253349  74.9584828  88.5773032  86.0308055
  75.9102250  88.6771130  86.0520279  74.7888278  87.7851301  86.5406139
  58.3777094  89.9131545  81.5731490  58.0579878  89.0596853  81.2805864
  57.8310522  90.1280123  82.3289457  58.2465354  93.5334456  83.5424612
  57.5528825  93.1188409  83.0294566  58.9938345  93.5754993  82.9458030
  60.1602096  93.4652710  81.4190626  60.1372784  93.5640397  80.4672509
  60.4702733  94.3117861  81.7407793  63.0021261  85.5735732  92.8975250
  63.8652723  85.2172537  93.1078574  62.4286672  85.2349627  93.5850654
  87.0835064 101.4997374  84.9989670  86.4409444 101.7929907  84.3529464
  86.5789993 101.3850294  85.8042867  84.2215552  95.6848990  80.8607497
  84.5274429  94.8246353  80.5733412  84.9468157  96.2766610  80.6606491
  84.4917170  98.1143225  83.3591418  83.5780250  98.3447452  83.5273625
  84.9210271  98.1981669  84.2105451  81.9269724  95.4847316  82.2836480
  82.2071477  94.8170505  82.9096906  82.7120331  95.6776411  81.7711143
  88.4261148 103.9182113  85.1908637  87.9100197 103.1340570  85.0038566
  89.3101097 103.5900830  85.3555157  86.0871875  97.6623129  81.1504450
  85.8896696  97.3538217  82.0347782  86.6971581  98.3884767  81.2802380
  92.1758507 106.3294939  84.8830842  91.4491670 106.1950904  84.2747334
  91.7605794 106.6371768  85.6887560  83.6727895  99.0537618  80.6100966
  84.1727674  99.1654153  79.8015285  84.3163503  98.7498671  81.2501775
  87.3563743 101.8379172  81.1790333  88.1324133 102.3275624  81.4514950
  86.6311877 102.2637226  81.6362203  81.8373255  94.6142854  78.8070069
  81.0705651  94.0601341  78.9526751  82.2483960  94.6864723  79.6684220
  93.6863393 122.5329506  83.7037651  94.3241803 122.4136253  83.0000991
  93.5684236 123.4810350  83.7625603  90.4953099 122.4856934  83.6399175
  90.1571611 122.3697999  82.7519710  91.3642867 122.0848099  83.6200182
  86.3539915 124.3392410  79.6296066  85.7904780 124.2482347  78.8612354
  86.2392310 123.5192315  80.1098559  90.9772882 123.6391786  89.5985381
  90.9661523 123.2444584  88.7265885  91.1393522 122.9057858  90.1919152
  83.9004347 125.8343602  82.4680287  84.6925639 125.4934427  82.0526586
  84.1400997 125.9438577  83.3882440  91.9339474 128.0063378  74.9410531
  91.2827453 128.5917459  74.5544545  92.7283836 128.5369573  75.0005569
  85.8595101 125.0952515  75.3397666  86.6325977 124.5481502  75.2010541
  86.2120500 125.9596765  75.5512127  87.6980143 126.4228898  88.5464565
  87.4070009 127.3274528  88.4311231  88.3337128 126.4645425  89.2608635
  88.6236350 123.8005746  85.1365925  89.2199922 123.5761769  84.4222888
  88.6811322 123.0590492  85.7391372  93.4114739 125.6953810  75.4779516
  92.7760572 125.7688437  76.1900420  93.0812145 126.2847409  74.7998595
  87.9157667 123.1573287  75.1740491  87.7993925 122.4818191  75.8421575
  88.0259927 122.6705661  74.3572644  90.2589208 122.6183435  78.8787180
  89.8947415 122.0914055  79.5900101  91.1156324 122.2281904  78.7053665
  96.1638509 113.9077767  86.1418446  95.8321834 114.7773178  85.9179661
  95.5684122 113.5914051  86.8212476  92.6570028 126.1090313  85.5414359
  92.3570752 127.0115352  85.4330166  92.3121088 125.8422496  86.3935512
  86.1082510 122.5604110  81.5751063  85.1833006 122.4280324  81.7828755
  86.3566923 123.3398329  82.0721005  96.0567172 118.6272853  83.2211796
  95.1484050 118.5588262  82.9270557  96.0054768 119.1044798  84.0493621
  87.6390808 132.8734633  78.5085326  87.5614838 133.8242459  78.5873807
  87.0352452 132.5280506  79.1660253  97.9228819 116.8289292  84.9989670
  97.2803199 117.1221825  84.3529464  97.4183747 116.7142212  85.8042867
  88.3854410 122.8547952  90.7264660  89.1269095 123.3932996  90.4499484
  87.6791396 123.4814241  90.8836212  93.8609750 124.9977093  89.3236822
  94.2693106 124.5559503  88.5791454  93.1387011 124.4229720  89.5771015
  94.1838565 125.5578283  83.0789111  93.5547427 125.7223997  82.3765178
  93.7964227 125.9719893  83.8500075  98.0627796 126.4932721  80.4333474
  97.3778835 126.8731623  79.8830508  98.1471646 127.1028048  81.1665422
  95.3178728 124.1392680  87.0328818  95.5295623 124.7824440  86.3563199
  95.2708476 123.3054997  86.5650748  92.9204957 116.7510501  83.9365390
  92.0589436 117.0491754  84.2282128  92.9467392 116.9680900  83.0046423
  89.7366526 125.2952691  80.3439196  90.2004872 125.5740394  79.5543818
  89.4723325 124.3936136  80.1612286  86.6290608 124.8424173  83.2818959
  87.1991965 125.2711441  82.6436443  87.2198719 124.5606758  83.9803145
  96.4324556 127.0164636  85.2051175  97.2542000 126.6144823  84.9233857
  96.4286959 126.9132870  86.1567291  90.1981159 126.5648679  87.3611886
  90.2625592 127.0269086  88.1970058  89.4892083 125.9346044  87.4894196
 104.5230549 123.3603384  81.5536147 103.7694257 122.7910782  81.3980151
 104.6578090 123.3266049  82.5006781  89.9129177 128.2316786  77.2290866
  89.7774852 129.0768322  77.6575714  90.4538990 128.4336064  76.4656800
  85.1753459 128.8657981  79.8841544  85.3520088 129.7875945  79.6962528
  85.9710293 128.5516400  80.3135924  84.4605816 120.9122613  89.7603708
  84.3459331 120.0107870  90.0610806  83.6050334 121.1586309  89.4088524
  91.5397654 128.8540353  91.3591208  91.0961508 128.0676731  91.0412113
  92.2014867 129.0419503  90.6935099  86.2984775 130.3836155  85.8851887
  86.8492200 130.2553218  85.1128881  85.4596251 130.6831044  85.5346779
  93.6378892 129.1343153  89.3872609  93.6197367 129.9552034  88.8952879
  94.5598812 129.0097228  89.6122751  90.0951946 126.6487282  90.2296118
  90.6280283 125.8875571  89.9995426  89.5666027 126.3560934  90.9720272
  92.3418181 114.1252003  83.7238993  91.8382977 114.0882139  82.9106798
  92.6348788 115.0344746  83.7835649  98.2006198 124.4988314  76.2015368
  97.4235640 124.1599474  75.7570530  98.8797679 124.5040937  75.5270333
  91.4604658 125.7773275  77.7414930  90.9326020 125.0426034  77.4288167
  90.9592161 126.5547951  77.4954898  96.4397504 123.9722295  82.8581976
  95.7821179 124.6621557  82.9462105  97.2437904 124.3618727  83.2015962
  95.2502963 122.3266668  80.9085918  95.7634845 122.9596660  81.4107628
  95.9004187 121.7267864  80.5429278  89.6057259 123.5953485  70.7449903
  88.6984320 123.3642739  70.9441052  90.1028291 122.7991104  70.9323884
  92.5125337 132.3050992  73.6646589  91.8387036 132.6082689  74.2731547
  92.8991159 133.1080073  73.3152046  91.7283794 119.8016124  83.1544258
  90.8106355 120.0231071  82.9965946  92.1443938 119.8762434  82.2955966
  96.0164759 127.3072669  79.0365061  95.5627087 126.4663579  79.0930251
  95.3858726 127.9434068  79.3739841  94.4597699 129.1449166  79.9714879
  94.7520673 129.7054223  79.2527244  94.9696319 129.4377727  80.7268038
  89.3330386 121.3094701  81.3683688  89.3878996 120.3568537  81.2926165
  88.5221588 121.4654140  81.8524987  90.4821580 125.2374824  72.6061972
  90.0441010 124.5210683  72.1467609  91.2232021 125.4650938  72.0447063
  89.4231324 129.9229517  81.0608332  89.3807503 130.1490364  80.1316864
  90.3394023 129.6892892  81.2094133  92.8696958 120.3913585  87.9588961
  93.2246345 120.6185058  88.8183427  93.5169089 120.7231962  87.3366216
  98.5994695 123.5132021  78.6638290  98.4612593 123.7033617  77.7359479
  98.2430913 124.2751403  79.1206341  98.6264074 125.5808548  83.6749562
  99.0600581 125.4883837  84.5232616  99.3395655 125.5566048  83.0369578
  87.5397125 126.7992546  80.8570295  88.3337723 126.3042866  80.6552870
  86.8288817 126.2710409  80.4938000  92.3591969 129.1810642  85.2082662
  92.4128991 129.7501578  85.9760378  91.4906751 129.3512527  84.8436699
  99.4879624 125.6232248  86.2082447  99.6815514 126.5278059  86.4541722
  99.3880242 125.1639667  87.0421032  94.5494732 125.7738991  91.7823328
  94.3980239 125.5449543  90.8653411  94.5399412 126.7309592  91.7954673
  91.3180069 123.3470904  86.7669594  92.2472129 123.4982063  86.5938561
  90.8971099 123.4354925  85.9118241  90.1168401 127.3721568  84.5368132
  89.9779486 127.0040353  85.4094070  89.3282997 127.8869208  84.3652089
  90.7116553 132.4730665  75.8793668  90.8868308 132.0018708  76.6939291
  90.0249341 133.0996431  76.1074929  91.6673616 126.7503171  81.9256969
  91.3323448 126.7103941  82.8214619  91.1677561 126.0847887  81.4527380
  85.6417860 122.1570801  87.4509551  85.5037658 121.4251040  88.0521090
  86.5522783 122.0679701  87.1693738  94.6032807 124.0959205  72.1994029
  93.9861978 123.3706033  72.1027082  94.1349296 124.8568566  71.8561103
  88.2700160 121.8690760  86.9393230  88.9799779 121.2283952  86.8979849
  88.2269469 122.1203655  87.8619411  96.2586939 128.8058114  89.8599809
  96.1999485 128.1217334  89.1930392  96.6606458 129.5477104  89.4080435
  85.2777638 135.6220027  82.6533528  85.5174236 136.2538552  83.3312547
  84.4346834 135.2708067  82.9398888  96.2604346 126.7697698  88.0913789
  95.3731125 126.4323619  88.2140188  96.8302897 126.0380729  88.3282555
  89.7905500 131.4299150  85.0575032  89.7175671 132.2354121  85.5694337
  89.3482893 131.6291116  84.2323054  89.5795279 130.6670920  78.5677854
  88.7962801 131.2092600  78.6616078  90.2788025 131.1844900  78.9672095
 100.7421687 122.1805915  82.8530351 100.7311563 123.0630630  82.4824284
  99.8739066 121.8277466  82.6584888  92.2504183 131.3285984  87.2133191
  92.9632156 131.9633449  87.1409092  91.7594212 131.4249850  86.3973193
  93.9721710 125.2337237  78.7850483  93.0377989 125.3538699  78.6155187
  94.1498379 124.3309703  78.5210493  87.3016097 129.0780427  88.0338762
  88.0025556 129.7116910  88.1868156  86.8311212 129.4195159  87.2734401
  95.4270493 127.4198377  76.3186669  95.7030337 127.3054972  77.2280543
  94.5574991 127.0215862  76.2798842  95.3310924 113.4435143  83.3591418
  94.4174004 113.6739370  83.5273625  95.7604026 113.5273587  84.2105451
  95.1017383 121.6325035  85.8591312  94.4488833 121.8800942  85.2043765
  95.4797763 120.8189173  85.5253789  92.0624557 131.6684728  79.9619482
  92.2446951 130.8506384  80.4247235  92.8857543 131.8852420  79.5244372
  92.3966722 130.5952913  77.2234531  92.9254489 130.0845368  76.6104693
  92.6594942 130.2795443  78.0880064  91.1504956 122.3744846  92.3457349
  90.4745593 122.2738975  93.0159724  91.9732590 122.2184060  92.8093346
  82.8983815 128.6116782  84.9669865  83.4837252 127.8660470  85.0997769
  82.7008653 128.9220739  85.8506528  85.7522470 131.6468030  79.9832307
  85.0832845 132.1314157  79.4996347  85.6135340 131.8937250  80.8975685
  77.4901470 121.1822383  83.6874308  77.5285569 120.6485973  84.4811426
  76.9841762 120.6557588  83.0685285  89.8927739 133.6811773  86.5814965
  90.4446047 133.8443395  87.3464050  90.2333932 134.2716211  85.9094990
  94.7438613 128.5073031  92.4363620  95.2878517 129.1202989  91.9418574
  94.1625458 129.0652609  92.9530633  93.0296126 131.6293749  83.5678647
  92.9047265 130.8283489  83.0589593  93.6875217 132.1239942  83.0792617
  95.0931034 129.4302769  85.1958198  94.1461370 129.3108120  85.1236524
  95.4413807 128.5425267  85.2784459  92.0977468 129.2255485  81.3962550
  91.9502430 128.2972193  81.5770120  92.9230961 129.2475576  80.9119625
  95.7011590 130.0484044  82.4827422  96.6258137 129.8426905  82.3451874
  95.5326893 129.8000445  83.3916764  95.4906906 130.5669711  77.8389514
  95.6643783 130.0016134  77.0863366  95.9835797 131.3670606  77.6569004
  81.3083866 122.5784380  85.9053073  80.7637334 123.3544188  86.0373347
  82.1863215 122.9255185  85.7472194 101.3446297 123.3306134  79.4579814
 101.7877443 122.5813460  79.0598937 100.4672807 123.3216271  79.0753546
  96.4782078 129.8836476  74.9386412  97.1732983 130.5043168  75.1573727
  96.8205228 129.0331827  75.2138790  82.0949887 121.7054277  88.7983230
  81.3531623 121.8536912  89.3847860  81.7742632 121.9662542  87.9349979
  98.3773501 127.3336181  76.4673743  98.9024825 127.6723454  75.7423063
  98.2895854 126.3983197  76.2836878  90.0393550 131.2470255  88.5963620
  90.3480676 131.0019402  89.4686319  90.8369032 131.4516893  88.1082490
  90.0614162 133.4008165  80.8268996  89.6219152 132.9084543  81.5201853
  90.8122279 132.8581132  80.5861071  82.5406501 129.5919705  80.8293624
  83.3664521 129.2923477  80.4492268  82.1900553 128.8227328  81.2783413
  87.5088034 128.9446174  82.8991298  86.8868044 128.2816879  82.5993526
  88.1792901 128.9707306  82.2164946  80.7415106 127.5106032  81.7882558
  79.9047014 127.0828206  81.6066559  80.7138752 127.7038475  82.7253349
  98.0667407 127.9669085  91.7724941  97.2762951 127.9493224  91.2329440
  97.8300762 128.5057379  92.5273978  98.1865282 124.8161551  89.0857669
  98.2363287 124.6511559  90.0273192  98.0779206 123.9488810  88.6955550
  87.0701541 127.4950097  76.3749758  87.2189662 128.1785561  75.7216431
  87.8767985 127.4755187  76.8899214  95.4769045 120.7992479  90.4016976
  96.3778908 120.6598944  90.1100974  95.5517019 120.9646934  91.3415154
  99.6883479 127.2358493  89.3299691  99.3968288 127.5988473  90.1663152
  99.0755611 126.5225501  89.1513023 100.8879162 124.8011373  81.8502261
 101.7226053 125.2401177  82.0139822 101.0238290 124.3250026  81.0310507
  97.9370668 122.3591107  87.7979749  98.4124789 122.5518754  86.9898600
  97.0136233 122.4150293  87.5523133  92.7663478 110.8139234  82.2836480
  93.0465232 110.1462423  82.9096906  93.5514085 111.0068329  81.7711143
  90.5696947 129.9898227  73.8461506  89.9970914 130.6088415  73.3931978
  91.1429740 130.5397589  74.3801428  96.6372337 119.2356868  86.0308055
  97.5889759 119.3354965  86.0520279  96.4675787 118.4435136  86.5406139
  93.7894206 130.2735378  74.9770088  94.7224880 130.2080939  75.1802964
  93.7017419 131.1091644  74.5184621  96.4182223 129.5901248  71.9374036
  96.3395855 129.2561112  72.8309794  97.2391890 130.0823016  71.9365508
  99.1160414 122.4562987  85.1450354  99.0836734 121.5178988  85.3310038
  99.7261038 122.5347024  84.4116179  99.2654903 119.2474031  85.1908637
  98.7493951 118.4632487  85.0038566 100.1494851 118.9192747  85.3555157
 104.9336964 123.5178994  84.2856391 105.6640353 123.2564282  84.8464094
 104.3243910 122.7807716  84.3258459 103.0152261 121.6586857  84.8830842
 102.2885425 121.5242822  84.2747334 102.5999548 121.9663685  85.6887560
  90.8382438 125.3776786  92.6478215  91.7585447 125.5555385  92.8418262
  90.8032021 124.4332832  92.4957915  83.8344510 123.2877821  85.2900996
  84.0530520 124.2194929  85.3089030  84.2470284 122.9285795  86.0755800
  88.5703646 122.2908166  93.4968807  88.0870727 123.0908526  93.7032696
  88.6564585 122.3016110  92.5436251  84.4976983 126.1812700  85.5337241
  85.4520237 126.1496643  85.4667172  84.2989507 125.7203324  86.3487467
  85.0876365 124.7513816  88.1008038  85.9069254 125.2457895  88.1242876
  85.3613173 123.8345784  88.0725606  98.1957498 117.1671090  81.1790333
  98.9717888 117.6567542  81.4514950  97.4705632 117.5929144  81.6362203
 100.6330056 117.8798709  82.2364274 101.2274547 117.6394445  81.5257582
 100.7056640 117.1605839  82.8637810  82.8527212 131.7232320  82.5507439
  82.7181680 130.9632721  81.9845437  82.4359274 132.4473220  82.0836228
  93.9886175 126.9069243  71.5584014  94.6922025 127.1119246  72.1741670
  93.2648824 127.4746005  71.8233097 102.9401129 121.1864910  81.0107695
 102.3800687 121.2558099  81.7839257 102.3344632 121.0105894  80.2907191
  86.0096338 132.6201637  82.7625881  85.8928722 133.5647069  82.6604572
  85.1888784 132.3175198  83.1511681  95.8972872 127.3451773  73.6082474
  96.7318476 126.9132971  73.4259949  95.7357215 127.1733786  74.5359369
  92.8664672 126.1532798  94.2992376  93.7355831 126.3273450  93.9379011
  92.3871423 126.9727215  94.1768105  87.0350852 133.2729899  85.9781810
  87.9378099 133.3053509  86.2948305  86.8088222 132.3430350  85.9928146
  88.7904454 132.0260885  82.6391888  87.8400085 132.0262747  82.5256261
  89.0936940 131.2793620  82.1227923 104.5257147 137.8621424  83.7037651
 105.1635557 137.7428171  83.0000991 104.4077990 138.8102268  83.7625603
 101.3346854 137.8148852  83.6399175 100.9965365 137.6989916  82.7519710
 102.2036622 137.4140017  83.6200182  97.1933669 139.6684328  79.6296066
  96.6298535 139.5774265  78.8612354  97.0786064 138.8484233  80.1098559
 101.8166637 138.9683703  89.5985381 101.8055277 138.5736502  88.7265885
 101.9787276 138.2349776  90.1919152  94.7398101 141.1635520  82.4680287
  95.5319393 140.8226344  82.0526586  94.9794751 141.2730495  83.3882440
  96.6988855 140.4244433  75.3397666  97.4719731 139.8773420  75.2010541
  97.0514254 141.2888682  75.5512127  98.5373898 141.7520815  88.5464565
  98.2463764 142.6566446  88.4311231  99.1730882 141.7937343  89.2608635
  99.4630105 139.1297664  85.1365925 100.0593677 138.9053686  84.4222888
  99.5205076 138.3882409  85.7391372  99.0355133 136.5837099  72.9716116
  99.2880654 136.0618620  72.2099579  98.0979692 136.4203245  73.0742799
 104.0798416 135.5872877  80.7790859 104.8661505 135.1692301  80.4281276
 104.3437120 136.4918970  80.9472507 109.4806843 135.5248111  81.6823837
 110.2132015 134.9547327  81.9161667 108.7246199 135.1369711  82.1230343
  98.7551422 138.4865205  75.1740491  98.6387680 137.8110108  75.8421575
  98.8653682 137.9997579  74.3572644 101.0982963 137.9475352  78.8787180
 100.7341170 137.4205973  79.5900101 101.9550079 137.5573821  78.7053665
 107.0032263 129.2369685  86.1418446 106.6715588 130.1065096  85.9179661
 106.4077877 128.9205969  86.8212476 100.7388450 132.9765252  73.8748528
 100.9062852 133.8445488  74.2418999 100.5485619 133.1392534  72.9509818
  96.9476264 137.8896028  81.5751063  96.0226761 137.7572242  81.7828755
  97.1960678 138.6690247  82.0721005 106.8960927 133.9564771  83.2211796
 105.9877804 133.8880179  82.9270557 106.8448522 134.4336716  84.0493621
 100.7177671 135.4322909  74.8595195 100.5977296 135.8779960  75.6980675
 100.0230259 135.7808227  74.3008733  94.3085075 137.5329301  82.4094852
  94.4377457 137.7863780  83.3234264  93.6282527 138.1257009  82.0899507
 100.9701792 135.3754417  91.1646693 100.1935127 135.9348337  91.1549558
 101.6092356 135.8611200  91.6861563 108.7622573 132.1581209  84.9989670
 108.1196953 132.4513743  84.3529464 108.2577502 132.0434130  85.8042867
 106.4162737 135.9044383  75.6875529 107.3280593 136.1371769  75.5123227
 105.9072384 136.4881427  75.1250608  99.2248165 138.1839870  90.7264660
  99.9662849 138.7224914  90.4499484  98.5185150 138.8106159  90.8836212
 104.7003504 140.3269010  89.3236822 105.1086860 139.8851421  88.5791454
 103.9780766 139.7521638  89.5771015 101.0534574 135.2641617  86.6970379
 101.8995770 135.6881031  86.8405028 100.9933212 134.6075241  87.3908942
 104.2034020 132.9245986  88.3551552 103.9594952 133.6788046  87.8185828
 104.4793950 133.3031333  89.1898799 103.7598712 132.0802419  83.9365390
 102.8983191 132.3783672  84.2282128 103.7861146 132.2972817  83.0046423
 100.5760281 140.6244609  80.3439196 101.0398626 140.9032312  79.5543818
 100.3117079 139.7228054  80.1612286  97.4684362 140.1716091  83.2818959
  98.0385719 140.6003359  82.6436443  98.0592474 139.8898675  83.9803145
  99.5129167 136.7467761  77.1528761 100.2153210 137.1988805  77.6202687
  99.1809795 136.1051580  77.7808654  97.9609529 135.3379518  91.5279970
  97.3308189 136.0195799  91.7615367  97.8545616 135.2262600  90.5833109
  93.2554501 135.0051314  82.4545894  92.4653555 135.2608843  81.9786005
  93.7465748 135.8199652  82.5597935  95.2069246 135.3695893  79.4129371
  94.4100410 135.4814588  79.9312867  94.9794839 135.7082546  78.5470262
 101.0374914 141.8940597  87.3611886 101.1019346 142.3561004  88.1970058
 100.3285838 141.2637962  87.4894196  91.5392204 135.2581805  84.8860885
  91.7900242 136.1428814  85.1518461  92.0751752 135.0786406  84.1135977
  97.2390271 129.6400284  93.8905221  96.8457217 129.0866482  94.5652866
  98.0556412 129.9510862  94.2811739  94.2052329 141.0784142  77.8018791
  94.7176850 141.8727392  77.9524356  94.8575042 140.3810433  77.7352393
  96.0147214 144.1949898  79.8841544  96.1913842 145.1167863  79.6962528
  96.8104047 143.8808318  80.3135924 100.1558232 131.0558163  91.4825478
 100.8967946 131.6565316  91.4029940 100.3876155 130.3135801  90.9243520
  95.2999570 136.2414530  89.7603708  95.1853085 135.3399788  90.0610806
  94.4444088 136.4878227  89.4088524  97.1378529 145.7128072  85.8851887
  97.6885954 145.5845136  85.1128881  96.2990005 146.0122961  85.5346779
 100.9345700 141.9779200  90.2296118 101.4674037 141.2167488  89.9995426
 100.4059781 141.6852852  90.9720272 104.1015395 127.0839266  85.7589760
 103.7579665 127.9740908  85.6828870 104.4694358 126.8940924  84.8959345
  92.1701246 139.4072796  78.5778362  93.0076468 139.8169805  78.3612069
  92.3479513 138.4672239  78.5478556 104.0665678 137.0747877  74.2662195
 103.5512301 137.8452482  74.5050582 103.7942986 136.4013013  74.8895256
 101.6512789 131.9197578  79.3247433 100.7954385 131.5304428  79.1453072
 102.0639741 131.9989539  78.4647219 103.1811936 129.4543921  83.7238993
 102.6776731 129.4174056  82.9106798 103.4742542 130.3636664  83.7835649
  99.4254821 129.5382651  82.7305175 100.2907818 129.3425460  82.3711064
  99.4932330 129.3093003  83.6574531 103.8551981 134.9474969  76.0921976
 103.5502117 135.2621118  76.9432119 104.8082423 135.0256389  76.1349309
 102.2998413 141.1065192  77.7414930 101.7719774 140.3717952  77.4288167
 101.7985916 141.8839869  77.4954898  97.0317141 131.7684859  80.1021541
  97.6060892 131.5460040  79.3694734  97.6188123 131.8373553  80.8550143
 106.0896718 137.6558586  80.9085918 106.6028599 138.2888578  81.4107628
 106.7397942 137.0559781  80.5429278  97.3586728 133.7989320  74.1217427
  96.5224040 134.1364006  74.4426701  97.2191497 133.6638300  73.1844564
  99.3339808 128.6426108  78.8296611  98.6804221 128.3275125  78.2053226
  99.2920282 128.0201848  79.5556434 100.4451013 138.9245403  70.7449903
  99.5378075 138.6934656  70.9441052 100.9422045 138.1283022  70.9323884
 102.5677549 135.1308041  83.1544258 101.6500110 135.3522988  82.9965946
 102.9837692 135.2054352  82.2955966 103.3512596 136.5299457  78.2846939
 104.0984415 137.0420854  77.9754061 103.6204186 136.2083510  79.1451332
 101.6239247 139.0257998  75.2673893 100.7150466 138.7417030  75.3646363
 101.6534330 139.4457076  74.4077200 105.7991434 133.5656573  80.2665728
 105.0614190 133.0533959  80.5975971 106.0518207 133.1256955  79.4549005
 105.9003061 126.3432825  80.8607497 106.2061938 125.4830189  80.5733412
 106.6255666 126.9350445  80.6606491  92.1927417 136.7463512  79.2489095
  91.9951817 136.1532872  78.5240162  91.6374081 136.4415722  79.9665034
 100.1724141 136.6386618  81.3683688 100.2272750 135.6860455  81.2926165
  99.3615343 136.7946057  81.8524987 101.3215334 140.5666741  72.6061972
 100.8834764 139.8502600  72.1467609 102.0625775 140.7942856  72.0447063
  98.1116501 135.2563678  79.1274067  97.2984366 135.5557849  79.5339259
  98.6075495 134.8619367  79.8448549 103.7090712 135.7205502  87.9588961
 104.0640100 135.9476976  88.8183427 104.3562843 136.0523879  87.3366216
  97.6030575 132.8282033  84.7435302  98.2429955 132.6870793  84.0458265
  96.7708106 132.5416547  84.3673904  98.3790879 142.1284464  80.8570295
  99.1731478 141.6334784  80.6552870  97.6682572 141.6002327  80.4938000
  94.6873643 136.2727546  76.9330047  93.7571231 136.2112001  77.1500009
  94.7831115 135.7503498  76.1366689  94.6059192 132.7982358  79.5208289
  94.8666009 133.7127692  79.4117449  95.4276364 132.3306801  79.6704902
  96.0784117 134.2120116  86.6907113  96.7507170 134.0037478  86.0419762
  95.2513904 134.0142202  86.2512346 101.9809689 130.8382057  88.7072774
 101.3337604 131.5372006  88.6137251 102.7510704 131.2718200  89.0749023
 102.1573823 138.6762821  86.7669594 103.0865883 138.8273981  86.5938561
 101.7364853 138.7646842  85.9118241 100.9562155 142.7013486  84.5368132
 100.8173241 142.3332270  85.4094070 100.1676751 143.2161125  84.3652089
 102.5067370 142.0795089  81.9256969 102.1717203 142.0395859  82.8214619
 102.0071316 141.4139805  81.4527380  96.4811614 137.4862719  87.4509551
  96.3431412 136.7542957  88.0521090  97.3916538 137.3971619  87.1693738
 105.4426562 139.4251123  72.1994029 104.8255733 138.6997951  72.1027082
 104.9743050 140.1860483  71.8561103  99.1093915 137.1982678  86.9393230
  99.8193533 136.5575870  86.8979849  99.0663223 137.4495573  87.8619411
  97.8222849 134.1847896  88.7588870  97.2860206 133.7338634  89.4110466
  97.2339557 134.3193805  88.0159334  97.2325108 133.6436547  71.3215333
  96.3554574 133.5225348  70.9577580  97.7082861 132.8522626  71.0694222
  88.7527248 138.4313707  81.4156841  89.4398288 138.1175437  80.8277856
  88.5975377 139.3355072  81.1424092  93.5561970 133.3203904  85.8441864
  93.4720159 132.7129573  85.1092274  92.7344677 133.8112922  85.8451361
 103.7285684 131.8057467  81.2112059 104.2254384 131.0527429  80.8913130
 102.9572666 131.8421784  80.6455269 104.8115465 140.5629154  78.7850483
 103.8771743 140.6830617  78.6155187 104.9892133 139.6601621  78.5210493
 100.3120653 133.9474850  80.9383744  99.9418440 133.3945890  81.6264649
 100.8079745 133.3432984  80.3858744 108.1988016 136.4046474  79.3200517
 108.6648468 137.2374465  79.2460819 108.6495517 135.9391455  80.0245775
 106.1704679 128.7727061  83.3591418 105.2567759 129.0031287  83.5273625
 106.5997780 128.8565505  84.2105451 105.9411137 136.9616953  85.8591312
 105.2882588 137.2092860  85.2043765 106.3191517 136.1481091  85.5253789
 101.9898710 137.7036764  92.3457349 101.3139347 137.6030893  93.0159724
 102.8126344 137.5475977  92.8093346  93.7377569 143.9408700  84.9669865
  94.3231006 143.1952388  85.0997769  93.5402408 144.2512657  85.8506528
  88.3295224 136.5114300  83.6874308  88.3679324 135.9777891  84.4811426
  87.8235517 135.9849506  83.0685285  95.7085986 131.3578841  87.1836850
  95.7727313 132.2193672  86.7714248  95.6453107 130.7452842  86.4509208
  95.1838259 133.4301973  90.8309884  95.8110298 133.0479051  91.4447409
  94.3266178 133.2116175  91.1965577  91.9603802 135.2378402  76.7628239
  92.2557243 134.3289081  76.7095293  91.0591837 135.2166142  76.4409241
  95.4898049 133.3134399  82.7455788  94.7684634 133.9270367  82.6063261
  96.2791304 133.8492164  82.6672434  98.2924362 130.6488826  89.0196439
  98.8158764 130.8951122  89.7822749  98.0736696 131.4808860  88.5999577
  93.6891643 132.9192500  76.8867564  93.3604349 132.0389879  76.7042670
  94.0431014 132.8640169  77.7743953  96.8033466 133.2065470  77.2543042
  97.1429539 133.7351391  76.5321650  97.2505587 133.5445876  78.0301608
  99.4976907 131.5902521  86.7046110  99.1573728 130.7910334  87.1066790
  98.7915914 131.8904232  86.1322943 100.1493379 128.6751833  85.1573433
 100.9719448 128.2012311  85.0352323 100.3931443 129.4542317  85.6572119
  98.7901614 131.7040092  75.4536335  99.5109976 132.0821344  74.9500051
  98.1666918 132.4228968  75.5571313 102.9332736 132.4085241  76.3894667
 103.1496351 133.2909878  76.0883495 102.4526804 132.0171454  75.6600309
  97.6731958 135.3670954  82.9665412  97.5276539 135.6811257  83.8589693
  97.1957161 135.9855854  82.4136310  99.5328341 132.3573502  83.0146301
  99.5189910 131.4614595  82.6778599 100.2500769 132.3644165  83.6484587
 101.3854471 132.7910842  85.0599429 101.1272249 133.7127913  85.0583759
 100.8539512 132.3941276  85.7499893  92.1477620 137.9076298  85.9053073
  91.6031088 138.6836106  86.0373347  93.0256970 138.2547103  85.7472194
  98.9365237 131.2387882  78.2833871  99.0581148 130.3104528  78.4824759
  98.6467279 131.2526568  77.3712187 101.8056427 128.9242792  81.4200591
 101.8278124 128.9882126  80.4652571 102.2224486 128.0847301  81.6141097
  92.9343642 137.0346194  88.7983230  92.1925378 137.1828830  89.3847860
  92.6136386 137.2954460  87.9349979  93.3800256 144.9211623  80.8293624
  94.2058275 144.6215395  80.4492268  93.0294308 144.1519246  81.2783413
  98.3481789 144.2738091  82.8991298  97.7261798 143.6108796  82.5993526
  99.0186656 144.2999223  82.2164946  91.5808861 142.8397950  81.7882558
  90.7440769 142.4120124  81.6066559  91.5532506 143.0330393  82.7253349
  98.4206316 132.7519879  92.4923804  98.4694472 133.6282002  92.1101573
  98.9628830 132.2097272  91.9195447  97.9095296 142.8242015  76.3749758
  98.0583416 143.5077479  75.7216431  98.7161739 142.8047105  76.8899214
 106.3162799 136.1284397  90.4016976 107.2172662 135.9890862  90.1100974
 106.3910774 136.2938852  91.3415154 100.6505605 133.5051252  89.2470163
  99.7808914 133.7984818  88.9752751 100.8865085 134.0891697  89.9677426
  95.6647929 138.8507192  77.3810827  95.4193971 137.9469522  77.5791037
  95.8343843 138.8524343  76.4390305 103.3544638 129.7230869  86.7635583
 103.8726582 130.4591896  86.4382071 102.9999771 130.0294862  87.5982342
  94.9343576 134.5835550  74.8796989  94.2412821 134.6579905  74.2237025
  94.6895328 133.8195894  75.4018506 103.6057233 126.1431151  82.2836480
 103.8858986 125.4754340  82.9096906 104.3907840 126.3360247  81.7711143
 107.4766091 134.5648785  86.0308055 108.4283514 134.6646883  86.0520279
 107.3069541 133.7727054  86.5406139 105.4980470 131.6504368  86.2167456
 104.9030403 131.9309381  85.5213944 105.2130167 132.1398269  86.9884197
 101.7937500 136.6550958  71.1877558 102.7396604 136.5257166  71.2565976
 101.4151745 135.9165620  71.6646986 110.1048657 134.5765948  85.1908637
 109.5887706 133.7924405  85.0038566 110.9888606 134.2484665  85.3555157
 107.7659384 128.3206964  81.1504450 107.5684205 128.0122052  82.0347782
 108.3759090 129.0468603  81.2802380 101.6776192 140.7068704  92.6478215
 102.5979202 140.8847303  92.8418262 101.6425775 139.7624749  92.4957915
  99.9780417 134.5800934  71.1232444  99.0711872 134.2834047  71.1995157
 100.2556398 134.2830752  70.2566730  90.8958357 135.9007298  81.5731490
  90.5761142 135.0472606  81.2805864  90.3491785 136.1155876  82.3289457
  94.6738265 138.6169739  85.2900996  94.8924275 139.5486846  85.3089030
  95.0864039 138.2577713  86.0755800 101.5942483 129.1237824  77.2776685
 100.7843211 128.7784909  77.6531931 102.2826899 128.8145368  77.8664296
 103.5233031 128.2015871  78.9000981 104.0764069 128.6211324  79.5591005
 103.7603117 127.2751619  78.9423937  99.5466130 134.1902944  94.6803745
  99.4462857 135.1397301  94.6115836  99.3287672 133.8621183  93.8079815
  98.7479201 131.4387869  71.2644423  99.6098365 131.7642768  71.5240240
  98.9329546 130.6519365  70.7517489  90.7646617 139.5210209  83.5424612
  90.0710089 139.1064162  83.0294566  91.5119608 139.5630746  82.9458030
 106.9011838 130.3116396  78.4079646 106.3210507 130.9701200  78.0257698
 106.6347771 129.4893741  77.9967063 105.3515404 129.7121454  80.6100966
 105.8515183 129.8237988  79.8015285 105.9951012 129.4082507  81.2501775
  99.4097400 137.6200083  93.4968807  98.9264482 138.4200443  93.7032696
  99.4958339 137.6308028  92.5436251  92.6783360 139.4528463  81.4190626
  92.6554048 139.5516150  80.4672509  92.9883996 140.2993614  81.7407793
  95.3370738 141.5104618  85.5337241  96.2913991 141.4788560  85.4667172
  95.1383261 141.0495242  86.3487467  95.9270120 140.0805734  88.1008038
  96.7463009 140.5749813  88.1242876  96.2006927 139.1637702  88.0725606
 105.6836716 132.4716486  77.4635994 104.7962571 132.7566137  77.2456189
 106.0990705 132.3110250  76.6163271 109.0351252 132.4963007  81.1790333
 109.8111642 132.9859460  81.4514950 108.3099386 132.9221062  81.6362203
 111.4723811 133.2090627  82.2364274 112.0668301 132.9686362  81.5257582
 111.5450394 132.4897757  82.8637810  93.6920966 147.0524237  82.5507439
  93.5575434 146.2924638  81.9845437  93.2753029 147.7765137  82.0836228
 105.6577740 137.9871022  77.6786284 105.6012941 138.4439574  76.8393917
 106.2106082 137.2261707  77.5009127 109.4682546 133.7760754  78.5036404
 109.2119480 133.3757390  79.3344611 108.8435414 134.4904548  78.3786543
 106.3912519 139.1775804  74.9738813 106.3361323 139.0120075  74.0327257
 105.7658574 139.8851836  75.1301003  91.1805034 134.4143868  88.8000236
  91.8263898 133.9042822  89.2887461  90.9722185 135.1512550  89.3743661
  99.7008644 128.6783913  74.5524132  99.6887314 129.6225752  74.7092403
 100.5932066 128.4954058  74.2583593 103.5160764 125.2726689  78.8070069
 102.7493160 124.7185176  78.9526751 103.9271469 125.3448558  79.6684220
  95.5202525 131.5611485  92.8975250  96.3833987 131.2048290  93.1078574
  94.9467936 131.2225380  93.5850654  28.6500867   7.5640123  70.4282957
  29.2879277   7.4446870  69.7246297  28.5321710   8.5120966  70.4870910
  25.4590574   7.5167551  70.3644482  25.1209085   7.4008615  69.4765017
  26.3280342   7.1158716  70.3445488  21.3177389   9.3703027  66.3541373
  20.7542254   9.2792964  65.5857661  21.2029784   8.5502931  66.8343866
  25.9410357   8.6702402  76.3230688  25.9298997   8.2755201  75.4511191
  26.1030996   7.9368475  76.9164459  18.8641821  10.8654219  69.1925594
  19.6563113  10.5245043  68.7771893  19.1038471  10.9749194  70.1127747
  26.8976948  13.0373995  61.6655838  26.2464928  13.6228075  61.2789852
  27.6921311  13.5680190  61.7250875  20.8232575  10.1263132  62.0642972
  21.5963451   9.5792119  61.9255848  21.1757974  10.9907381  62.2757434
  22.6617618  11.4539514  75.2709872  22.3707484  12.3585145  75.1556538
  23.2974602  11.4956042  75.9853941  23.5873825   8.8316363  71.8611231
  24.1837397   8.6072385  71.1468194  23.6448796   8.0901108  72.4636679
  23.1598853   6.2855798  59.6961422  23.4124374   5.7637319  58.9344885
  22.2223412   6.1221943  59.7988106  28.2042136   5.2891576  67.5036165
  28.9905225   4.8711000  67.1526582  28.4680840   6.1937669  67.6717814
  28.3752213  10.7264427  62.2024822  27.7398046  10.7999053  62.9145727
  28.0449619  11.3158025  61.5243902  33.6050563   5.2266810  68.4069144
  34.3375735   4.6566026  68.6406973  32.8489919   4.8388410  68.8475650
  22.8795142   8.1883904  61.8985797  22.7631400   7.5128807  62.5666882
  22.9897402   7.7016278  61.0817950  25.2226683   7.6494051  65.6032486
  24.8584890   7.1224672  66.3145408  26.0793798   7.2592520  65.4298972
  27.6207503  11.1400930  72.2659665  27.3208226  12.0425968  72.1575473
  27.2758562  10.8733113  73.1180818  21.0719984   7.5914726  68.2996370
  20.1470481   7.4590941  68.5074061  21.3204397   8.3708946  68.7966312
  31.0204647   3.6583470  69.9457103  30.1121524   3.5898878  69.6515864
  30.9692242   4.1355415  70.7738928  24.8421390   5.1341608  61.5840502
  24.7221016   5.5798659  62.4225982  24.1473979   5.4826926  61.0254040
  22.6028283  17.9045250  65.2330633  22.5252312  18.8553075  65.3119114
  21.9989926  17.5591122  65.8905559  25.0945512   5.0773115  77.8892000
  24.3178846   5.6367036  77.8794865  25.7336075   5.5629898  78.4106870
  32.8866293   1.8599908  71.7234977  32.2440673   2.1532441  71.0774771
  32.3821221   1.7452829  72.5288173  30.5406457   5.6063081  62.4120836
  31.4524313   5.8390468  62.2368533  30.0316104   6.1900126  61.8495914
  23.3491885   7.8858569  77.4509967  24.0906569   8.4243613  77.1744791
  22.6428870   8.5124858  77.6081519  28.8247224  10.0287709  76.0482128
  29.2330580   9.5870120  75.3036761  28.1024486   9.4540337  76.3016321
  25.1778294   4.9660316  73.4215685  26.0239489   5.3899730  73.5650334
  25.1176932   4.3093940  74.1154248  29.1476039  10.5888900  69.8034417
  28.5184901  10.7534614  69.1010485  28.7601701  11.0030509  70.5745381
  33.0265271  11.5243338  67.1578781  32.3416309  11.9042239  66.6075814
  33.1109120  12.1338664  67.8910729  28.3277740   2.6264684  75.0796859
  28.0838672   3.3806745  74.5431135  28.6037670   3.0050032  75.9144106
  30.2816202   9.1703297  73.7574125  30.4933098   9.8135057  73.0808506
  30.2345951   8.3365613  73.2896055  27.8842431   1.7821117  70.6610697
  27.0226910   2.0802371  70.9527434  27.9104866   1.9991516  69.7291729
  24.7004001  10.3263308  67.0684502  25.1642346  10.6051011  66.2789125
  24.4360799   9.4246753  66.8857593  21.5928082   9.8734790  70.0064266
  22.1629439  10.3022058  69.3681750  22.1836194   9.5917374  70.7048451
  23.6372887   6.4486460  63.8774068  24.3396930   6.9007504  64.3447994
  23.3053515   5.8070279  64.5053961  31.3962030  12.0475252  71.9296482
  32.2179474  11.6455439  71.6479164  31.3924433  11.9443486  72.8812598
  25.1618634  11.5959295  74.0857192  25.2263066  12.0579703  74.9215364
  24.4529558  10.9656660  74.2139502  39.4868023   8.3914001  68.2781453
  38.7331732   7.8221399  68.1225458  39.6215565   8.3576665  69.2252088
  24.8766651  13.2627403  63.9536173  24.7412326  14.1078939  64.3821021
  25.4176464  13.4646681  63.1902107  18.3296049  10.7802841  64.5264098
  18.8420569  11.5746091  64.6769662  18.9818762  10.0829131  64.4597699
  20.1390934  13.8968597  66.6086851  20.3157562  14.8186562  66.4207835
  20.9347767  13.5827016  67.0381231  26.5035128  13.8850969  78.0836515
  26.0598982  13.0987348  77.7657419  27.1652341  14.0730120  77.4180406
  21.2622249  15.4146771  72.6097193  21.8129674  15.2863834  71.8374187
  20.4233725  15.7141660  72.2592086  28.6016366  14.1653769  76.1117916
  28.5834841  14.9862650  75.6198185  29.5236286  14.0407845  76.3368057
  25.0589420  11.6797899  76.9541424  25.5917757  10.9186187  76.7240732
  24.5303501  11.3871551  77.6965579  28.1909398   6.7766576  60.9907501
  27.6756021   7.5471181  61.2295889  27.9186706   6.1031712  61.6140563
  33.1643672   9.5298931  62.9260675  32.3873115   9.1910090  62.4815837
  33.8435153   9.5351554  62.2515640  27.9795701   4.6493668  62.8167282
  27.6745836   4.9639817  63.6677426  28.9326143   4.7275088  62.8594615
  26.4242133  10.8083891  64.4660236  25.8963494  10.0736651  64.1533474
  25.9229635  11.5858568  64.2200205  31.4034979   9.0032912  69.5827283
  30.7458653   9.6932173  69.6707411  32.2075378   9.3929344  69.9261269
  30.2140438   7.3577285  67.6331225  30.7272319   7.9907276  68.1352934
  30.8641661   6.7578480  67.2674585  24.5694733   8.6264102  57.4695209
  23.6621795   8.3953355  57.6686358  25.0665765   7.8301721  57.6569191
  27.4762812  17.3361609  60.3891896  26.8024511  17.6393306  60.9976853
  27.8628634  18.1390689  60.0397353  26.6921268   4.8326740  69.8789565
  25.7743830   5.0541687  69.7211253  27.1081412   4.9073051  69.0201272
  27.4756316   6.2318156  65.0092245  28.2228135   6.7439553  64.6999367
  27.7447906   5.9102208  65.8696639  25.7482966   8.7276696  61.9919200
  24.8394186   8.4435729  62.0891669  25.7778050   9.1475775  61.1322506
  30.9802234  12.3383286  65.7610367  30.5264561  11.4974196  65.8175558
  30.3496200  12.9744684  66.0985147  29.9235153   3.2675272  66.9911035
  29.1857910   2.7552658  67.3221277  30.1761927   2.8275654  66.1794311
  29.4235173  14.1759783  66.6960185  29.7158147  14.7364840  65.9772551
  29.9333794  14.4688344  67.4513344  24.2967860   6.3405317  68.0928995
  24.3516470   5.3879153  68.0171472  23.4859062   6.4964756  68.5770293
  25.4459054  10.2685440  59.3307278  25.0078484   9.5521299  58.8712916
  26.1869495  10.4961555  58.7692370  24.3868798  14.9540134  67.7853638
  24.3444977  15.1800980  66.8562171  25.3031497  14.7203508  67.9339440
  27.8334432   5.4224201  74.6834268  28.1883820   5.6495674  75.5428733
  28.4806563   5.7542578  74.0611523  33.5632169   8.5442637  65.3883597
  33.4250068   8.7344233  64.4604786  33.2068388   9.3062020  65.8451648
  33.5901549  10.6119164  70.3994868  34.0238055  10.5194453  71.2477922
  34.3033129  10.5876665  69.7614884  22.5034599  11.8303163  67.5815601
  23.2975197  11.3353483  67.3798176  21.7926291  11.3021026  67.2183307
  27.3229443  14.2121258  71.9327969  27.3766466  14.7812195  72.7005685
  26.4544225  14.3823143  71.5682006  34.4517098  10.6542865  72.9327754
  34.6452988  11.5588675  73.1787029  34.3517716  10.1950284  73.7666339
  29.5132207  10.8049608  78.5068634  29.3617713  10.5760159  77.5898718
  29.5036886  11.7620209  78.5199979  26.2817543   8.3781520  73.4914901
  27.2109603   8.5292680  73.3183868  25.8608573   8.4665541  72.6363547
  25.0805875  12.4032185  71.2613438  24.9416961  12.0350969  72.1339376
  24.2920471  12.9179824  71.0897396  25.6754027  17.5041281  62.6038975
  25.8505783  17.0329324  63.4184598  24.9886815  18.1307047  62.8320236
  26.6311090  11.7813787  68.6502276  26.2960923  11.7414557  69.5459926
  26.1315036  11.1158503  68.1772686  20.6055334   7.1881417  74.1754857
  20.4675132   6.4561656  74.7766396  21.5160258   7.0990318  73.8939045
  29.5670282   9.1269822  58.9239336  28.9499452   8.4016650  58.8272388
  29.0986770   9.8879182  58.5806410  23.2337635   6.9001377  73.6638537
  23.9437253   6.2594569  73.6225155  23.1906943   7.1514272  74.5864718
  31.2224413  13.8368730  76.5845116  31.1636960  13.1527950  75.9175699
  31.6243932  14.5787720  76.1325742  20.2415112  20.6530644  69.3778835
  20.4811710  21.2849168  70.0557854  19.3984309  20.3018684  69.6644194
  31.2241821  11.8008314  74.8159096  30.3368599  11.4634236  74.9385495
  31.7940372  11.0691345  75.0527861  24.7542974  16.4609766  71.7820339
  24.6813146  17.2664738  72.2939644  24.3120367  16.6601732  70.9568360
  24.5432754  15.6981536  65.2923161  23.7600276  16.2403217  65.3861385
  25.2425499  16.2155516  65.6917402  35.7059161   7.2116531  69.5775657
  35.6949037   8.0941247  69.2069591  34.8376541   6.8588082  69.3830194
  27.2141658  16.3596600  73.9378498  27.9269630  16.9944065  73.8654399
  26.7231686  16.4560466  73.1218499  28.9359185  10.2647853  65.5095789
  28.0015463  10.3849316  65.3400494  29.1135853   9.3620320  65.2455799
  32.3231736   6.1065172  66.0445823  32.7892188   6.9393164  65.9706126
  32.7739236   5.6410154  66.7491082  22.2653571  14.1091044  74.7584068
  22.9663031  14.7427527  74.9113463  21.7948686  14.4505775  73.9979708
  30.3907967  12.4508994  63.0431975  30.6667811  12.3365588  63.9525850
  29.5212466  12.0526479  63.0044149  30.0654857   6.6635651  72.5836619
  29.4126307   6.9111559  71.9289072  30.4435237   5.8499790  72.2499096
  27.0262031  16.6995345  66.6864789  27.2084426  15.8817000  67.1492541
  27.8495017  16.9163037  66.2489679  27.3604197  15.6263530  63.9479838
  27.8891963  15.1155984  63.3350000  27.6232416  15.3106060  64.8125371
  26.1142430   7.4055462  79.0702656  25.4383067   7.3049592  79.7405031
  26.9370064   7.2494676  79.5338653  17.8621289  13.6427399  71.6915171
  18.4474726  12.8971087  71.8243075  17.6646128  13.9531356  72.5751835
  20.7159944  16.6778646  66.7077614  20.0470320  17.1624774  66.2241654
  20.5772814  16.9247867  67.6220992  24.8565213  18.7122390  73.3060272
  25.4083521  18.8754011  74.0709357  25.1971406  19.3026828  72.6340297
  29.7076087  13.5383647  79.1608926  30.2515991  14.1513606  78.6663881
  29.1262932  14.0963226  79.6775939  27.9933600  16.6604365  70.2923954
  27.8684740  15.8594105  69.7834900  28.6512691  17.1550559  69.8037924
  30.0568509  14.4613386  71.9203504  29.1098844  14.3418737  71.8481831
  30.4051282  13.5735884  72.0029766  27.0614942  14.2566102  68.1207856
  26.9139904  13.3282809  68.3015426  27.8868435  14.2786192  67.6364932
  30.6649064  15.0794660  69.2072729  31.5895611  14.8737522  69.0697180
  30.4964367  14.8311062  70.1162071  30.4544380  15.5980328  64.5634821
  30.6281258  15.0326750  63.8108673  30.9473271  16.3981223  64.3814311
  36.3083771   8.3616751  66.1825120  36.7514917   7.6124076  65.7844244
  35.4310282   8.3526887  65.7998852  31.4419553  14.9147092  61.6631719
  32.1370457  15.5353785  61.8819034  31.7842703  14.0642444  61.9384097
  33.3410976  12.3646798  63.1919050  33.8662300  12.7034071  62.4668370
  33.2533328  11.4293813  63.0082184  25.0031024  16.2780871  75.3208926
  25.3118151  16.0330018  76.1931626  25.8006506  16.4827510  74.8327796
  25.0251636  18.4318781  67.5514303  24.5856627  17.9395160  68.2447160
  25.7759753  17.8891749  67.3106378  17.5043975  14.6230322  67.5538931
  18.3301995  14.3234094  67.1737574  17.1538027  13.8537944  68.0028720
  22.4725509  13.9756790  69.6236604  21.8505518  13.3127495  69.3238832
  23.1430375  14.0017922  68.9410252  15.7052580  12.5416648  68.5127864
  14.8684489  12.1138823  68.3311866  15.6776226  12.7349092  69.4498656
  33.0304882  12.9979701  78.4970248  32.2400425  12.9803840  77.9574747
  32.7938236  13.5367995  79.2519284  33.1502757   9.8472168  75.8102976
  33.2000762   9.6822175  76.7518499  33.0416680   8.9799427  75.4200857
  22.0339015  12.5260714  63.0995065  22.1827136  13.2096178  62.4461738
  22.8405459  12.5065804  63.6144521  30.4406519   5.8303096  77.1262283
  31.3416382   5.6909561  76.8346281  30.5154494   5.9957551  78.0660460
  34.6520954  12.2669109  76.0544998  34.3605762  12.6299090  76.8908459
  34.0393085  11.5536118  75.8758330  35.8516636   9.8321989  68.5747568
  36.6863527  10.2711793  68.7385128  35.9875765   9.3560642  67.7555814
  32.9008142   7.3901724  74.5225056  33.3762263   7.5829370  73.7143907
  31.9773707   7.4460910  74.2768439  19.7891648   8.5525891  64.1056134
  19.5437690   7.6488221  64.3036344  19.9587563   8.5543042  63.1635612
  25.5334421  15.0208844  60.5706812  24.9608388  15.6399031  60.1177284
  26.1067215  15.5708206  61.1046734  31.6009811   4.2667484  72.7553361
  32.5527234   4.3665582  72.7765585  31.4313261   3.4745753  73.2651446
  29.6224190   1.3523067  72.9412762  29.0274122   1.6328080  72.2459251
  29.3373887   1.8416968  73.7129503  28.7531681  15.3045994  61.7015395
  29.6862354  15.2391556  61.9048270  28.6654894  16.1402261  61.2429927
  31.3819697  14.6211864  58.6619342  31.3033329  14.2871728  59.5555100
  32.2029364  15.1133632  58.6610815  34.0797889   7.4873604  71.8695661
  34.0474209   6.5489605  72.0555345  34.6898512   7.5657640  71.1361486
  25.9181219   6.3569657  57.9122865  26.8640324   6.2275865  57.9811283
  25.5395464   5.6184319  58.3892293  34.2292377   4.2784647  71.9153944
  33.7131426   3.4943104  71.7283873  35.1132326   3.9503364  72.0800464
  39.8974438   8.5489611  71.0101698  40.6277827   8.2874899  71.5709401
  39.2881384   7.8118333  71.0503766  37.9789736   6.6897473  71.6076149
  37.2522899   6.5553438  70.9992640  37.5637022   6.9974302  72.4132867
  25.8019912  10.4087403  79.3723522  26.7222921  10.5866002  79.5663568
  25.7669495   9.4643448  79.2203221  18.7981985   8.3188438  72.0146303
  19.0167994   9.2505545  72.0334337  19.2107758   7.9596412  72.8001107
  31.0255558   0.0135095  65.1324952  30.4454227   0.6719899  64.7503005
  30.7591490  -0.8087561  64.7212370  23.5341120   7.3218782  80.2214114
  23.0508202   8.1219142  80.4278003  23.6202059   7.3326727  79.2681558
  16.8027080   9.1547162  68.1435933  16.7797768   9.2534849  67.1917816
  17.1127716  10.0012313  68.4653099  19.4614457  11.2123317  72.2582547
  20.4157711  11.1807259  72.1912479  19.2626981  10.7513941  73.0732773
  20.0513840   9.7824433  74.8253345  20.8706729  10.2768512  74.8488182
  20.3250647   8.8656401  74.7970913  29.8080436   2.1735185  64.1881301
  28.9206291   2.4584836  63.9701495  30.2234425   2.0128949  63.3408578
  33.1594972   2.1981706  67.9035640  33.9355362   2.6878159  68.1760257
  32.4343106   2.6239760  68.3607509  35.5967531   2.9109325  68.9609581
  36.1912021   2.6705061  68.2502889  35.6694114   2.1916456  69.5883117
  17.8164686  16.7542936  69.2752745  17.6819154  15.9943337  68.7090743
  17.3996748  17.4783836  68.8081534  28.9523649  11.9379860  58.2829321
  29.6559499  12.1429862  58.8986976  28.2286298  12.5056622  58.5478404
  29.7821459   7.6889721  64.4031591  29.7256661   8.1458273  63.5639223
  30.3349802   6.9280406  64.2254434  33.5926265   3.4779453  65.2281710
  33.3363200   3.0776089  66.0589918  32.9679133   4.1923247  65.1031849
  37.9038603   6.2175526  67.7353002  37.3438161   6.2868716  68.5084564
  37.2982107   6.0416511  67.0152498  20.9733812  17.6512253  69.4871188
  20.8566196  18.5957686  69.3849878  20.1526258  17.3485815  69.8756987
  30.8610347  12.3762389  60.3327781  31.6955951  11.9443588  60.1505255
  30.6994690  12.2044403  61.2604675  30.5156239   8.8794502  61.6984120
  30.4605043   8.7138774  60.7572564  29.8902294   9.5870535  61.8546310
  27.8302146  11.1843414  81.0237683  28.6993306  11.3584067  80.6624318
  27.3508897  12.0037831  80.9013412  21.9988326  18.3040515  72.7027116
  22.9015573  18.3364126  73.0193611  21.7725696  17.3740966  72.7173452
  23.7541928  17.0571502  69.3637195  22.8037559  17.0573363  69.2501567
  24.0574414  16.3104236  68.8473230  32.1571144  24.6994945  66.3541373
  31.5936009  24.6084882  65.5857661  32.0423539  23.8794849  66.8343866
  29.7035576  26.1946136  69.1925594  30.4956868  25.8536961  68.7771893
  29.9432226  26.3041111  70.1127747  37.7370702  28.3665912  61.6655838
  37.0858682  28.9519993  61.2789852  38.5315065  28.8972107  61.7250875
  31.6626330  25.4555050  62.0642972  32.4357206  24.9084037  61.9255848
  32.0151728  26.3199299  62.2757434  33.9992607  21.6147716  59.6961422
  34.2518128  21.0929237  58.9344885  33.0617166  21.4513861  59.7988106
  39.0435890  20.6183494  67.5036165  39.8298979  20.2002917  67.1526582
  39.3074595  21.5229586  67.6717814  39.2145968  26.0556344  62.2024822
  38.5791801  26.1290971  62.9145727  38.8843374  26.6449943  61.5243902
  33.7188896  23.5175822  61.8985797  33.6025154  22.8420725  62.5666882
  33.8291156  23.0308196  61.0817950  36.0620437  22.9785969  65.6032486
  35.6978644  22.4516590  66.3145408  36.9187553  22.5884438  65.4298972
  35.7025924  18.0075868  60.5993835  35.8700326  18.8756105  60.9664306
  35.5123093  18.1703150  59.6755124  31.9113739  22.9206644  68.2996370
  30.9864235  22.7882858  68.5074061  32.1598152  23.7000863  68.7966312
  35.6815145  20.4633526  61.5840502  35.5614770  20.9090577  62.4225982
  34.9867733  20.8118844  61.0254040  29.2722550  22.5639918  69.1340159
  29.4014931  22.8174397  70.0479571  28.5920001  23.1567626  68.8144814
  33.4422037  33.2337168  65.2330633  33.3646067  34.1844993  65.3119114
  32.8383681  32.8883040  65.8905559  41.3800211  20.9354999  62.4120836
  42.2918067  21.1682386  62.2368533  40.8709858  21.5192043  61.8495914
  34.1885639  23.2150486  77.4509967  34.9300323  23.7535530  77.1744791
  33.4822625  23.8416775  77.6081519  35.5397755  25.6555226  67.0684502
  36.0036101  25.9342929  66.2789125  35.2754553  24.7538670  66.8857593
  32.4321836  25.2026707  70.0064266  33.0023193  25.6313976  69.3681750
  33.0229948  24.9209292  70.7048451  34.4766641  21.7778378  63.8774068
  35.1790685  22.2299422  64.3447994  34.1447270  21.1362197  64.5053961
  32.9247003  20.3690135  78.2525277  32.2945663  21.0506415  78.4860674
  32.8183091  20.2573216  77.3078415  28.2191975  20.0361931  69.1791201
  27.4291029  20.2919459  68.7031312  28.7103223  20.8510269  69.2843242
  30.1706721  20.4006510  66.1374678  29.3737884  20.5125204  66.6558173
  29.9432313  20.7393162  65.2715568  26.5029678  20.2892421  71.6106192
  26.7537717  21.1739431  71.8763768  27.0389227  20.1097023  70.8381284
  35.7160406  28.5919321  63.9536173  35.5806081  29.4370856  64.3821021
  36.2570218  28.7938598  63.1902107  32.2027746  14.6710900  80.6150528
  31.8094691  14.1177099  81.2898172  33.0193886  14.9821479  81.0057045
  29.1689803  26.1094759  64.5264098  29.6814324  26.9038009  64.6769662
  29.8212516  25.4121049  64.4597699  30.9784688  29.2260515  66.6086851
  31.1551316  30.1478480  66.4207835  31.7741522  28.9118934  67.0381231
  30.2637045  21.2725147  76.4849014  30.1490560  20.3710404  76.7856113
  29.4081562  21.5188844  76.1333831  32.1016003  30.7438689  72.6097193
  32.6523429  30.6155752  71.8374187  31.2627479  31.0433578  72.2592086
  39.0652870  12.1149883  72.4835066  38.7217139  13.0051524  72.4074177
  39.4331832  11.9251540  71.6204651  27.1338720  24.4383413  65.3023668
  27.9713942  24.8480421  65.0857376  27.3116988  23.4982855  65.2723862
  39.0303152  22.1058494  60.9907501  38.5149776  22.8763098  61.2295889
  38.7580461  21.4323630  61.6140563  36.6150263  16.9508194  66.0492740
  35.7591860  16.5615045  65.8698378  37.0277215  17.0300155  65.1892525
  34.3892296  14.5693267  69.4550481  35.2545293  14.3736076  69.0956371
  34.4569805  14.3403619  70.3819838  38.8189455  19.9785586  62.8167282
  38.5139591  20.2931735  63.6677426  39.7719898  20.0567006  62.8594615
  37.2635887  26.1375809  64.4660236  36.7357249  25.4028569  64.1533474
  36.7623390  26.9150485  64.2200205  31.9954615  16.7995475  66.8266848
  32.5698367  16.5770657  66.0940041  32.5825597  16.8684170  67.5795449
  32.3224202  18.8299936  60.8462733  31.4861514  19.1674623  61.1672008
  32.1828972  18.6948916  59.9089870  34.2977283  13.6736724  65.5541917
  33.6441695  13.3585741  64.9298532  34.2557757  13.0512465  66.2801740
  35.4088487  23.9556019  57.4695209  34.5015549  23.7245273  57.6686358
  35.9059519  23.1593639  57.6569191  38.3156566  32.6653526  60.3891896
  37.6418265  32.9685223  60.9976853  38.7022388  33.4682607  60.0397353
  38.3150071  21.5610073  65.0092245  39.0621890  22.0731471  64.6999367
  38.5841660  21.2394126  65.8696639  36.5876721  24.0568614  61.9919200
  35.6787940  23.7727647  62.0891669  36.6171805  24.4767693  61.1322506
  40.2628928  29.5051700  66.6960185  40.5551902  30.0656757  65.9772551
  40.7727548  29.7980261  67.4513344  27.1564891  21.7774128  65.9734402
  26.9589291  21.1843489  65.2485468  26.6011555  21.4726338  66.6910341
  35.1361615  21.6697235  68.0928995  35.1910225  20.7171071  68.0171472
  34.3252817  21.8256674  68.5770293  36.2852809  25.5977358  59.3307278
  35.8472239  24.8813217  58.8712916  37.0263250  25.8253473  58.7692370
  33.0753975  20.2874295  65.8519374  32.2621840  20.5868465  66.2584566
  33.5712969  19.8929983  66.5693856  35.2262553  30.2832051  67.7853638
  35.1838732  30.5092898  66.8562171  36.1425252  30.0495426  67.9339440
  32.5668050  17.8592650  71.4680609  33.2067429  17.7181409  70.7703572
  31.7345580  17.5727163  71.0919211  33.3428353  27.1595080  67.5815601
  34.1368952  26.6645401  67.3798176  32.6320046  26.6312944  67.2183307
  38.1623198  29.5413176  71.9327969  38.2160220  30.1104112  72.7005685
  37.2937979  29.7115061  71.5682006  29.6511117  21.3038162  63.6575354
  28.7208705  21.2422618  63.8745316  29.7468589  20.7814115  62.8611995
  29.5696666  17.8292975  66.2453596  29.8303483  18.7438308  66.1362756
  30.3913838  17.3617418  66.3950208  31.0421591  19.2430732  73.4152420
  31.7144645  19.0348094  72.7665069  30.2151378  19.0452818  72.9757652
  35.9199629  27.7324102  71.2613438  35.7810715  27.3642887  72.1339376
  35.1314226  28.2471742  71.0897396  36.5147781  32.8333199  62.6038975
  36.6899537  32.3621242  63.4184598  35.8280569  33.4598965  62.8320236
  37.4704845  27.1105705  68.6502276  37.1354677  27.0706475  69.5459926
  36.9708790  26.4450421  68.1772686  31.4449089  22.5173335  74.1754857
  31.3068887  21.7853574  74.7766396  32.3554012  22.4282235  73.8939045
  40.4064036  24.4561739  58.9239336  39.7893207  23.7308568  58.8272388
  39.9380525  25.2171100  58.5806410  31.0808867  35.9822562  69.3778835
  31.3205465  36.6141086  70.0557854  30.2378063  35.6310602  69.6644194
  32.1962582  18.6747164  58.0460640  31.3192049  18.5535965  57.6822887
  32.6720335  17.8833242  57.7939529  23.7164722  23.4624324  68.1402147
  24.4035762  23.1486054  67.5523162  23.5612851  24.3665688  67.8669399
  28.5199444  18.3514520  72.5687171  28.4357633  17.7440190  71.8337581
  27.6982151  18.8423538  72.5696667  35.5936729  31.7901684  71.7820339
  35.5206900  32.5956656  72.2939644  35.1514122  31.9893650  70.9568360
  35.3826508  31.0273454  65.2923161  34.5994030  31.5695134  65.3861385
  36.0819253  31.5447434  65.6917402  39.7752939  25.5939771  65.5095789
  38.8409218  25.7141233  65.3400494  39.9529607  24.6912238  65.2455799
  35.2758127  18.9785467  67.6629051  34.9055915  18.4256507  68.3509956
  35.7717220  18.3743600  67.1104051  33.1047326  29.4382962  74.7584068
  33.8056785  30.0719445  74.9113463  32.6342441  29.7797693  73.9979708
  41.2301721  27.7800911  63.0431975  41.5061565  27.6657506  63.9525850
  40.3606220  27.3818396  63.0044149  37.8655785  32.0287262  66.6864789
  38.0478180  31.2108918  67.1492541  38.6888772  32.2454954  66.2489679
  38.1997951  30.9555447  63.9479838  38.7285717  30.4447902  63.3350000
  38.4626171  30.6397978  64.8125371  28.7015044  28.9719317  71.6915171
  29.2868481  28.2263005  71.8243075  28.5039882  29.2823273  72.5751835
  31.5553699  32.0070564  66.7077614  30.8864074  32.4916692  66.2241654
  31.4166569  32.2539784  67.6220992  23.2932698  21.5424917  70.4119614
  23.3316798  21.0088508  71.2056732  22.7872991  21.0160122  69.7930591
  35.6958968  34.0414308  73.3060272  36.2477276  34.2045929  74.0709357
  36.0365161  34.6318745  72.6340297  30.6723461  16.3889457  73.9082157
  30.7364787  17.2504288  73.4959554  30.6090581  15.7763459  73.1754515
  30.1475733  18.4612590  77.5555191  30.7747772  18.0789667  78.1692715
  29.2903652  18.2426792  77.9210883  26.9241276  20.2689019  63.4873546
  27.2194717  19.3599697  63.4340599  26.0229312  20.2476758  63.1654548
  38.8327355  31.9896283  70.2923954  38.7078494  31.1886023  69.7834900
  39.4906446  32.4842476  69.8037924  30.4535523  18.3445016  69.4701094
  29.7322109  18.9580983  69.3308568  31.2428779  18.8802780  69.3917740
  33.2561837  15.6799442  75.7441746  33.7796238  15.9261739  76.5068055
  33.0374170  16.5119477  75.3244883  28.6529118  17.9503117  63.6112871
  28.3241824  17.0700496  63.4287977  29.0068488  17.8950785  64.4989260
  37.9008696  29.5858019  68.1207856  37.7533659  28.6574727  68.3015426
  38.7262190  29.6078110  67.6364932  31.7670941  18.2376086  63.9788349
  32.1067013  18.7662008  63.2566957  32.2143061  18.5756493  64.7546915
  35.1130853  13.7062450  71.8818740  35.9356923  13.2322928  71.7597630
  35.3568917  14.4852933  72.3817426  33.7539088  16.7350708  62.1781641
  34.4747450  17.1131961  61.6745358  33.1304392  17.4539585  62.2816619
  37.8970211  17.4395857  63.1139974  38.1133825  18.3220495  62.8128802
  37.4164278  17.0482070  62.3845616  32.6369432  20.3981570  69.6910718
  32.4914013  20.7121873  70.5835000  32.1594636  21.0166471  69.1381617
  34.4965815  17.3884118  69.7391608  34.4827384  16.4925212  69.4023906
  35.2138243  17.3954782  70.3729894  41.2938135  30.9272246  64.5634821
  41.4675012  30.3618668  63.8108673  41.7867026  31.7273140  64.3814311
  27.1115094  22.9386915  72.6298379  26.5668562  23.7146723  72.7618654
  27.9894444  23.2857719  72.4717501  33.9002711  16.2698499  65.0079178
  34.0218622  15.3415145  65.2070065  33.6104753  16.2837185  64.0957493
  42.2813307  30.2439010  61.6631719  42.9764212  30.8645703  61.8819034
  42.6236457  29.3934361  61.9384097  27.8981116  22.0656811  75.5228536
  27.1562852  22.2139446  76.1093167  27.5773860  22.3265077  74.6595286
  35.8424779  31.6072789  75.3208926  36.1511905  31.3621936  76.1931626
  36.6400261  31.8119428  74.8327796  35.8645391  33.7610699  67.5514303
  35.4250381  33.2687077  68.2447160  36.6153508  33.2183666  67.3106378
  28.3437730  29.9522240  67.5538931  29.1695750  29.6526012  67.1737574
  27.9931782  29.1829862  68.0028720  33.3119263  29.3048708  69.6236604
  32.6899272  28.6419413  69.3238832  33.9824130  29.3309840  68.9410252
  26.5446335  27.8708566  68.5127864  25.7078243  27.4430740  68.3311866
  26.5169980  28.0641009  69.4498656  33.3843791  17.7830496  79.2169111
  33.4331946  18.6592619  78.8346880  33.9266305  17.2407889  78.6440754
  32.8732770  27.8552631  63.0995065  33.0220890  28.5388096  62.4461738
  33.6799213  27.8357721  63.6144521  30.6285403  23.8817809  64.1056134
  30.3831445  22.9780139  64.3036344  30.7981317  23.8834959  63.1635612
  29.8981050  19.6146166  61.6042295  29.2050295  19.6890521  60.9482331
  29.6532802  18.8506510  62.1263812  36.3728175  30.3500762  60.5706812
  35.8002143  30.9690949  60.1177284  36.9460969  30.9000123  61.1046734
  39.5925435  30.6337912  61.7015395  40.5256108  30.5683473  61.9048270
  39.5048648  31.4694179  61.2429927  42.2213452  29.9503782  58.6619342
  42.1427083  29.6163646  59.5555100  43.0423119  30.4425550  58.6610815
  36.7574974  21.6861574  57.9122865  37.7034079  21.5567783  57.9811283
  36.3789219  20.9476236  58.3892293  34.9417891  19.6111551  57.8477750
  34.0349347  19.3144664  57.9240464  35.2193872  19.3141369  56.9812036
  25.8595832  20.9317914  68.2976797  25.5398616  20.0783222  68.0051171
  25.3129260  21.1466492  69.0534764  29.6375739  23.6480355  72.0146303
  29.8561749  24.5797463  72.0334337  30.0501513  23.2888330  72.8001107
  36.5579957  14.1548441  64.0021991  35.7480685  13.8095525  64.3777238
  37.2464374  13.8455984  64.5909603  34.5103604  19.2213561  81.4049052
  34.4100331  20.1707918  81.3361143  34.2925146  18.8931800  80.5325122
  33.7116676  16.4698486  57.9889729  34.5735840  16.7953384  58.2485547
  33.8967020  15.6829982  57.4762795  25.7284092  24.5520826  70.2669918
  25.0347563  24.1374779  69.7539873  26.4757083  24.5941362  69.6703337
  34.3734874  22.6510700  80.2214114  33.8901956  23.4511060  80.4278003
  34.4595813  22.6618645  79.2681558  27.6420834  24.4839079  68.1435933
  27.6191522  24.5826767  67.1917816  27.9521471  25.3304230  68.4653099
  30.3008212  26.5415235  72.2582547  31.2551465  26.5099177  72.1912479
  30.1020735  26.0805858  73.0732773  30.8907594  25.1116351  74.8253345
  31.7100483  25.6060429  74.8488182  31.1644402  24.1948319  74.7970913
  40.6474190  17.5027103  64.1881301  39.7600045  17.7876753  63.9701495
  41.0628179  17.3420866  63.3408578  28.6558441  32.0834854  69.2752745
  28.5212909  31.3235255  68.7090743  28.2390503  32.8075754  68.8081534
  39.7917404  27.2671778  58.2829321  40.4953254  27.4721780  58.8986976
  39.0680052  27.8348539  58.5478404  40.6215214  23.0181639  64.4031591
  40.5650415  23.4750190  63.5639223  41.1743556  22.2572323  64.2254434
  31.8127567  32.9804171  69.4871188  31.6959951  33.9249604  69.3849878
  30.9920013  32.6777733  69.8756987  41.7004101  27.7054307  60.3327781
  42.5349705  27.2735505  60.1505255  41.5388444  27.5336320  61.2604675
  41.3549993  24.2086420  61.6984120  41.2998797  24.0430691  60.7572564
  40.7296049  24.9162453  61.8546310  26.1442508  19.4454484  75.5245542
  26.7901372  18.9353438  76.0132767  25.9359659  20.1823166  76.0988967
  34.6646119  13.7094529  61.2769438  34.6524789  14.6536369  61.4337709
  35.5569541  13.5264674  60.9828900  32.8382081  33.6332433  72.7027116
  33.7409327  33.6656043  73.0193611  32.6119451  32.7032884  72.7173452
  34.5935683  32.3863419  69.3637195  33.6431314  32.3865281  69.2501567
  34.8968169  31.6396154  68.8473230  38.4798238  10.3037306  65.5315375
  37.7130634   9.7495792  65.6772058  38.8908943  10.3759174  66.3929527
  30.4839999  16.5922102  79.6220556  31.3471461  16.2358906  79.8323881
  29.9105410  16.2535996  80.3095961  42.9964898  40.0286862  66.3541373
  42.4329763  39.9376799  65.5857661  42.8817293  39.2086767  66.8343866
  40.5429330  41.5238054  69.1925594  41.3350622  41.1828879  68.7771893
  40.7825980  41.6333029  70.1127747  48.5764457  43.6957830  61.6655838
  47.9252437  44.2811910  61.2789852  49.3708820  44.2264025  61.7250875
  42.5020084  40.7846967  62.0642972  43.2750960  40.2375954  61.9255848
  42.8545483  41.6491217  62.2757434  44.8386362  36.9439633  59.6961422
  45.0911883  36.4221155  58.9344885  43.9010921  36.7805779  59.7988106
  44.5582651  38.8467739  61.8985797  44.4418909  38.1712643  62.5666882
  44.6684911  38.3600113  61.0817950  46.5419679  33.3367786  60.5993835
  46.7094081  34.2048023  60.9664306  46.3516848  33.4995068  59.6755124
  46.5208899  35.7925444  61.5840502  46.4008525  36.2382494  62.4225982
  45.8261488  36.1410761  61.0254040  45.3160396  37.1070296  63.8774068
  46.0184439  37.5591339  64.3447994  44.9841024  36.4654115  64.5053961
  39.0585730  35.3653848  69.1791201  38.2684784  35.6211377  68.7031312
  39.5496977  36.1802186  69.2843242  41.0100475  35.7298428  66.1374678
  40.2131638  35.8417122  66.6558173  40.7826067  36.0685080  65.2715568
  37.3423433  35.6184339  71.6106192  37.5931471  36.5031349  71.8763768
  37.8782981  35.4388940  70.8381284  46.5554160  43.9211238  63.9536173
  46.4199835  44.7662774  64.3821021  47.0963973  44.1230516  63.1902107
  40.0083558  41.4386676  64.5264098  40.5208078  42.2329927  64.6769662
  40.6606271  40.7412967  64.4597699  41.1030799  36.6017065  76.4849014
  40.9884314  35.7002322  76.7856113  40.2475317  36.8480761  76.1333831
  37.9732475  39.7675331  65.3023668  38.8107697  40.1772339  65.0857376
  38.1510742  38.8274773  65.2723862  49.8696907  37.4350411  60.9907501
  49.3543530  38.2055016  61.2295889  49.5974215  36.7615547  61.6140563
  42.8348369  32.1287393  66.8266848  43.4092121  31.9062574  66.0940041
  43.4219352  32.1976088  67.5795449  43.1617956  34.1591854  60.8462733
  42.3255269  34.4966541  61.1672008  43.0222726  34.0240834  59.9089870
  46.2482242  39.2847937  57.4695209  45.3409304  39.0537190  57.6686358
  46.7453274  38.4885556  57.6569191  49.1550321  47.9945444  60.3891896
  48.4812020  48.2977141  60.9976853  49.5416143  48.7974525  60.0397353
  51.1022682  44.8343618  66.6960185  51.3945656  45.3948675  65.9772551
  51.6121303  45.1272179  67.4513344  37.9958646  37.1066046  65.9734402
  37.7983046  36.5135407  65.2485468  37.4405310  36.8018256  66.6910341
  47.1246563  40.9269276  59.3307278  46.6865993  40.2105134  58.8712916
  47.8657004  41.1545390  58.7692370  44.1822108  42.4886998  67.5815601
  44.9762706  41.9937318  67.3798176  43.4713800  41.9604861  67.2183307
  40.4904871  36.6330080  63.6575354  39.5602460  36.5714535  63.8745316
  40.5862343  36.1106033  62.8611995  40.4090420  33.1584893  66.2453596
  40.6697238  34.0730226  66.1362756  41.2307593  32.6909335  66.3950208
  51.2457791  39.7853657  58.9239336  50.6286961  39.0600485  58.8272388
  50.7774279  40.5463017  58.5806410  43.0356337  34.0039081  58.0460640
  42.1585803  33.8827882  57.6822887  43.5114090  33.2125160  57.7939529
  34.5558477  38.7916241  68.1402147  35.2429517  38.4777971  67.5523162
  34.4006606  39.6957606  67.8669399  49.0391705  46.2847365  63.9479838
  49.5679472  45.7739820  63.3350000  49.3019925  45.9689895  64.8125371
  34.1326453  36.8716835  70.4119614  34.1710552  36.3380425  71.2056732
  33.6266746  36.3452040  69.7930591  37.7635031  35.5980937  63.4873546
  38.0588472  34.6891615  63.4340599  36.8623066  35.5768676  63.1654548
  39.4922872  33.2795034  63.6112871  39.1635578  32.3992413  63.4287977
  39.8462243  33.2242703  64.4989260  48.7402451  44.9149937  68.1207856
  48.5927413  43.9866644  68.3015426  49.5655944  44.9370028  67.6364932
  42.6064695  33.5668004  63.9788349  42.9460768  34.0953925  63.2566957
  43.0536816  33.9048410  64.7546915  44.5932842  32.0642626  62.1781641
  45.3141205  32.4423879  61.6745358  43.9698147  32.7831503  62.2816619
  52.1331889  46.2564163  64.5634821  52.3068767  45.6910586  63.8108673
  52.6260780  47.0565058  64.3814311  37.9508849  38.2678832  72.6298379
  37.4062317  39.0438640  72.7618654  38.8288199  38.6149637  72.4717501
  44.7396465  31.5990416  65.0079178  44.8612377  30.6707062  65.2070065
  44.4498508  31.6129102  64.0957493  53.1207062  45.5730928  61.6631719
  53.8157966  46.1937620  61.8819034  53.4630212  44.7226279  61.9384097
  38.7374871  37.3948729  75.5228536  37.9956607  37.5431364  76.1093167
  38.4167615  37.6556994  74.6595286  43.7126524  43.1844549  63.0995065
  43.8614645  43.8680013  62.4461738  44.5192968  43.1649639  63.6144521
  41.4679157  39.2109727  64.1056134  41.2225199  38.3072057  64.3036344
  41.6375072  39.2126877  63.1635612  40.7374805  34.9438084  61.6042295
  40.0444050  35.0182439  60.9482331  40.4926557  34.1798428  62.1263812
  47.2121930  45.6792679  60.5706812  46.6395897  46.2982866  60.1177284
  47.7854724  46.2292041  61.1046734  50.4319190  45.9629829  61.7015395
  51.3649863  45.8975391  61.9048270  50.3442403  46.7986096  61.2429927
  53.0607206  45.2795700  58.6619342  52.9820838  44.9455563  59.5555100
  53.8816873  45.7717468  58.6610815  47.5968728  37.0153492  57.9122865
  48.5427833  36.8859700  57.9811283  47.2182973  36.2768154  58.3892293
  45.7811646  34.9403468  57.8477750  44.8743101  34.6436581  57.9240464
  46.0587627  34.6433287  56.9812036  36.6989586  36.2609832  68.2976797
  36.3792370  35.4075140  68.0051171  36.1523014  36.4758410  69.0534764
  44.5510430  31.7990404  57.9889729  45.4129594  32.1245302  58.2485547
  44.7360774  31.0121900  57.4762795  36.5677846  39.8812743  70.2669918
  35.8741317  39.4666696  69.7539873  37.3150837  39.9233280  69.6703337
  38.4814589  39.8130997  68.1435933  38.4585277  39.9118684  67.1917816
  38.7915225  40.6596148  68.4653099  50.6311158  42.5963695  58.2829321
  51.3347008  42.8013698  58.8986976  49.9073807  43.1640457  58.5478404
  52.5397856  43.0346224  60.3327781  53.3743460  42.6027423  60.1505255
  52.3782199  42.8628238  61.2604675  36.9836263  34.7746402  75.5245542
  37.6295126  34.2645356  76.0132767  36.7753414  35.5115084  76.0988967
  55.1209546  63.8921003  65.2330633  55.0433576  64.8428828  65.3119114
  54.5171190  63.5466876  65.8905559  53.6742124  47.4579311  66.8266848
  54.2485876  47.2354492  66.0940041  54.2613106  47.5268005  67.5795449
  55.9764792  44.3320560  65.5541917  55.3229204  44.0169577  64.9298532
  55.9345266  43.7096300  66.2801740  57.0875996  54.6139855  57.4695209
  56.1803058  54.3829108  57.6686358  57.5847028  53.8177474  57.6569191
  57.9640318  56.2561193  59.3307278  57.5259748  55.5397052  58.8712916
  58.7050759  56.4837308  58.7692370  51.2484175  48.4876810  66.2453596
  51.5090992  49.4022144  66.1362756  52.0701347  48.0201253  66.3950208
  58.1935290  63.4917034  62.6038975  58.3687046  63.0205077  63.4184598
  57.5068078  64.1182800  62.8320236  52.7596376  66.6406397  69.3778835
  52.9992974  67.2724921  70.0557854  51.9165572  66.2894437  69.6644194
  53.8750091  49.3330999  58.0460640  52.9979557  49.2119800  57.6822887
  54.3507844  48.5417077  57.7939529  57.0614017  61.6857289  65.2923161
  56.2781539  62.2278970  65.3861385  57.7606762  62.2031269  65.6917402
  53.2341208  62.6654399  66.7077614  52.5651583  63.1500527  66.2241654
  53.0954078  62.9123620  67.6220992  53.4458450  48.8959922  63.9788349
  53.7854522  49.4245843  63.2566957  53.8930570  49.2340328  64.7546915
  55.5790220  46.9282334  65.0079178  55.7006131  45.9998980  65.2070065
  55.2892262  46.9421020  64.0957493  50.0225239  60.6106075  67.5538931
  50.8483259  60.3109847  67.1737574  49.6719291  59.8413697  68.0028720
  58.0515684  61.0084597  60.5706812  57.4789652  61.6274784  60.1177284
  58.6248478  61.5583959  61.1046734  58.2367466  44.8132276  64.0021991
  57.4268194  44.4679361  64.3777238  58.9251883  44.5039820  64.5909603
  60.1658014  43.8910323  65.6246288  60.7189053  44.3105776  66.2836311
  60.4028100  42.9646071  65.6669244  55.3904185  47.1282321  57.9889729
  56.2523349  47.4537220  58.2485547  55.5754529  46.3413817  57.4762795
  56.3433628  44.3678364  61.2769438  56.3312298  45.3120204  61.4337709
  57.2357050  44.1848510  60.9828900  60.1585747  40.9621141  65.5315375
  59.3918143  40.4079628  65.6772058  60.5696452  41.0343010  66.3929527
  59.6746155  67.7649881  65.9734402  59.4770555  67.1719242  65.2485468
  59.1192819  67.4602092  66.6910341  59.4422540  66.2564772  63.4873546
  59.7375981  65.3475450  63.4340599  58.5410575  66.2352512  63.1654548
  83.0215997  86.6747298  76.0482128  83.4299353  86.2329708  75.3036761
  82.2993258  86.0999925  76.3016321  85.5930803  88.6934841  71.9296482
  86.4148247  88.2915028  71.6479164  85.5893206  88.5903075  72.8812598
  80.7003900  90.5310558  78.0836515  80.2567754  89.7446936  77.7657419
  81.3621114  90.7189708  77.4180406  82.7985138  90.8113358  76.1117916
  82.7803614  91.6322239  75.6198185  83.7205058  90.6867433  76.3368057
  85.4193186  90.4828319  76.5845116  85.3605732  89.7987539  75.9175699
  85.8212704  91.2247309  76.1325742  85.4210593  88.4467902  74.8159096
  84.5337372  88.1093824  74.9385495  85.9909144  87.7150934  75.0527861
  87.2273654  89.6439290  78.4970248  86.4369198  89.6263429  77.9574747
  86.9907009  90.1827584  79.2519284  84.6375292  82.4762684  77.1262283
  85.5385154  82.3369149  76.8346281  84.7123266  82.6417139  78.0660460
  77.0691694  77.7866157  57.9889729  77.9310858  78.1121055  58.2485547
  77.2542038  76.9997653  57.4762795  87.1215775  97.0149723  78.2525277
  86.4914436  97.6966004  78.4860674  87.0151863  96.9032805  77.3078415
  98.2006199 101.5050437  62.9260675  97.4235642 101.1661596  62.4815837
  98.8797680 101.5103060  62.2515640  94.6032809 101.1021328  58.9239336
  93.9861979 100.3768156  58.8272388  94.1349297 101.8630688  58.5806410
  84.3444506  95.1072178  77.5555191  84.9716545  94.7249256  78.1692715
  83.4872425  94.8886380  77.9210883  87.5812563  94.4290084  79.2169111
  87.6300718  95.3052207  78.8346880  88.1235077  93.8867477  78.6440754
  96.4182224 106.5963371  58.6619342  96.3395856 106.2623234  59.5555100
  97.2391891 107.0885138  58.6610815  88.7072377  95.8673149  81.4049052
  88.6069104  96.8167506  81.3361143  88.4893919  95.5391388  80.5325122
  88.5703647  99.2970288  80.2214114  88.0870729 100.0970648  80.4278003
  88.6564586  99.3078233  79.2681558  93.9886176 103.9131366  58.2829321
  94.6922026 104.1181368  58.8986976  93.2648825 104.4808128  58.5478404
  95.8972874 104.3513895  60.3327781  96.7318478 103.9195094  60.1505255
  95.7357216 104.1795909  61.2604675  95.5518766 100.8546008  61.6984120
  95.4967570 100.6890280  60.7572564  94.9264821 101.5622041  61.8546310
  84.6808772  93.2381690  79.6220556  85.5440233  92.8818495  79.8323881
  84.1074182  92.8995585  80.3095961  98.5373899 118.7582938  75.2709872
  98.2463765 119.6628569  75.1556538  99.1730883 118.7999465  75.9853941
 109.4806844 112.5310233  68.4069144 110.2132016 111.9609450  68.6406973
 108.7246200 112.1431834  68.8475650 100.7388451 109.9827374  60.5993835
 100.9062853 110.8507611  60.9664306 100.5485620 110.1454656  59.6755124
 103.4963784 118.4444353  72.2659665 103.1964507 119.3469392  72.1575473
 103.1514844 118.1776537  73.1180818 106.8960928 110.9626894  69.9457103
 105.9877805 110.8942302  69.6515864 106.8448524 111.4398839  70.7738928
 100.7177672 112.4385032  61.5840502 100.5977297 112.8842083  62.4225982
 100.0230260 112.7870350  61.0254040  98.4784564 125.2088674  65.2330633
  98.4008594 126.1596499  65.3119114  97.8746208 124.8634546  65.8905559
 108.7622574 109.1643332  71.7234977 108.1196955 109.4575865  71.0774771
 108.2577503 109.0496252  72.5288173 105.0232320 117.8932324  69.8034417
 104.3941183 118.0578038  69.1010485 104.6357982 118.3073933  70.5745381
 108.9021552 118.8286761  67.1578781 108.2172590 119.2085663  66.6075814
 108.9865402 119.4382088  67.8910729 107.2718312 119.3518676  71.9296482
 108.0935756 118.9498863  71.6479164 107.2680715 119.2486910  72.8812598
 101.0374915 118.9002719  74.0857192 101.1019348 119.3623126  74.9215364
 100.3285839 118.2700084  74.2139502 115.3624305 115.6957424  68.2781453
 114.6088013 115.1264822  68.1225458 115.4971846 115.6620089  69.2252088
  94.2052330 118.0846265  64.5264098  94.7176851 118.8789515  64.6769662
  94.8575043 117.3872555  64.4597699  96.0147215 121.2012021  66.6086851
  96.1913843 122.1229986  66.4207835  96.8104048 120.8870440  67.0381231
 102.3791409 121.1894393  78.0836515 101.9355263 120.4030772  77.7657419
 103.0408623 121.3773544  77.4180406  97.1378530 122.7190195  72.6097193
  97.6885956 122.5907258  71.8374187  96.2990006 123.0185084  72.2592086
 104.4772647 121.4697193  76.1117916 104.4591123 122.2906074  75.6198185
 105.3992567 121.3451268  76.3368057 100.9345701 118.9841323  76.9541424
 101.4674038 118.2229611  76.7240732 100.4059783 118.6914974  77.6965579
 104.0665679 114.0810000  60.9907501 103.5512303 114.8514604  61.2295889
 103.7942988 113.4075136  61.6140563 109.0399953 116.8342354  62.9260675
 108.2629396 116.4953514  62.4815837 109.7191434 116.8394977  62.2515640
 107.2791260 116.3076336  69.5827283 106.6214935 116.9975597  69.6707411
 108.0831659 116.6972768  69.9261269  97.3586729 110.8051442  60.8462733
  96.5224041 111.1426129  61.1672008  97.2191499 110.6700422  59.9089870
 100.4451014 115.9307525  57.4695209  99.5378076 115.6996779  57.6686358
 100.9422046 115.1345145  57.6569191 103.3519093 124.6405033  60.3891896
 102.6780792 124.9436729  60.9976853 103.7384915 125.4434113  60.0397353
 106.8558515 119.6426710  65.7610367 106.4020842 118.8017620  65.8175558
 106.2252482 120.2788108  66.0985147 105.2991454 121.4803206  66.6960185
 105.5914429 122.0408264  65.9772551 105.8090075 121.7731767  67.4513344
 109.4388450 115.8486061  65.3883597 109.3006349 116.0387657  64.4604786
 109.0824669 116.6105444  65.8451648 109.4657830 117.9162588  70.3994868
 109.8994337 117.8237877  71.2477922 110.1789411 117.8920088  69.7614884
 103.1985725 121.5164682  71.9327969 103.2522747 122.0855618  72.7005685
 102.3300506 121.6866567  71.5682006 110.3273380 117.9586289  72.9327754
 110.5209270 118.8632099  73.1787029 110.2273998 117.4993708  73.7666339
 100.9562156 119.7075609  71.2613438 100.8173242 119.3394393  72.1339376
 100.1676753 120.2223248  71.0897396 101.5510308 124.8084705  62.6038975
 101.7262064 124.3372748  63.4184598 100.8643096 125.4350471  62.8320236
 105.4426563 116.4313246  58.9239336 104.8255734 115.7060074  58.8272388
 104.9743052 117.1922606  58.5806410 107.0980695 121.1412154  76.5845116
 107.0393241 120.4571374  75.9175699 107.5000213 121.8831144  76.1325742
  96.1171394 127.9574068  69.3778835  96.3567992 128.5892592  70.0557854
  95.2740590 127.6062108  69.6644194  97.2325109 110.6498670  58.0460640
  96.3554575 110.5287471  57.6822887  97.7082862 109.8584748  57.7939529
 107.0998102 119.1051738  74.8159096 106.2124881 118.7677660  74.9385495
 107.6696653 118.3734769  75.0527861 100.6299256 123.7653190  71.7820339
 100.5569427 124.5708162  72.2939644 100.1876649 123.9645156  70.9568360
 111.5815443 114.5159955  69.5775657 111.5705319 115.3984671  69.2069591
 110.7132822 114.1631506  69.3830194 103.0897939 123.6640024  73.9378498
 103.8025911 124.2987489  73.8654399 102.5987968 123.7603890  73.1218499
  98.1409853 121.4134468  74.7584068  98.8419312 122.0470951  74.9113463
  97.6704968 121.7549199  73.9979708 106.2664248 119.7552417  63.0431975
 106.5424092 119.6409012  63.9525850 105.3968747 119.3569902  63.0044149
 102.9018312 124.0038768  66.6864789 103.0840707 123.1860424  67.1492541
 103.7251298 124.2206461  66.2489679 103.2360478 122.9306953  63.9479838
 103.7648244 122.4199408  63.3350000 103.4988698 122.6149484  64.8125371
  96.5916226 123.9822070  66.7077614  95.9226601 124.4668198  66.2241654
  96.4529096 124.2291291  67.6220992 100.7321494 126.0165814  73.3060272
 101.2839802 126.1797435  74.0709357 101.0727688 126.6070251  72.6340297
 105.5832369 120.8427071  79.1608926 106.1272273 121.4557029  78.6663881
 105.0019214 121.4006650  79.6775939 103.8689882 123.9647789  70.2923954
 103.7441021 123.1637529  69.7834900 104.5268973 124.4593983  69.8037924
 105.9324790 121.7656809  71.9203504 104.9855126 121.6462160  71.8481831
 106.2807563 120.8779307  72.0029766 106.5405345 122.3838084  69.2072729
 107.4651893 122.1780946  69.0697180 106.3720649 122.1354485  70.1162071
 106.3300661 122.9023752  64.5634821 106.5037539 122.3370174  63.8108673
 106.8229553 123.7024647  64.3814311 112.1840053 115.6660175  66.1825120
 112.6271199 114.9167500  65.7844244 111.3066563 115.6570311  65.7998852
 107.3175834 122.2190516  61.6631719 108.0126739 122.8397209  61.8819034
 107.6598984 121.3685867  61.9384097 109.2167257 119.6690222  63.1919050
 109.7418581 120.0077494  62.4668370 109.1289610 118.7337237  63.0082184
 100.8787306 123.5824295  75.3208926 101.1874432 123.3373442  76.1931626
 101.6762788 123.7870934  74.8327796 100.9007918 125.7362205  67.5514303
 100.4612908 125.2438584  68.2447160 101.6516035 125.1935173  67.3106378
  93.3800257 121.9273746  67.5538931  94.2058277 121.6277518  67.1737574
  93.0294309 121.1581368  68.0028720  98.3481790 121.2800214  69.6236604
  97.7261799 120.6170919  69.3238832  99.0186657 121.3061346  68.9410252
 108.9061163 120.3023125  78.4970248 108.1156707 120.2847264  77.9574747
 108.6694518 120.8411419  79.2519284 110.5277235 119.5712533  76.0544998
 110.2362043 119.9342514  76.8908459 109.9149366 118.8579541  75.8758330
 111.7272917 117.1365413  68.5747568 112.5619809 117.5755217  68.7385128
 111.8632046 116.6604066  67.7555814 108.7764423 114.6945148  74.5225056
 109.2518545 114.8872794  73.7143907 107.8529989 114.7504334  74.2768439
 104.6287962 122.6089418  61.7015395 105.5618635 122.5434980  61.9048270
 104.5411175 123.4445685  61.2429927 107.2575979 121.9255288  58.6619342
 107.1789610 121.5915152  59.5555100 108.0785646 122.4177056  58.6610815
 109.9554170 114.7917028  71.8695661 109.9230490 113.8533028  72.0555345
 110.5654794 114.8701064  71.1361486 101.7937501 113.6613080  57.9122865
 102.7396606 113.5319289  57.9811283 101.4151746 112.9227742  58.3892293
 110.1048659 111.5828071  71.9153944 109.5887707 110.7986528  71.7283873
 110.9888607 111.2546788  72.0800464 115.7730720 115.8533034  71.0101698
 116.5034108 115.5918322  71.5709401 115.1637665 115.1161756  71.0503766
 113.8546017 113.9940897  71.6076149 113.1279181 113.8596862  70.9992640
 113.4393304 114.3017726  72.4132867  99.9780418 111.5863057  57.8477750
  99.0711873 111.2896170  57.9240464 100.2556399 111.2892875  56.9812036
  98.7479203 108.4449992  57.9889729  99.6098367 108.7704890  58.2485547
  98.9329547 107.6581488  57.4762795  95.3370739 118.5166741  72.2582547
  96.2913992 118.4850683  72.1912479  95.1383262 118.0557364  73.0732773
 109.0351253 109.5025130  67.9035640 109.8111643 109.9921582  68.1760257
 108.3099387 109.9283184  68.3607509 111.4723812 110.2152749  68.9609581
 112.0668303 109.9748485  68.2502889 111.5450396 109.4959880  69.5883117
  93.6920968 124.0586360  69.2752745  93.5575436 123.2986761  68.7090743
  93.2753030 124.7827260  68.8081534 104.8279931 119.2423284  58.2829321
 105.5315781 119.4473286  58.8986976 104.1042579 119.8100045  58.5478404
 109.4682547 110.7822877  65.2281710 109.2119481 110.3819512  66.0589918
 108.8435415 111.4966671  65.1031849 113.7794885 113.5218950  67.7353002
 113.2194443 113.5912139  68.5084564 113.1738388 113.3459935  67.0152498
  96.8490094 124.9555677  69.4871188  96.7322478 125.9001110  69.3849878
  96.0282540 124.6529239  69.8756987 106.7366628 119.6805813  60.3327781
 107.5712232 119.2487011  60.1505255 106.5750971 119.5087826  61.2604675
  97.8744608 125.6083939  72.7027116  98.7771854 125.6407549  73.0193611
  97.6481978 124.6784390  72.7173452  99.6298210 124.3614926  69.3637195
  98.6793841 124.3616787  69.2501567  99.9330696 123.6147660  68.8473230
 115.3650903 130.1975464  70.4282957 116.0029313 130.0782211  69.7246297
 115.2471746 131.1456308  70.4870910 112.1740609 130.1502892  70.3644482
 111.8359121 130.0343957  69.4765017 113.0430378 129.7494057  70.3445488
 108.0327425 132.0038368  66.3541373 107.4692290 131.9128305  65.5857661
 107.9179820 131.1838273  66.8343866 112.6560392 131.3037744  76.3230688
 112.6449033 130.9090542  75.4511191 112.8181032 130.5703816  76.9164459
 105.5791857 133.4989560  69.1925594 106.3713149 133.1580385  68.7771893
 105.8188507 133.6084535  70.1127747 107.5382611 132.7598473  62.0642972
 108.3113487 132.2127460  61.9255848 107.8908010 133.6242723  62.2757434
 109.3767654 134.0874856  75.2709872 109.0857520 134.9920486  75.1556538
 110.0124638 134.1291383  75.9853941 110.3023860 131.4651704  71.8611231
 110.8987433 131.2407726  71.1468194 110.3598832 130.7236450  72.4636679
 109.8748889 128.9191139  59.6961422 110.1274410 128.3972661  58.9344885
 108.9373448 128.7557285  59.7988106 114.9192172 127.9226918  67.5036165
 115.7055261 127.5046341  67.1526582 115.1830876 128.8273010  67.6717814
 120.3200599 127.8602151  68.4069144 121.0525771 127.2901368  68.6406973
 119.5639954 127.4723751  68.8475650 109.5945178 130.8219245  61.8985797
 109.4781436 130.1464149  62.5666882 109.7047437 130.3351619  61.0817950
 111.9376718 130.2829392  65.6032486 111.5734926 129.7560013  66.3145408
 112.7943834 129.8927862  65.4298972 117.8426019 121.5723725  72.8663753
 117.5109344 122.4419136  72.6424968 117.2471633 121.2560009  73.5457783
 111.5782205 125.3119292  60.5993835 111.7456608 126.1799529  60.9664306
 111.3879375 125.4746574  59.6755124 107.7870020 130.2250068  68.2996370
 106.8620517 130.0926282  68.5074061 108.0354433 131.0044287  68.7966312
 117.7354682 126.2918811  69.9457103 116.8271560 126.2234220  69.6515864
 117.6842278 126.7690756  70.7738928 111.5571426 127.7676950  61.5840502
 111.4371052 128.2134000  62.4225982 110.8624015 128.1162267  61.0254040
 105.1478831 129.8683341  69.1340159 105.2771212 130.1217820  70.0479571
 104.4676282 130.4611049  68.8144814 111.8095548 127.7108457  77.8892000
 111.0328882 128.2702377  77.8794865 112.4486111 128.1965240  78.4106870
 119.6016329 124.4935250  71.7234977 118.9590709 124.7867783  71.0774771
 119.0971257 124.3788170  72.5288173 117.2556493 128.2398423  62.4120836
 118.1674349 128.4725810  62.2368533 116.7466140 128.8235467  61.8495914
 110.0641921 130.5193910  77.4509967 110.8056605 131.0578954  77.1744791
 109.3578906 131.1460199  77.6081519 115.5397260 132.6623051  76.0482128
 115.9480616 132.2205461  75.3036761 114.8174522 132.0875678  76.3016321
 111.8928330 127.5995657  73.4215685 112.7389525 128.0235071  73.5650334
 111.8326968 126.9429282  74.1154248 115.0427776 125.2600026  75.0796859
 114.7988707 126.0142086  74.5431135 115.3187706 125.6385373  75.9144106
 114.5992467 124.4156459  70.6610697 113.7376946 124.7137712  70.9527434
 114.6254902 124.6326858  69.7291729 111.4154037 132.9598649  67.0684502
 111.8792382 133.2386352  66.2789125 111.1510835 132.0582094  66.8857593
 108.3078118 132.5070131  70.0064266 108.8779475 132.9357399  69.3681750
 108.8986230 132.2252716  70.7048451 110.3522923 129.0821802  63.8774068
 111.0546966 129.5342845  64.3447994 110.0203551 128.4405621  64.5053961
 108.8003284 127.6733558  78.2525277 108.1701945 128.3549839  78.4860674
 108.6939372 127.5616640  77.3078415 104.0948257 127.3405354  69.1791201
 103.3047311 127.5962883  68.7031312 104.5859504 128.1553692  69.2843242
 106.0463002 127.7049934  66.1374678 105.2494165 127.8168628  66.6558173
 105.8188594 128.0436586  65.2715568 111.8768670 134.2294637  74.0857192
 111.9413102 134.6915044  74.9215364 111.1679594 133.5992002  74.2139502
 102.3785960 127.5935845  71.6106192 102.6293998 128.4782855  71.8763768
 102.9145508 127.4140446  70.8381284 108.0784027 121.9754324  80.6150528
 107.6850973 121.4220523  81.2898172 108.8950167 122.2864903  81.0057045
 105.0446085 133.4138182  64.5264098 105.5570605 134.2081433  64.6769662
 105.6968798 132.7164473  64.4597699 106.8540969 136.5303939  66.6086851
 107.0307598 137.4521903  66.4207835 107.6497803 136.2162358  67.0381231
 110.9951988 123.3912203  78.2070785 111.7361701 123.9919356  78.1275247
 111.2269911 122.6489841  77.6488827 106.1393326 128.5768571  76.4849014
 106.0246841 127.6753828  76.7856113 105.2837844 128.8232267  76.1333831
 107.9772285 138.0482112  72.6097193 108.5279710 137.9199176  71.8374187
 107.1383761 138.3477001  72.2592086 111.7739456 134.3133240  76.9541424
 112.3067793 133.5521528  76.7240732 111.2453537 134.0206892  77.6965579
 114.9409151 119.4193306  72.4835066 114.5973420 120.3094948  72.4074177
 115.3088114 119.2294964  71.6204651 103.0095002 131.7426837  65.3023668
 103.8470224 132.1523845  65.0857376 103.1873269 130.8026279  65.2723862
 114.9059434 129.4101917  60.9907501 114.3906057 130.1806522  61.2295889
 114.6336742 128.7367054  61.6140563 112.4906545 124.2551618  66.0492740
 111.6348141 123.8658469  65.8698378 112.9033496 124.3343579  65.1892525
 114.0205691 121.7897961  70.4484299 113.5170487 121.7528097  69.6352105
 114.3136298 122.6990704  70.5080956 110.2648577 121.8736691  69.4550481
 111.1301574 121.6779500  69.0956371 110.3326086 121.6447043  70.3819838
 114.6945737 127.2829009  62.8167282 114.3895872 127.5975159  63.6677426
 115.6476179 127.3610429  62.8594615 113.1392169 133.4419233  64.4660236
 112.6113530 132.7071992  64.1533474 112.6379671 134.2193909  64.2200205
 107.8710896 124.1038899  66.8266848 108.4454648 123.8814081  66.0940041
 108.4581879 124.1727594  67.5795449 116.9290473 129.9912626  67.6331225
 117.4422355 130.6242618  68.1352934 117.5791697 129.3913821  67.2674585
 108.1980483 126.1343360  60.8462733 107.3617796 126.4718047  61.1672008
 108.0585253 125.9992340  59.9089870 110.1733564 120.9780148  65.5541917
 109.5197976 120.6629165  64.9298532 110.1314038 120.3555888  66.2801740
 111.2844769 131.2599443  57.4695209 110.3771831 131.0288696  57.6686358
 111.7815801 130.4637062  57.6569191 113.4071304 127.4662081  69.8789565
 112.4893866 127.6877029  69.7211253 113.8231448 127.5408392  69.0201272
 114.1906352 128.8653497  65.0092245 114.9378171 129.3774894  64.6999367
 114.4597942 128.5437550  65.8696639 112.4633002 131.3612038  61.9919200
 111.5544222 131.0771071  62.0891669 112.4928086 131.7811116  61.1322506
 116.6385189 125.9010613  66.9911035 115.9007946 125.3888000  67.3221277
 116.8911963 125.4610995  66.1794311 116.7396817 118.6786865  67.5852804
 117.0455693 117.8184229  67.2978719 117.4649421 119.2704486  67.3851798
 103.0321173 129.0817552  65.9734402 102.8345572 128.4886913  65.2485468
 102.4767837 128.7769762  66.6910341 111.0117896 128.9740658  68.0928995
 111.0666506 128.0214495  68.0171472 110.2009098 129.1300098  68.5770293
 112.1609090 132.9020782  59.3307278 111.7228520 132.1856640  58.8712916
 112.9019531 133.1296896  58.7692370 108.9510256 127.5917718  65.8519374
 108.1378122 127.8911889  66.2584566 109.4469250 127.1973407  66.5693856
 114.5484468 128.0559543  74.6834268 114.9033856 128.2831016  75.5428733
 115.1956599 128.3877920  74.0611523 108.4424331 125.1636074  71.4680609
 109.0823710 125.0224833  70.7703572 107.6101862 124.8770587  71.0919211
 109.2184635 134.4638504  67.5815601 110.0125233 133.9688824  67.3798176
 108.5076327 133.9356367  67.2183307 105.5267398 128.6081586  63.6575354
 104.5964986 128.5466041  63.8745316 105.6224870 128.0857539  62.8611995
 105.4452947 125.1336399  66.2453596 105.7059765 126.0481732  66.1362756
 106.2670120 124.6660841  66.3950208 106.9177873 126.5474156  73.4152420
 107.5900926 126.3391518  72.7665069 106.0907659 126.3496242  72.9757652
 112.8203445 123.1736097  75.4318081 112.1731360 123.8726047  75.3382557
 113.5904460 123.6072241  75.7994329 112.9967579 131.0116862  73.4914901
 113.9259639 131.1628021  73.3183868 112.5758609 131.1000883  72.6363547
 111.7955911 135.0367526  71.2613438 111.6566997 134.6686311  72.1339376
 111.0070507 135.5515166  71.0897396 113.3461126 134.4149129  68.6502276
 113.0110959 134.3749899  69.5459926 112.8465072 133.7493845  68.1772686
 107.3205370 129.8216759  74.1754857 107.1825168 129.0896998  74.7766396
 108.2310293 129.7325659  73.8939045 116.2820318 131.7605163  58.9239336
 115.6649488 131.0351991  58.8272388 115.8136806 132.5214523  58.5806410
 109.9487671 129.5336718  73.6638537 110.6587289 128.8929910  73.6225155
 109.9056979 129.7849613  74.5864718 108.6616605 126.5201936  75.4834176
 108.1253962 126.0692675  76.1355773 108.0733313 126.6547845  74.7404641
 108.0718864 125.9790588  58.0460640 107.1948330 125.8579388  57.6822887
 108.5476617 125.1876666  57.7939529  99.5921004 130.7667747  68.1402147
 100.2792044 130.4529477  67.5523162  99.4369132 131.6709112  67.8669399
 104.3955726 125.6557944  72.5687171 104.3113915 125.0483613  71.8337581
 103.5738432 126.1466962  72.5696667 114.5679440 124.1411507  67.9357366
 115.0648139 123.3881470  67.6158436 113.7966421 124.1775824  67.3700575
 115.6509220 132.8983195  65.5095789 114.7165499 133.0184657  65.3400494
 115.8285889 131.9955661  65.2455799 111.1514409 126.2828890  67.6629051
 110.7812196 125.7299931  68.3509956 111.6473501 125.6787024  67.1104051
 119.0381772 128.7400514  66.0445823 119.5042224 129.5728505  65.9706126
 119.4889272 128.2745495  66.7491082 117.0098435 121.1081101  70.0836725
 116.0961514 121.3385328  70.2518932 117.4391536 121.1919545  70.9350757
 116.7804893 129.2970993  72.5836619 116.1276343 129.5446900  71.9289072
 117.1585273 128.4835131  72.2499096 112.8292466 130.0390804  79.0702656
 112.1533103 129.9384933  79.7405031 113.6520100 129.8830018  79.5338653
 104.5771325 136.2762740  71.6915171 105.1624762 135.5306428  71.8243075
 104.3796164 136.5866697  72.5751835  99.1688980 128.8468341  70.4119614
  99.2073079 128.3131931  71.2056732  98.6629273 128.3203546  69.7930591
 106.5479742 123.6932881  73.9082157 106.6121069 124.5547712  73.4959554
 106.4846862 123.0806883  73.1754515 106.0232015 125.7656014  77.5555191
 106.6504054 125.3833091  78.1692715 105.1659934 125.5470216  77.9210883
 102.7997557 127.5732443  63.4873546 103.0950999 126.6643121  63.4340599
 101.8985593 127.5520182  63.1654548 106.3291804 125.6488439  69.4701094
 105.6078390 126.2624407  69.3308568 107.1185060 126.1846204  69.3917740
 109.1318118 122.9842866  75.7441746 109.6552520 123.2305162  76.5068055
 108.9130451 123.8162901  75.3244883 104.5285399 125.2546540  63.6112871
 104.1998105 124.3743919  63.4287977 104.8824770 125.1994209  64.4989260
 107.6427222 125.5419510  63.9788349 107.9823295 126.0705431  63.2566957
 108.0899343 125.8799916  64.7546915 110.3370663 123.9256561  73.4291417
 109.9967483 123.1264374  73.8312096 109.6309669 124.2258272  72.8568250
 110.9887135 121.0105873  71.8818740 111.8113204 120.5366352  71.7597630
 111.2325198 121.7896357  72.3817426 109.6295369 124.0394132  62.1781641
 110.3503732 124.4175385  61.6745358 109.0060673 124.7583009  62.2816619
 113.7726492 124.7439281  63.1139974 113.9890107 125.6263919  62.8128802
 113.2920559 124.3525494  62.3845616 108.5125714 127.7024994  69.6910718
 108.3670294 128.0165297  70.5835000 108.0350917 128.3209894  69.1381617
 110.3722096 124.6927542  69.7391608 110.3583665 123.7968635  69.4023906
 111.0894525 124.6998206  70.3729894 112.2248227 125.1264882  71.7844735
 111.9666005 126.0481953  71.7829066 111.6933268 124.7295317  72.4745199
 102.9871376 130.2430338  72.6298379 102.4424844 131.0190146  72.7618654
 103.8650726 130.5901143  72.4717501 109.7758992 123.5741922  65.0079178
 109.8974904 122.6458568  65.2070065 109.4861035 123.5880608  64.0957493
 112.6450183 121.2596833  68.1445898 112.6671880 121.3236166  67.1897877
 113.0618242 120.4201341  68.3386404 103.7737398 129.3700235  75.5228536
 103.0319134 129.5182870  76.1093167 103.4530142 129.6308500  74.6595286
 104.2194011 137.2565663  67.5538931 105.0452031 136.9569435  67.1737574
 103.8688063 136.4873286  68.0028720 109.1875544 136.6092132  69.6236604
 108.5655554 135.9462837  69.3238832 109.8580411 136.6353264  68.9410252
 102.4202616 135.1751990  68.5127864 101.5834525 134.7474164  68.3311866
 102.3926262 135.3684433  69.4498656 109.2600072 125.0873920  79.2169111
 109.3088227 125.9636042  78.8346880 109.8022586 124.5451313  78.6440754
 108.7489051 135.1596055  63.0995065 108.8977172 135.8431519  62.4461738
 109.5555495 135.1401145  63.6144521 117.1556555 128.4638437  77.1262283
 118.0566418 128.3244902  76.8346281 117.2304530 128.6292892  78.0660460
 111.4899360 125.8405292  75.9715469 110.6202670 126.1338858  75.6998058
 111.7258841 126.4245737  76.6922733 106.5041684 131.1861233  64.1056134
 106.2587726 130.2823563  64.3036344 106.6737599 131.1878383  63.1635612
 114.1938394 122.0584909  73.4880890 114.7120338 122.7945936  73.1627378
 113.8393527 122.3648902  74.3227649 105.7737332 126.9189590  61.6042295
 105.0806577 126.9933945  60.9482331 105.5289084 126.1549934  62.1263812
 114.4450988 118.4785192  69.0081786 114.7252742 117.8108381  69.6342213
 115.2301595 118.6714287  68.4956450 118.3159847 126.9002825  72.7553361
 119.2677270 127.0000923  72.7765585 118.1463297 126.1081094  73.2651446
 116.3374226 123.9858409  72.9412762 115.7424158 124.2663421  72.2459251
 116.0523923 124.4752310  73.7129503 112.6331255 128.9904998  57.9122865
 113.5790360 128.8611206  57.9811283 112.2545500 128.2519660  58.3892293
 120.9442413 126.9119989  71.9153944 120.4281462 126.1278445  71.7283873
 121.8282362 126.5838705  72.0800464 118.6053140 120.6561004  67.8749757
 118.4077961 120.3476092  68.7593089 119.2152846 121.3822643  68.0047687
 112.5169948 133.0422744  79.3723522 113.4372957 133.2201343  79.5663568
 112.4819531 132.0978790  79.2203221 110.8174173 126.9154975  57.8477750
 109.9105628 126.6188087  57.9240464 111.0950154 126.6184793  56.9812036
 101.7352113 128.2361338  68.2976797 101.4154897 127.3826646  68.0051171
 101.1885541 128.4509916  69.0534764 105.5132020 130.9523779  72.0146303
 105.7318030 131.8840887  72.0334337 105.9257794 130.5931753  72.8001107
 112.4336238 121.4591864  64.0021991 111.6236967 121.1138949  64.3777238
 113.1220655 121.1499408  64.5909603 114.3626787 120.5369911  65.6246288
 114.9157825 120.9565364  66.2836311 114.5996873 119.6105659  65.6669244
 110.3859886 126.5256985  81.4049052 110.2856613 127.4751342  81.3361143
 110.1681428 126.1975224  80.5325122 109.5872957 123.7741910  57.9889729
 110.4492121 124.0996808  58.2485547 109.7723301 122.9873406  57.4762795
 101.6040373 131.8564249  70.2669918 100.9103844 131.4418202  69.7539873
 102.3513364 131.8984786  69.6703337 117.7405594 122.6470436  65.1324952
 117.1604263 123.3055240  64.7503005 117.4741526 121.8247781  64.7212370
 116.1909160 122.0475494  67.3346273 116.6908938 122.1592028  66.5260592
 116.8344768 121.7436547  67.9747081 110.2491156 129.9554124  80.2214114
 109.7658238 130.7554484  80.4278003 110.3352095 129.9662068  79.2681558
 103.5177115 131.7882503  68.1435933 103.4947804 131.8870190  67.1917816
 103.8277752 132.6347654  68.4653099 106.1764493 133.8458658  72.2582547
 107.1307747 133.8142601  72.1912479 105.9777017 133.3849282  73.0732773
 106.7663875 132.4159774  74.8253345 107.5856764 132.9103853  74.8488182
 107.0400683 131.4991742  74.7970913 116.5230472 124.8070527  64.1881301
 115.6356327 125.0920177  63.9701495 116.9384461 124.6464290  63.3408578
 119.8745008 124.8317048  67.9035640 120.6505398 125.3213500  68.1760257
 119.1493142 125.2575102  68.3607509 122.3117566 125.5444667  68.9609581
 122.9062057 125.3040403  68.2502889 122.3844150 124.8251797  69.5883117
 104.5314722 139.3878278  69.2752745 104.3969190 138.6278679  68.7090743
 104.1146784 140.1119178  68.8081534 116.4971495 130.3225063  64.4031591
 116.4406697 130.7793614  63.5639223 117.0499838 129.5615747  64.2254434
 120.3076301 126.1114794  65.2281710 120.0513236 125.7111430  66.0589918
 119.6829169 126.8258588  65.1031849 117.2306275 131.5129844  61.6984120
 117.1755079 131.3474115  60.7572564 116.6052330 132.2205877  61.8546310
 102.0198790 126.7497908  75.5245542 102.6657653 126.2396862  76.0132767
 101.8115941 127.4866590  76.0988967 110.5402400 121.0137953  61.2769438
 110.5281070 121.9579793  61.4337709 111.4325822 120.8308098  60.9828900
 114.3554520 117.6080729  65.5315375 113.5886915 117.0539216  65.6772058
 114.7665225 117.6802598  66.3929527 106.3596281 123.8965525  79.6220556
 107.2227742 123.5402330  79.8323881 105.7861691 123.5579420  80.3095961
  39.4894623  -0.1005837  57.1528264  40.1273033  -0.2199090  56.4491604
  39.3715466   0.8475007  57.2116216  36.2984329  -0.1478409  57.0889789
  35.9602841  -0.2637344  56.2010324  37.1674097  -0.5487244  57.0690795
  32.1571145   1.7057067  53.0786680  31.5936010   1.6147004  52.3102967
  32.0423540   0.8856972  53.5589172  36.7804112   1.0056443  63.0475994
  36.7692753   0.6109241  62.1756498  36.9424752   0.2722515  63.6409766
  29.7035577   3.2008259  55.9170900  30.4956869   2.8599084  55.5017199
  29.9432227   3.3103234  56.8373053  37.7370704   5.3728035  48.3901145
  37.0858683   5.9582115  48.0035158  38.5315066   5.9034230  48.4496182
  31.6626331   2.4617172  48.7888279  32.4357207   1.9146159  48.6501155
  32.0151730   3.3261421  49.0002740  33.5011373   3.7893554  61.9955178
  33.2101239   4.6939185  61.8801845  34.1368358   3.8310082  62.7099248
  34.4267580   1.1670403  58.5856538  35.0231152   0.9426425  57.8713501
  34.4842552   0.4255148  59.1881986  33.9992609  -1.3790162  46.4206729
  34.2518129  -1.9008640  45.6590192  33.0617168  -1.5424016  46.5233412
  39.0435891  -2.3754383  54.2281472  39.8298981  -2.7934960  53.8771889
  39.3074596  -1.4708291  54.3963120  39.2145969   3.0618467  48.9270129
  38.5791802   3.1353093  49.6391034  38.8843375   3.6512066  48.2489208
  44.4444319  -2.4379150  55.1314451  45.1769491  -3.0079933  55.3652280
  43.6883674  -2.8257550  55.5720956  33.7188897   0.5237944  48.6231104
  33.6025155  -0.1517152  49.2912188  33.8291157   0.0370318  47.8063257
  36.0620438  -0.0151909  52.3277793  35.6978646  -0.5421288  53.0390715
  36.9187554  -0.4053440  52.1544278  38.4601258   3.4754970  58.9904972
  38.1601982   4.3780009  58.8820779  38.1152318   3.2087153  59.8426125
  31.9113740  -0.0731233  55.0241676  30.9864236  -0.2055019  55.2319368
  32.1598153   0.7062986  55.5211619  41.8598402  -4.0062490  56.6702409
  40.9515280  -4.0747081  56.3761170  41.8085998  -3.5290545  57.4984235
  35.6815146  -2.5304351  48.3085808  35.5614771  -2.0847301  49.1471289
  34.9867735  -2.1819034  47.7499347  33.4422038  10.2399290  51.9575940
  33.3646068  11.1907115  52.0364420  32.8383682   9.8945163  52.6150866
  35.9339268  -2.5872844  64.6137307  35.1572602  -2.0278924  64.6040171
  36.5729831  -2.1016061  65.1352177  43.7260049  -5.8046051  58.4480283
  43.0834429  -5.5113518  57.8020078  43.2214977  -5.9193131  59.2533480
  41.3800212  -2.0582878  49.1366142  42.2918068  -1.8255492  48.9613840
  40.8709859  -1.4745834  48.5741221  34.1885640   0.2212609  64.1755274
  34.9300325   0.7597653  63.8990097  33.4822626   0.8478898  64.3326825
  39.6640980   2.3641750  62.7727435  40.0724336   1.9224160  62.0282067
  38.9418241   1.7894377  63.0261628  36.0172050  -2.6985644  60.1460992
  36.8633245  -2.2746230  60.2895641  35.9570688  -3.3552019  60.8399555
  39.9869795   2.9242940  56.5279724  39.3578657   3.0888654  55.8255792
  39.5995457   3.3384550  57.2990688  43.8659027   3.8597378  53.8824088
  43.1810065   4.2396279  53.3321121  43.9502876   4.4692705  54.6156035
  39.1671495  -5.0381275  61.8042166  38.9232427  -4.2839215  61.2676441
  39.4431426  -4.6595928  62.6389413  41.1209958   1.5057337  60.4819431
  41.3326853   2.1489097  59.8053812  41.0739706   0.6719654  60.0141361
  38.7236187  -5.8824842  57.3856003  37.8620666  -5.5843589  57.6772741
  38.7498622  -5.6654443  56.4537036  35.5397757   2.6617348  53.7929809
  36.0036102   2.9405051  53.0034432  35.2754555   1.7600793  53.6102900
  32.4321838   2.2088830  56.7309572  33.0023195   2.6376098  56.0927057
  33.0229949   1.9271414  57.4293758  34.4766643  -1.2159499  50.6019374
  35.1790686  -0.7638456  51.0693301  34.1447271  -1.8575681  51.2299267
  42.2355786   4.3829292  58.6541789  43.0573230   3.9809480  58.3724470
  42.2318189   4.2797527  59.6057904  36.0012390   3.9313336  60.8102499
  36.0656822   4.3933743  61.6460671  35.2923313   3.3010701  60.9384809
  50.3261779   0.7268041  55.0026760  49.5725488   0.1575439  54.8470764
  50.4609320   0.6930705  55.9497395  35.7160407   5.5981443  50.6781479
  35.5806082   6.4432979  51.1066327  36.2570220   5.8000721  49.9147413
  29.1689805   3.1156881  51.2509404  29.6814325   3.9100132  51.4014969
  29.8212517   2.4183172  51.1843006  30.9784689   6.2322638  53.3332158
  31.1551318   7.1540602  53.1453142  31.7741523   5.9181057  53.7626537
  37.3428884   6.2205010  64.8081821  36.8992738   5.4341388  64.4902726
  38.0046097   6.4084160  64.1425712  32.1016005   7.7500811  59.3342500
  32.6523430   7.6217875  58.5619494  31.2627481   8.0495700  58.9837393
  39.4410122   6.5007810  62.8363223  39.4228597   7.3216691  62.3443492
  40.3630042   6.3761885  63.0613364  35.8983176   4.0151939  63.6786731
  36.4311513   3.2540227  63.4486039  35.3697257   3.7225591  64.4210886
  39.0303153  -0.8879384  47.7152808  38.5149777  -0.1174779  47.9541195
  38.7580462  -1.5614248  48.3385869  44.0037428   1.8652971  49.6505981
  43.2266870   1.5264130  49.2061144  44.6828909   1.8705594  48.9760946
  38.8189457  -3.0152292  49.5412589  38.5139592  -2.7006143  50.3922732
  39.7719899  -2.9370872  49.5839922  37.2635888   3.1437932  51.1905543
  36.7357250   2.4090691  50.8778781  36.7623391   3.9212608  50.9445511
  42.2428735   1.3386952  56.3072589  41.5852409   2.0286214  56.3952718
  43.0469134   1.7283384  56.6506576  41.0534193  -0.3068675  54.3576531
  41.5666075   0.3261317  54.8598241  41.7035417  -0.9067480  53.9919891
  35.4088489   0.9618142  44.1940516  34.5015550   0.7307395  44.3931665
  35.9059521   0.1655761  44.3814498  38.3156568   9.6715649  47.1137202
  37.6418266   9.9747346  47.7222160  38.7022390  10.4744729  46.7642659
  37.5315024  -2.8319220  56.6034872  36.6137586  -2.6104273  56.4456560
  37.9475168  -2.7572909  55.7446579  38.3150072  -1.4327804  51.7337552
  39.0621891  -0.9206407  51.4244674  38.5841661  -1.7543751  52.5941945
  36.5876722   1.0630737  48.7164506  35.6787941   0.7789770  48.8136976
  36.6171806   1.4829815  47.8567813  41.8195990   4.6737326  52.4855674
  41.3658317   3.8328236  52.5420864  41.1889956   5.3098725  52.8230454
  40.7628909  -4.3970688  53.7156341  40.0251666  -4.9093302  54.0466584
  41.0155683  -4.8370306  52.9039618  40.2628929   6.5113823  53.4205492
  40.5551903   7.0718880  52.7017858  40.7727549   6.8042384  54.1758651
  35.1361616  -1.3240643  54.8174302  35.1910226  -2.2766806  54.7416778
  34.3252818  -1.1681204  55.3015600  36.2852810   2.6039480  46.0552585
  35.8472240   1.8875339  45.5958222  37.0263251   2.8315595  45.4937676
  35.2262554   7.2894174  54.5098945  35.1838733   7.5155020  53.5807477
  36.1425253   7.0557549  54.6584746  38.6728188  -2.2421758  61.4079574
  39.0277575  -2.0150285  62.2674040  39.3200319  -1.9103382  60.7856830
  44.4025925   0.8796677  52.1128903  44.2643823   1.0698273  51.1850093
  44.0462144   1.6416060  52.5696955  44.4295304   2.9473204  57.1240175
  44.8631811   2.8548494  57.9723229  45.1426885   2.9230705  56.4860191
  33.3428355   4.1657203  54.3060908  34.1368953   3.6707523  54.1043483
  32.6320047   3.6375066  53.9428613  38.1623199   6.5475299  58.6573275
  38.2160221   7.1166235  59.4250991  37.2937981   6.7177184  58.2927313
  45.2910854   2.9896905  59.6573060  45.4846744   3.8942716  59.9032335
  45.1911472   2.5304324  60.4911645  40.3525963   3.1403648  65.2313941
  40.2011469   2.9114200  64.3144025  40.3430642   4.0974249  65.2445286
  37.1211299   0.7135561  60.2160207  38.0503359   0.8646720  60.0429175
  36.7002329   0.8019581  59.3608854  35.9199631   4.7386225  57.9858745
  35.7810716   4.3705009  58.8584683  35.1314227   5.2533864  57.8142703
  36.5147783   9.8395322  49.3284281  36.6899538   9.3683365  50.1429904
  35.8280571  10.4661088  49.5565542  37.4704846   4.1167828  55.3747583
  37.1354678   4.0768598  56.2705233  36.9708792   3.4512544  54.9017993
  31.4449090  -0.4764542  60.9000164  31.3068888  -1.2084303  61.5011703
  32.3554013  -0.5655642  60.6184352  40.4064038   1.4623862  45.6484642
  39.7893208   0.7370690  45.5517695  39.9380526   2.2233222  45.3051717
  34.0731391  -0.7644583  60.3883844  34.7831009  -1.4051391  60.3470462
  34.0300699  -0.5131688  61.3110024  42.0618169   6.1722770  63.3090423
  42.0030715   5.4881991  62.6421006  42.4637688   6.9141760  62.8571049
  31.0808868  12.9884684  56.1024142  31.3205466  13.6203208  56.7803160
  30.2378064  12.6372724  56.3889501  42.0635576   4.1362354  61.5404402
  41.1762355   3.7988276  61.6630801  42.6334128   3.4045386  61.7773168
  35.5936730   8.7963807  58.5065646  35.5206901   9.6018778  59.0184950
  35.1514123   8.9955773  57.6813667  35.3826509   8.0335577  52.0168467
  34.5994031   8.5757257  52.1106692  36.0819255   8.5509556  52.4162708
  46.5452917  -0.4529428  56.3020964  46.5342793   0.4295287  55.9314897
  45.6770296  -0.8057877  56.1075501  38.0535413   8.6950641  60.6623804
  38.7663386   9.3298106  60.5899706  37.5625442   8.7914507  59.8463806
  39.7752940   2.6001893  52.2341096  38.8409219   2.7203356  52.0645800
  39.9529609   1.6974360  51.9701106  43.1625492  -1.5580787  52.7691130
  43.6285944  -0.7252796  52.6951433  43.6132992  -2.0235806  53.4736389
  33.1047327   6.4445084  61.4829375  33.8056786   7.0781567  61.6358769
  32.6342442   6.7859816  60.7225014  41.2301723   4.7863034  49.7677282
  41.5061567   4.6719629  50.6771156  40.3606221   4.3880519  49.7289455
  40.9048613  -1.0010308  59.3081925  40.2520063  -0.7534401  58.6534378
  41.2828993  -1.8146170  58.9744403  37.8655787   9.0349385  53.4110096
  38.0478181   8.2171041  53.8737848  38.6888773   9.2517077  52.9734986
  38.1997952   7.9617570  50.6725144  38.7285719   7.4510025  50.0595306
  38.4626172   7.6460100  51.5370677  36.9536186  -0.2590497  65.7947963
  36.2776823  -0.3596368  66.4650338  37.7763820  -0.4151284  66.2583960
  28.7015045   5.9781439  58.4160478  29.2868482   5.2325127  58.5488382
  28.5039883   6.2885396  59.2997142  31.5553700   9.0132687  53.4322920
  30.8864075   9.4978814  52.9486960  31.4166570   9.2601907  54.3466299
  35.6958969  11.0476430  60.0305579  36.2477277  11.2108052  60.7954664
  36.0365162  11.6380868  59.3585603  40.5469843   5.8737688  65.8854233
  41.0909747   6.4867646  65.3909188  39.9656688   6.4317266  66.4021246
  38.8327356   8.9958406  57.0169261  38.7078496   8.1948146  56.5080206
  39.4906447   9.4904599  56.5283231  40.8962264   6.7967426  58.6448811
  39.9492600   6.6772777  58.5727138  41.2445038   5.9089924  58.7275072
  37.9008698   6.5920142  54.8453163  37.7533660   5.6636849  55.0260733
  38.7262191   6.6140233  54.3610238  41.5042820   7.4148701  55.9318036
  42.4289367   7.2091562  55.7942487  41.3358123   7.1665102  56.8407377
  41.2938136   7.9334368  51.2880127  41.4675013   7.3680791  50.5353980
  41.7867027   8.7335263  51.1059617  47.1477527   0.6970791  52.9070427
  47.5908673  -0.0521884  52.5089550  46.2704037   0.6880927  52.5244159
  42.2813308   7.2501133  48.3877026  42.9764213   7.8707825  48.6064340
  42.6236458   6.3996484  48.6629403  44.1804731   4.7000838  49.9164356
  44.7056055   5.0388111  49.1913676  44.0927084   3.7647853  49.7327491
  35.8424780   8.6134912  62.0454233  36.1511907   8.3684059  62.9176932
  36.6400262   8.8181550  61.5573103  35.8645392  10.7672821  54.2759609
  35.4250382  10.2749200  54.9692466  36.6153509  10.2245789  54.0351685
  28.3437731   6.9584362  54.2784238  29.1695751   6.6588134  53.8982881
  27.9931783   6.1891985  54.7274026  33.3119264   6.3110830  56.3481911
  32.6899274   5.6481535  56.0484139  33.9824131   6.3371962  55.6655559
  26.5446336   4.8770689  55.2373171  25.7078244   4.4492863  55.0557172
  26.5169982   5.0703132  56.1743962  43.8698637   5.3333742  65.2215554
  43.0794181   5.3157881  64.6820054  43.6331992   5.8722035  65.9764591
  43.9896513   2.1826208  62.5348283  44.0394517   2.0176216  63.4763806
  43.8810436   1.3153467  62.1446164  32.8732771   4.8614754  49.8240372
  33.0220892   5.5450218  49.1707044  33.6799215   4.8419844  50.3389827
  41.2800275  -1.8342864  63.8507589  42.1810138  -1.9736399  63.5591587
  41.3548249  -1.6688409  64.7905767  45.4914709   4.6023150  62.7790304
  45.1999518   4.9653130  63.6153765  44.8786841   3.8890158  62.6003636
  46.6910392   2.1676029  55.2992875  47.5257283   2.6065833  55.4630435
  46.8269520   1.6914683  54.4801120  43.7401898  -0.2744236  61.2470362
  44.2156019  -0.0816589  60.4389214  42.8167463  -0.2185050  61.0013746
  30.6285404   0.8879931  50.8301441  30.3831446  -0.0157739  51.0281651
  30.7981319   0.8897082  49.8880919  36.3728177   7.3562884  47.2952119
  35.8002144   7.9753071  46.8422591  36.9460970   7.9062246  47.8292041
  42.4403567  -3.3978476  59.4798668  43.3920989  -3.2980378  59.5010892
  42.2707017  -4.1900207  59.9896752  40.4617946  -6.3122892  59.6658069
  39.8667878  -6.0317880  58.9704557  40.1767643  -5.8228992  60.4374810
  39.5925437   7.6400034  48.4260701  40.5256110   7.5745596  48.6293577
  39.5048649   8.4756301  47.9675234  42.2213453   6.9565905  45.3864649
  42.1427085   6.6225768  46.2800407  43.0423120   7.4487673  45.3856121
  44.9191644  -0.1772356  58.5940968  44.8867964  -1.1156355  58.7800651
  45.5292268  -0.0988319  57.8606792  36.7574975  -1.3076303  44.6368172
  37.7034080  -1.4370095  44.7056590  36.3789220  -2.0461641  45.1137600
  45.0686133  -3.3861313  58.6399251  44.5525182  -4.1702856  58.4529180
  45.9526081  -3.7142596  58.8045770  50.7368194   0.8843651  57.7347004
  51.4671583   0.6228939  58.2954708  50.1275140   0.1472373  57.7749072
  48.8183491  -0.9748487  58.3321456  48.0916655  -1.1092522  57.7237947
  48.4030778  -0.6671658  59.1378174  36.6413668   2.7441443  66.0968829
  37.5616677   2.9220042  66.2908875  36.6063251   1.7997489  65.9448528
  29.6375740   0.6542478  58.7391610  29.8561750   1.5859586  58.7579644
  30.0501514   0.2950452  59.5246414  41.8649313  -7.6510865  51.8570259
  41.2847983  -6.9926061  51.4748311  41.5985246  -8.4733520  51.4457677
  34.3734876  -0.3427178  66.9459420  33.8901957   0.4573183  67.1523309
  34.4595815  -0.3319233  65.9926864  27.6420835   1.4901202  54.8681240
  27.6191523   1.5888889  53.9163123  27.9521472   2.3366353  55.1898406
  30.3008213   3.5477357  58.9827854  31.2551467   3.5161299  58.9157786
  30.1020737   3.0867981  59.7978080  30.8907595   2.1178473  61.5498652
  31.7100484   2.6122552  61.5733489  31.1644403   1.2010441  61.5216219
  40.6474192  -5.4910775  50.9126607  39.7600047  -5.2061124  50.6946802
  41.0628181  -5.6517011  50.0653884  43.9988728  -5.4664254  54.6280947
  44.7749118  -4.9767801  54.9005563  43.2736862  -5.0406199  55.0852816
  46.4361286  -4.7536634  55.6854887  47.0305777  -4.9940898  54.9748195
  46.5087870  -5.4729504  56.3128423  28.6558442   9.0896977  55.9998052
  28.5212910   8.3297377  55.4336050  28.2390504   9.8137876  55.5326841
  39.7917405   4.2733900  45.0074627  40.4953255   4.4783903  45.6232283
  39.0680054   4.8410662  45.2723711  40.6215215   0.0243761  51.1276897
  40.5650417   0.4812313  50.2884530  41.1743558  -0.7365554  50.9499740
  44.4320021  -4.1866507  51.9527017  44.1756955  -4.5869871  52.7835225
  43.8072889  -3.4722713  51.8277156  48.7432359  -1.4470433  54.4598308
  48.1831917  -1.3777244  55.2329870  48.1375862  -1.6229449  53.7397805
  31.8127568   9.9866294  56.2116495  31.6959952  10.9311726  56.1095185
  30.9920014   9.6839855  56.6002294  41.7004102   4.7116429  47.0573087
  42.5349706   4.2797628  46.8750562  41.5388445   4.5398443  47.9849982
  41.3549995   1.2148543  48.4229427  41.2998798   1.0492814  47.4817871
  40.7296050   1.9224576  48.5791616  38.6695902   3.5197455  67.7482989
  39.5387061   3.6938107  67.3869624  38.1902653   4.3391871  67.6258719
  32.8382082  10.6394556  59.4272423  33.7409329  10.6718166  59.7438918
  32.6119452   9.7095006  59.4418759  34.5935684   9.3925542  56.0882502
  33.6431315   9.3927404  55.9746874  34.8968170   8.6458277  55.5718536
  50.3288377  15.2286080  57.1528264  50.9666787  15.1092828  56.4491604
  50.2109220  16.1766924  57.2116216  47.1378084  15.1813509  57.0889789
  46.7996595  15.0654573  56.2010324  48.0067852  14.7804674  57.0690795
  42.9964899  17.0348985  53.0786680  42.4329765  16.9438922  52.3102967
  42.8817294  16.2148889  53.5589172  40.5429331  18.5300177  55.9170900
  41.3350623  18.1891001  55.5017199  40.7825982  18.6395152  56.8373053
  48.5764458  20.7019953  48.3901145  47.9252438  21.2874033  48.0035158
  49.3708821  21.2326148  48.4496182  42.5020085  17.7909090  48.7888279
  43.2750961  17.2438077  48.6501155  42.8545484  18.6553339  49.0002740
  45.2661335  16.4962321  58.5856538  45.8624907  16.2718343  57.8713501
  45.3236306  15.7547066  59.1881986  44.8386363  13.9501756  46.4206729
  45.0911884  13.4283277  45.6590192  43.9010922  13.7867901  46.5233412
  49.8829646  12.9537534  54.2281472  50.6692735  12.5356957  53.8771889
  50.1468350  13.8583626  54.3963120  50.0539723  18.3910385  48.9270129
  49.4185556  18.4645011  49.6391034  49.7237130  18.9803983  48.2489208
  55.2838073  12.8912768  55.1314451  56.0163245  12.3211984  55.3652280
  54.5277429  12.5034368  55.5720956  44.5582652  15.8529862  48.6231104
  44.4418910  15.1774765  49.2912188  44.6684912  15.3662236  47.8063257
  46.9014193  15.3140009  52.3277793  46.5372400  14.7870630  53.0390715
  47.7581309  14.9238478  52.1544278  52.8063493   6.6034342  59.5909059
  52.4746818   7.4729753  59.3670274  52.2109107   6.2870626  60.2703090
  46.5419680  10.3429909  47.3239142  46.7094082  11.2110145  47.6909613
  46.3516849  10.5057190  46.4000431  49.2995013  18.8046888  58.9904972
  48.9995736  19.7071926  58.8820779  48.9546072  18.5379071  59.8426125
  42.7507494  15.2560684  55.0241676  41.8257991  15.1236899  55.2319368
  42.9991908  16.0354904  55.5211619  52.6992157  11.3229428  56.6702409
  51.7909034  11.2544836  56.3761170  52.6479753  11.8001373  57.4984235
  46.5208901  12.7987566  48.3085808  46.4008526  13.2444617  49.1471289
  45.8261489  13.1472884  47.7499347  40.1116305  14.8993958  55.8585465
  40.2408687  15.1528437  56.7724877  39.4313757  15.4921666  55.5390121
  44.2815793  25.5691208  51.9575940  44.2039822  26.5199033  52.0364420
  43.6777436  25.2237080  52.6150866  54.5653803   9.5245866  58.4480283
  53.9228183   9.8178399  57.8020078  54.0608732   9.4098787  59.2533480
  52.2193967  13.2709039  49.1366142  53.1311823  13.5036426  48.9613840
  51.7103614  13.8546084  48.5741221  50.8263549  18.2534858  56.5279724
  50.1972412  18.4180572  55.8255792  50.4389211  18.6676467  57.2990688
  54.7052781  19.1889296  53.8824088  54.0203819  19.5688197  53.3321121
  54.7896630  19.7984622  54.6156035  49.5629942   9.4467075  57.3856003
  48.7014421   9.7448329  57.6772741  49.5892376   9.6637474  56.4537036
  46.3791511  17.9909266  53.7929809  46.8429857  18.2696969  53.0034432
  46.1148309  17.0892710  53.6102900  43.2715592  17.5380747  56.7309572
  43.8416949  17.9668016  56.0927057  43.8623704  17.2563332  57.4293758
  45.3160397  14.1132418  50.6019374  46.0184440  14.5653462  51.0693301
  44.9841026  13.4716237  51.2299267  39.0585731  12.3715971  55.9036508
  38.2684785  12.6273499  55.4276618  39.5496978  13.1864309  56.0088548
  53.0749541  19.7121210  58.6541789  53.8966984  19.3101397  58.3724470
  53.0711943  19.6089444  59.6057904  41.0100476  12.7360550  52.8619984
  40.2131640  12.8479244  53.3803480  40.7826069  13.0747202  51.9960875
  46.8406144  19.2605253  60.8102499  46.9050577  19.7225661  61.6460671
  46.1317068  18.6302618  60.9384809  37.3423434  12.6246461  58.3351499
  37.5931472  13.5093471  58.6009074  37.8782982  12.4451063  57.5626590
  61.1655534  16.0559959  55.0026760  60.4119242  15.4867357  54.8470764
  61.3003075  16.0222623  55.9497395  46.5554162  20.9273361  50.6781479
  46.4199836  21.7724897  51.1066327  47.0963974  21.1292639  49.9147413
  43.0421501   7.0064941  67.3395835  42.6488447   6.4531139  68.0143479
  43.8587642   7.3175519  67.7302352  40.0083559  18.4448799  51.2509404
  40.5208080  19.2392049  51.4014969  40.6606272  17.7475089  51.1843006
  41.8178444  21.5614555  53.3332158  41.9945072  22.4832520  53.1453142
  42.6135277  21.2472974  53.7626537  45.9589462   8.4222820  64.9316091
  46.6999176   9.0229973  64.8520554  46.1907385   7.6800458  64.3734134
  42.9409759  23.0792729  59.3342500  43.4917184  22.9509792  58.5619494
  42.1021235  23.3787618  58.9837393  49.9046625   4.4503923  59.2080373
  49.5610895   5.3405564  59.1319483  50.2725588   4.2605580  58.3449958
  37.9732476  16.7737453  52.0268975  38.8107698  17.1834462  51.8102683
  38.1510744  15.8336895  51.9969169  49.8696908  14.4412534  47.7152808
  49.3543531  15.2117139  47.9541195  49.5974216  13.7677670  48.3385869
  47.4544019   9.2862235  52.7738046  46.5985615   8.8969085  52.5943685
  47.8670971   9.3654195  51.9137832  48.9843166   6.8208578  57.1729606
  48.4807961   6.7838713  56.3597411  49.2773773   7.7301321  57.2326263
  45.2286052   6.9047308  56.1795788  46.0939048   6.7090116  55.8201677
  45.2963560   6.6757659  57.1065145  54.8431182  17.1944889  49.6505981
  54.0660625  16.8556048  49.2061144  55.5222663  17.1997512  48.9760946
  49.6583211  12.3139626  49.5412589  49.3533347  12.6285775  50.3922732
  50.6113653  12.3921046  49.5839922  48.1029643  18.4729849  51.1905543
  47.5751005  17.7382609  50.8778781  47.6017146  19.2504526  50.9445511
  53.0822489  16.6678870  56.3072589  52.4246163  17.3578131  56.3952718
  53.8862888  17.0575302  56.6506576  42.8348371   9.1349516  53.5512155
  43.4092123   8.9124697  52.8185348  43.4219353   9.2038210  54.3040756
  51.8927948  15.0223242  54.3576531  52.4059830  15.6553234  54.8598241
  52.5429172  14.4224438  53.9919891  43.1617958  11.1653977  47.5708040
  42.3255270  11.5028663  47.8917315  43.0222727  11.0302956  46.6335177
  45.1371038   6.0090764  52.2787224  44.4835451   5.6939782  51.6543839
  45.0951512   5.3866505  53.0047047  46.2482243  16.2910060  44.1940516
  45.3409305  16.0599313  44.3931665  46.7453275  15.4947679  44.3814498
  49.1550322  25.0007567  47.1137202  48.4812021  25.3039264  47.7222160
  49.5416144  25.8036647  46.7642659  48.3708779  12.4972698  56.6034872
  47.4531340  12.7187645  56.4456560  48.7868922  12.5719009  55.7446579
  49.1543826  13.8964114  51.7337552  49.9015645  14.4085511  51.4244674
  49.4235416  13.5748166  52.5941945  47.4270477  16.3922654  48.7164506
  46.5181696  16.1081687  48.8136976  47.4565560  16.8121733  47.8567813
  52.6589744  20.0029244  52.4855674  52.2052071  19.1620154  52.5420864
  52.0283711  20.6390642  52.8230454  51.6022664  10.9321230  53.7156341
  50.8645420  10.4198616  54.0466584  51.8549437  10.4921612  52.9039618
  51.1022683  21.8405741  53.4205492  51.3945658  22.4010798  52.7017858
  51.6121304  22.1334302  54.1758651  51.7034291   3.7097482  54.3098111
  52.0093168   2.8494845  54.0224026  52.4286896   4.3015102  54.1097104
  37.9958647  14.1128169  52.6979708  37.7983047  13.5197529  51.9730775
  37.4405311  13.8080379  53.4155647  45.9755371  14.0051275  54.8174302
  46.0303980  13.0525111  54.7416778  45.1646573  14.1610714  55.3015600
  47.1246564  17.9331398  46.0552585  46.6865994  17.2167257  45.5958222
  47.8657005  18.1607513  45.4937676  43.9147731  12.6228335  52.5764680
  43.1015596  12.9222505  52.9829873  44.4106725  12.2284024  53.2939163
  46.0656308  22.6186092  54.5098945  46.0232487  22.8446938  53.5807477
  46.9819007  22.3849466  54.6584746  55.2419679  16.2088595  52.1128903
  55.1037578  16.3990191  51.1850093  54.8855898  16.9707978  52.5696955
  43.4061805  10.1946690  58.1925915  44.0461185  10.0535449  57.4948879
  42.5739336   9.9081204  57.8164517  55.2689059  18.2765122  57.1240175
  55.7025565  18.1840411  57.9723229  55.9820639  18.2522623  56.4860191
  44.1822109  19.4949121  54.3060908  44.9762708  18.9999441  54.1043483
  43.4713802  18.9666984  53.9428613  49.0016954  21.8767216  58.6573275
  49.0553976  22.4458153  59.4250991  48.1331735  22.0469101  58.2927313
  40.4904873  13.6392202  50.3820661  39.5602461  13.5776658  50.5990623
  40.5862345  13.1168155  49.5857302  40.4090422  10.1647015  52.9698902
  40.6697239  11.0792349  52.8608063  41.2307594   9.6971458  53.1195515
  56.1304608  18.3188823  59.6573060  56.3240498  19.2234633  59.9032335
  56.0305227  17.8596242  60.4911645  46.7593385  20.0678143  57.9858745
  46.6204471  19.6996927  58.8584683  45.9707981  20.5825782  57.8142703
  47.3541537  25.1687239  49.3284281  47.5293293  24.6975282  50.1429904
  46.6674325  25.7953005  49.5565542  48.3098600  19.4459745  55.3747583
  47.9748433  19.4060515  56.2705233  47.8102546  18.7804461  54.9017993
  51.2457792  16.7915780  45.6484642  50.6286963  16.0662608  45.5517695
  50.7774280  17.5525140  45.3051717  41.9202622  28.3176602  56.1024142
  42.1599221  28.9495126  56.7803160  41.0771819  27.9664642  56.3889501
  43.0356338  11.0101204  44.7705947  42.1585804  10.8890005  44.4068193
  43.5114091  10.2187282  44.5184835  34.5558478  15.7978364  54.8647454
  35.2429518  15.4840094  54.2768469  34.4006607  16.7019728  54.5914705
  39.3593200  10.6868560  59.2932478  39.2751389  10.0794230  58.5582887
  38.5375907  11.1777579  59.2941974  46.4330484  24.1255724  58.5065646
  46.3600656  24.9310696  59.0184950  45.9907877  24.3247690  57.6813667
  46.2220264  23.3627494  52.0168467  45.4387786  23.9049175  52.1106692
  46.9213009  23.8801474  52.4162708  49.5316914   9.1722124  54.6602673
  50.0285614   8.4192086  54.3403743  48.7603896   9.2086441  54.0945882
  57.3846671  14.8762489  56.3020964  57.3736548  15.7587205  55.9314897
  56.5164051  14.5234040  56.1075501  50.6146695  17.9293811  52.2341096
  49.6802974  18.0495274  52.0645800  50.7923363  17.0266278  51.9701106
  46.1151883  11.3139507  54.3874357  45.7449670  10.7610547  55.0755263
  46.6110975  10.7097640  53.8349357  54.0019246  13.7711130  52.7691130
  54.4679698  14.6039122  52.6951433  54.4526747  13.3056112  53.4736389
  43.9441081  21.7737002  61.4829375  44.6450541  22.4073485  61.6358769
  43.4736196  22.1151733  60.7225014  52.0695477  20.1154952  49.7677282
  52.3455321  20.0011546  50.6771156  51.1999976  19.7172437  49.7289455
  51.9735909   6.1391717  56.8082031  51.0598989   6.3695944  56.9764238
  52.4029010   6.2230161  57.6596064  48.7049541  24.3641303  53.4110096
  48.8871936  23.5462958  53.8737848  49.5282527  24.5808995  52.9734986
  49.0391707  23.2909488  50.6725144  49.5679473  22.7801942  50.0595306
  49.3019926  22.9752018  51.5370677  39.5408799  21.3073357  58.4160478
  40.1262236  20.5617045  58.5488382  39.3433638  21.6177314  59.2997142
  42.3947455  24.3424604  53.4322920  41.7257830  24.8270732  52.9486960
  42.2560324  24.5893825  54.3466299  34.1326454  13.8778957  57.1364921
  34.1710554  13.3442548  57.9302039  33.6266747  13.3514163  56.5175898
  46.5352723  26.3768348  60.0305579  47.0871031  26.5399969  60.7954664
  46.8758917  26.9672786  59.3585603  41.5117216   8.7243498  60.6327463
  41.5758543   9.5858329  60.2204861  41.4484337   8.1117499  59.8999822
  40.9869489  10.7966630  64.2800498  41.6141528  10.4143708  64.8938022
  40.1297408  10.5780832  64.6456190  37.7635032  12.6043059  50.2118852
  38.0588473  11.6953738  50.1585906  36.8623068  12.5830799  49.8899855
  49.6721111  24.3250323  57.0169261  49.5472250  23.5240063  56.5080206
  50.3300202  24.8196517  56.5283231  41.2929279  10.6799056  56.1946401
  40.5715865  11.2935024  56.0553874  42.0822535  11.2156821  56.1163047
  51.7356019  22.1259343  58.6448811  50.7886354  22.0064695  58.5727138
  52.0838792  21.2381841  58.7275072  44.0955592   8.0153482  62.4687053
  44.6189994   8.2615779  63.2313362  43.8767926   8.8473517  62.0490190
  39.4922873  10.2857157  50.3358177  39.1635580   9.4054536  50.1533283
  39.8462244  10.2304826  51.2234567  48.7402452  21.9212060  54.8453163
  48.5927415  20.9928767  55.0260733  49.5655946  21.9432150  54.3610238
  42.6064697  10.5730127  50.7033655  42.9460769  11.1016048  49.9812264
  43.0536817  10.9110533  51.4792222  52.3436574  22.7440618  55.9318036
  53.2683122  22.5383480  55.7942487  52.1751877  22.4957020  56.8407377
  45.9524609   6.0416490  58.6064046  46.7750678   5.5676968  58.4842937
  46.1962673   6.8206974  59.1062733  44.5932844   9.0704748  48.9026948
  45.3141206   9.4486001  48.3990665  43.9698148   9.7893625  49.0061926
  48.7363967   9.7749897  49.8385280  48.9527581  10.6574535  49.5374108
  48.2558034   9.3836111  49.1090922  43.4763188  12.7335611  56.4156025
  43.3307769  13.0475914  57.3080306  42.9988392  13.3520511  55.8626923
  45.3359571   9.7238159  56.4636914  45.3221140   8.8279252  56.1269212
  46.0531999   9.7308822  57.0975200  52.1331890  23.2626286  51.2880127
  52.3068768  22.6972708  50.5353980  52.6260782  24.0627181  51.1059617
  37.9508850  15.2740955  59.3543686  37.4062318  16.0500763  59.4863960
  38.8288200  15.6211759  59.1962807  44.7396467   8.6052539  51.7324485
  44.8612378   7.6769185  51.9315372  44.4498509   8.6191225  50.8202800
  47.6087657   6.2907449  54.8691204  47.6309354   6.3546782  53.9143184
  48.0255716   5.4511958  55.0631711  57.9871281  16.0262709  52.9070427
  58.4302427  15.2770034  52.5089550  57.1097792  16.0172845  52.5244159
  53.1207063  22.5793050  48.3877026  53.8157967  23.1999743  48.6064340
  53.4630213  21.7288401  48.6629403  38.7374872  14.4010851  62.2473843
  37.9956608  14.5493487  62.8338473  38.4167616  14.6619117  61.3840592
  55.0198486  20.0292756  49.9164356  55.5449810  20.3680029  49.1913676
  54.9320838  19.0939771  49.7327491  46.7039147  26.0964739  54.2759609
  46.2644137  25.6041118  54.9692466  47.4547264  25.5537707  54.0351685
  39.1831486  22.2876280  54.2784238  40.0089506  21.9880052  53.8982881
  38.8325538  21.5183902  54.7274026  44.1513019  21.6402748  56.3481911
  43.5293028  20.9773453  56.0484139  44.8217886  21.6663880  55.6655559
  37.3840091  20.2062606  55.2373171  36.5471999  19.7784781  55.0557172
  37.3563736  20.3995050  56.1743962  44.2237546  10.1184536  65.9414417
  44.2725702  10.9946659  65.5592187  44.7660060   9.5761929  65.3686060
  43.7126526  20.1906672  49.8240372  43.8614646  20.8742136  49.1707044
  44.5192969  20.1711762  50.3389827  57.5304146  17.4967947  55.2992875
  58.3651038  17.9357751  55.4630435  57.6663275  17.0206600  54.4801120
  41.4679159  16.2171849  50.8301441  41.2225201  15.3134179  51.0281651
  41.6375073  16.2189000  49.8880919  49.1575869   7.0895526  60.2126196
  49.6757812   7.8256552  59.8872685  48.8031001   7.3959519  61.0472955
  40.7374806  11.9500207  48.3287602  40.0444051  12.0244562  47.6727638
  40.4926558  11.1860550  48.8509119  49.4088463   3.5095808  55.7327093
  49.6890216   2.8418997  56.3587519  50.1939070   3.7024904  55.2201757
  47.2121931  22.6854802  47.2952119  46.6395898  23.3044989  46.8422591
  47.7854725  23.2354164  47.8292041  51.3011701   9.0169025  59.6658069
  50.7061633   9.2974038  58.9704557  51.0161397   9.5062926  60.4374810
  50.4319191  22.9691952  48.4260701  51.3649864  22.9037514  48.6293577
  50.3442404  23.8048219  47.9675234  53.0607208  22.2857822  45.3864649
  52.9820839  21.9517686  46.2800407  53.8816874  22.7779590  45.3856121
  55.7585399  15.1519562  58.5940968  55.7261719  14.2135562  58.7800651
  56.3686023  15.2303598  57.8606792  47.5968730  14.0215615  44.6368172
  48.5427834  13.8921823  44.7056590  47.2182975  13.2830277  45.1137600
  55.9079887  11.9430605  58.6399251  55.3918936  11.1589062  58.4529180
  56.7919836  11.6149322  58.8045770  53.5690614   5.6871621  54.5995063
  53.3715435   5.3786709  55.4838395  54.1790320   6.4133260  54.7292993
  61.5761949  16.2135569  57.7347004  62.3065337  15.9520857  58.2954708
  60.9668894  15.4764291  57.7749072  59.6577246  14.3543431  58.3321456
  58.9310409  14.2199396  57.7237947  59.2424533  14.6620260  59.1378174
  45.7811647  11.9465591  44.5723057  44.8743102  11.6498704  44.6485770
  46.0587628  11.6495409  43.7057343  36.6989587  13.2671954  55.0222103
  36.3792372  12.4137263  54.7296477  36.1523015  13.4820533  55.7780071
  40.4769495  15.9834395  58.7391610  40.6955505  16.9151503  58.7579644
  40.8895269  15.6242370  59.5246414  47.3973713   6.4902481  50.7267298
  46.5874441   6.1449566  51.1022544  48.0858130   6.1810025  51.3154910
  49.3264261   5.5680528  52.3491595  49.8795299   5.9875981  53.0081618
  49.5634347   4.6416276  52.3914551  44.5510432   8.8052526  44.7135036
  45.4129595   9.1307425  44.9730853  44.7360776   8.0184022  44.2008102
  36.5677847  16.8874866  56.9915225  35.8741319  16.4728819  56.4785179
  37.3150838  16.9295402  56.3948644  52.7043068   7.6781053  51.8570259
  52.1241737   8.3365857  51.4748311  52.4379001   6.8558397  51.4457677
  51.1546634   7.0786110  54.0591579  51.6546413   7.1902645  53.2505898
  51.7982242   6.7747163  54.6992388  38.4814590  16.8193120  54.8681240
  38.4585278  16.9180807  53.9163123  38.7915226  17.6658271  55.1898406
  41.1401968  18.8769275  58.9827854  42.0945221  18.8453217  58.9157786
  40.9414491  18.4159899  59.7978080  51.4867946   9.8381143  50.9126607
  50.5993801  10.1230794  50.6946802  51.9021935   9.6774907  50.0653884
  54.8382482   9.8627664  54.6280947  55.6142872  10.3524117  54.9005563
  54.1130616  10.2885718  55.0852816  57.2755041  10.5755283  55.6854887
  57.8699532  10.3351019  54.9748195  57.3481624   9.8562414  56.3128423
  39.4952196  24.4188894  55.9998052  39.3606664  23.6589295  55.4336050
  39.0784259  25.1429794  55.5326841  50.6311159  19.6025818  45.0074627
  51.3347010  19.8075820  45.6232283  49.9073808  20.1702580  45.2723711
  51.4608970  15.3535679  51.1276897  51.4044171  15.8104231  50.2884530
  52.0137312  14.5926364  50.9499740  55.2713776  11.1425411  51.9527017
  55.0150710  10.7422047  52.7835225  54.6466644  11.8569205  51.8277156
  59.5826114  13.8821484  54.4598308  59.0225671  13.9514674  55.2329870
  58.9769617  13.7062469  53.7397805  42.6521322  25.3158211  56.2116495
  42.5353706  26.2603644  56.1095185  41.8313769  25.0131773  56.6002294
  52.5397857  20.0408347  47.0573087  53.3743461  19.6089545  46.8750562
  52.3782200  19.8690361  47.9849982  52.1943749  16.5440460  48.4229427
  52.1392553  16.3784732  47.4817871  51.5689804  17.2516493  48.5791616
  36.9836264  11.7808525  62.2490849  37.6295128  11.2707479  62.7378074
  36.7753415  12.5177206  62.8234274  45.5039875   6.0448569  48.0014745
  45.4918544   6.9890409  48.1583016  46.3963296   5.8618715  47.7074206
  43.6775836  25.9686473  59.4272423  44.5803083  26.0010083  59.7438918
  43.4513207  25.0386924  59.4418759  45.4329438  24.7217460  56.0882502
  44.4825069  24.7219321  55.9746874  45.7361925  23.9750194  55.5718536
  49.3191994   2.6391346  52.2560682  48.5524390   2.0849833  52.4017364
  49.7302699   2.7113215  53.1174833  41.3233755   8.9276142  66.3465863
  42.1865217   8.5712947  66.5569188  40.7499166   8.5890037  67.0341267
  61.1682132  30.5577998  57.1528264  61.8060542  30.4384745  56.4491604
  61.0502975  31.5058842  57.2116216  57.9771838  30.5105426  57.0889789
  57.6390350  30.3946491  56.2010324  58.8461606  30.1096591  57.0690795
  53.8358654  32.3640903  53.0786680  53.2723519  32.2730840  52.3102967
  53.7211049  31.5440807  53.5589172  58.4591621  31.6640278  63.0475994
  58.4480262  31.2693076  62.1756498  58.6212261  30.9306351  63.6409766
  51.3823086  33.8592094  55.9170900  52.1744378  33.5182919  55.5017199
  51.6219736  33.9687069  56.8373053  59.4158213  36.0311870  48.3901145
  58.7646192  36.6165951  48.0035158  60.2102575  36.5618065  48.4496182
  53.3413840  33.1201008  48.7888279  54.1144716  32.5729995  48.6501155
  53.6939239  33.9845257  49.0002740  55.1798882  34.4477390  61.9955178
  54.8888748  35.3523021  61.8801845  55.8155867  34.4893917  62.7099248
  56.1055089  31.8254238  58.5856538  56.7018661  31.6010261  57.8713501
  56.1630061  31.0838984  59.1881986  55.6780118  29.2793674  46.4206729
  55.9305638  28.7575195  45.6590192  54.7404677  29.1159819  46.5233412
  60.7223400  28.2829452  54.2281472  61.5086490  27.8648875  53.8771889
  60.9862105  29.1875544  54.3963120  60.8933478  33.7202302  48.9270129
  60.2579311  33.7936929  49.6391034  60.5630884  34.3095901  48.2489208
  66.1231828  28.2204685  55.1314451  66.8557000  27.6503902  55.3652280
  65.3671183  27.8326286  55.5720956  55.3976406  31.1821780  48.6231104
  55.2812664  30.5066683  49.2912188  55.5078666  30.6954154  47.8063257
  57.7407947  30.6431927  52.3277793  57.3766155  30.1162548  53.0390715
  58.5975063  30.2530396  52.1544278  63.6457248  21.9326259  59.5909059
  63.3140573  22.8021670  59.3670274  63.0502861  21.6162543  60.2703090
  57.3813434  25.6721826  47.3239142  57.5487837  26.5402063  47.6909613
  57.1910603  25.8349108  46.4000431  60.1388767  34.1338805  58.9904972
  59.8389491  35.0363844  58.8820779  59.7939827  33.8670988  59.8426125
  53.5901249  30.5852602  55.0241676  52.6651745  30.4528816  55.2319368
  53.8385662  31.3646821  55.5211619  63.5385911  26.6521345  56.6702409
  62.6302789  26.5836754  56.3761170  63.4873507  27.1293290  57.4984235
  57.3602655  28.1279484  48.3085808  57.2402280  28.5736535  49.1471289
  56.6655244  28.4764802  47.7499347  50.9510060  30.2285876  55.8585465
  51.0802441  30.4820355  56.7724877  50.2707511  30.8213584  55.5390121
  55.1209547  40.8983126  51.9575940  55.0433577  41.8490951  52.0364420
  54.5171191  40.5528998  52.6150866  65.4047558  24.8537784  58.4480283
  64.7621938  25.1470317  57.8020078  64.9002486  24.7390704  59.2533480
  63.0587721  28.6000957  49.1366142  63.9705577  28.8328344  48.9613840
  62.5497368  29.1838001  48.5741221  61.3428489  33.0225585  62.7727435
  61.7511845  32.5807995  62.0282067  60.6205750  32.4478212  63.0261628
  57.6959559  27.9598192  60.1460992  58.5420754  28.3837605  60.2895641
  57.6358197  27.3031816  60.8399555  61.6657304  33.5826776  56.5279724
  61.0366166  33.7472490  55.8255792  61.2782966  33.9968385  57.2990688
  65.5446536  34.5181213  53.8824088  64.8597574  34.8980115  53.3321121
  65.6290385  35.1276540  54.6156035  60.8459004  25.6202560  61.8042166
  60.6019936  26.3744621  61.2676441  61.1218935  25.9987908  62.6389413
  62.7997467  32.1641172  60.4819431  63.0114362  32.8072932  59.8053812
  62.7527215  31.3303489  60.0141361  60.4023696  24.7758993  57.3856003
  59.5408175  25.0740247  57.6772741  60.4286131  24.9929392  56.4537036
  57.2185265  33.3201184  53.7929809  57.6823611  33.5988887  53.0034432
  56.9542064  32.4184628  53.6102900  54.1109347  32.8672665  56.7309572
  54.6810704  33.2959934  56.0927057  54.7017458  32.5855250  57.4293758
  56.1554152  29.4424336  50.6019374  56.8578195  29.8945380  51.0693301
  55.8234780  28.8008155  51.2299267  49.8979486  27.7007889  55.9036508
  49.1078539  27.9565417  55.4276618  50.3890733  28.5156226  56.0088548
  63.9143295  35.0413128  58.6541789  64.7360739  34.6393315  58.3724470
  63.9105698  34.9381362  59.6057904  51.8494231  28.0652468  52.8619984
  51.0525394  28.1771162  53.3803480  51.6219823  28.4039120  51.9960875
  57.6799899  34.5897171  60.8102499  57.7444331  35.0517578  61.6460671
  56.9710822  33.9594536  60.9384809  48.1817188  27.9538379  58.3351499
  48.4325227  28.8385389  58.6009074  48.7176737  27.7742981  57.5626590
  72.0049288  31.3851876  55.0026760  71.2512997  30.8159274  54.8470764
  72.1396829  31.3514541  55.9497395  57.3947916  36.2565279  50.6781479
  57.2593591  37.1016814  51.1066327  57.9357729  36.4584556  49.9147413
  50.8477314  33.7740717  51.2509404  51.3601834  34.5683967  51.4014969
  51.5000026  33.0767007  51.1843006  52.6572198  36.8906473  53.3332158
  52.8338827  37.8124438  53.1453142  53.4529032  36.5764892  53.7626537
  59.0216393  36.8788845  64.8081821  58.5780247  36.0925224  64.4902726
  59.6833606  37.0667996  64.1425712  53.7803514  38.4084647  59.3342500
  54.3310939  38.2801710  58.5619494  52.9414990  38.7079536  58.9837393
  61.1197631  37.1591645  62.8363223  61.1016106  37.9800526  62.3443492
  62.0417551  37.0345720  63.0613364  57.5770685  34.6735775  63.6786731
  58.1099022  33.9124063  63.4486039  57.0484766  34.3809426  64.4210886
  60.7440380  19.7795840  59.2080373  60.4004649  20.6697482  59.1319483
  61.1119342  19.5897498  58.3449958  48.8126230  32.1029371  52.0268975
  49.6501452  32.5126379  51.8102683  48.9904498  31.1628813  51.9969169
  60.7090662  29.7704452  47.7152808  60.1937286  30.5409056  47.9541195
  60.4367971  29.0969588  48.3385869  58.2937773  24.6154152  52.7738046
  57.4379370  24.2261003  52.5943685  58.7064725  24.6946113  51.9137832
  59.8236920  22.1500496  57.1729606  59.3201716  22.1130631  56.3597411
  60.1167527  23.0593238  57.2326263  56.0679806  22.2339225  56.1795788
  56.9332803  22.0382034  55.8201677  56.1357315  22.0049577  57.1065145
  65.6824937  32.5236806  49.6505981  64.9054379  32.1847966  49.2061144
  66.3616418  32.5289429  48.9760946  60.4976966  27.6431544  49.5412589
  60.1927101  27.9577693  50.3922732  61.4507408  27.7212964  49.5839922
  58.9423397  33.8021767  51.1905543  58.4144759  33.0674527  50.8778781
  58.4410900  34.5796443  50.9445511  63.9216243  31.9970787  56.3072589
  63.2639918  32.6870049  56.3952718  64.7256643  32.3867219  56.6506576
  53.6742125  24.4641433  53.5512155  54.2485877  24.2416615  52.8185348
  54.2613108  24.5330128  54.3040756  62.7321702  30.3515160  54.3576531
  63.2453584  30.9845152  54.8598241  63.3822926  29.7516356  53.9919891
  54.0011712  26.4945894  47.5708040  53.1649024  26.8320581  47.8917315
  53.8616482  26.3594874  46.6335177  55.9764793  21.3382682  52.2787224
  55.3229205  21.0231699  51.6543839  55.9345267  20.7158423  53.0047047
  57.0875998  31.6201977  44.1940516  56.1803059  31.3891231  44.3931665
  57.5847030  30.8239597  44.3814498  59.9944077  40.3299484  47.1137202
  59.3205775  40.6331181  47.7222160  60.3809899  41.1328565  46.7642659
  59.2102533  27.8264616  56.6034872  58.2925095  28.0479563  56.4456560
  59.6262677  27.9010926  55.7446579  59.9937581  29.2256031  51.7337552
  60.7409400  29.7377429  51.4244674  60.2629170  28.9040084  52.5941945
  58.2664231  31.7214572  48.7164506  57.3575450  31.4373605  48.8136976
  58.2959315  32.1413651  47.8567813  63.4983499  35.3321162  52.4855674
  63.0445826  34.4912071  52.5420864  62.8677465  35.9682560  52.8230454
  62.4416418  26.2613148  53.7156341  61.7039175  25.7490534  54.0466584
  62.6943192  25.8213529  52.9039618  61.9416438  37.1697658  53.4205492
  62.2339412  37.7302715  52.7017858  62.4515058  37.4626219  54.1758651
  62.5428045  19.0389400  54.3098111  62.8486922  18.1786763  54.0224026
  63.2680650  19.6307020  54.1097104  48.8352401  29.4420086  52.6979708
  48.6376801  28.8489447  51.9730775  48.2799065  29.1372296  53.4155647
  56.8149125  29.3343193  54.8174302  56.8697735  28.3817029  54.7416778
  56.0040327  29.4902632  55.3015600  57.9640319  33.2623316  46.0552585
  57.5259749  32.5459175  45.5958222  58.7050760  33.4899431  45.4937676
  54.7541485  27.9520252  52.5764680  53.9409351  28.2514423  52.9829873
  55.2500479  27.5575941  53.2939163  56.9050063  37.9478009  54.5098945
  56.8626242  38.1738856  53.5807477  57.8212762  37.7141384  54.6584746
  60.3515697  28.4162077  61.4079574  60.7065084  28.6433550  62.2674040
  60.9987828  28.7480454  60.7856830  66.0813434  31.5380513  52.1128903
  65.9431332  31.7282109  51.1850093  65.7249652  32.2999896  52.5696955
  54.2455560  25.5238608  58.1925915  54.8854939  25.3827367  57.4948879
  53.4133090  25.2373121  57.8164517  66.1082813  33.6057040  57.1240175
  66.5419320  33.5132329  57.9723229  66.8214394  33.5814540  56.4860191
  55.0215864  34.8241038  54.3060908  55.8156462  34.3291359  54.1043483
  54.3107556  34.2958902  53.9428613  59.8410708  37.2059134  58.6573275
  59.8947730  37.7750070  59.4250991  58.9725490  37.3761019  58.2927313
  51.3298627  28.9684120  50.3820661  50.3996215  28.9068576  50.5990623
  51.4256099  28.4460073  49.5857302  51.2484176  25.4938933  52.9698902
  51.5090994  26.4084266  52.8608063  52.0701349  25.0263376  53.1195515
  52.7209102  26.9076690  60.1397727  53.3932155  26.6994052  59.4910376
  51.8938888  26.7098776  59.7002959  66.9698363  33.6480740  59.6573060
  67.1634253  34.5526551  59.9032335  66.8698981  33.1888160  60.4911645
  62.0313472  33.7987483  65.2313941  61.8798978  33.5698035  64.3144025
  62.0218151  34.7558085  65.2445286  58.7998808  31.3719396  60.2160207
  59.7290868  31.5230556  60.0429175  58.3789838  31.4603417  59.3608854
  57.5987140  35.3970060  57.9858745  57.4598225  35.0288845  58.8584683
  56.8101736  35.9117700  57.8142703  58.1935292  40.4979157  49.3284281
  58.3687047  40.0267200  50.1429904  57.5068080  41.1244923  49.5565542
  59.1492355  34.7751663  55.3747583  58.8142187  34.7352433  56.2705233
  58.6496301  34.1096379  54.9017993  53.1236599  30.1819293  60.9000164
  52.9856397  29.4499532  61.5011703  54.0341522  30.0928193  60.6184352
  62.0851547  32.1207697  45.6484642  61.4680717  31.3954526  45.5517695
  61.6168035  32.8817058  45.3051717  55.7518899  29.8939252  60.3883844
  56.4618518  29.2532445  60.3470462  55.7088208  30.1452147  61.3110024
  63.7405678  36.8306606  63.3090423  63.6818224  36.1465826  62.6421006
  64.1425197  37.5725596  62.8571049  52.7596377  43.6468520  56.1024142
  52.9992975  44.2787044  56.7803160  51.9165573  43.2956560  56.3889501
  53.8750092  26.3393122  44.7705947  52.9979559  26.2181923  44.4068193
  54.3507845  25.5479200  44.5184835  63.7423085  34.7946190  61.5404402
  62.8549864  34.4572112  61.6630801  64.3121637  34.0629221  61.7773168
  45.3952233  31.1270281  54.8647454  46.0823272  30.8132011  54.2768469
  45.2400361  32.0311646  54.5914705  50.1986955  26.0160478  59.2932478
  50.1145143  25.4086148  58.5582887  49.3769661  26.5069496  59.2941974
  57.2724239  39.4547642  58.5065646  57.1994410  40.2602614  59.0184950
  56.8301632  39.6539608  57.6813667  57.0614018  38.6919412  52.0168467
  56.2781540  39.2341092  52.1106692  57.7606764  39.2093392  52.4162708
  60.3710669  24.5014042  54.6602673  60.8679368  23.7484004  54.3403743
  59.5997650  24.5378358  54.0945882  68.2240426  30.2054407  56.3020964
  68.2130302  31.0879123  55.9314897  67.3557805  29.8525958  56.1075501
  59.7322922  39.3534476  60.6623804  60.4450895  39.9881941  60.5899706
  59.2412951  39.4498342  59.8463806  61.4540449  33.2585729  52.2341096
  60.5196728  33.3787191  52.0645800  61.6317118  32.3558196  51.9701106
  56.9545637  26.6431425  54.3874357  56.5843425  26.0902465  55.0755263
  57.4504730  26.0389558  53.8349357  64.8413001  29.1003048  52.7691130
  65.3073453  29.9331040  52.6951433  65.2920501  28.6348030  53.4736389
  54.7834836  37.1028920  61.4829375  55.4844295  37.7365403  61.6358769
  54.3129951  37.4443651  60.7225014  62.9089232  35.4446869  49.7677282
  63.1849076  35.3303464  50.6771156  62.0393730  35.0464354  49.7289455
  62.8129663  21.4683635  56.8082031  61.8992743  21.6987862  56.9764238
  63.2422765  21.5522079  57.6596064  62.5836122  29.6573527  59.3081925
  61.9307572  29.9049434  58.6534378  62.9616502  28.8437665  58.9744403
  59.5443296  39.6933220  53.4110096  59.7265690  38.8754876  53.8737848
  60.3676282  39.9100912  52.9734986  59.8785461  38.6201405  50.6725144
  60.4073228  38.1093860  50.0595306  60.1413681  38.3043936  51.5370677
  50.3802554  36.6365275  58.4160478  50.9655991  35.8908963  58.5488382
  50.1827392  36.9469231  59.2997142  53.2341209  39.6716522  53.4322920
  52.5651584  40.1562650  52.9486960  53.0954079  39.9185742  54.3466299
  44.9720209  29.2070875  57.1364921  45.0104308  28.6734466  57.9302039
  44.4660502  28.6806080  56.5175898  57.3746478  41.7060266  60.0305579
  57.9264786  41.8691887  60.7954664  57.7152671  42.2964703  59.3585603
  52.3510971  24.0535415  60.6327463  52.4152297  24.9150246  60.2204861
  52.2878091  23.4409417  59.8999822  48.6028786  27.9334977  50.2118852
  48.8982227  27.0245655  50.1585906  47.7016822  27.9122716  49.8899855
  60.5114865  39.6542241  57.0169261  60.3866004  38.8531981  56.5080206
  61.1693956  40.1488434  56.5283231  52.1323033  26.0090974  56.1946401
  51.4109619  26.6226941  56.0553874  52.9216289  26.5448738  56.1163047
  50.3316628  25.6149075  50.3358177  50.0029334  24.7346454  50.1533283
  50.6855999  25.5596743  51.2234567  59.5796207  37.2503977  54.8453163
  59.4321169  36.3220685  55.0260733  60.4049700  37.2724068  54.3610238
  53.4458451  25.9022044  50.7033655  53.7854524  26.4307966  49.9812264
  53.8930571  26.2402451  51.4792222  56.7918364  21.3708408  58.6064046
  57.6144433  20.8968886  58.4842937  57.0356427  22.1498891  59.1062733
  55.4326598  24.3996666  48.9026948  56.1534961  24.7777919  48.3990665
  54.8091902  25.1185543  49.0061926  59.5757721  25.1041815  49.8385280
  59.7921335  25.9866453  49.5374108  59.0951788  24.7128028  49.1090922
  54.3156942  28.0627528  56.4156025  54.1701523  28.3767831  57.3080306
  53.8382146  28.6812429  55.8626923  56.1753325  25.0530076  56.4636914
  56.1614894  24.1571170  56.1269212  56.8925753  25.0600740  57.0975200
  58.0279456  25.4867416  58.5090042  57.7697234  26.4084487  58.5074372
  57.4964496  25.0897851  59.1990506  62.9725645  38.5918204  51.2880127
  63.1462522  38.0264626  50.5353980  63.4654536  39.3919098  51.1059617
  48.7902605  30.6032873  59.3543686  48.2456073  31.3792681  59.4863960
  49.6681954  30.9503677  59.1962807  55.5790221  23.9344456  51.7324485
  55.7006132  23.0061103  51.9315372  55.2892264  23.9483142  50.8202800
  58.4481412  21.6199367  54.8691204  58.4703108  21.6838700  53.9143184
  58.8649471  20.7803876  55.0631711  68.8265036  31.3554626  52.9070427
  69.2696182  30.6061952  52.5089550  67.9491546  31.3464763  52.5244159
  63.9600817  37.9084968  48.3877026  64.6551722  38.5291661  48.6064340
  64.3023967  37.0580319  48.6629403  65.8592240  35.3584673  49.9164356
  66.3843564  35.6971946  49.1913676  65.7714593  34.4231689  49.7327491
  57.5212289  39.2718747  62.0454233  57.8299416  39.0267894  62.9176932
  58.3187771  39.4765386  61.5573103  57.5432901  41.4256657  54.2759609
  57.1037891  40.9333035  54.9692466  58.2941018  40.8829624  54.0351685
  50.0225240  37.6168198  54.2784238  50.8483260  37.3171969  53.8982881
  49.6719292  36.8475820  54.7274026  54.9906773  36.9694666  56.3481911
  54.3686783  36.3065371  56.0484139  55.6611640  36.9955798  55.6655559
  48.2233845  35.5354524  55.2373171  47.3865753  35.1076698  55.0557172
  48.1957491  35.7286967  56.1743962  65.6684021  32.8410043  62.5348283
  65.7182026  32.6760051  63.4763806  65.5597945  31.9737303  62.1446164
  54.5520280  35.5198589  49.8240372  54.7008401  36.2034054  49.1707044
  55.3586724  35.5003679  50.3389827  62.9587784  28.8240972  63.8507589
  63.8597647  28.6847436  63.5591587  63.0335758  28.9895426  64.7905767
  67.1702218  35.2606985  62.7790304  66.8787027  35.6236966  63.6153765
  66.5574350  34.5473993  62.6003636  68.3697901  32.8259865  55.2992875
  69.2044792  33.2649669  55.4630435  68.5057029  32.3498518  54.4801120
  65.4189407  30.3839600  61.2470362  65.8943528  30.5767246  60.4389214
  64.4954972  30.4398785  61.0013746  52.3072913  31.5463767  50.8301441
  52.0618955  30.6426097  51.0281651  52.4768828  31.5480917  49.8880919
  59.9969623  22.4187443  60.2126196  60.5151567  23.1548470  59.8872685
  59.6424756  22.7251436  61.0472955  51.5768561  27.2792124  48.3287602
  50.8837806  27.3536479  47.6727638  51.3320313  26.5152468  48.8509119
  60.2482217  18.8387726  55.7327093  60.5283971  18.1710915  56.3587519
  61.0332824  19.0316821  55.2201757  58.0515686  38.0146720  47.2952119
  57.4789653  38.6336907  46.8422591  58.6248479  38.5646081  47.8292041
  64.1191076  27.2605360  59.4798668  65.0708498  27.3603457  59.5010892
  63.9494526  26.4683628  59.9896752  62.1405455  24.3460943  59.6658069
  61.5455387  24.6265956  58.9704557  61.8555152  24.8354844  60.4374810
  61.2712945  38.2983870  48.4260701  62.2043619  38.2329431  48.6293577
  61.1836158  39.1340137  47.9675234  63.9000962  37.6149740  45.3864649
  63.8214594  37.2809604  46.2800407  64.7210629  38.1071508  45.3856121
  66.5979153  30.4811479  58.5940968  66.5655473  29.5427480  58.7800651
  67.2079777  30.5595516  57.8606792  58.4362484  29.3507532  44.6368172
  59.3821589  29.2213740  44.7056590  58.0576729  28.6122194  45.1137600
  66.7473642  27.2722523  58.6399251  66.2312690  26.4880979  58.4529180
  67.6313590  26.9441239  58.8045770  64.4084369  21.0163538  54.5995063
  64.2109190  20.7078627  55.4838395  65.0184074  21.7425177  54.7292993
  72.4155703  31.5427486  57.7347004  73.1459092  31.2812774  58.2954708
  71.8062649  30.8056208  57.7749072  70.4971000  29.6835349  58.3321456
  69.7704164  29.5491314  57.7237947  70.0818287  29.9912177  59.1378174
  56.6205401  27.2757509  44.5723057  55.7136857  26.9790621  44.6485770
  56.8981382  26.9787327  43.7057343  47.5383342  28.5963872  55.0222103
  47.2186126  27.7429180  54.7296477  46.9916770  28.8112450  55.7780071
  51.3163249  31.3126313  58.7391610  51.5349259  32.2443421  58.7579644
  51.7289023  30.9534288  59.5246414  58.2367467  21.8194398  50.7267298
  57.4268195  21.4741483  51.1022544  58.9251884  21.5101942  51.3154910
  60.1658015  20.8972445  52.3491595  60.7189054  21.3167899  53.0081618
  60.4028102  19.9708193  52.3914551  55.3904186  24.1344444  44.7135036
  56.2523350  24.4599342  44.9730853  55.5754530  23.3475940  44.2008102
  47.4071602  32.2166784  56.9915225  46.7135073  31.8020736  56.4785179
  48.1544593  32.2587320  56.3948644  63.5436822  23.0072970  51.8570259
  62.9635492  23.6657774  51.4748311  63.2772755  22.1850315  51.4457677
  61.9940389  22.4078028  54.0591579  62.4940167  22.5194563  53.2505898
  62.6375997  22.1039081  54.6992388  49.3208344  32.1485037  54.8681240
  49.2979032  32.2472725  53.9163123  49.6308981  32.9950188  55.1898406
  51.9795722  34.2061192  58.9827854  52.9338976  34.1745135  58.9157786
  51.7808246  33.7451816  59.7978080  52.5695104  32.7762309  61.5498652
  53.3887993  33.2706387  61.5733489  52.8431912  31.8594277  61.5216219
  62.3261700  25.1673061  50.9126607  61.4387556  25.4522711  50.6946802
  62.7415690  25.0066824  50.0653884  65.6776237  25.1919582  54.6280947
  66.4536627  25.6816034  54.9005563  64.9524371  25.6177636  55.0852816
  68.1148795  25.9047201  55.6854887  68.7093286  25.6642937  54.9748195
  68.1875379  25.1854332  56.3128423  50.3345951  39.7480812  55.9998052
  50.2000419  38.9881213  55.4336050  49.9178013  40.4721712  55.5326841
  61.4704914  34.9317735  45.0074627  62.1740764  35.1367738  45.6232283
  60.7467563  35.4994497  45.2723711  62.3002724  30.6827597  51.1276897
  62.2437926  31.1396148  50.2884530  62.8531067  29.9218281  50.9499740
  66.1107530  26.4717329  51.9527017  65.8544464  26.0713964  52.7835225
  65.4860398  27.1861123  51.8277156  70.4219868  29.2113402  54.4598308
  69.8619426  29.2806591  55.2329870  69.8163371  29.0354386  53.7397805
  53.4915077  40.6450129  56.2116495  53.3747461  41.5895561  56.1095185
  52.6707523  40.3423691  56.6002294  63.3791611  35.3700265  47.0573087
  64.2137215  34.9381463  46.8750562  63.2175954  35.1982278  47.9849982
  63.0337504  31.8732378  48.4229427  62.9786307  31.7076649  47.4817871
  62.4083559  32.5808411  48.5791616  56.3433629  21.3740487  48.0014745
  56.3312299  22.3182327  48.1583016  57.2357051  21.1910632  47.7074206
  54.5169591  41.2978391  59.4272423  55.4196838  41.3302001  59.7438918
  54.2906961  40.3678842  59.4418759  56.2723193  40.0509377  56.0882502
  55.3218824  40.0511239  55.9746874  56.5755679  39.3042112  55.5718536
  60.1585748  17.9683264  52.2560682  59.3918144  17.4141750  52.4017364
  60.5696453  18.0405132  53.1174833  64.6752408  47.6932820  53.0786680
  64.1117274  47.6022757  52.3102967  64.5604803  46.8732725  53.5589172
  62.2216840  49.1884012  55.9170900  63.0138132  48.8474837  55.5017199
  62.4613491  49.2978987  56.8373053  64.1807594  48.4492925  48.7888279
  64.9538470  47.9021912  48.6501155  64.5332993  49.3137174  49.0002740
  66.5173872  44.6085591  46.4206729  66.7699393  44.0867113  45.6590192
  65.5798431  44.4451737  46.5233412  76.9625582  43.5496603  55.1314451
  77.6950754  42.9795820  55.3652280  76.2064938  43.1618203  55.5720956
  66.2370161  46.5113697  48.6231104  66.1206419  45.8358601  49.2912188
  66.3472421  46.0246071  47.8063257  68.5801702  45.9723844  52.3277793
  68.2159909  45.4454465  53.0390715  69.4368818  45.5822313  52.1544278
  68.2207189  41.0013744  47.3239142  68.3881591  41.8693980  47.6909613
  68.0304358  41.1641026  46.4000431  68.1996410  43.4571402  48.3085808
  68.0796035  43.9028452  49.1471289  67.5048998  43.8056719  47.7499347
  61.7903814  45.5577793  55.8585465  61.9196196  45.8112272  56.7724877
  61.1101266  46.1505501  55.5390121  73.8981476  43.9292875  49.1366142
  74.8099332  44.1620261  48.9613840  73.3891123  44.5129919  48.5741221
  66.9947906  44.7716254  50.6019374  67.6971949  45.2237297  51.0693301
  66.6628535  44.1300072  51.2299267  60.7373240  43.0299806  55.9036508
  59.9472294  43.2857335  55.4276618  61.2284487  43.8448144  56.0088548
  62.6887985  43.3944386  52.8619984  61.8919149  43.5063080  53.3803480
  62.4613578  43.7331038  51.9960875  59.0210943  43.2830297  58.3351499
  59.2718981  44.1677307  58.6009074  59.5570491  43.1034898  57.5626590
  82.8443043  46.7143794  55.0026760  82.0906751  46.1451192  54.8470764
  82.9790584  46.6806458  55.9497395  63.4965953  52.2198391  53.3332158
  63.6732581  53.1416355  53.1453142  64.2922786  51.9056810  53.7626537
  59.6519985  47.4321289  52.0268975  60.4895207  47.8418297  51.8102683
  59.8298253  46.4920731  51.9969169  71.5484417  45.0996369  47.7152808
  71.0331040  45.8700974  47.9541195  71.2761725  44.4261505  48.3385869
  76.5218691  47.8528724  49.6505981  75.7448134  47.5139883  49.2061144
  77.2010172  47.8581347  48.9760946  71.3370720  42.9723461  49.5412589
  71.0320856  43.2869611  50.3922732  72.2901162  43.0504881  49.5839922
  74.7609998  47.3262705  56.3072589  74.1033672  48.0161967  56.3952718
  75.5650397  47.7159137  56.6506576  64.8405467  41.8237812  47.5708040
  64.0042779  42.1612499  47.8917315  64.7010236  41.6886792  46.6335177
  66.8158547  36.6674600  52.2787224  66.1622960  36.3523617  51.6543839
  66.7739021  36.0450340  53.0047047  67.9269752  46.9493895  44.1940516
  67.0196814  46.7183148  44.3931665  68.4240784  46.1531514  44.3814498
  69.1057986  47.0506490  48.7164506  68.1969205  46.7665523  48.8136976
  69.1353069  47.4705568  47.8567813  73.3821800  34.3681317  54.3098111
  73.6880677  33.5078681  54.0224026  74.1074405  34.9598938  54.1097104
  59.6746156  44.7712004  52.6979708  59.4770556  44.1781365  51.9730775
  59.1192820  44.4664214  53.4155647  65.5935240  43.2812170  52.5764680
  64.7803105  43.5806341  52.9829873  66.0894234  42.8867859  53.2939163
  76.9207188  46.8672430  52.1128903  76.7825087  47.0574026  51.1850093
  76.5643407  47.6291813  52.5696955  65.8609618  50.1532956  54.3060908
  66.6550217  49.6583276  54.1043483  65.1501311  49.6250819  53.9428613
  62.1692382  44.2976038  50.3820661  61.2389970  44.2360493  50.5990623
  62.2649854  43.7751991  49.5857302  62.0877931  40.8230851  52.9698902
  62.3484748  41.7376184  52.8608063  62.9095103  40.3555293  53.1195515
  64.7143847  41.6685039  44.7705947  63.8373313  41.5473840  44.4068193
  65.1901600  40.8771118  44.5184835  56.2345987  46.4562199  54.8647454
  56.9217027  46.1423929  54.2768469  56.0794116  47.3603564  54.5914705
  79.0634180  45.5346325  56.3020964  79.0524057  46.4171040  55.9314897
  78.1951560  45.1817876  56.1075501  75.6806755  44.4294966  52.7691130
  76.1467207  45.2622957  52.6951433  76.1314256  43.9639947  53.4736389
  73.6523418  36.7975553  56.8082031  72.7386498  37.0279780  56.9764238
  74.0816519  36.8813997  57.6596064  61.2196308  51.9657192  58.4160478
  61.8049745  51.2200880  58.5488382  61.0221147  52.2761149  59.2997142
  55.8113963  44.5362792  57.1364921  55.8498063  44.0026383  57.9302039
  55.3054256  44.0097998  56.5175898  59.4422541  43.2626895  50.2118852
  59.7375982  42.3537573  50.1585906  58.5410577  43.2414634  49.8899855
  61.1710382  40.9440992  50.3358177  60.8423088  40.0638371  50.1533283
  61.5249753  40.8888661  51.2234567  64.2852205  41.2313962  50.7033655
  64.6248278  41.7599883  49.9812264  64.7324326  41.5694368  51.4792222
  66.2720353  39.7288584  48.9026948  66.9928715  40.1069836  48.3990665
  65.6485657  40.4477461  49.0061926  70.4151476  40.4333733  49.8385280
  70.6315090  41.3158371  49.5374108  69.9345543  40.0419946  49.1090922
  59.6296359  45.9324790  59.3543686  59.0849827  46.7084598  59.4863960
  60.5075709  46.2795595  59.1962807  66.4183976  39.2636374  51.7324485
  66.5399887  38.3353020  51.9315372  66.1286018  39.2775060  50.8202800
  79.6658790  46.6846544  52.9070427  80.1089936  45.9353869  52.5089550
  78.7885301  46.6756681  52.5244159  60.8618995  52.9460115  54.2784238
  61.6877015  52.6463887  53.8982881  60.5113047  52.1767738  54.7274026
  59.0627600  50.8646442  55.2373171  58.2259508  50.4368616  55.0557172
  59.0351245  51.0578885  56.1743962  79.2091655  48.1551782  55.2992875
  80.0438547  48.5941587  55.4630435  79.3450784  47.6790436  54.4801120
  63.1466668  46.8755684  50.8301441  62.9012710  45.9718014  51.0281651
  63.3162582  46.8772835  49.8880919  62.4162315  42.6084042  48.3287602
  61.7231560  42.6828397  47.6727638  62.1714067  41.8444386  48.8509119
  71.0875972  34.1679643  55.7327093  71.3677725  33.5002832  56.3587519
  71.8726579  34.3608739  55.2201757  77.4372908  45.8103397  58.5940968
  77.4049228  44.8719398  58.7800651  78.0473531  45.8887434  57.8606792
  69.2756239  44.6799450  44.6368172  70.2215343  44.5505658  44.7056590
  68.8970484  43.9414112  45.1137600  75.2478123  36.3455456  54.5995063
  75.0502944  36.0370544  55.4838395  75.8577829  37.0717095  54.7292993
  83.2549458  46.8719404  57.7347004  83.9852846  46.6104692  58.2954708
  82.6456403  46.1348126  57.7749072  81.3364755  45.0127266  58.3321456
  80.6097918  44.8783231  57.7237947  80.9212042  45.3204095  59.1378174
  67.4599156  42.6049426  44.5723057  66.5530611  42.3082539  44.6485770
  67.7375137  42.3079245  43.7057343  58.3777096  43.9255790  55.0222103
  58.0579881  43.0721098  54.7296477  57.8310524  44.1404368  55.7780071
  69.0761222  37.1486316  50.7267298  68.2661950  36.8033401  51.1022544
  69.7645639  36.8393860  51.3154910  71.0051770  36.2264363  52.3491595
  71.5582808  36.6459816  53.0081618  71.2421856  35.3000111  52.3914551
  66.2297940  39.4636362  44.7135036  67.0917104  39.7891260  44.9730853
  66.4148285  38.6767858  44.2008102  58.2465356  47.5458701  56.9915225
  57.5528828  47.1312654  56.4785179  58.9938347  47.5879238  56.3948644
  74.3830577  38.3364888  51.8570259  73.8029246  38.9949692  51.4748311
  74.1166510  37.5142233  51.4457677  60.1602099  47.4776955  54.8681240
  60.1372787  47.5764642  53.9163123  60.4702735  48.3242106  55.1898406
  73.1655455  40.4964978  50.9126607  72.2781310  40.7814629  50.6946802
  73.5809444  40.3358742  50.0653884  76.5169991  40.5211499  54.6280947
  77.2930381  41.0107952  54.9005563  75.7918125  40.9469554  55.0852816
  78.9542550  41.2339119  55.6854887  79.5487041  40.9934855  54.9748195
  79.0269133  40.5146249  56.3128423  73.1396479  46.0119514  51.1276897
  73.0831680  46.4688066  50.2884530  73.6924821  45.2510199  50.9499740
  76.9501285  41.8009246  51.9527017  76.6938219  41.4005882  52.7835225
  76.3254153  42.5153040  51.8277156  81.2613622  44.5405320  54.4598308
  80.7013180  44.6098509  55.2329870  80.6557126  44.3646304  53.7397805
  73.8731258  47.2024296  48.4229427  73.8180062  47.0368567  47.4817871
  73.2477313  47.9100329  48.5791616  58.6623773  42.4392360  62.2490849
  59.3082637  41.9291314  62.7378074  58.4540924  43.1761042  62.8234274
  67.1827383  36.7032405  48.0014745  67.1706053  37.6474245  48.1583016
  68.0750805  36.5202550  47.7074206  70.9979503  33.2975181  52.2560682
  70.2311899  32.7433668  52.4017364  71.4090208  33.3697050  53.1174833
  79.0600943  56.3305662  47.3239142  79.2275346  57.1985898  47.6909613
  78.8698112  56.4932943  46.4000431  84.7375230  59.2584792  49.1366142
  85.6493086  59.4912179  48.9613840  84.2284877  59.8421837  48.5741221
  82.3878171  60.4288287  47.7152808  81.8724795  61.1992892  47.9541195
  82.1155480  59.7553423  48.3385869  81.5024429  52.8084331  57.1729606
  80.9989225  52.7714466  56.3597411  81.7955036  53.7177074  57.2326263
  82.1764475  58.3015379  49.5412589  81.8714610  58.6161528  50.3922732
  83.1294917  58.3796799  49.5839922  84.2215554  49.6973235  54.3098111
  84.5274431  48.8370598  54.0224026  84.9468159  50.2890855  54.1097104
  83.7639055  62.7791533  45.6484642  83.1468226  62.0538361  45.5517695
  83.2955544  63.5400893  45.3051717  81.2545230  55.7625650  49.8385280
  81.4708844  56.6450288  49.5374108  80.7739297  55.3711864  49.1090922
  80.1268921  52.2783202  54.8691204  80.1490617  52.3422535  53.9143184
  80.5436980  51.4387711  55.0631711  81.9269726  49.4971561  55.7327093
  82.2071480  48.8294750  56.3587519  82.7120333  49.6900657  55.2201757
  79.9154976  52.4778234  50.7267298  79.1055704  52.1325319  51.1022544
  80.6039393  52.1685778  51.3154910  81.8445524  51.5556281  52.3491595
  82.3976563  51.9751734  53.0081618  82.0815611  50.6292029  52.3914551
  77.0691695  54.7928279  44.7135036  77.9310859  55.1183178  44.9730853
  77.2542039  54.0059775  44.2008102  85.2224331  53.6656806  51.8570259
  84.6423000  54.3241610  51.4748311  84.9560264  52.8434150  51.4457677
  83.6727898  53.0661864  54.0591579  84.1727676  53.1778398  53.2505898
  84.3163506  52.7622916  54.6992388  84.0049209  55.8256896  50.9126607
  83.1175064  56.1106547  50.6946802  84.4203199  55.6650660  50.0653884
  78.0221138  52.0324322  48.0014745  78.0099808  52.9766162  48.1583016
  78.9144560  51.8494468  47.7074206  81.8373257  48.6267099  52.2560682
  81.0705653  48.0725586  52.4017364  82.2483962  48.6988968  53.1174833
  89.8994698  71.6597579  47.3239142  90.0669100  72.5277816  47.6909613
  89.7091867  71.8224861  46.4000431  81.3307494  78.0905124  52.0268975
  82.1682716  78.5002132  51.8102683  81.5085762  77.1504566  51.9969169
  86.5192976  72.4821647  47.5708040  85.6830288  72.8196334  47.8917315
  86.3797745  72.3470627  46.6335177  89.6057261  77.6077730  44.1940516
  88.6984323  77.3766984  44.3931665  90.1028293  76.8115350  44.3814498
  86.3931356  72.3268875  44.7705947  85.5160822  72.2057676  44.4068193
  86.8689109  71.5354953  44.5184835  81.1210050  73.9210730  50.2118852
  81.4163491  73.0121408  50.1585906  80.2198085  73.8998469  49.8899855
  84.0949824  73.2667877  48.3287602  83.4019069  73.3412232  47.6727638
  83.8501576  72.5028221  48.8509119  90.9543748  75.3383285  44.6368172
  91.9002852  75.2089494  44.7056590  90.5757993  74.5997947  45.1137600
  89.1386665  73.2633262  44.5723057  88.2318120  72.9666375  44.6485770
  89.4162646  72.9663080  43.7057343  87.9085449  70.1220197  44.7135036
  88.7704613  70.4475095  44.9730853  88.0935794  69.3351693  44.2008102
 104.5257150  91.8745669  57.1528264 105.1635560  91.7552416  56.4491604
 104.4077993  92.8226513  57.2116216 101.3346856  91.8273097  57.0889789
 100.9965368  91.7114162  56.2010324 102.2036624  91.4264262  57.0690795
 104.0798418  89.5997123  54.2281472 104.8661508  89.1816546  53.8771889
 104.3437123  90.5043215  54.3963120 103.4963785  95.4506476  58.9904972
 103.1964509  96.3531515  58.8820779 103.1514845  95.1838659  59.8426125
 106.8960929  87.9689016  56.6702409 105.9877807  87.9004425  56.3761170
 106.8448525  88.4460961  57.4984235  98.4784565 102.2150796  51.9575940
  98.4008595 103.1658621  52.0364420  97.8746209 101.8696669  52.6150866
 104.7003507  94.3393256  62.7727435 105.1086863  93.8975666  62.0282067
 103.9780768  93.7645883  63.0261628 101.0534577  89.2765862  60.1460992
 101.8995772  89.7005276  60.2895641 100.9933215  88.6199487  60.8399555
 105.0232322  94.8994446  56.5279724 104.3941184  95.0640160  55.8255792
 104.6357984  95.3136056  57.2990688 108.9021553  95.8348884  53.8824088
 108.2172592  96.2147785  53.3321121 108.9865403  96.4444211  54.6156035
 106.1572485  93.4808843  60.4819431 106.3689380  94.1240603  59.8053812
 106.1102233  92.6471160  60.0141361 107.2718313  96.3580799  58.6541789
 108.0935757  95.9560986  58.3724470 107.2680716  96.2549033  59.6057904
 115.3624306  92.7019547  55.0026760 114.6088014  92.1326945  54.8470764
 115.4971847  92.6682211  55.9497395 104.4772649  98.4759316  62.8363223
 104.4591124  99.2968197  62.3443492 105.3992569  98.3513391  63.0613364
 109.0399955  93.8404477  49.6505981 108.2629397  93.5015636  49.2061144
 109.7191436  93.8457100  48.9760946 107.2791261  93.3138458  56.3072589
 106.6214936  94.0037720  56.3952718 108.0831661  93.7034890  56.6506576
 103.3519095 101.6467155  47.1137202 102.6780793 101.9498852  47.7222160
 103.7384916 102.4496235  46.7642659 102.5677551  89.1432286  56.6034872
 101.6500112  89.3647233  56.4456560 102.9837695  89.2178597  55.7446579
 106.8558516  96.6488832  52.4855674 106.4020844  95.8079742  52.5420864
 106.2252483  97.2850231  52.8230454 105.2991456  98.4865329  53.4205492
 105.5914430  99.0470386  52.7017858 105.8090076  98.7793890  54.1758651
 100.2625081  99.2645680  54.5098945 100.2201260  99.4906526  53.5807477
 101.1787780  99.0309055  54.6584746 109.4388452  92.8548184  52.1128903
 109.3006350  93.0449780  51.1850093 109.0824670  93.6167566  52.5696955
 109.4657831  94.9224711  57.1240175 109.8994338  94.8300000  57.9723229
 110.1789412  94.8982211  56.4860191 103.1985726  98.5226805  58.6573275
 103.2522748  99.0917741  59.4250991 102.3300508  98.6928690  58.2927313
 110.3273381  94.9648411  59.6573060 110.5209271  95.8694222  59.9032335
 110.2273999  94.5055830  60.4911645 102.1573826  92.6887067  60.2160207
 103.0865886  92.8398226  60.0429175 101.7364856  92.7771087  59.3608854
 100.9562158  96.7137731  57.9858745 100.8173243  96.3456515  58.8584683
 100.1676754  97.2285371  57.8142703 101.5510310 101.8146828  49.3284281
 101.7262065 101.3434871  50.1429904 100.8643098 102.4412594  49.5565542
 102.5067373  96.0919334  55.3747583 102.1717205  96.0520104  56.2705233
 102.0071319  95.4264050  54.9017993 107.0980696  98.1474276  63.3090423
 107.0393242  97.4633497  62.6421006 107.5000215  98.8893266  62.8571049
  96.1171395 104.9636190  56.1024142  96.3567993 105.5954714  56.7803160
  95.2740591 104.6124230  56.3889501 107.0998103  96.1113860  61.5404402
 106.2124882  95.7739782  61.6630801 107.6696654  95.3796892  61.7773168
 100.6299257 100.7715313  58.5065646 100.5569428 101.5770284  59.0184950
 100.1876650 100.9707279  57.6813667 100.4189036 100.0087083  52.0168467
  99.6356558 100.5508763  52.1106692 101.1181782 100.5261062  52.4162708
 111.5815444  91.5222078  56.3020964 111.5705320  92.4046793  55.9314897
 110.7132823  91.1693629  56.1075501 103.0897940 100.6702147  60.6623804
 103.8025913 101.3049612  60.5899706 102.5987969 100.7666013  59.8463806
 108.1988019  90.4170719  52.7691130 108.6648471  91.2498710  52.6951433
 108.6495519  89.9515700  53.4736389 102.9018314 101.0100891  53.4110096
 103.0840708 100.1922547  53.8737848 103.7251300 101.2268583  52.9734986
 103.2360479  99.9369076  50.6725144 103.7648246  99.4261531  50.0595306
 103.4988699  99.6211606  51.5370677  93.7377572  97.9532945  58.4160478
  94.3231009  97.2076633  58.5488382  93.5402410  98.2636902  59.2997142
  96.5916227 100.9884193  53.4322920  95.9226602 101.4730320  52.9486960
  96.4529097 101.2353413  54.3466299 100.7321496 103.0227936  60.0305579
 101.2839804 103.1859558  60.7954664 101.0727689 103.6132374  59.3585603
 103.8689883 100.9709912  57.0169261 103.7441022 100.1699652  56.5080206
 104.5268974 101.4656105  56.5283231 105.9324791  98.7718932  58.6448811
 104.9855127  98.6524283  58.5727138 106.2807564  97.8841430  58.7275072
 102.9371225  98.5671648  54.8453163 102.7896187  97.6388355  55.0260733
 103.7624718  98.5891739  54.3610238 106.5405347  99.3900207  55.9318036
 107.4651894  99.1843068  55.7942487 106.3720650  99.1416608  56.8407377
 106.3300663  99.9085874  51.2880127 106.5037540  99.3432297  50.5353980
 106.8229554 100.7086769  51.1059617 112.1840054  92.6722297  52.9070427
 112.6271200  91.9229622  52.5089550 111.3066564  92.6632434  52.5244159
 107.3175835  99.2252639  48.3877026 108.0126740  99.8459331  48.6064340
 107.6598985  98.3747990  48.6629403 109.2167258  96.6752344  49.9164356
 109.7418582  97.0139617  49.1913676 109.1289611  95.7399359  49.7327491
 100.9007919 102.7424327  54.2759609 100.4612909 102.2500706  54.9692466
 101.6516036 102.1997295  54.0351685  98.3481791  98.2862337  56.3481911
  97.7261801  97.6233042  56.0484139  99.0186658  98.3123468  55.6655559
 108.9061164  97.3085248  65.2215554 108.1156708  97.2909387  64.6820054
 108.6694519  97.8473542  65.9764591 109.0259039  94.1577714  62.5348283
 109.0757044  93.9927722  63.4763806 108.9172963  93.2904973  62.1446164
 110.5277236  96.5774656  62.7790304 110.2362045  96.9404636  63.6153765
 109.9149368  95.8641664  62.6003636 111.7272919  94.1427535  55.2992875
 112.5619810  94.5817340  55.4630435 111.8632047  93.6666189  54.4801120
 108.7764425  91.7007270  61.2470362 109.2518546  91.8934917  60.4389214
 107.8529990  91.7566456  61.0013746 104.6287963  99.6151540  48.4260701
 105.5618637  99.5497102  48.6293577 104.5411176 100.4507807  47.9675234
 107.2575980  98.9317411  45.3864649 107.1789612  98.5977274  46.2800407
 108.0785647  99.4239179  45.3856121 115.7730721  92.8595157  57.7347004
 116.5034110  92.5980445  58.2954708 115.1637667  92.1223879  57.7749072
 113.7794886  90.5281073  54.4598308 113.2194444  90.5974262  55.2329870
 113.1738389  90.3522057  53.7397805  96.8490095 101.9617800  56.2116495
  96.7322479 102.9063232  56.1095185  96.0282541 101.6591361  56.6002294
  97.8744609 102.6146062  59.4272423  98.7771856 102.6469672  59.7438918
  97.6481979 101.6846513  59.4418759  99.6298211 101.3677048  56.0882502
  98.6793842 101.3678910  55.9746874  99.9330697 100.6209783  55.5718536
 115.3650904 107.2037587  57.1528264 116.0029314 107.0844334  56.4491604
 115.2471747 108.1518430  57.2116216 112.1740611 107.1565015  57.0889789
 111.8359122 107.0406079  56.2010324 113.0430379 106.7556180  57.0690795
 108.0327426 109.0100491  53.0786680 107.4692292 108.9190428  52.3102967
 107.9179821 108.1900395  53.5589172 112.6560394 108.3099866  63.0475994
 112.6449034 107.9152665  62.1756498 112.8181033 107.5765939  63.6409766
 105.5791858 110.5051683  55.9170900 106.3713150 110.1642507  55.5017199
 105.8188508 110.6146658  56.8373053 113.6126985 112.6771459  48.3901145
 112.9614965 113.2625539  48.0035158 114.4071348 113.2077654  48.4496182
 107.5382612 109.7660596  48.7888279 108.3113488 109.2189583  48.6501155
 107.8908011 110.6304845  49.0002740 109.3767655 111.0936978  61.9955178
 109.0857521 111.9982609  61.8801845 110.0124639 111.1353506  62.7099248
 110.3023862 108.4713827  58.5856538 110.8987434 108.2469849  57.8713501
 110.3598833 107.7298572  59.1881986 109.8748890 105.9253262  46.4206729
 110.1274411 105.4034783  45.6590192 108.9373449 105.7619407  46.5233412
 114.9192173 104.9289040  54.2281472 115.7055262 104.5108464  53.8771889
 115.1830877 105.8335133  54.3963120 115.0902250 110.3661891  48.9270129
 114.4548083 110.4396517  49.6391034 114.7599657 110.9555490  48.2489208
 120.3200600 104.8664274  55.1314451 121.0525772 104.2963490  55.3652280
 119.5639956 104.4785874  55.5720956 109.5945179 107.8281368  48.6231104
 109.4781437 107.1526271  49.2912188 109.7047439 107.3413742  47.8063257
 111.9376720 107.2891515  52.3277793 111.5734927 106.7622136  53.0390715
 112.7943836 106.8989984  52.1544278 117.8426020  98.5785848  59.5909059
 117.5109345  99.4481259  59.3670274 117.2471634  98.2622132  60.2703090
 111.5782207 102.3181415  47.3239142 111.7456609 103.1861651  47.6909613
 111.3879376 102.4808696  46.4000431 114.3357540 110.7798394  58.9904972
 114.0358263 111.6823432  58.8820779 113.9908599 110.5130577  59.8426125
 107.7870021 107.2312191  55.0241676 106.8620518 107.0988405  55.2319368
 108.0354435 108.0106410  55.5211619 117.7354684 103.2980934  56.6702409
 116.8271561 103.2296342  56.3761170 117.6842279 103.7752879  57.4984235
 111.5571428 104.7739072  48.3085808 111.4371053 105.2196123  49.1471289
 110.8624016 105.1224390  47.7499347 105.1478832 106.8745464  55.8585465
 105.2771214 107.1279943  56.7724877 104.4676284 107.4673172  55.5390121
 109.3178320 117.5442714  51.9575940 109.2402349 118.4950539  52.0364420
 108.7139963 117.1988587  52.6150866 111.8095549 104.7170579  64.6137307
 111.0328884 105.2764500  64.6040171 112.4486113 105.2027362  65.1352177
 119.6016330 101.4997372  58.4480283 118.9590710 101.7929905  57.8020078
 119.0971259 101.3850293  59.2533480 117.2556494 105.2460545  49.1366142
 118.1674350 105.4787932  48.9613840 116.7466141 105.8297590  48.5741221
 110.0641922 107.5256033  64.1755274 110.8056606 108.0641077  63.8990097
 109.3578907 108.1522322  64.3326825 115.5397261 109.6685173  62.7727435
 115.9480617 109.2267584  62.0282067 114.8174523 109.0937801  63.0261628
 111.8928331 104.6057780  60.1460992 112.7389527 105.0297194  60.2895641
 111.8326969 103.9491404  60.8399555 115.8626076 110.2286364  56.5279724
 115.2334939 110.3932078  55.8255792 115.4751738 110.6427973  57.2990688
 119.7415308 111.1640802  53.8824088 119.0566346 111.5439703  53.3321121
 119.8259157 111.7736128  54.6156035 115.0427777 102.2662148  61.8042166
 114.7988709 103.0204209  61.2676441 115.3187707 102.6447496  62.6389413
 116.9966240 108.8100761  60.4819431 117.2083135 109.4532521  59.8053812
 116.9495988 107.9763077  60.0141361 114.5992469 101.4218581  57.3856003
 113.7376948 101.7199835  57.6772741 114.6254903 101.6388980  56.4537036
 111.4154038 109.9660772  53.7929809 111.8792383 110.2448475  53.0034432
 111.1510836 109.0644217  53.6102900 108.3078119 109.5132254  56.7309572
 108.8779476 109.9419522  56.0927057 108.8986231 109.2314838  57.4293758
 110.3522924 106.0883924  50.6019374 111.0546967 106.5404968  51.0693301
 110.0203552 105.4467743  51.2299267 108.8003286 104.6795681  64.9770584
 108.1701946 105.3611962  65.2105980 108.6939373 104.5678763  64.0323722
 104.0948258 104.3467477  55.9036508 103.3047312 104.6025006  55.4276618
 104.5859505 105.1615815  56.0088548 118.1112068 111.6872716  58.6541789
 118.9329511 111.2852903  58.3724470 118.1074470 111.5840950  59.6057904
 106.0463003 104.7112056  52.8619984 105.2494167 104.8230751  53.3803480
 105.8188596 105.0498708  51.9960875 111.8768671 111.2356759  60.8102499
 111.9413103 111.6977167  61.6460671 111.1679595 110.6054124  60.9384809
 102.3785961 104.5997967  58.3351499 102.6293999 105.4844977  58.6009074
 102.9145509 104.4202569  57.5626590 126.2018061 108.0311465  55.0026760
 125.4481769 107.4618863  54.8470764 126.3365602 107.9974129  55.9497395
 111.5916689 112.9024867  50.6781479 111.4562363 113.7476403  51.1066327
 112.1326501 113.1044145  49.9147413 105.0446086 110.4200305  51.2509404
 105.5570607 111.2143555  51.4014969 105.6968799 109.7226595  51.1843006
 106.8540971 113.5366061  53.3332158 107.0307599 114.4584026  53.1453142
 107.6497804 113.2224480  53.7626537 110.9951989 100.3974326  64.9316091
 111.7361703 100.9981479  64.8520554 111.2269912  99.6551964  64.3734134
 106.1393327 105.5830693  63.2094321 106.0246842 104.6815950  63.5101420
 105.2837845 105.8294390  62.8579137 113.2185165 113.5248433  64.8081821
 112.7749019 112.7384812  64.4902726 113.8802379 113.7127584  64.1425712
 107.9772286 115.0544235  59.3342500 108.5279711 114.9261298  58.5619494
 107.1383762 115.3539124  58.9837393 115.3166403 113.8051233  62.8363223
 115.2984878 114.6260114  62.3443492 116.2386323 113.6805309  63.0613364
 111.7739457 111.3195363  63.6786731 112.3067794 110.5583651  63.4486039
 111.2453538 111.0269015  64.4210886 114.9409152  96.4255429  59.2080373
 114.5973422  97.3157071  59.1319483 115.3088115  96.2357086  58.3449958
 103.0095003 108.7488959  52.0268975 103.8470225 109.1585968  51.8102683
 103.1873270 107.8088401  51.9969169 114.9059435 106.4164040  47.7152808
 114.3906058 107.1868645  47.9541195 114.6336743 105.7429176  48.3385869
 112.4906546 101.2613741  52.7738046 111.6348142 100.8720591  52.5943685
 112.9033498 101.3405702  51.9137832 114.0205693  98.7960084  57.1729606
 113.5170488  98.7590219  56.3597411 114.3136299  99.7052827  57.2326263
 110.2648578  98.8798814  56.1795788 111.1301575  98.6841622  55.8201677
 110.3326087  98.6509165  57.1065145 119.8793709 109.1696395  49.6505981
 119.1023152 108.8307554  49.2061144 120.5585190 109.1749018  48.9760946
 114.6945738 104.2891132  49.5412589 114.3895874 104.6037281  50.3922732
 115.6476180 104.3672552  49.5839922 113.1392170 110.4481355  51.1905543
 112.6113532 109.7134115  50.8778781 112.6379673 111.2256032  50.9445511
 118.1185016 108.6430376  56.3072589 117.4608690 109.3329637  56.3952718
 118.9225415 109.0326808  56.6506576 107.8710898 101.1101022  53.5512155
 108.4454649 100.8876203  52.8185348 108.4581880 101.1789716  54.3040756
 116.9290475 106.9974749  54.3576531 117.4422356 107.6304740  54.8598241
 117.5791699 106.3975944  53.9919891 108.1980485 103.1405483  47.5708040
 107.3617797 103.4780169  47.8917315 108.0585254 103.0054462  46.6335177
 110.1733565  97.9842271  52.2787224 109.5197978  97.6691288  51.6543839
 110.1314039  97.3618011  53.0047047 111.2844770 108.2661566  44.1940516
 110.3771832 108.0350819  44.3931665 111.7815802 107.4699185  44.3814498
 114.1912849 116.9759073  47.1137202 113.5174548 117.2790770  47.7222160
 114.5778671 117.7788153  46.7642659 113.4071306 104.4724204  56.6034872
 112.4893867 104.6939151  56.4456560 113.8231449 104.5470515  55.7446579
 114.1906353 105.8715620  51.7337552 114.9378172 106.3837017  51.4244674
 114.4597943 105.5499672  52.5941945 112.4633004 108.3674160  48.7164506
 111.5544223 108.0833193  48.8136976 112.4928087 108.7873239  47.8567813
 117.6952271 111.9780750  52.4855674 117.2414598 111.1371660  52.5420864
 117.0646238 112.6142148  52.8230454 116.6385191 102.9072736  53.7156341
 115.9007947 102.3950122  54.0466584 116.8911964 102.4673118  52.9039618
 116.1385210 113.8157247  53.4205492 116.4308185 114.3762304  52.7017858
 116.6483831 114.1085808  54.1758651 116.7396818  95.6848988  54.3098111
 117.0455695  94.8246351  54.0224026 117.4649423  96.2766608  54.1097104
 103.0321174 106.0879675  52.6979708 102.8345574 105.4949035  51.9730775
 102.4767838 105.7831885  53.4155647 111.0117898 105.9802781  54.8174302
 111.0666507 105.0276617  54.7416778 110.2009100 106.1362220  55.3015600
 112.1609091 109.9082904  46.0552585 111.7228521 109.1918763  45.5958222
 112.9019532 110.1359019  45.4937676 108.9510258 104.5979841  52.5764680
 108.1378123 104.8974011  52.9829873 109.4469252 104.2035530  53.2939163
 111.1018835 114.5937598  54.5098945 111.0595014 114.8198444  53.5807477
 112.0181534 114.3600972  54.6584746 114.5484469 105.0621665  61.4079574
 114.9033857 105.2893138  62.2674040 115.1956600 105.3940042  60.7856830
 120.2782206 108.1840101  52.1128903 120.1400105 108.3741697  51.1850093
 119.9218425 108.9459484  52.5696955 108.4424332 102.1698196  58.1925915
 109.0823712 102.0286955  57.4948879 107.6101863 101.8832710  57.8164517
 120.3051586 110.2516628  57.1240175 120.7388092 110.1591917  57.9723229
 121.0183166 110.2274129  56.4860191 109.2184636 111.4700627  54.3060908
 110.0125235 110.9750947  54.1043483 108.5076329 110.9418490  53.9428613
 114.0379481 113.8518722  58.6573275 114.0916503 114.4209659  59.4250991
 113.1694262 114.0220607  58.2927313 105.5267400 105.6143709  50.3820661
 104.5964988 105.5528164  50.5990623 105.6224872 105.0919661  49.5857302
 105.4452949 102.1398521  52.9698902 105.7059766 103.0543855  52.8608063
 106.2670121 101.6722964  53.1195515 106.9177874 103.5536279  60.1397727
 107.5900927 103.3453641  59.4910376 106.0907661 103.3558365  59.7002959
 121.1667135 110.2940329  59.6573060 121.3603025 111.1986139  59.9032335
 121.0667753 109.8347748  60.4911645 112.8203446 100.1798219  62.1563388
 112.1731361 100.8788169  62.0627864 113.5904461 100.6134363  62.5239636
 116.2282244 110.4447072  65.2313941 116.0767750 110.2157623  64.3144025
 116.2186923 111.4017673  65.2445286 112.9967580 108.0178984  60.2160207
 113.9259640 108.1690144  60.0429175 112.5758610 108.1063005  59.3608854
 111.7955912 112.0429649  57.9858745 111.6566998 111.6748433  58.8584683
 111.0070508 112.5577288  57.8142703 112.3904064 117.1438745  49.3284281
 112.5655820 116.6726788  50.1429904 111.7036852 117.7704511  49.5565542
 113.3461127 111.4211251  55.3747583 113.0110960 111.3812021  56.2705233
 112.8465073 110.7555967  54.9017993 107.3205371 106.8278881  60.9000164
 107.1825169 106.0959120  61.5011703 108.2310295 106.7387782  60.6184352
 116.2820319 108.7667286  45.6484642 115.6649490 108.0414114  45.5517695
 115.8136807 109.5276646  45.3051717 109.9487672 106.5398841  60.3883844
 110.6587290 105.8992033  60.3470462 109.9056980 106.7911736  61.3110024
 117.9374451 113.4766194  63.3090423 117.8786997 112.7925414  62.6421006
 118.3393969 114.2185184  62.8571049 108.6616606 103.5264059  62.2079483
 108.1253963 103.0754797  62.8601079 108.0733314 103.6609968  61.4649947
 106.9565149 120.2928108  56.1024142 107.1961748 120.9246632  56.7803160
 106.1134346 119.9416148  56.3889501 108.0718865 102.9852710  44.7705947
 107.1948331 102.8641511  44.4068193 108.5476618 102.1938788  44.5184835
 117.9391858 111.4405778  61.5404402 117.0518637 111.1031700  61.6630801
 118.5090409 110.7088809  61.7773168  99.5921005 107.7729870  54.8647454
 100.2792045 107.4591600  54.2768469  99.4369134 108.6771234  54.5914705
 104.3955727 102.6620066  59.2932478 104.3113916 102.0545736  58.5582887
 103.5738434 103.1529085  59.2941974 111.4693011 116.1007230  58.5065646
 111.3963183 116.9062202  59.0184950 111.0270404 116.2999196  57.6813667
 111.2582791 115.3379000  52.0168467 110.4750313 115.8800681  52.1106692
 111.9575536 115.8552980  52.4162708 114.5679441 101.1473630  54.6602673
 115.0648141 100.3943592  54.3403743 113.7966423 101.1837947  54.0945882
 122.4209198 106.8513995  56.3020964 122.4099075 107.7338711  55.9314897
 121.5526578 106.4985546  56.1075501 113.9291695 115.9994064  60.6623804
 114.6419667 116.6341529  60.5899706 113.4381723 116.0957930  59.8463806
 115.6509222 109.9045317  52.2341096 114.7165500 110.0246780  52.0645800
 115.8285890 109.0017784  51.9701106 111.1514410 103.2891013  54.3874357
 110.7812197 102.7362053  55.0755263 111.6473502 102.6849146  53.8349357
 119.0381773 105.7462636  52.7691130 119.5042225 106.5790628  52.6951433
 119.4889274 105.2807618  53.4736389 108.9803608 113.7488508  61.4829375
 109.6813068 114.3824991  61.6358769 108.5098723 114.0903239  60.7225014
 117.1058004 112.0906458  49.7677282 117.3817848 111.9763052  50.6771156
 116.2362503 111.6923943  49.7289455 117.0098436  98.1143223  56.8082031
 116.0961516  98.3447450  56.9764238 117.4391537  98.1981667  57.6596064
 116.7804894 106.3033115  59.3081925 116.1276345 106.5509023  58.6534378
 117.1585274 105.4897254  58.9744403 113.7412068 116.3392809  53.4110096
 113.9234463 115.5214464  53.8737848 114.5645054 116.5560501  52.9734986
 114.0754234 115.2660994  50.6725144 114.6042000 114.7553448  50.0595306
 114.3382453 114.9503524  51.5370677 112.8292467 107.0452926  65.7947963
 112.1533104 106.9447056  66.4650338 113.6520101 106.8892140  66.2583960
 104.5771326 113.2824863  58.4160478 105.1624763 112.5368551  58.5488382
 104.3796165 113.5928820  59.2997142 107.4309982 116.3176110  53.4322920
 106.7620357 116.8022238  52.9486960 107.2922851 116.5645331  54.3466299
  99.1688981 105.8530463  57.1364921  99.2073081 105.3194054  57.9302039
  98.6629274 105.3265669  56.5175898 111.5715250 118.3519854  60.0305579
 112.1233558 118.5151475  60.7954664 111.9121444 118.9424292  59.3585603
 106.5479743 100.6995004  60.6327463 106.6121070 101.5609835  60.2204861
 106.4846864 100.0869005  59.8999822 106.0232016 102.7718136  64.2800498
 106.6504055 102.3895214  64.8938022 105.1659935 102.5532338  64.6456190
 116.4226125 113.1781111  65.8854233 116.9666029 113.7911070  65.3909188
 115.8412969 113.7360690  66.4021246 102.7997559 104.5794565  50.2118852
 103.0951000 103.6705244  50.1585906 101.8985594 104.5582305  49.8899855
 114.7083637 116.3001829  57.0169261 114.5834777 115.4991569  56.5080206
 115.3662729 116.7948023  56.5283231 106.3291806 102.6550562  56.1946401
 105.6078391 103.2686530  56.0553874 107.1185061 103.1908327  56.1163047
 116.7718546 114.1010850  58.6448811 115.8248881 113.9816201  58.5727138
 117.1201319 113.2133348  58.7275072 109.1318119  99.9904988  62.4687053
 109.6552521 100.2367285  63.2313362 108.9130453 100.8225023  62.0490190
 104.5285400 102.2608663  50.3358177 104.1998106 101.3806042  50.1533283
 104.8824771 102.2056332  51.2234567 113.7764979 113.8963566  54.8453163
 113.6289942 112.9680273  55.0260733 114.6018473 113.9183656  54.3610238
 107.6427223 102.5481633  50.7033655 107.9823296 103.0767554  49.9812264
 108.0899344 102.8862039  51.4792222 117.3799101 114.7192124  55.9318036
 118.3045648 114.5134986  55.7942487 117.2114404 114.4708526  56.8407377
 110.3370664 100.9318684  60.1536723 109.9967485 100.1326497  60.5557403
 109.6309671 101.2320394  59.5813556 110.9887136  98.0167996  58.6064046
 111.8113205  97.5428474  58.4842937 111.2325200  98.7958480  59.1062733
 109.6295371 101.0456254  48.9026948 110.3503733 101.4237507  48.3990665
 109.0060675 101.7645131  49.0061926 113.7726493 101.7501403  49.8385280
 113.9890108 102.6326041  49.5374108 113.2920561 101.3587617  49.1090922
 108.5125715 104.7087117  56.4156025 108.3670296 105.0227420  57.3080306
 108.0350918 105.3272017  55.8626923 110.3722098 101.6989665  56.4636914
 110.3583667 100.8030758  56.1269212 111.0894526 101.7060328  57.0975200
 112.2248228 102.1327005  58.5090042 111.9666006 103.0544075  58.5074372
 111.6933269 101.7357439  59.1990506 117.1694417 115.2377792  51.2880127
 117.3431295 114.6724214  50.5353980 117.6623308 116.0378687  51.1059617
 102.9871377 107.2492461  59.3543686 102.4424845 108.0252269  59.4863960
 103.8650727 107.5963265  59.1962807 109.7758994 100.5804045  51.7324485
 109.8974905  99.6520691  51.9315372 109.4861036 100.5942731  50.8202800
 112.6450184  98.2658955  54.8691204 112.6671881  98.3298288  53.9143184
 113.0618243  97.4263464  55.0631711 123.0233808 108.0014215  52.9070427
 123.4664954 107.2521540  52.5089550 122.1460319 107.9924351  52.5244159
 118.1569590 114.5544556  48.3877026 118.8520494 115.1751249  48.6064340
 118.4992740 113.7039908  48.6629403 120.0561013 112.0044262  49.9164356
 120.5812337 112.3431535  49.1913676 119.9683365 111.0691277  49.7327491
 111.7181062 115.9178335  62.0454233 112.0268188 115.6727482  62.9176932
 112.5156544 116.1224974  61.5573103 111.7401674 118.0716245  54.2759609
 111.3006664 117.5792624  54.9692466 112.4909791 117.5289213  54.0351685
 104.2194013 114.2627786  54.2784238 105.0452032 113.9631558  53.8982881
 103.8688065 113.4935408  54.7274026 109.1875546 113.6154254  56.3481911
 108.5655555 112.9524959  56.0484139 109.8580413 113.6415386  55.6655559
 102.4202618 112.1814112  55.2373171 101.5834526 111.7536287  55.0557172
 102.3926263 112.3746556  56.1743962 109.2600073 102.0936042  65.9414417
 109.3088229 102.9698165  65.5592187 109.8022587 101.5513435  65.3686060
 119.7454919 112.6377165  65.2215554 118.9550463 112.6201304  64.6820054
 119.5088273 113.1765459  65.9764591 119.8652794 109.4869632  62.5348283
 119.9150799 109.3219639  63.4763806 119.7566717 108.6196891  62.1446164
 108.7489053 112.1658178  49.8240372 108.8977173 112.8493642  49.1707044
 109.5555496 112.1463268  50.3389827 117.1556556 105.4700560  63.8507589
 118.0566419 105.3307025  63.5591587 117.2304531 105.6355015  64.7905767
 111.4899362 102.8467415  62.6960776 110.6202671 103.1400981  62.4243364
 111.7258842 103.4307860  63.4168039 121.3670991 111.9066573  62.7790304
 121.0755799 112.2696554  63.6153765 120.7543122 111.1933582  62.6003636
 122.5666673 109.4719453  55.2992875 123.4013564 109.9109257  55.4630435
 122.7025802 108.9958106  54.4801120 119.6158179 107.0299188  61.2470362
 120.0912301 107.2226834  60.4389214 118.6923744 107.0858374  61.0013746
 106.5041686 108.1923355  50.8301441 106.2587728 107.2885685  51.0281651
 106.6737600 108.1940506  49.8880919 114.1938396  99.0647032  60.2126196
 114.7120339  99.8008058  59.8872685 113.8393528  99.3711025  61.0472955
 105.7737333 103.9251713  48.3287602 105.0806578 103.9996068  47.6727638
 105.5289085 103.1612056  48.8509119 114.4450990  95.4847314  55.7327093
 114.7252743  94.8170503  56.3587519 115.2301597  95.6776410  55.2201757
 112.2484458 114.6606308  47.2952119 111.6758425 115.2796495  46.8422591
 112.8217252 115.2105670  47.8292041 118.3159848 103.9064948  59.4798668
 119.2677271 104.0063046  59.5010892 118.1463298 103.1143217  59.9896752
 116.3374227 100.9920531  59.6658069 115.7424160 101.2725544  58.9704557
 116.0523924 101.4814432  60.4374810 115.4681718 114.9443458  48.4260701
 116.4012391 114.8789020  48.6293577 115.3804931 115.7799725  47.9675234
 118.0969735 114.2609328  45.3864649 118.0183366 113.9269192  46.2800407
 118.9179401 114.7531096  45.3856121 120.7947926 107.1271068  58.5940968
 120.7624246 106.1887069  58.7800651 121.4048549 107.2055104  57.8606792
 112.6331257 105.9967121  44.6368172 113.5790361 105.8673329  44.7056590
 112.2545502 105.2581783  45.1137600 120.9442414 103.9182111  58.6399251
 120.4281463 103.1340568  58.4529180 121.8282363 103.5900828  58.8045770
 118.6053141  97.6623127  54.5995063 118.4077962  97.3538215  55.4838395
 119.2152847  98.3884766  54.7292993 126.6124476 108.1887075  57.7347004
 127.3427864 107.9272363  58.2954708 126.0031421 107.4515797  57.7749072
 124.6939773 106.3294937  58.3321456 123.9672936 106.1950902  57.7237947
 124.2787060 106.6371766  59.1378174 112.5169949 110.0484867  66.0968829
 113.4372959 110.2263466  66.2908875 112.4819532 109.1040912  65.9448528
 110.8174174 103.9217097  44.5723057 109.9105629 103.6250210  44.6485770
 111.0950155 103.6246915  43.7057343 101.7352114 105.2423461  55.0222103
 101.4154899 104.3888769  54.7296477 101.1885542 105.4572039  55.7780071
 105.5132022 107.9585902  58.7391610 105.7318032 108.8903009  58.7579644
 105.9257796 107.5993876  59.5246414 112.4336240  98.4653987  50.7267298
 111.6236968  98.1201072  51.1022544 113.1220656  98.1561531  51.3154910
 114.3626788  97.5432034  52.3491595 114.9157826  97.9627487  53.0081618
 114.5996874  96.6167782  52.3914551 109.5872958 100.7804032  44.7135036
 110.4492122 101.1058931  44.9730853 109.7723303  99.9935528  44.2008102
 101.6040374 108.8626372  56.9915225 100.9103846 108.4480325  56.4785179
 102.3513365 108.9046909  56.3948644 117.7405595  99.6532559  51.8570259
 117.1604264 100.3117363  51.4748311 117.4741528  98.8309903  51.4457677
 116.1909161  99.0537617  54.0591579 116.6908940  99.1654151  53.2505898
 116.8344769  98.7498669  54.6992388 110.2491157 106.9616246  66.9459420
 109.7658239 107.7616606  67.1523309 110.3352096 106.9724191  65.9926864
 103.5177117 108.7944626  54.8681240 103.4947805 108.8932313  53.9163123
 103.8277753 109.6409777  55.1898406 106.1764495 110.8520781  58.9827854
 107.1307748 110.8204723  58.9157786 105.9777018 110.3911405  59.7978080
 106.7663877 109.4221897  61.5498652 107.5856766 109.9165976  61.5733489
 107.0400684 108.5053865  61.5216219 116.5230473 101.8132649  50.9126607
 115.6356328 102.0982300  50.6946802 116.9384462 101.6526413  50.0653884
 119.8745009 101.8379170  54.6280947 120.6505399 102.3275623  54.9005563
 119.1493143 102.2637224  55.0852816 122.3117568 102.5506789  55.6854887
 122.9062059 102.3102525  54.9748195 122.3844151 101.8313920  56.3128423
 104.5314723 116.3940400  55.9998052 104.3969191 115.6340801  55.4336050
 104.1146786 117.1181300  55.5326841 115.6673686 111.5777324  45.0074627
 116.3709537 111.7827326  45.6232283 114.9436335 112.1454086  45.2723711
 116.4971497 107.3287185  51.1276897 116.4406698 107.7855737  50.2884530
 117.0499839 106.5677870  50.9499740 120.3076303 103.1176917  51.9527017
 120.0513237 102.7173553  52.7835225 119.6829171 103.8320711  51.8277156
 124.6188640 105.8572990  54.4598308 124.0588198 105.9266180  55.2329870
 124.0132144 105.6813975  53.7397805 107.6883849 117.2909717  56.2116495
 107.5716233 118.2355150  56.1095185 106.8676296 116.9883279  56.6002294
 117.5760384 112.0159853  47.0573087 118.4105988 111.5841052  46.8750562
 117.4144727 111.8441867  47.9849982 117.2306276 108.5191966  48.4229427
 117.1755080 108.3536238  47.4817871 116.6052331 109.2267999  48.5791616
 114.5452183 110.8240878  67.7482989 115.4143343 110.9981531  67.3869624
 114.0658935 111.6435295  67.6258719 110.5402401  98.0200075  48.0014745
 110.5281071  98.9641915  48.1583016 111.4325823  97.8370221  47.7074206
 108.7138363 117.9437979  59.4272423 109.6165610 117.9761590  59.7438918
 108.4875733 117.0138430  59.4418759 110.4691965 116.6968966  56.0882502
 109.5187596 116.6970827  55.9746874 110.7724452 115.9501700  55.5718536
 114.3554521  94.6142852  52.2560682 113.5886917  94.0601339  52.4017364
 114.7665226  94.6864721  53.1174833 126.2044659 122.5329504  57.1528264
 126.8423069 122.4136252  56.4491604 126.0865502 123.4810348  57.2116216
 123.0134365 122.4856932  57.0889789 122.6752877 122.3697997  56.2010324
 123.8824133 122.0848097  57.0690795 118.8721181 124.3392409  53.0786680
 118.3086046 124.2482346  52.3102967 118.7573576 123.5192313  53.5589172
 123.4954148 123.6391784  63.0475994 123.4842789 123.2444582  62.1756498
 123.6574788 122.9057857  63.6409766 116.4185613 125.8343600  55.9170900
 117.2106905 125.4934425  55.5017199 116.6582263 125.9438575  56.8373053
 118.3776367 125.0952514  48.7888279 119.1507243 124.5481501  48.6501155
 118.7301766 125.9596763  49.0002740 120.2161409 126.4228896  61.9955178
 119.9251275 127.3274527  61.8801845 120.8518394 126.4645423  62.7099248
 121.1417616 123.8005744  58.5856538 121.7381188 123.5761767  57.8713501
 121.1992588 123.0590490  59.1881986 120.7142645 121.2545180  46.4206729
 120.9668165 120.7326701  45.6590192 119.7767204 121.0911325  46.5233412
 125.7585927 120.2580958  54.2281472 126.5449017 119.8400381  53.8771889
 126.0224632 121.1627050  54.3963120 131.1594355 120.1956191  55.1314451
 131.8919526 119.6255408  55.3652280 130.4033710 119.8077792  55.5720956
 120.4338933 123.1573286  48.6231104 120.3175191 122.4818189  49.2912188
 120.5441193 122.6705660  47.8063257 122.7770474 122.6183433  52.3277793
 122.4128681 122.0914054  53.0390715 123.6337590 122.2281902  52.1544278
 128.6819775 113.9077765  59.5909059 128.3503100 114.7773176  59.3670274
 128.0865388 113.5914049  60.2703090 122.4175961 117.6473332  47.3239142
 122.5850364 118.5153569  47.6909613 122.2273130 117.8100614  46.4000431
 118.6263776 122.5604108  55.0241676 117.7014272 122.4280322  55.2319368
 118.8748189 123.3398327  55.5211619 128.5748438 118.6272852  56.6702409
 127.6665316 118.5588260  56.3761170 128.5236034 119.1044796  57.4984235
 122.3965182 120.1030990  48.3085808 122.2764807 120.5488041  49.1471289
 121.7017770 120.4516308  47.7499347 115.9872587 122.2037382  55.8585465
 116.1164968 122.4571861  56.7724877 115.3070038 122.7965090  55.5390121
 122.6489304 120.0462497  64.6137307 121.8722638 120.6056417  64.6040171
 123.2879867 120.5319280  65.1352177 130.4410085 116.8289290  58.4480283
 129.7984465 117.1221823  57.8020078 129.9365013 116.7142210  59.2533480
 128.0950248 120.5752463  49.1366142 129.0068104 120.8079850  48.9613840
 127.5859895 121.1589507  48.5741221 120.9035676 122.8547950  64.1755274
 121.6450361 123.3932994  63.8990097 120.1972662 123.4814239  64.3326825
 126.3791016 124.9977091  62.7727435 126.7874372 124.5559501  62.0282067
 125.6568277 124.4229718  63.0261628 122.7322086 119.9349698  60.1460992
 123.5783281 120.3589111  60.2895641 122.6720724 119.2783322  60.8399555
 125.8821531 117.5954066  61.8042166 125.6382463 118.3496127  61.2676441
 126.1581462 117.9739414  62.6389413 125.4386223 116.7510499  57.3856003
 124.5770702 117.0491753  57.6772741 125.4648658 116.9680898  56.4537036
 122.2547792 125.2952690  53.7929809 122.7186138 125.5740393  53.0034432
 121.9904591 124.3936134  53.6102900 119.1471874 124.8424171  56.7309572
 119.7173231 125.2711440  56.0927057 119.7379985 124.5606756  57.4293758
 121.1916678 121.4175842  50.6019374 121.8940722 121.8696886  51.0693301
 120.8597307 120.7759661  51.2299267 119.6397040 120.0087599  64.9770584
 119.0095701 120.6903880  65.2105980 119.5333128 119.8970680  64.0323722
 114.9342012 119.6759395  55.9036508 114.1441066 119.9316923  55.4276618
 115.4253260 120.4907733  56.0088548 116.8856758 120.0403974  52.8619984
 116.0887921 120.1522668  53.3803480 116.6582350 120.3790626  51.9960875
 122.7162425 126.5648677  60.8102499 122.7806858 127.0269084  61.6460671
 122.0073349 125.9346042  60.9384809 113.2179715 119.9289885  58.3351499
 113.4687754 120.8136895  58.6009074 113.7539264 119.7494487  57.5626590
 118.9177783 114.3108364  67.3395835 118.5244728 113.7574563  68.0143479
 119.7343923 114.6218943  67.7302352 115.8839841 125.7492223  51.2509404
 116.3964361 126.5435473  51.4014969 116.5362553 125.0518513  51.1843006
 117.6934725 128.8657979  53.3332158 117.8701354 129.7875944  53.1453142
 118.4891559 128.5516398  53.7626537 121.8345744 115.7266244  64.9316091
 122.5755457 116.3273397  64.8520554 122.0663667 114.9843881  64.3734134
 116.9787082 120.9122611  63.2094321 116.8640597 120.0107868  63.5101420
 116.1231600 121.1586308  62.8579137 118.8166041 130.3836153  59.3342500
 119.3673466 130.2553216  58.5619494 117.9777517 130.6831042  58.9837393
 122.6133212 126.6487281  63.6786731 123.1461549 125.8875569  63.4486039
 122.0847293 126.3560932  64.4210886 125.7802907 111.7547347  59.2080373
 125.4367176 112.6448988  59.1319483 126.1481869 111.5649004  58.3449958
 113.8488757 124.0780877  52.0268975 114.6863979 124.4877885  51.8102683
 114.0267025 123.1380319  51.9969169 125.7453189 121.7455958  47.7152808
 125.2299813 122.5160562  47.9541195 125.4730498 121.0721094  48.3385869
 123.3300300 116.5905658  52.7738046 122.4741897 116.2012509  52.5943685
 123.7427252 116.6697619  51.9137832 124.8599447 114.1252002  57.1729606
 124.3564243 114.0882137  56.3597411 125.1530054 115.0344744  57.2326263
 121.1042333 114.2090731  56.1795788 121.9695330 114.0133540  55.8201677
 121.1719842 113.9801083  57.1065145 125.5339493 119.6183050  49.5412589
 125.2289628 119.9329199  50.3922732 126.4869935 119.6964470  49.5839922
 123.9785924 125.7773273  51.1905543 123.4507286 125.0426033  50.8778781
 123.4773427 126.5547949  50.9445511 118.7104652 116.4392939  53.5512155
 119.2848404 116.2168121  52.8185348 119.2975634 116.5081634  54.3040756
 127.7684229 122.3266666  54.3576531 128.2816111 122.9596658  54.8598241
 128.4185453 121.7267862  53.9919891 119.0374239 118.4697400  47.5708040
 118.2011551 118.8072087  47.8917315 118.8979009 118.3346380  46.6335177
 121.0127320 113.3134188  52.2787224 120.3591732 112.9983205  51.6543839
 120.9707794 112.6909929  53.0047047 122.1238525 123.5953483  44.1940516
 121.2165586 123.3642737  44.3931665 122.6209557 122.7991103  44.3814498
 124.2465060 119.8016122  56.6034872 123.3287621 120.0231069  56.4456560
 124.6625204 119.8762432  55.7446579 125.0300108 121.2007537  51.7337552
 125.7771927 121.7128935  51.4244674 125.2991697 120.8791590  52.5941945
 123.3026758 123.6966078  48.7164506 122.3937977 123.4125111  48.8136976
 123.3321842 124.1165157  47.8567813 127.4778945 118.2364654  53.7156341
 126.7401702 117.7242040  54.0466584 127.7305719 117.7965035  52.9039618
 127.5790572 111.0140906  54.3098111 127.8849449 110.1538269  54.0224026
 128.3043177 111.6058526  54.1097104 113.8714928 121.4171592  52.6979708
 113.6739328 120.8240953  51.9730775 113.3161592 121.1123802  53.4155647
 121.8511652 121.3094699  54.8174302 121.9060262 120.3568535  54.7416778
 121.0402854 121.4654138  55.3015600 123.0002846 125.2374822  46.0552585
 122.5622276 124.5210681  45.5958222 123.7413287 125.4650937  45.4937676
 119.7904012 119.9271759  52.5764680 118.9771878 120.2265929  52.9829873
 120.2863006 119.5327447  53.2939163 125.3878224 120.3913583  61.4079574
 125.7427611 120.6185056  62.2674040 126.0350355 120.7231960  60.7856830
 119.2818087 117.4990114  58.1925915 119.9217466 117.3578873  57.4948879
 118.4495617 117.2124627  57.8164517 120.0578391 126.7992544  54.3060908
 120.8518989 126.3042865  54.1043483 119.3470083 126.2710408  53.9428613
 116.3661154 120.9435626  50.3820661 115.4358742 120.8820082  50.5990623
 116.4618626 120.4211579  49.5857302 116.2846703 117.4690439  52.9698902
 116.5453520 118.3835772  52.8608063 117.1063876 117.0014882  53.1195515
 117.7571629 118.8828196  60.1397727 118.4294682 118.6745558  59.4910376
 116.9301415 118.6850282  59.7002959 123.6597201 115.5090137  62.1563388
 123.0125116 116.2080087  62.0627864 124.4298216 115.9426281  62.5239636
 123.8361335 123.3470902  60.2160207 124.7653395 123.4982062  60.0429175
 123.4152365 123.4354923  59.3608854 122.6349667 127.3721566  57.9858745
 122.4960752 127.0040351  58.8584683 121.8464263 127.8869206  57.8142703
 124.1854882 126.7503169  55.3747583 123.8504714 126.7103939  56.2705233
 123.6858827 126.0847885  54.9017993 118.1599126 122.1570799  60.9000164
 118.0218924 121.4251038  61.5011703 119.0704049 122.0679699  60.6184352
 127.1214073 124.0959203  45.6484642 126.5043244 123.3706032  45.5517695
 126.6530562 124.8568564  45.3051717 120.7881426 121.8690759  60.3883844
 121.4981045 121.2283951  60.3470462 120.7450735 122.1203653  61.3110024
 119.5010360 118.8555976  62.2079483 118.9647717 118.4046715  62.8601079
 118.9127069 118.9901885  61.4649947 118.9112619 118.3144628  44.7705947
 118.0342086 118.1933429  44.4068193 119.3870372 117.5230706  44.5184835
 110.4314759 123.1021788  54.8647454 111.1185799 122.7883518  54.2768469
 110.2762888 124.0063152  54.5914705 115.2349482 117.9911984  59.2932478
 115.1507670 117.3837654  58.5582887 114.4132188 118.4821002  59.2941974
 125.4073196 116.4765548  54.6602673 125.9041895 115.7235510  54.3403743
 124.6360177 116.5129864  54.0945882 126.4902976 125.2337235  52.2341096
 125.5559255 125.3538697  52.0645800 126.6679645 124.3309702  51.9701106
 121.9908164 118.6182931  54.3874357 121.6205952 118.0653971  55.0755263
 122.4867257 118.0141064  53.8349357 129.8775528 121.0754554  52.7691130
 130.3435980 121.9082546  52.6951433 130.3283028 120.6099536  53.4736389
 127.8492190 113.4435141  56.8082031 126.9355270 113.6739368  56.9764238
 128.2785292 113.5273585  57.6596064 127.6198649 121.6325033  59.3081925
 126.9670099 121.8800941  58.6534378 127.9979029 120.8189171  58.9744403
 123.6686222 122.3744844  65.7947963 122.9926859 122.2738973  66.4650338
 124.4913856 122.2184058  66.2583960 115.4165081 128.6116781  58.4160478
 116.0018518 127.8660469  58.5488382 115.2189919 128.9220737  59.2997142
 110.0082736 121.1822381  57.1364921 110.0466835 120.6485972  57.9302039
 109.5023028 120.6557586  56.5175898 117.3873498 116.0286921  60.6327463
 117.4514824 116.8901752  60.2204861 117.3240618 115.4160923  59.8999822
 116.8625770 118.1010054  64.2800498 117.4897809 117.7187131  64.8938022
 116.0053689 117.8824256  64.6456190 113.6391313 119.9086483  50.2118852
 113.9344754 118.9997161  50.1585906 112.7379349 119.8874222  49.8899855
 117.1685560 117.9842480  56.1946401 116.4472146 118.5978447  56.0553874
 117.9578816 118.5200244  56.1163047 119.9711874 115.3196906  62.4687053
 120.4946276 115.5659203  63.2313362 119.7524207 116.1516941  62.0490190
 115.3679155 117.5900581  50.3358177 115.0391861 116.7097960  50.1533283
 115.7218525 117.5348249  51.2234567 118.4820978 117.8773550  50.7033655
 118.8217050 118.4059472  49.9812264 118.9293098 118.2153957  51.4792222
 121.1764419 116.2610601  60.1536723 120.8361239 115.4618414  60.5557403
 120.4703425 116.5612312  59.5813556 121.8280891 113.3459914  58.6064046
 122.6506960 112.8720392  58.4842937 122.0718954 114.1250397  59.1062733
 120.4689125 116.3748172  48.9026948 121.1897488 116.7529425  48.3990665
 119.8454429 117.0937049  49.0061926 124.6120248 117.0793321  49.8385280
 124.8283862 117.9617959  49.5374108 124.1314315 116.6879534  49.1090922
 119.3519469 120.0379034  56.4156025 119.2064050 120.3519337  57.3080306
 118.8744673 120.6563935  55.8626923 121.2115852 117.0281582  56.4636914
 121.1977421 116.1322676  56.1269212 121.9288280 117.0352246  57.0975200
 123.0641983 117.4618922  58.5090042 122.8059761 118.3835993  58.5074372
 122.5327023 117.0649357  59.1990506 113.8265132 122.5784379  59.3543686
 113.2818600 123.3544187  59.4863960 114.7044481 122.9255183  59.1962807
 120.6152748 115.9095963  51.7324485 120.7368659 114.9812609  51.9315372
 120.3254791 115.9234649  50.8202800 123.4843939 113.5950873  54.8691204
 123.5065635 113.6590206  53.9143184 123.9011998 112.7555382  55.0631711
 114.6131153 121.7054275  62.2473843 113.8712889 121.8536910  62.8338473
 114.2923898 121.9662541  61.3840592 115.0587767 129.5919704  54.2784238
 115.8845787 129.2923476  53.8982881 114.7081819 128.8227326  54.7274026
 120.0269300 128.9446172  56.3481911 119.4049310 128.2816877  56.0484139
 120.6974167 128.9707304  55.6655559 113.2596372 127.5106030  55.2373171
 112.4228280 127.0828204  55.0557172 113.2320018 127.7038473  56.1743962
 120.0993828 117.4227960  65.9414417 120.1481983 118.2990083  65.5592187
 120.6416342 116.8805353  65.3686060 119.5882807 127.4950095  49.8240372
 119.7370927 128.1785560  49.1707044 120.3949251 127.4755185  50.3389827
 127.9950311 120.7992478  63.8507589 128.8960174 120.6598942  63.5591587
 128.0698285 120.9646932  64.7905767 122.3293116 118.1759332  62.6960776
 121.4596426 118.4692898  62.4243364 122.5652597 118.7599777  63.4168039
 117.3435440 123.5215273  50.8301441 117.0981482 122.6177603  51.0281651
 117.5131355 123.5232423  49.8880919 125.0332150 114.3938949  60.2126196
 125.5514094 115.1299976  59.8872685 124.6787283 114.7002943  61.0472955
 116.6131088 119.2543630  48.3287602 115.9200333 119.3287985  47.6727638
 116.3682840 118.4903974  48.8509119 125.2844744 110.8139232  55.7327093
 125.5646498 110.1462421  56.3587519 126.0695351 111.0068327  55.2201757
 129.1553603 119.2356866  59.4798668 130.1071025 119.3354963  59.5010892
 128.9857053 118.4435134  59.9896752 127.1767982 116.3212449  59.6658069
 126.5817914 116.6017462  58.9704557 126.8917679 116.8106350  60.4374810
 123.4725011 121.3259038  44.6368172 124.4184116 121.1965247  44.7056590
 123.0939256 120.5873700  45.1137600 131.7836169 119.2474029  58.6399251
 131.2675217 118.4632486  58.4529180 132.6676117 118.9192746  58.8045770
 129.4446896 112.9915044  54.5995063 129.2471717 112.6830133  55.4838395
 130.0546601 113.7176683  54.7292993 123.3563704 125.3776785  66.0968829
 124.2766713 125.5555384  66.2908875 123.3213287 124.4332830  65.9448528
 121.6567928 119.2509015  44.5723057 120.7499384 118.9542128  44.6485770
 121.9343909 118.9538833  43.7057343 112.5745869 120.5715378  55.0222103
 112.2548653 119.7180686  54.7296477 112.0279297 120.7863956  55.7780071
 116.3525776 123.2877819  58.7391610 116.5711786 124.2194927  58.7579644
 116.7651550 122.9285794  59.5246414 123.2729994 113.7945905  50.7267298
 122.4630722 113.4492990  51.1022544 123.9614411 113.4853448  51.3154910
 125.2020542 112.8723951  52.3491595 125.7551581 113.2919405  53.0081618
 125.4390629 111.9459699  52.3914551 121.2253642 118.8611025  68.1294359
 121.1250368 119.8105382  68.0606450 121.0075184 118.5329264  67.2570429
 120.4266713 116.1095950  44.7135036 121.2885877 116.4350848  44.9730853
 120.6117057 115.3227446  44.2008102 112.4434129 124.1918290  56.9915225
 111.7497600 123.7772243  56.4785179 113.1907120 124.2338826  56.3948644
 128.5799349 114.9824476  51.8570259 127.9998018 115.6409281  51.4748311
 128.3135282 114.1601821  51.4457677 127.0302916 114.3829534  54.0591579
 127.5302694 114.4946069  53.2505898 127.6738524 114.0790587  54.6992388
 121.0884912 122.2908164  66.9459420 120.6051993 123.0908524  67.1523309
 121.1745851 122.3016109  65.9926864 114.3570871 124.1236543  54.8681240
 114.3341559 124.2224231  53.9163123 114.6671508 124.9701694  55.1898406
 117.0158249 126.1812699  58.9827854 117.9701503 126.1496641  58.9157786
 116.8170773 125.7203322  59.7978080 117.6057631 124.7513815  61.5498652
 118.4250520 125.2457893  61.5733489 117.8794439 123.8345783  61.5216219
 127.3624227 117.1424567  50.9126607 126.4750082 117.4274218  50.6946802
 127.7778217 116.9818330  50.0653884 130.7138764 117.1671088  54.6280947
 131.4899154 117.6567540  54.9005563 129.9886898 117.5929142  55.0852816
 133.1511322 117.8798707  55.6854887 133.7455813 117.6394443  54.9748195
 133.2237906 117.1605838  56.3128423 115.3708478 131.7232318  55.9998052
 115.2362946 130.9632719  55.4336050 114.9540540 132.4473218  55.5326841
 127.3365251 122.6579103  51.1276897 127.2800453 123.1147654  50.2884530
 127.8893594 121.8969787  50.9499740 131.1470057 118.4468835  51.9527017
 130.8906991 118.0465470  52.7835225 130.5222925 119.1612629  51.8277156
 128.0700030 123.8483884  48.4229427 128.0148834 123.6828155  47.4817871
 127.4446086 124.5559917  48.5791616 112.8592545 119.0851948  62.2490849
 113.5051409 118.5750902  62.7378074 112.6509697 119.8220630  62.8234274
 121.3796156 113.3491993  48.0014745 121.3674826 114.2933833  48.1583016
 122.2719578 113.1662138  47.7074206 125.1948275 109.9434770  52.2560682
 124.4280671 109.3893256  52.4017364 125.6058980 110.0156638  53.1174833
 117.1990036 116.2319566  66.3465863 118.0621498 115.8756370  66.5569188
 116.6255447 115.8933460  67.0341267  50.3288379  -7.7651797  43.8773571
  50.9666789  -7.8845050  43.1736911  50.2109222  -6.8170953  43.9361523
  47.1378085  -7.8124369  43.8135095  46.7996597  -7.9283304  42.9255630
  48.0067853  -8.2133204  43.7936102  47.6197868  -6.6589517  49.7721301
  47.6086509  -7.0536719  48.9001805  47.7818507  -7.3923445  50.3655072
  40.5429333  -4.4637701  42.6416207  41.3350625  -4.8046876  42.2262506
  40.7825983  -4.3542726  43.5618360  48.5764459  -2.2917925  35.1146451
  47.9252439  -1.7063844  34.7280465  49.3708822  -1.7611730  35.1741489
  44.3405129  -3.8752405  48.7200485  44.0494995  -2.9706774  48.6047151
  44.9762113  -3.8335878  49.4344554  45.2661336  -6.4975557  45.3101845
  45.8624908  -6.7219534  44.5958807  45.3236308  -7.2390811  45.9127292
  46.9014194  -7.6797868  39.0523100  46.5372401  -8.2067247  39.7636021
  47.7581310  -8.0699399  38.8789585  49.2995014  -4.1890990  45.7150279
  48.9995737  -3.2865951  45.6066086  48.9546074  -4.4558807  46.5671431
  42.7507496  -7.7377193  41.7486983  41.8257992  -7.8700979  41.9564675
  42.9991909  -6.9582974  42.2456925  44.2815794   2.5753331  38.6821246
  44.2039824   3.5261156  38.7609727  43.6777438   2.2299203  39.3396173
  46.7733024 -10.2518804  51.3382613  45.9966358  -9.6924884  51.3285478
  47.4123587  -9.7662021  51.8597483  45.0279396  -7.4433351  50.9000580
  45.7694080  -6.9048307  50.6235404  44.3216382  -6.8167062  51.0572132
  50.5034736  -5.3004210  49.4972742  50.9118092  -5.7421800  48.7527374
  49.7811997  -5.8751583  49.7506935  46.8565806 -10.3631603  46.8706299
  47.7027001  -9.9392190  47.0140948  46.7964443 -11.0197979  47.5644862
  50.8263550  -4.7403020  43.2525031  50.1972413  -4.5757305  42.5501098
  50.4389212  -4.3261410  44.0235995  54.7052782  -3.8048582  40.6069394
  54.0203820  -3.4249680  40.0566428  54.7896632  -3.1953255  41.3401342
  51.9603714  -6.1588623  47.2064738  52.1720609  -5.5156863  46.5299119
  51.9133462  -6.9926306  46.7386668  46.3791512  -5.0028611  40.5175116
  46.8429858  -4.7240909  39.7279738  46.1148310  -5.9045167  40.3348206
  43.2715593  -5.4557130  43.4554879  43.8416950  -5.0269862  42.8172363
  43.8623705  -5.7374545  44.1539065  53.0749542  -3.2816667  45.3787095
  53.8966986  -3.6836480  45.0969777  53.0711945  -3.3848433  46.3303211
  46.8406145  -3.7332624  47.5347806  46.9050578  -3.2712217  48.3705978
  46.1317069  -4.3635259  47.6630116  46.5554163  -2.0664516  37.4026786
  46.4199838  -1.2212981  37.8311634  47.0963975  -1.8645239  36.6392720
  41.8178445  -1.4323322  40.0577464  41.9945073  -0.5105357  39.8698448
  42.6135279  -1.7464903  40.4871844  48.1822639  -1.4440950  51.5327128
  47.7386494  -2.2304571  51.2148033  48.8439853  -1.2561799  50.8671019
  42.9409760   0.0854852  46.0587807  43.4917186  -0.0428085  45.2864801
  42.1021236   0.3849741  45.7082699  50.2803877  -1.1638150  49.5608529
  50.2622353  -0.3429269  49.0688799  51.2023797  -1.2884075  49.7858671
  46.7376932  -3.6494021  50.4032038  47.2705268  -4.4105732  50.1731346
  46.2091013  -3.9420369  51.1456192  54.8431183  -5.7992989  36.3751288
  54.0660626  -6.1381829  35.9306450  55.5222664  -5.7940366  35.7006253
  48.1029644  -4.5208028  37.9150850  47.5751006  -5.2555269  37.6024087
  47.6017147  -3.7433352  37.6690818  53.0822490  -6.3259008  43.0317896
  52.4246165  -5.6359746  43.1198025  53.8862889  -5.9362576  43.3751882
  51.8927949  -7.9714635  41.0821838  52.4059831  -7.3384643  41.5843548
  52.5429173  -8.5713439  40.7165198  49.1550323   2.0069689  33.8382509
  48.4812022   2.3101386  34.4467467  49.5416145   2.8098770  33.4887966
  48.3708780 -10.4965179  43.3280178  47.4531341 -10.2750232  43.1701866
  48.7868924 -10.4218869  42.4691886  49.1543828  -9.0973764  38.4582859
  49.9015647  -8.5852366  38.1489981  49.4235417  -9.4189711  39.3187252
  52.6589745  -2.9908633  39.2100980  52.2052072  -3.8317724  39.2666171
  52.0283712  -2.3547235  39.5475761  51.1022685  -1.1532137  40.1450799
  51.3945659  -0.5927080  39.4263164  51.6121305  -0.8603576  40.9003958
  45.9755372  -8.9886602  41.5419608  46.0303982  -9.9412766  41.4662085
  45.1646574  -8.8327163  42.0260907  46.0656310  -0.3751786  41.2344252
  46.0232489  -0.1490939  40.3052784  46.9819009  -0.6088411  41.3830053
  49.5121944  -9.9067718  48.1324881  49.8671331  -9.6796245  48.9919347
  50.1594075  -9.5749341  47.5102136  55.2419680  -6.7849282  38.8374210
  55.1037579  -6.5947686  37.9095399  54.8855899  -6.0229899  39.2942261
  55.2689060  -4.7172755  43.8485482  55.7025567  -4.8097466  44.6968536
  55.9820641  -4.7415255  43.2105498  44.1822110  -3.4988757  41.0306214
  44.9762709  -3.9938437  40.8288789  43.4713803  -4.0270894  40.6673920
  49.0016955  -1.1170661  45.3818582  49.0553977  -0.5479725  46.1496298
  48.1331736  -0.9468776  45.0172619  56.1304610  -4.6749055  46.3818367
  56.3240500  -3.7703244  46.6277642  56.0305228  -5.1341636  47.2156952
  51.1919718  -4.5242312  51.9559248  51.0405225  -4.7531760  51.0389331
  51.1824398  -3.5671710  51.9690593  47.9605055  -6.9510399  46.9405514
  48.8897115  -6.7999239  46.7674481  47.5396085  -6.8626378  46.0854160
  46.7593386  -2.9259735  44.7104052  46.6204472  -3.2940950  45.5829990
  45.9707983  -2.4112095  44.5388009  47.3541538   2.1749362  36.0529588
  47.5293294   1.7037405  36.8675211  46.6674326   2.8015128  36.2810849
  48.3098602  -3.5478132  42.0992889  47.9748434  -3.5877362  42.9950539
  47.8102547  -4.2133416  41.6263300  42.2842846  -8.1410502  47.6245471
  42.1462644  -8.8730263  48.2257010  43.1947769  -8.2301602  47.3429658
  44.9125146  -8.4290543  47.1129150  45.6224765  -9.0697350  47.0715769
  44.8694454  -8.1777648  48.0355331  52.9011925  -1.4923189  50.0335729
  52.8424471  -2.1763969  49.3666312  53.3031443  -0.7504199  49.5816355
  41.9202624   5.3238725  42.8269448  42.1599222   5.9557249  43.5048467
  41.0771820   4.9726765  43.1134808  52.9029332  -3.5283605  48.2649709
  52.0156111  -3.8657684  48.3876108  53.4727883  -4.2600574  48.5018474
  46.4330486   1.1317847  45.2310952  46.3600657   1.9372818  45.7430257
  45.9907879   1.3309813  44.4058974  46.2220265   0.3689617  38.7413774
  45.4387787   0.9111297  38.8351998  46.9213010   0.8863597  39.1408015
  48.8929169   1.0304681  47.3869111  49.6057141   1.6652146  47.3145012
  48.4019198   1.1268547  46.5709113  50.6146696  -5.0644066  38.9586403
  49.6802975  -4.9442604  38.7891107  50.7923364  -5.9671600  38.6946412
  43.9441083  -1.2200876  48.2074682  44.6450542  -0.5864393  48.3604076
  43.4736198  -0.8786144  47.4470321  52.0695478  -2.8782926  36.4922589
  52.3455322  -2.9926331  37.4016463  51.1999977  -3.2765441  36.4534762
  51.7442369  -8.6656268  46.0327232  51.0913819  -8.4180361  45.3779685
  52.1222749  -9.4792130  45.6989709  48.7049543   1.3703425  40.1355402
  48.8871937   0.5525081  40.5983155  49.5282529   1.5871117  39.6980292
  49.0391708   0.2971610  37.3970451  49.5679474  -0.2135935  36.7840613
  49.3019928  -0.0185860  38.2615984  47.7929942  -7.9236457  52.5193269
  47.1170579  -8.0242328  53.1895644  48.6157576  -8.0797243  52.9829266
  39.5408801  -1.6864520  45.1405784  40.1262238  -2.4320833  45.2733689
  39.3433639  -1.3760564  46.0242448  42.3947456   1.3486727  40.1568227
  41.7257831   1.8332855  39.6732267  42.2560326   1.5955947  41.0711605
  46.5352725   3.3830470  46.7550885  47.0871033   3.5462092  47.5199970
  46.8758918   3.9734908  46.0830910  51.3863599  -1.7908272  52.6099540
  51.9303503  -1.1778314  52.1154494  50.8050444  -1.2328694  53.1266553
  49.6721112   1.3312446  43.7414567  49.5472251   0.5302186  43.2325513
  50.3300203   1.8258639  43.2528537  51.7356020  -0.8678534  45.3694117
  50.7886356  -0.9873183  45.2972444  52.0838793  -1.7556036  45.4520379
  48.7402453  -1.0725818  41.5698470  48.5927416  -2.0009110  41.7506040
  49.5655947  -1.0505727  41.0855545  52.3436575  -0.2497259  42.6563342
  53.2683123  -0.4554398  42.5187794  52.1751879  -0.4980858  43.5652684
  52.1331892   0.2688408  38.0125434  52.3068769  -0.2965169  37.2599286
  52.6260783   1.0689303  37.8304924  53.1207064  -0.4144827  35.1122332
  53.8157969   0.2061866  35.3309647  53.4630214  -1.2649476  35.3874710
  55.0198487  -2.9645122  36.6409663  55.5449811  -2.6257849  35.9158983
  54.9320840  -3.8998106  36.4572798  46.6818536   0.9488952  48.7699540
  46.9905662   0.7038099  49.6422239  47.4794018   1.1535590  48.2818410
  46.7039148   3.1026862  41.0004916  46.2644138   2.6103240  41.6937773
  47.4547265   2.5599829  40.7596991  39.1831487  -0.7061597  41.0029544
  40.0089507  -1.0057826  40.6228188  38.8325539  -1.4753975  41.4519333
  44.1513020  -1.3535129  43.0727218  43.5293029  -2.0164424  42.7729446
  44.8217887  -1.3273997  42.3900866  37.3840092  -2.7875271  41.9618478
  36.5472000  -3.2153097  41.7802479  37.3563737  -2.5942828  42.8989269
  54.7092393  -2.3312218  51.9460861  53.9187937  -2.3488079  51.4065360
  54.4725748  -1.7923924  52.7009897  54.8290268  -5.4819752  49.2593589
  54.8788273  -5.6469744  50.2009112  54.7204192  -6.3492493  48.8691470
  56.3308465  -3.0622810  49.5035611  56.0393273  -2.6992830  50.3399072
  55.7180596  -3.7755802  49.3248943  57.5304147  -5.4969930  42.0238181
  58.3651039  -5.0580126  42.1875742  57.6663276  -5.9731277  41.2046427
  54.5795653  -7.9390195  47.9715669  55.0549775  -7.7462549  47.1634520
  53.6561219  -7.8831010  47.7259053  50.4319192  -0.0245925  35.1506008
  51.3649865  -0.0900364  35.3538884  50.3442405   0.8110342  34.6920541
  53.0607209  -0.7080055  32.1109956  52.9820840  -1.0420191  33.0045713
  53.8816876  -0.2158287  32.1101428  47.4807424  -4.9204517  52.8214135
  48.4010433  -4.7425918  53.0154182  47.4457007  -5.8648471  52.6693834
  40.4769496  -7.0103482  45.4636916  40.6955506  -6.0786374  45.4824950
  40.8895270  -7.3695508  46.2491720  45.2128631  -8.0073137  53.6704727
  44.7295713  -7.2072777  53.8768616  45.2989570  -7.9965192  52.7172171
  41.1401969  -4.1168603  45.7073161  42.0945222  -4.1484660  45.6403092
  40.9414493  -4.5777979  46.5223387  41.7301351  -5.5467487  48.2743958
  42.5494240  -5.0523408  48.2978796  42.0038159  -6.4635518  48.2461526
  39.4952198   1.4251017  42.7243359  39.3606666   0.6651418  42.1581357
  39.0784260   2.1491917  42.2572147  51.4608971  -7.6402198  37.8522204
  51.4044172  -7.1833647  37.0129836  52.0137313  -8.4011514  37.6745047
  42.6521324   2.3220334  42.9361801  42.5353708   3.2665766  42.8340492
  41.8313770   2.0193895  43.3247600  52.5397858  -2.9529530  33.7818394
  53.3743462  -3.3848332  33.5995869  52.3782201  -3.1247517  34.7095288
  49.5089657  -4.1448505  54.4728296  50.3780817  -3.9707853  54.1114931
  49.0296409  -3.3254088  54.3504025  43.6775838   2.9748596  46.1517730
  44.5803084   3.0072206  46.4684225  43.4513208   2.0449047  46.1664065
  45.4329440   1.7279582  42.8127808  44.4825071   1.7281444  42.6992181
  45.7361926   0.9812317  42.2963843  61.1682133   7.5640121  43.8773571
  61.8060543   7.4446868  43.1736911  61.0502976   8.5120965  43.9361523
  57.9771840   7.5167549  43.8135095  57.6390351   7.4008614  42.9255630
  58.8461608   7.1158714  43.7936102  53.8358655   9.3703025  39.8031986
  53.2723520   9.2792962  39.0348274  53.7211050   8.5502930  40.2834479
  58.4591622   8.6702401  49.7721301  58.4480263   8.2755199  48.9001805
  58.6212262   7.9368473  50.3655072  51.3823087  10.8654217  42.6416207
  52.1744379  10.5245041  42.2262506  51.6219737  10.9749192  43.5618360
  59.4158214  13.0373993  35.1146451  58.7646194  13.6228073  34.7280465
  60.2102577  13.5680188  35.1741489  53.3413841  10.1263130  35.5133586
  54.1144717   9.5792117  35.3746461  53.6939240  10.9907379  35.7248047
  55.1798884  11.4539512  48.7200485  54.8888750  12.3585143  48.6047151
  55.8155868  11.4956040  49.4344554  56.1055090   8.8316361  45.3101845
  56.7018663   8.6072383  44.5958807  56.1630062   8.0901106  45.9127292
  55.6780119   6.2855796  33.1452035  55.9305640   5.7637317  32.3835498
  54.7404678   6.1221942  33.2478719  60.7223402   5.2891575  40.9526779
  61.5086491   4.8710998  40.6017196  60.9862106   6.1937667  41.1208427
  60.8933479  10.7264425  35.6515436  60.2579312  10.7999051  36.3636340
  60.5630885  11.3158024  34.9734515  66.1231829   5.2266808  41.8559757
  66.8557001   4.6566025  42.0897587  65.3671185   4.8388408  42.2966263
  55.3976408   8.1883902  35.3476410  55.2812666   7.5128806  36.0157495
  55.5078668   7.7016276  34.5308564  57.7407949   7.6494049  39.0523100
  57.3766156   7.1224670  39.7636021  58.5975064   7.2592518  38.8789585
  63.6457249  -1.0611618  46.3154366  63.3140574  -0.1916207  46.0915581
  63.0502863  -1.3775334  46.9948396  57.3813436   2.6783949  34.0484448
  57.5487838   3.5464185  34.4154919  57.1910605   2.8411231  33.1245737
  60.1388769  11.1400928  45.7150279  59.8389492  12.0425967  45.6066086
  59.7939828  10.8733111  46.5671431  53.5901250   7.5914725  41.7486983
  52.6651747   7.4590939  41.9564675  53.8385663   8.3708944  42.2456925
  63.5385913   3.6583468  43.3947716  62.6302790   3.5898876  43.1006477
  63.4873508   4.1355413  44.2229541  57.3602656   5.1341606  35.0331115
  57.2402282   5.5798657  35.8716595  56.6655245   5.4826924  34.4744653
  50.9510061   7.2347998  42.5830772  51.0802442   7.4882477  43.4970184
  50.2707513   7.8275706  42.2635427  55.1209549  17.9045248  38.6821246
  55.0433578  18.8553073  38.7609727  54.5171192  17.5591121  39.3396173
  57.6126778   5.0773114  51.3382613  56.8360112   5.6367034  51.3285478
  58.2517341   5.5629897  51.8597483  65.4047559   1.8599906  45.1725590
  64.7621939   2.1532440  44.5265384  64.9002487   1.7452827  45.9778786
  63.0587723   5.6063080  35.8611449  63.9705579   5.8390466  35.6859147
  62.5497370   6.1900124  35.2986528  55.8673151   7.8858567  50.9000580
  56.6087835   8.4243611  50.6235404  55.1610136   8.5124856  51.0572132
  61.3428490  10.0287707  49.4972742  61.7511846   9.5870118  48.7527374
  60.6205752   9.4540335  49.7506935  57.6959560   4.9660314  46.8706299
  58.5420755   5.3899728  47.0140948  57.6358198   4.3093939  47.5644862
  61.6657305  10.5888898  43.2525031  61.0366167  10.7534612  42.5501098
  61.2782967  11.0030508  44.0235995  65.5446537  11.5243336  40.6069394
  64.8597575  11.9042237  40.0566428  65.6290386  12.1338663  41.3401342
  60.8459006   2.6264683  48.5287472  60.6019937   3.3806743  47.9921748
  61.1218936   3.0050030  49.3634719  62.7997468   9.1703295  47.2064738
  63.0114364   9.8135055  46.5299119  62.7527217   8.3365612  46.7386668
  60.4023697   1.7821116  44.1101310  59.5408176   2.0802369  44.4018048
  60.4286132   1.9991515  43.1782343  57.2185267  10.3263306  40.5175116
  57.6823612  10.6051009  39.7279738  56.9542065   9.4246751  40.3348206
  54.1109348   9.8734788  43.4554879  54.6810705  10.3022056  42.8172363
  54.7017460   9.5917372  44.1539065  56.1554153   6.4486459  37.3264681
  56.8578196   6.9007502  37.7938607  55.8234781   5.8070277  37.9544574
  54.6034514   5.0398215  51.7015890  53.9733175   5.7214496  51.9351287
  54.4970602   4.9281297  50.7569028  49.8979487   4.7070011  42.6281814
  49.1078541   4.9627540  42.1521925  50.3890734   5.5218349  42.7333855
  63.9143296  12.0475250  45.3787095  64.7360740  11.6455438  45.0969777
  63.9105699  11.9443485  46.3303211  51.8494232   5.0714590  39.5865291
  51.0525395   5.1833285  40.1048787  51.6219824   5.4101243  38.7206182
  57.6799900  11.5959294  47.5347806  57.7444332  12.0579701  48.3705978
  56.9710824  10.9656659  47.6630116  48.1817190   4.9600502  45.0596805
  48.4325228   5.8447512  45.3254381  48.7176738   4.7805103  44.2871897
  72.0049289   8.3913999  41.7272067  71.2512998   7.8221397  41.5716071
  72.1396831   8.3576663  42.6742701  57.3947917  13.2627401  37.4026786
  57.2593592  14.1078937  37.8311634  57.9357730  13.4646679  36.6392720
  53.8815257  -0.6581019  54.0641141  53.4882203  -1.2114820  54.7388785
  54.6981397  -0.3470440  54.4547659  50.8477315  10.7802839  37.9754711
  51.3601835  11.5746089  38.1260276  51.5000028  10.0829130  37.9088313
  52.6572200  13.8968595  40.0577464  52.8338828  14.8186560  39.8698448
  53.4529033  13.5827015  40.4871844  56.7983218   0.7576860  51.6561398
  57.5392931   1.3584013  51.5765860  57.0301141   0.0154498  51.0979440
  51.9424556   5.9433227  49.9339627  51.8278071   5.0418485  50.2346726
  51.0869074   6.1896924  49.5824444  59.0216394  13.8850968  51.5327128
  58.5780248  13.0987346  51.2148033  59.6833607  14.0730118  50.8671019
  53.7803515  15.4146769  46.0587807  54.3310940  15.2863833  45.2864801
  52.9414991  15.7141658  45.7082699  61.1197632  14.1653768  49.5608529
  61.1016107  14.9862649  49.0688799  62.0417552  14.0407843  49.7858671
  57.5770686  11.6797897  50.4032038  58.1099023  10.9186185  50.1731346
  57.0484767  11.3871549  51.1456192  60.7440381  -3.2142037  45.9325679
  60.4004650  -2.3240395  45.8564790  61.1119344  -3.4040379  45.0695264
  48.8126232   9.1091494  38.7514282  49.6501454   9.5188502  38.5347989
  48.9904499   8.1690936  38.7214475  60.7090664   6.7766574  34.4398115
  60.1937287   7.5471179  34.6786502  60.4367972   6.1031710  35.0631176
  58.2937775   1.6216275  39.4983353  57.4379371   1.2323125  39.3188992
  58.7064727   1.7008236  38.6383138  59.8236921  -0.8437382  43.8974913
  59.3201717  -0.8807247  43.0842718  60.1167528   0.0655361  43.9571569
  56.0679807  -0.7598652  42.9041094  56.9332804  -0.9555843  42.5446984
  56.1357316  -0.9888300  43.8310451  65.6824938   9.5298929  36.3751288
  64.9054381   9.1910088  35.9306450  66.3616419   9.5351552  35.7006253
  60.4976967   4.6493666  36.2657896  60.1927102   4.9639815  37.1168039
  61.4507409   4.7275086  36.3085229  58.9423399  10.8083890  37.9150850
  58.4144760  10.0736649  37.6024087  58.4410901  11.5858566  37.6690818
  63.9216245   9.0032910  43.0317896  63.2639919   9.6932171  43.1198025
  64.7256644   9.3929342  43.3751882  53.6742126   1.4703556  40.2757461
  54.2485878   1.2478737  39.5430654  54.2613109   1.5392250  41.0286063
  62.7321704   7.3577283  41.0821838  63.2453585   7.9907275  41.5843548
  63.3822927   6.7578478  40.7165198  54.0011713   3.5008017  34.2953347
  53.1649026   3.8382703  34.6162621  53.8616483   3.3656997  33.3580483
  55.9764794  -1.6555195  39.0032531  55.3229206  -1.9706178  38.3789145
  55.9345268  -2.2779455  39.7292354  57.0875999   8.6264100  30.9185823
  56.1803061   8.3953353  31.1176972  57.5847031   7.8301719  31.1059804
  59.9944078  17.3361607  33.8382509  59.3205777  17.6393304  34.4467467
  60.3809900  18.1390687  33.4887966  59.2102534   4.8326738  43.3280178
  58.2925096   5.0541685  43.1701866  59.6262678   4.9073049  42.4691886
  59.9937582   6.2318154  38.4582859  60.7409401   6.7439551  38.1489981
  60.2629172   5.9102207  39.3187252  58.2664232   8.7276695  35.4409813
  57.3575452   8.4435728  35.5382283  58.2959316   9.1475773  34.5813120
  63.4983500  12.3383284  39.2100980  63.0445827  11.4974194  39.2666171
  62.8677466  12.9744683  39.5475761  62.4416419   3.2675270  40.4401648
  61.7039176   2.7552656  40.7711890  62.6943193   2.8275652  39.6284925
  61.9416439  14.1759781  40.1450799  62.2339413  14.7364838  39.4263164
  62.4515060  14.4688342  40.9003958  62.5428047  -3.9548478  41.0343417
  62.8486923  -4.8151114  40.7469332  63.2680651  -3.3630858  40.8342411
  48.8352403   6.4482209  39.4225015  48.6376803   5.8551570  38.6976082
  48.2799067   6.1434419  40.1400954  56.8149126   6.3405315  41.5419608
  56.8697736   5.3879152  41.4662085  56.0040328   6.4964754  42.0260907
  57.9640320  10.2685438  32.7797891  57.5259750   9.5521297  32.3203529
  58.7050761  10.4961553  32.2182983  54.7541486   4.9582375  39.3009987
  53.9409352   5.2576546  39.7075179  55.2500481   4.5638064  40.0184469
  56.9050064  14.9540132  41.2344252  56.8626243  15.1800978  40.3052784
  57.8212763  14.7203507  41.3830053  60.3515698   5.4224200  48.1324881
  60.7065086   5.6495673  48.9919347  60.9987829   5.7542576  47.5102136
  66.0813435   8.5442635  38.8374210  65.9431334   8.7344231  37.9095399
  65.7249654   9.3062018  39.2942261  54.2455561   2.5300731  44.9171222
  54.8854940   2.3889490  44.2194185  53.4133092   2.2435244  44.5409824
  66.1082815  10.6119162  43.8485482  66.5419321  10.5194452  44.6968536
  66.8214395  10.5876663  43.2105498  55.0215865  11.8303161  41.0306214
  55.8156463  11.3353481  40.8288789  54.3107557  11.3021024  40.6673920
  59.8410709  14.2121257  45.3818582  59.8947732  14.7812193  46.1496298
  58.9725491  14.3823142  45.0172619  51.3298628   5.9746243  37.1065967
  50.3996217   5.9130698  37.3235929  51.4256100   5.4522195  36.3102608
  51.2484177   2.5001056  39.6944209  51.5090995   3.4146389  39.5853369
  52.0701350   2.0325498  39.8440822  52.7209103   3.9138813  46.8643033
  53.3932156   3.7056175  46.2155682  51.8938889   3.7160899  46.4248266
  66.9698364  10.6542863  46.3818367  67.1634254  11.5588674  46.6277642
  66.8698982  10.1950282  47.2156952  58.6234675   0.5400754  48.8808694
  57.9762590   1.2390703  48.7873171  59.3935690   0.9736898  49.2484942
  62.0313473  10.8049606  51.9559248  61.8798979  10.5760158  51.0389331
  62.0218152  11.7620207  51.9690593  58.7998809   8.3781519  46.9405514
  59.7290869   8.5292678  46.7674481  58.3789839   8.4665539  46.0854160
  57.5987141  12.4032183  44.7104052  57.4598227  12.0350967  45.5829990
  56.8101737  12.9179822  44.5388009  58.1935293  17.5041279  36.0529588
  58.3687049  17.0329323  36.8675211  57.5068081  18.1307046  36.2810849
  59.1492356  11.7813786  42.0992889  58.8142189  11.7414556  42.9950539
  58.6496302  11.1158502  41.6263300  53.1236600   7.1881416  47.6245471
  52.9856398   6.4561655  48.2257010  54.0341524   7.0990316  47.3429658
  62.0851548   9.1269820  32.3729949  61.4680718   8.4016648  32.2763002
  61.6168036   9.8879180  32.0297023  55.7518901   6.9001375  47.1129150
  56.4618519   6.2594567  47.0715769  55.7088209   7.1514270  48.0355331
  63.7405679  13.8368728  50.0335729  63.6818226  13.1527949  49.3666312
  64.1425198  14.5787718  49.5816355  54.4647835   3.8866593  48.9324790
  53.9285192   3.4357331  49.5846386  53.8764543   4.0212502  48.1895254
  52.7596378  20.6530642  42.8269448  52.9992976  21.2849166  43.5048467
  51.9165575  20.3018682  43.1134808  53.8750094   3.3455244  31.4951253
  52.9979560   3.2244045  31.1313500  54.3507847   2.5541323  31.2430142
  63.7423087  11.8008312  48.2649709  62.8549865  11.4634234  48.3876108
  64.3121638  11.0691344  48.5018474  45.3952234   8.1332404  41.5892760
  46.0823274   7.8194134  41.0013776  45.2400363   9.0373769  41.3160012
  50.1986956   3.0222601  46.0177784  50.1145145   2.4148270  45.2828194
  49.3769662   3.5131619  46.0187280  57.2724240  16.4609765  45.2310952
  57.1994412  17.2664736  45.7430257  56.8301633  16.6601730  44.4058974
  57.0614020  15.6981535  38.7413774  56.2781542  16.2403215  38.8351998
  57.7606765  16.2155514  39.1408015  60.3710670   1.5076164  41.3847979
  60.8679369   0.7546126  41.0649049  59.5997651   1.5440481  40.8191189
  68.2240427   7.2116530  43.0266271  68.2130303   8.0941245  42.6560204
  67.3557807   6.8588081  42.8320808  59.7322924  16.3596599  47.3869111
  60.4450896  16.9944064  47.3145012  59.2412952  16.4560465  46.5709113
  61.4540451  10.2647851  38.9586403  60.5196729  10.3849314  38.7891107
  61.6317119   9.3620318  38.6946412  56.9545639   3.6493547  41.1119664
  56.5843426   3.0964588  41.8000569  57.4504731   3.0451681  40.5594664
  64.8413002   6.1065171  39.4936437  65.3073454   6.9393162  39.4196739
  65.2920502   5.6410152  40.1981695  54.7834837  14.1091042  48.2074682
  55.4844297  14.7427525  48.3604076  54.3129952  14.4505774  47.4470321
  62.9089233  12.4508992  36.4922589  63.1849077  12.3365587  37.4016463
  62.0393732  12.0526477  36.4534762  62.8129665  -1.5254242  43.5327338
  61.8992744  -1.2950016  43.7009545  63.2422766  -1.4415798  44.3841370
  62.5836123   6.6635650  46.0327232  61.9307573   6.9111557  45.3779685
  62.9616503   5.8499788  45.6989709  59.5443297  16.6995343  40.1355402
  59.7265692  15.8816999  40.5983155  60.3676283  16.9163035  39.6980292
  59.8785462  15.6263528  37.3970451  60.4073229  15.1155983  36.7840613
  60.1413682  15.3106058  38.2615984  58.6323696   7.4055461  52.5193269
  57.9564333   7.3049590  53.1895644  59.4551330   7.2494674  52.9829266
  50.3802555  13.6427397  45.1405784  50.9655992  12.8971085  45.2733689
  50.1827394  13.9531354  46.0242448  53.2341210  16.6778645  40.1568227
  52.5651586  17.1624772  39.6732267  53.0954080  16.9247865  41.0711605
  44.9720210   6.2132997  43.8610228  45.0104309   5.6796588  44.6547346
  44.4660503   5.6868203  43.2421205  57.3746479  18.7122388  46.7550885
  57.9264787  18.8754010  47.5199970  57.7152672  19.3026826  46.0830910
  52.3510972   1.0597538  47.3572770  52.4152299   1.9212369  46.9450168
  52.2878092   0.4471540  46.6245128  51.8263245   3.1320670  51.0045804
  52.4535284   2.7497748  51.6183328  50.9691164   2.9134872  51.3701497
  62.2257353  13.5383646  52.6099540  62.7697257  14.1513604  52.1154494
  61.6444198  14.0963224  53.1266553  48.6028788   4.9397100  36.9364159
  48.8982229   4.0307778  36.8831213  47.7016823   4.9184839  36.6145161
  60.5114866  16.6604364  43.7414567  60.3866006  15.8594103  43.2325513
  61.1693957  17.1550557  43.2528537  52.1323035   3.0153096  42.9191708
  51.4109620   3.6289064  42.7799181  52.9216290   3.5510861  42.8408354
  62.5749775  14.4613384  45.3694117  61.6280110  14.3418735  45.2972444
  62.9232548  13.5735882  45.4520379  54.9349348   0.3507523  49.1932359
  55.4583750   0.5969819  49.9558669  54.7161681   1.1827557  48.7735497
  50.3316629   2.6211197  37.0603484  50.0029335   1.7408576  36.8778590
  50.6856000   2.5658866  37.9479873  59.5796208  14.2566100  41.5698470
  59.4321170  13.3282807  41.7506040  60.4049701  14.2786191  41.0855545
  53.4458452   2.9084167  37.4278962  53.7854525   3.4370088  36.7057570
  53.8930573   3.2464573  38.2037528  63.1830330  15.0794659  42.6563342
  64.1076877  14.8737520  42.5187794  63.0145633  14.8311060  43.5652684
  56.1401893   1.2921218  46.8782030  55.7998713   0.4929031  47.2802710
  55.4340899   1.5922929  46.3058863  56.7918365  -1.6229470  45.3309353
  57.6144434  -2.0968992  45.2088243  57.0356428  -0.8438986  45.8308039
  55.4326599   1.4058789  35.6272255  56.1534962   1.7840041  35.1235971
  54.8091904   2.1247665  35.7307233  59.5757722   2.1103938  36.5630587
  59.7921337   2.9928575  36.2619415  59.0951789   1.7190151  35.8336229
  54.3156944   5.0689651  43.1401331  54.1701524   5.3829954  44.0325613
  53.8382147   5.6874551  42.5872230  56.1753327   2.0592199  43.1882221
  56.1614895   1.1633292  42.8514519  56.8925755   2.0662863  43.8220507
  58.0279457   2.4929539  45.2335348  57.7697235   3.4146610  45.2319679
  57.4964498   2.0959974  45.9235813  62.9725646  15.5980326  38.0125434
  63.1462524  15.0326749  37.2599286  63.4654537  16.3981221  37.8304924
  48.7902606   7.6094995  46.0788993  48.2456074   8.3854803  46.2109267
  49.6681956   7.9565800  45.9208114  55.5790222   0.9406579  38.4569791
  55.7006134   0.0123225  38.6560679  55.2892265   0.9545265  37.5448107
  58.4481413  -1.3738510  41.5936511  58.4703110  -1.3099177  40.6388491
  58.8649472  -2.2134002  41.7877017  68.8265037   8.3616749  39.6315734
  69.2696183   7.6124074  39.2334857  67.9491547   8.3526885  39.2489466
  63.9600819  14.9147091  35.1122332  64.6551723  15.5353783  35.3309647
  64.3023969  14.0642442  35.3874710  49.5768628   6.7364891  48.9719150
  48.8350364   6.8847527  49.5583780  49.2561372   6.9973157  48.1085899
  65.8592242  12.3646796  36.6409663  66.3843566  12.7034069  35.9158983
  65.7714594  11.4293811  36.4572798  57.5212290  16.2780870  48.7699540
  57.8299417  16.0330016  49.6422239  58.3187772  16.4827508  48.2818410
  57.5432902  18.4318779  41.0004916  57.1037893  17.9395158  41.6937773
  58.2941019  17.8891747  40.7596991  50.0225241  14.6230320  41.0029544
  50.8483261  14.3234092  40.6228188  49.6719293  13.8537943  41.4519333
  54.9906775  13.9756788  43.0727218  54.3686784  13.3127493  42.7729446
  55.6611641  14.0017920  42.3900866  48.2233846  12.5416647  41.9618478
  47.3865755  12.1138821  41.7802479  48.1957492  12.7349090  42.8989269
  55.0631302   2.4538576  52.6659724  55.1119457   3.3300699  52.2837493
  55.6053816   1.9115970  52.0931367  65.5486148  12.9979700  51.9460861
  64.7581691  12.9803839  51.4065360  65.3119502  13.5367993  52.7009897
  65.6684023   9.8472166  49.2593589  65.7182028   9.6822174  50.2009112
  65.5597946   8.9799425  48.8691470  54.5520281  12.5260712  36.5485678
  54.7008402  13.2096176  35.8952351  55.3586725  12.5065802  37.0635134
  62.9587785   5.8303094  50.5752896  63.8597648   5.6909559  50.2836894
  63.0335760   5.9957549  51.5151074  57.2930590   3.2069949  49.4206082
  56.4233900   3.5003515  49.1488671  57.5290071   3.7910394  50.1413346
  67.1702220  12.2669108  49.5035611  66.8787028  12.6299088  50.3399072
  66.5574351  11.5536116  49.3248943  68.3697902   9.8321987  42.0238181
  69.2044793  10.2711791  42.1875742  68.5057031   9.3560641  41.2046427
  65.4189408   7.3901722  47.9715669  65.8943529   7.5829369  47.1634520
  64.4954973   7.4460908  47.7259053  52.3072914   8.5525889  37.5546747
  52.0618956   7.6488219  37.7526957  52.4768829   8.5543040  36.6126225
  59.9969624  -0.5750434  46.9371503  60.5151568   0.1610593  46.6117991
  59.6424757  -0.2686441  47.7718262  51.5768562   4.2854247  35.0532909
  50.8837807   4.3598602  34.3972945  51.3320314   3.5214591  35.5754426
  60.2482218  -4.1550152  42.4572399  60.5283972  -4.8226963  43.0832826
  61.0332825  -3.9621056  41.9447063  58.0515687  15.0208842  34.0197426
  57.4789654  15.6399029  33.5667898  58.6248481  15.5708204  34.5537348
  64.1191077   4.2667482  46.2043975  65.0708500   4.3665580  46.2256199
  63.9494527   3.4745751  46.7142059  62.1405456   1.3523066  46.3903375
  61.5455388   1.6328078  45.6949864  61.8555153   1.8416966  47.1620117
  61.2712947  15.3045992  35.1506008  62.2043620  15.2391554  35.3538884
  61.1836160  16.1402259  34.6920541  63.9000963  14.6211863  32.1109956
  63.8214595  14.2871726  33.0045713  64.7210630  15.1133631  32.1101428
  66.5979155   7.4873602  45.3186274  66.5655475   6.5489603  45.5045958
  67.2079778   7.5657639  44.5852099  58.4362485   6.3569655  31.3613478
  59.3821590   6.2275863  31.4301896  58.0576730   5.6184317  31.8382906
  66.7473643   4.2784645  45.3644557  66.2312692   3.4943102  45.1774486
  67.6313592   3.9503362  45.5291077  64.4084370  -1.9774339  41.3240370
  64.2109191  -2.2859251  42.2083702  65.0184076  -1.2512700  41.4538300
  72.4155704   8.5489609  44.4592311  73.1459093   8.2874897  45.0200014
  71.8062650   7.8118331  44.4994379  70.4971002   6.6897471  45.0566762
  69.7704165   6.5553436  44.4483254  70.0818288   6.9974300  45.8623480
  58.3201178  10.4087401  52.8214135  59.2404187  10.5866000  53.0154182
  58.2850761   9.4643446  52.6693834  56.6205403   4.2819631  31.2968363
  55.7136858   3.9852744  31.3731077  56.8981384   3.9849449  30.4302650
  47.5383343   5.6025995  41.7467410  47.2186127   4.7491303  41.4541784
  46.9916771   5.8174573  42.5025377  51.3163251   8.3188436  45.4636916
  51.5349260   9.2505544  45.4824950  51.7289024   7.9596410  46.2491720
  58.2367468  -1.1743479  37.4512605  57.4268197  -1.5196394  37.8267851
  58.9251885  -1.4835935  38.0400216  60.1658017  -2.0965432  39.0736901
  60.7189055  -1.6769979  39.7326924  60.4028103  -3.0229684  39.1159857
  56.1891116   3.8921642  54.8539665  56.0887843   4.8415998  54.7851756
  55.9712658   3.5639880  53.9815735  55.3904187   1.1406567  31.4380343
  56.2523351   1.4661465  31.6976160  55.5754531   0.3538062  30.9253408
  47.4071603   9.2228906  43.7160531  46.7135074   8.8082859  43.2030486
  48.1544594   9.2649443  43.1193950  63.5436824   0.0135093  38.5815566
  62.9635493   0.6719897  38.1993618  63.2772756  -0.8087562  38.1702983
  61.9940390  -0.5859849  40.7836886  62.4940168  -0.4743315  39.9751205
  62.6375998  -0.8898796  41.4237694  56.0522386   7.3218780  53.6704727
  55.5689468   8.1219140  53.8768616  56.1383325   7.3326725  52.7172171
  49.3208346   9.1547160  41.5926546  49.2979034   9.2534847  40.6408429
  49.6308982  10.0012311  41.9143712  51.9795723  11.2123315  45.7073161
  52.9338977  11.1807257  45.6403092  51.7808247  10.7513939  46.5223387
  52.5695106   9.7824431  48.2743958  53.3887995  10.2768510  48.2978796
  52.8431913   8.8656399  48.2461526  62.3261702   2.1735183  37.6371914
  61.4387557   2.4584834  37.4192109  62.7415691   2.0128947  36.7899191
  65.6776238   2.1981704  41.3526253  66.4536628   2.6878157  41.6250870
  64.9524372   2.6239759  41.8098123  68.1148796   2.9109324  42.4100194
  68.7093287   2.6705060  41.6993502  68.1875380   2.1916454  43.0373730
  50.3345952  16.7542935  42.7243359  50.2000420  15.9943335  42.1581357
  49.9178014  17.4783834  42.2572147  61.4704915  11.9379858  31.7319934
  62.1740765  12.1429861  32.3477589  60.7467564  12.5056620  31.9969017
  62.3002725   7.6889719  37.8522204  62.2437927   8.1458271  37.0129836
  62.8531068   6.9280404  37.6745047  66.1107531   3.4779451  38.6772324
  65.8544466   3.0776087  39.5080531  65.4860399   4.1923245  38.5522463
  70.4219869   6.2175524  41.1843615  69.8619427   6.2868714  41.9575177
  69.8163373   6.0416509  40.4643111  53.4915078  17.6512252  42.9361801
  53.3747462  18.5957684  42.8340492  52.6707524  17.3485813  43.3247600
  63.3791613  12.3762387  33.7818394  64.2137217  11.9443586  33.5995869
  63.2175956  12.2044401  34.7095288  63.0337505   8.8794501  35.1474733
  62.9786309   8.7138772  34.2063177  62.4083560   9.5870534  35.3036923
  47.8230020   4.1162565  48.9736155  48.4688883   3.6061519  49.4623381
  47.6147171   4.8531247  49.5479581  60.3483412  11.1843412  54.4728296
  61.2174572  11.3584065  54.1114931  59.8690163  12.0037829  54.3504025
  56.3433630  -1.6197390  34.7260052  56.3312300  -0.6755550  34.8828323
  57.2357052  -1.8027245  34.4319513  54.5169592  18.3040513  46.1517730
  55.4196839  18.3364124  46.4684225  54.2906962  17.3740964  46.1664065
  56.2723194  17.0571500  42.8127808  55.3218825  17.0573362  42.6992181
  56.5755680  16.3104235  42.2963843  60.1585750  -5.0254614  38.9805988
  59.3918146  -5.5796127  39.1262671  60.5696455  -4.9532745  39.8420140
  52.1627511   1.2630182  53.0711170  53.0258972   0.9066987  53.2814494
  51.5892921   0.9244077  53.7586574  72.0075888  22.8932038  43.8773571
  72.6454298  22.7738786  43.1736911  71.8896731  23.8412882  43.9361523
  68.8165594  22.8459467  43.8135095  68.4784106  22.7300531  42.9255630
  69.6855362  22.4450632  43.7936102  64.6752410  24.6994943  39.8031986
  64.1117275  24.6084880  39.0348274  64.5604805  23.8794847  40.2834479
  69.2985377  23.9994318  49.7721301  69.2874018  23.6047117  48.9001805
  69.4606016  23.2660391  50.3655072  62.2216842  26.1946135  42.6416207
  63.0138134  25.8536959  42.2262506  62.4613492  26.3041110  43.5618360
  70.2551968  28.3665911  35.1146451  69.6039948  28.9519991  34.7280465
  71.0496331  28.8972106  35.1741489  64.1807596  25.4555048  35.5133586
  64.9538472  24.9084035  35.3746461  64.5332994  26.3199297  35.7248047
  66.0192638  26.7831430  48.7200485  65.7282504  27.6877061  48.6047151
  66.6549622  26.8247958  49.4344554  66.9448845  24.1608279  45.3101845
  67.5412417  23.9364301  44.5958807  67.0023817  23.4193024  45.9127292
  66.5173873  21.6147714  33.1452035  66.7699394  21.0929235  32.3835498
  65.5798432  21.4513859  33.2478719  71.5617156  20.6183492  40.9526779
  72.3480245  20.2002915  40.6017196  71.8255861  21.5229584  41.1208427
  71.7327234  26.0556343  35.6515436  71.0973067  26.1290969  36.3636340
  71.4024640  26.6449941  34.9734515  76.9625583  20.5558725  41.8559757
  77.6950755  19.9857942  42.0897587  76.2064939  20.1680326  42.2966263
  66.2370162  23.5175820  35.3476410  66.1206420  22.8420723  36.0157495
  66.3472422  23.0308194  34.5308564  68.5801703  22.9785967  39.0523100
  68.2159910  22.4516588  39.7636021  69.4368819  22.5884436  38.8789585
  74.4851004  14.2680300  46.3154366  74.1534328  15.1375711  46.0915581
  73.8896617  13.9516584  46.9948396  68.2207190  18.0075867  34.0484448
  68.3881592  18.8756103  34.4154919  68.0304359  18.1703148  33.1245737
  70.9782523  26.4692846  45.7150279  70.6783246  27.3717884  45.6066086
  70.6333583  26.2025029  46.5671431  64.4295005  22.9206642  41.7486983
  63.5045501  22.7882856  41.9564675  64.6779418  23.7000862  42.2456925
  74.3779667  18.9875386  43.3947716  73.4696544  18.9190794  43.1006477
  74.3267263  19.4647331  44.2229541  68.1996411  20.4633524  35.0331115
  68.0796036  20.9090575  35.8716595  67.5048999  20.8118842  34.4744653
  61.7903816  22.5639916  42.5830772  61.9196197  22.8174395  43.4970184
  61.1101267  23.1567624  42.2635427  65.9603303  33.2337166  38.6821246
  65.8827333  34.1844991  38.7609727  65.3564947  32.8883038  39.3396173
  68.4520533  20.4065031  51.3382613  67.6753867  20.9658951  51.3285478
  69.0911096  20.8921814  51.8597483  76.2441313  17.1891824  45.1725590
  75.6015694  17.4824357  44.5265384  75.7396242  17.0744744  45.9778786
  73.8981477  20.9354997  35.8611449  74.8099333  21.1682384  35.6859147
  73.3891124  21.5192042  35.2986528  66.7066905  23.2150485  50.9000580
  67.4481589  23.7535529  50.6235404  66.0003891  23.8416773  51.0572132
  72.1822245  25.3579625  49.4972742  72.5905601  24.9162036  48.7527374
  71.4599506  24.7832253  49.7506935  68.5353315  20.2952232  46.8706299
  69.3814510  20.7191645  47.0140948  68.4751952  19.6385856  47.5644862
  72.5051059  25.9180816  43.2525031  71.8759922  26.0826530  42.5501098
  72.1176721  26.3322425  44.0235995  76.3840291  26.8535254  40.6069394
  75.6991329  27.2334155  40.0566428  76.4684141  27.4630580  41.3401342
  71.6852760  17.9556600  48.5287472  71.4413692  18.7098661  47.9921748
  71.9612691  18.3341948  49.3634719  73.6391223  24.4995213  47.2064738
  73.8508118  25.1426973  46.5299119  73.5920971  23.6657529  46.7386668
  71.2417452  17.1113033  44.1101310  70.3801931  17.4094287  44.4018048
  71.2679886  17.3283432  43.1782343  68.0579021  25.6555224  40.5175116
  68.5217367  25.9342927  39.7279738  67.7935819  24.7538668  40.3348206
  64.9503102  25.2026705  43.4554879  65.5204459  25.6313974  42.8172363
  65.5411214  24.9209290  44.1539065  66.9947907  21.7778376  37.3264681
  67.6971951  22.2299420  37.7938607  66.6628536  21.1362195  37.9544574
  65.4428269  20.3690133  51.7015890  64.8126929  21.0506414  51.9351287
  65.3364357  20.2573214  50.7569028  60.7373241  20.0361929  42.6281814
  59.9472295  20.2919457  42.1521925  61.2284489  20.8510267  42.7333855
  74.7537051  27.3767168  45.3787095  75.5754495  26.9747355  45.0969777
  74.7499454  27.2735402  46.3303211  62.6887987  20.4006508  39.5865291
  61.8919150  20.5125202  40.1048787  62.4613579  20.7393160  38.7206182
  68.5193654  26.9251211  47.5347806  68.5838087  27.3871619  48.3705978
  67.8104578  26.2948576  47.6630116  59.0210944  20.2892419  45.0596805
  59.2718983  21.1739429  45.3254381  59.5570493  20.1097021  44.2871897
  82.8443044  23.7205917  41.7272067  82.0906752  23.1513315  41.5716071
  82.9790585  23.6868581  42.6742701  68.2341672  28.5919319  37.4026786
  68.0987347  29.4370855  37.8311634  68.7751484  28.7938597  36.6392720
  64.7209012  14.6710899  54.0641141  64.3275957  14.1177097  54.7388785
  65.5375152  14.9821477  54.4547659  61.6871069  26.1094757  37.9754711
  62.1995590  26.9038007  38.1260276  62.3393782  25.4121047  37.9088313
  63.4965954  29.2260513  40.0577464  63.6732582  30.1478478  39.8698448
  64.2922788  28.9118932  40.4871844  67.6376973  16.0868778  51.6561398
  68.3786686  16.6875931  51.5765860  67.8694895  15.3446416  51.0979440
  62.7818311  21.2725145  49.9339627  62.6671826  20.3710402  50.2346726
  61.9262828  21.5188842  49.5824444  69.8610148  29.2142885  51.5327128
  69.4174002  28.4279264  51.2148033  70.5227362  29.4022036  50.8671019
  64.6197269  30.7438687  46.0587807  65.1704695  30.6155750  45.2864801
  63.7808745  31.0433576  45.7082699  71.9591386  29.4945685  49.5608529
  71.9409862  30.3154566  49.0688799  72.8811306  29.3699761  49.7858671
  68.4164441  27.0089815  50.4032038  68.9492777  26.2478103  50.1731346
  67.8878522  26.7163467  51.1456192  71.5834135  12.1149881  45.9325679
  71.2398405  13.0051522  45.8564790  71.9513098  11.9251538  45.0695264
  59.6519986  24.4383411  38.7514282  60.4895208  24.8480420  38.5347989
  59.8298254  23.4982853  38.7214475  71.5484418  22.1058492  34.4398115
  71.0331042  22.8763096  34.6786502  71.2761727  21.4323628  35.0631176
  69.1331529  16.9508193  39.4983353  68.2773126  16.5615043  39.3188992
  69.5458481  17.0300153  38.6383138  70.6630676  14.4854536  43.8974913
  70.1595471  14.4484671  43.0842718  70.9561283  15.3947279  43.9571569
  66.9073562  14.5693266  42.9041094  67.7726559  14.3736074  42.5446984
  66.9751071  14.3403617  43.8310451  76.5218692  24.8590846  36.3751288
  75.7448135  24.5202006  35.9306450  77.2010173  24.8643470  35.7006253
  71.3370721  19.9785584  36.2657896  71.0320857  20.2931733  37.1168039
  72.2901164  20.0567004  36.3085229  69.7817153  26.1375807  37.9150850
  69.2538515  25.4028567  37.6024087  69.2804656  26.9150484  37.6690818
  74.7609999  24.3324828  43.0317896  74.1033674  25.0224089  43.1198025
  75.5650398  24.7221260  43.3751882  64.5135881  16.7995474  40.2757461
  65.0879633  16.5770655  39.5430654  65.1006863  16.8684168  41.0286063
  73.5715458  22.6869200  41.0821838  74.0847340  23.3199192  41.5843548
  74.2216682  22.0870396  40.7165198  64.8405468  18.8299935  34.2953347
  64.0042780  19.1674621  34.6162621  64.7010238  18.6948914  33.3580483
  66.8158549  13.6736722  39.0032531  66.1622961  13.3585740  38.3789145
  66.7739023  13.0512463  39.7292354  67.9269753  23.9556018  30.9185823
  67.0196815  23.7245271  31.1176972  68.4240785  23.1593637  31.1059804
  70.8337832  32.6653525  33.8382509  70.1599531  32.9685221  34.4467467
  71.2203654  33.4682605  33.4887966  70.0496289  20.1618656  43.3280178
  69.1318850  20.3833603  43.1701866  70.4656433  20.2364966  42.4691886
  70.8331337  21.5610072  38.4582859  71.5803156  22.0731469  38.1489981
  71.1022926  21.2394124  39.3187252  69.1057987  24.0568612  35.4409813
  68.1969206  23.7727645  35.5382283  69.1353071  24.4767691  34.5813120
  74.3377254  27.6675202  39.2100980  73.8839581  26.8266112  39.2666171
  73.7071221  28.3036600  39.5475761  73.2810174  18.5967188  40.4401648
  72.5432931  18.0844574  40.7711890  73.5336947  18.1567570  39.6284925
  72.7810194  29.5051699  40.1450799  73.0733168  30.0656756  39.4263164
  73.2908814  29.7980260  40.9003958  73.3821801  11.3743440  41.0343417
  73.6880678  10.5140803  40.7469332  74.1074406  11.9661060  40.8342411
  59.6746157  21.7774127  39.4225015  59.4770557  21.1843487  38.6976082
  59.1192821  21.4726337  40.1400954  67.6542881  21.6697233  41.5419608
  67.7091491  20.7171069  41.4662085  66.8434083  21.8256672  42.0260907
  68.8034075  25.5977356  32.7797891  68.3653505  24.8813215  32.3203529
  69.5444516  25.8253471  32.2182983  65.5935241  20.2874293  39.3009987
  64.7803106  20.5868463  39.7075179  66.0894235  19.8929982  40.0184469
  67.7443819  30.2832050  41.2344252  67.7019997  30.5092896  40.3052784
  68.6606518  30.0495424  41.3830053  71.1909452  20.7516117  48.1324881
  71.5458840  20.9787590  48.9919347  71.8381584  21.0834494  47.5102136
  76.9207189  23.8734553  38.8374210  76.7825088  24.0636149  37.9095399
  76.5643408  24.6353936  39.2942261  65.0849316  17.8592648  44.9171222
  65.7248695  17.7181407  44.2194185  64.2526846  17.5727162  44.5409824
  76.9476569  25.9411080  43.8485482  77.3813076  25.8486369  44.6968536
  77.6608150  25.9168581  43.2105498  65.8609619  27.1595079  41.0306214
  66.6550218  26.6645399  40.8288789  65.1501312  26.6312942  40.6673920
  70.6804464  29.5413174  45.3818582  70.7341486  30.1104111  46.1496298
  69.8119245  29.7115059  45.0172619  62.1692383  21.3038160  37.1065967
  61.2389971  21.2422616  37.3235929  62.2649855  20.7814113  36.3102608
  62.0877932  17.8292973  39.6944209  62.3484749  18.7438306  39.5853369
  62.9095104  17.3617416  39.8440822  63.5602857  19.2430730  46.8643033
  64.2325911  19.0348093  46.2155682  62.7332644  19.0452816  46.4248266
  77.8092119  25.9834781  46.3818367  78.0028009  26.8880591  46.6277642
  77.7092737  25.5242200  47.2156952  69.4628429  15.8692671  48.8808694
  68.8156344  16.5682621  48.7873171  70.2329445  16.3028815  49.2484942
  72.8707227  26.1341524  51.9559248  72.7192734  25.9052075  51.0389331
  72.8611907  27.0912125  51.9690593  69.6392564  23.7073436  46.9405514
  70.5684624  23.8584596  46.7674481  69.2183594  23.7957457  46.0854160
  68.4380895  27.7324101  44.7104052  68.2991981  27.3642885  45.5829990
  67.6495492  28.2471740  44.5388009  69.0329047  32.8333197  36.0529588
  69.2080803  32.3621240  36.8675211  68.3461835  33.4598963  36.2810849
  69.9886111  27.1105703  42.0992889  69.6535943  27.0706473  42.9950539
  69.4890056  26.4450419  41.6263300  63.9630355  22.5173333  47.6245471
  63.8250153  21.7853572  48.2257010  64.8735278  22.4282233  47.3429658
  72.9245302  24.4561738  32.3729949  72.3074473  23.7308566  32.2763002
  72.4561791  25.2171098  32.0297023  66.5912655  22.2293293  47.1129150
  67.3012274  21.5886485  47.0715769  66.5481963  22.4806188  48.0355331
  74.5799434  29.1660646  50.0335729  74.5211980  28.4819866  49.3666312
  74.9818952  29.9079636  49.5816355  65.3041589  19.2158511  48.9324790
  64.7678946  18.7649249  49.5846386  64.7158298  19.3504419  48.1895254
  63.5990133  35.9822560  42.8269448  63.8386731  36.6141084  43.5048467
  62.7559329  35.6310600  43.1134808  64.7143848  18.6747162  31.4951253
  63.8373314  18.5535963  31.1313500  65.1901601  17.8833240  31.2430142
  74.5816841  27.1300230  48.2649709  73.6943620  26.7926152  48.3876108
  75.1515392  26.3983261  48.5018474  56.2345988  23.4624322  41.5892760
  56.9217028  23.1486052  41.0013776  56.0794117  24.3665686  41.3160012
  61.0380710  18.3514518  46.0177784  60.9538899  17.7440188  45.2828194
  60.2163417  18.8423537  46.0187280  68.1117995  31.7901682  45.2310952
  68.0388166  32.5956654  45.7430257  67.6695388  31.9893648  44.4058974
  67.9007774  31.0273452  38.7413774  67.1175296  31.5695133  38.8351998
  68.6000519  31.5447432  39.1408015  71.2104424  16.8368082  41.3847979
  71.7073124  16.0838044  41.0649049  70.4391406  16.8732398  40.8191189
  79.0634182  22.5408447  43.0266271  79.0524058  23.4233163  42.6560204
  78.1951561  22.1879998  42.8320808  70.5716678  31.6888516  47.3869111
  71.2844650  32.3235981  47.3145012  70.0806707  31.7852382  46.5709113
  72.2934205  25.5939769  38.9586403  71.3590484  25.7141232  38.7891107
  72.4710873  24.6912236  38.6946412  67.7939393  18.9785465  41.1119664
  67.4237181  18.4256505  41.8000569  68.2898486  18.3743598  40.5594664
  75.6806756  21.4357088  39.4936437  76.1467209  22.2685080  39.4196739
  76.1314257  20.9702070  40.1981695  65.6228592  29.4382960  48.2074682
  66.3238051  30.0719443  48.3604076  65.1523707  29.7797691  47.4470321
  73.7482987  27.7800910  36.4922589  74.0242831  27.6657504  37.4016463
  72.8787486  27.3818394  36.4534762  73.6523419  13.8037675  43.5327338
  72.7386499  14.0341902  43.7009545  74.0816521  13.8876119  44.3841370
  73.4229878  21.9927567  46.0327232  72.7701328  22.2403475  45.3779685
  73.8010258  21.1791705  45.6989709  70.3837051  32.0287260  40.1355402
  70.5659446  31.2108916  40.5983155  71.2070037  32.2454953  39.6980292
  70.7179217  30.9555446  37.3970451  71.2466983  30.4447900  36.7840613
  70.9807437  30.6397976  38.2615984  69.4717451  22.7347378  52.5193269
  68.7958088  22.6341508  53.1895644  70.2945085  22.5786592  52.9829266
  61.2196310  28.9719315  45.1405784  61.8049747  28.2263003  45.2733689
  61.0221148  29.2823272  46.0242448  64.0734965  32.0070562  40.1568227
  63.4045340  32.4916690  39.6732267  63.9347835  32.2539783  41.0711605
  55.8113964  21.5424915  43.8610228  55.8498064  21.0088506  44.6547346
  55.3054257  21.0160121  43.2421205  68.2140234  34.0414306  46.7550885
  68.7658542  34.2045927  47.5199970  68.5546427  34.6318744  46.0830910
  63.1904727  16.3889456  47.3572770  63.2546053  17.2504287  46.9450168
  63.1271847  15.7763457  46.6245128  62.6656999  18.4612588  51.0045804
  63.2929038  18.0789665  51.6183328  61.8084918  18.2426790  51.3701497
  73.0651108  28.8675563  52.6099540  73.6091012  29.4805522  52.1154494
  72.4837953  29.4255142  53.1266553  59.4422542  20.2689017  36.9364159
  59.7375983  19.3599696  36.8831213  58.5410578  20.2476757  36.6145161
  71.3508621  31.9896281  43.7414567  71.2259760  31.1886021  43.2325513
  72.0087712  32.4842475  43.2528537  62.9716789  18.3445014  42.9191708
  62.2503375  18.9580982  42.7799181  63.7610045  18.8802779  42.8408354
  73.4143529  29.7905301  45.3694117  72.4673865  29.6710653  45.2972444
  73.7626302  28.9027799  45.4520379  65.7743103  15.6799440  49.1932359
  66.2977504  15.9261737  49.9558669  65.5555436  16.5119475  48.7735497
  61.1710384  17.9503115  37.0603484  60.8423090  17.0700494  36.8778590
  61.5249754  17.8950784  37.9479873  70.4189962  29.5858018  41.5698470
  70.2714925  28.6574725  41.7506040  71.2443456  29.6078108  41.0855545
  64.2852207  18.2376085  37.4278962  64.6248279  18.7662006  36.7057570
  64.7324327  18.5756491  38.2037528  74.0224084  30.4086576  42.6563342
  74.9470632  30.2029438  42.5187794  73.8539388  30.1602978  43.5652684
  66.9795648  16.6213135  46.8782030  66.6392468  15.8220948  47.2802710
  66.2734654  16.9214846  46.3058863  67.6312119  13.7062448  45.3309353
  68.4538189  13.2322926  45.2088243  67.8750183  14.4852932  45.8308039
  66.2720354  16.7350706  35.6272255  66.9928716  17.1131959  35.1235971
  65.6485658  17.4539583  35.7307233  70.4151477  17.4395855  36.5630587
  70.6315091  18.3220493  36.2619415  69.9345544  17.0482069  35.8336229
  65.1550698  20.3981568  43.1401331  65.0095279  20.7121872  44.0325613
  64.6775902  21.0166469  42.5872230  67.0147081  17.3884116  43.1882221
  67.0008650  16.4925210  42.8514519  67.7319509  17.3954780  43.8220507
  68.8673212  17.8221457  45.2335348  68.6090990  18.7438527  45.2319679
  68.3358252  17.4251891  45.9235813  73.8119401  30.9272244  38.0125434
  73.9856278  30.3618666  37.2599286  74.3048292  31.7273139  37.8304924
  59.6296360  22.9386913  46.0788993  59.0849828  23.7146721  46.2109267
  60.5075710  23.2857717  45.9208114  66.4183977  16.2698497  38.4569791
  66.5399888  15.3415143  38.6560679  66.1286019  16.2837183  37.5448107
  69.2875167  13.9553407  41.5936511  69.3096864  14.0192740  40.6388491
  69.7043226  13.1157916  41.7877017  79.6658792  23.6908667  39.6315734
  80.1089938  22.9415992  39.2334857  78.7885302  23.6818803  39.2489466
  74.7994573  30.2439008  35.1122332  75.4945478  30.8645701  35.3309647
  75.1417723  29.3934359  35.3874710  60.4162382  22.0656809  48.9719150
  59.6744118  22.2139445  49.5583780  60.0955126  22.3265075  48.1085899
  76.6985996  27.6938714  36.6409663  77.2237320  28.0325986  35.9158983
  76.6108349  26.7585729  36.4572798  68.3606045  31.6072787  48.7699540
  68.6693171  31.3621934  49.6422239  69.1581527  31.8119426  48.2818410
  68.3826657  33.7610697  41.0004916  67.9431647  33.2687076  41.6937773
  69.1334774  33.2183665  40.7596991  60.8618996  29.9522238  41.0029544
  61.6877016  29.6526010  40.6228188  60.5113048  29.1829860  41.4519333
  65.8300529  29.3048706  43.0727218  65.2080538  28.6419411  42.7729446
  66.5005396  29.3309838  42.3900866  59.0627601  27.8708564  41.9618478
  58.2259509  27.4430739  41.7802479  59.0351246  28.0641008  42.8989269
  65.9025057  17.7830494  52.6659724  65.9513212  18.6592617  52.2837493
  66.4447571  17.2407887  52.0931367  76.3879902  28.3271617  51.9460861
  75.5975446  28.3095756  51.4065360  76.1513257  28.8659911  52.7009897
  76.5077777  25.1764084  49.2593589  76.5575782  25.0114091  50.2009112
  76.3991701  24.3091343  48.8691470  65.3914036  27.8552629  36.5485678
  65.5402156  28.5388094  35.8952351  66.1980479  27.8357720  37.0635134
  73.7981540  21.1595012  50.5752896  74.6991402  21.0201477  50.2836894
  73.8729514  21.3249467  51.5151074  68.1324345  18.5361867  49.4206082
  67.2627654  18.8295433  49.1488671  68.3683825  19.1202312  50.1413346
  78.0095974  27.5961025  49.5035611  77.7180782  27.9591006  50.3399072
  77.3968105  26.8828034  49.3248943  79.2091656  25.1613905  42.0238181
  80.0438548  25.6003709  42.1875742  79.3450785  24.6852558  41.2046427
  76.2583162  22.7193640  47.9715669  76.7337284  22.9121286  47.1634520
  75.3348728  22.7752826  47.7259053  63.1466669  23.8817807  37.5546747
  62.9012711  22.9780137  37.7526957  63.3162583  23.8834958  36.6126225
  70.8363379  14.7541483  46.9371503  71.3545323  15.4902510  46.6117991
  70.4818512  15.0605477  47.7718262  62.4162316  19.6146165  35.0532909
  61.7231561  19.6890520  34.3972945  62.1714068  18.8506508  35.5754426
  71.0875973  11.1741766  42.4572399  71.3677727  10.5064955  43.0832826
  71.8726580  11.3670862  41.9447063  68.8909441  30.3500760  34.0197426
  68.3183409  30.9690947  33.5667898  69.4642235  30.9000122  34.5537348
  74.9584831  19.5959400  46.2043975  75.9102254  19.6957498  46.2256199
  74.7888282  18.8037669  46.7142059  72.9799211  16.6814983  46.3903375
  72.3849143  16.9619996  45.6949864  72.6948907  17.1708884  47.1620117
  72.1106701  30.6337910  35.1506008  73.0437374  30.5683472  35.3538884
  72.0229914  31.4694177  34.6920541  74.7394718  29.9503780  32.1109956
  74.6608349  29.6163644  33.0045713  75.5604385  30.4425548  32.1101428
  77.4372909  22.8165520  45.3186274  77.4049229  21.8781520  45.5045958
  78.0473533  22.8949556  44.5852099  69.2756240  21.6861573  31.3613478
  70.2215345  21.5567781  31.4301896  68.8970485  20.9476235  31.8382906
  77.5867398  19.6076563  45.3644557  77.0706446  18.8235020  45.1774486
  78.4707346  19.2795280  45.5291077  75.2478125  13.3517579  41.3240370
  75.0502946  13.0432667  42.2083702  75.8577830  14.0779218  41.4538300
  83.2549459  23.8781527  44.4592311  83.9852847  23.6166815  45.0200014
  82.6456404  23.1410248  44.4994379  81.3364756  22.0189389  45.0566762
  80.6097920  21.8845354  44.4483254  80.9212043  22.3266218  45.8623480
  69.1594932  25.7379319  52.8214135  70.0797942  25.9157918  53.0154182
  69.1244516  24.7935364  52.6693834  67.4599157  19.6111549  31.2968363
  66.5530613  19.3144662  31.3731077  67.7375138  19.3141367  30.4302650
  58.3777097  20.9317912  41.7467410  58.0579882  20.0783221  41.4541784
  57.8310526  21.1466491  42.5025377  62.1557005  23.6480353  45.4636916
  62.3743015  24.5797461  45.4824950  62.5682779  23.2888328  46.2491720
  69.0761223  14.1548439  37.4512605  68.2661951  13.8095524  37.8267851
  69.7645640  13.8455982  38.0400216  71.0051771  13.2326486  39.0736901
  71.5582810  13.6521939  39.7326924  71.2421857  12.3062234  39.1159857
  67.0284870  19.2213559  54.8539665  66.9281597  20.1707916  54.7851756
  66.8106412  18.8931798  53.9815735  66.2297942  16.4698484  31.4380343
  67.0917106  16.7953383  31.6976160  66.4148286  15.6829980  30.9253408
  58.2465357  24.5520824  43.7160531  57.5528829  24.1374777  43.2030486
  58.9938348  24.5941360  43.1193950  74.3830578  15.3427011  38.5815566
  73.8029247  16.0011815  38.1993618  74.1166511  14.5204355  38.1702983
  72.8334145  14.7432068  40.7836886  73.3333923  14.8548603  39.9751205
  73.4769753  14.4393121  41.4237694  66.8916140  22.6510698  53.6704727
  66.4083222  23.4511058  53.8768616  66.9777079  22.6618643  52.7172171
  60.1602100  24.4839078  41.5926546  60.1372788  24.5826765  40.6408429
  60.4702737  25.3304229  41.9143712  62.8189478  26.5415233  45.7073161
  63.7732731  26.5099175  45.6403092  62.6202001  26.0805856  46.5223387
  63.4088860  25.1116349  48.2743958  64.2281749  25.6060427  48.2978796
  63.6825668  24.1948317  48.2461526  73.1655456  17.5027101  37.6371914
  72.2781311  17.7876752  37.4192109  73.5809445  17.3420864  36.7899191
  76.5169992  17.5273622  41.3526253  77.2930382  18.0170075  41.6250870
  75.7918127  17.9531676  41.8098123  78.9542551  18.2401241  42.4100194
  79.5487042  17.9996977  41.6993502  79.0269135  17.5208372  43.0373730
  61.1739707  32.0834852  42.7243359  61.0394175  31.3235253  42.1581357
  60.7571769  32.8075752  42.2572147  72.3098670  27.2671776  31.7319934
  73.0134520  27.4721778  32.3477589  71.5861318  27.8348538  31.9969017
  73.1396480  23.0181637  37.8522204  73.0831681  23.4750188  37.0129836
  73.6924822  22.2572322  37.6745047  76.9501286  18.8071369  38.6772324
  76.6938220  18.4068005  39.5080531  76.3254154  19.5215163  38.5522463
  81.2613624  21.5467442  41.1843615  80.7013182  21.6160631  41.9575177
  80.6557127  21.3708427  40.4643111  64.3308833  32.9804169  42.9361801
  64.2141217  33.9249602  42.8340492  63.5101279  32.6777731  43.3247600
  74.2185367  27.7054305  33.7818394  75.0530971  27.2735503  33.5995869
  74.0569710  27.5336319  34.7095288  73.8731259  24.2086418  35.1474733
  73.8180063  24.0430690  34.2063177  73.2477315  24.9162451  35.3036923
  58.6623774  19.4454483  48.9736155  59.3082638  18.9353437  49.4623381
  58.4540925  20.1823164  49.5479581  71.1877166  26.5135330  54.4728296
  72.0568326  26.6875982  54.1114931  70.7083918  27.3329747  54.3504025
  67.1827385  13.7094527  34.7260052  67.1706055  14.6536367  34.8828323
  68.0750807  13.5264673  34.4319513  65.3563347  33.6332431  46.1517730
  66.2590593  33.6656041  46.4684225  65.1300717  32.7032882  46.1664065
  67.1116949  32.3863418  42.8127808  66.1612580  32.3865279  42.6992181
  67.4149435  31.6396152  42.2963843  70.9979504  10.3037304  38.9805988
  70.2311900   9.7495791  39.1262671  71.4090209  10.3759173  39.8420140
  63.0021265  16.5922100  53.0711170  63.8652727  16.2358905  53.2814494
  62.4286676  16.2535995  53.7586574  82.8469642  38.2223956  43.8773571
  83.4848052  38.1030703  43.1736911  82.7290485  39.1704800  43.9361523
  79.6559348  38.1751384  43.8135095  79.3177860  38.0592449  42.9255630
  80.5249117  37.7742549  43.7936102  75.5146164  40.0286861  39.8031986
  74.9511029  39.9376798  39.0348274  75.3998559  39.2086765  40.2834479
  80.1379131  39.3286236  49.7721301  80.1267772  38.9339034  48.9001805
  80.2999771  38.5952309  50.3655072  73.0610596  41.5238052  42.6416207
  73.8531888  41.1828877  42.2262506  73.3007246  41.6333027  43.5618360
  81.0945723  43.6957828  35.1146451  80.4433703  44.2811909  34.7280465
  81.8890086  44.2264023  35.1741489  75.0201350  40.7846965  35.5133586
  75.7932226  40.2375953  35.3746461  75.3726749  41.6491215  35.7248047
  76.8586393  42.1123348  48.7200485  76.5676259  43.0168979  48.6047151
  77.4943377  42.1539875  49.4344554  77.7842599  39.4900196  45.3101845
  78.3806172  39.2656219  44.5958807  77.8417571  38.7484942  45.9127292
  77.3567628  36.9439632  33.1452035  77.6093149  36.4221153  32.3835498
  76.4192187  36.7805777  33.2478719  82.4010911  35.9475410  40.9526779
  83.1874000  35.5294833  40.6017196  82.6649615  36.8521502  41.1208427
  82.5720988  41.3848260  35.6515436  81.9366821  41.4582887  36.3636340
  82.2418394  41.9741859  34.9734515  87.8019338  35.8850643  41.8559757
  88.5344510  35.3149860  42.0897587  87.0458694  35.4972244  42.2966263
  77.0763917  38.8467738  35.3476410  76.9600175  38.1712641  36.0157495
  77.1866176  38.3600111  34.5308564  79.4195458  38.3077885  39.0523100
  79.0553665  37.7808506  39.7636021  80.2762573  37.9176354  38.8789585
  85.3244758  29.5972217  46.3154366  84.9928083  30.4667628  46.0915581
  84.7290372  29.2808501  46.9948396  79.0600945  33.3367784  34.0484448
  79.2275347  34.2048021  34.4154919  78.8698114  33.4995066  33.1245737
  81.8176278  41.7984763  45.7150279  81.5177001  42.7009802  45.6066086
  81.4727337  41.5316946  46.5671431  75.2688759  38.2498560  41.7486983
  74.3439256  38.1174774  41.9564675  75.5173172  39.0292779  42.2456925
  85.2173421  34.3167303  43.3947716  84.3090299  34.2482712  43.1006477
  85.1661017  34.7939248  44.2229541  79.0390165  35.7925442  35.0331115
  78.9189791  36.2382493  35.8716595  78.3442754  36.1410759  34.4744653
  72.6297570  37.8931834  42.5830772  72.7589951  38.1466313  43.4970184
  71.9495022  38.4859542  42.2635427  76.7997058  48.5629084  38.6821246
  76.7221087  49.5136909  38.7609727  76.1958701  48.2174956  39.3396173
  79.2914287  35.7356949  51.3382613  78.5147621  36.2950869  51.3285478
  79.9304850  36.2213732  51.8597483  87.0835068  32.5183742  45.1725590
  86.4409448  32.8116275  44.5265384  86.5789996  32.4036662  45.9778786
  84.7375232  36.2646915  35.8611449  85.6493088  36.4974302  35.6859147
  84.2284879  36.8483959  35.2986528  77.5460660  38.5442402  50.9000580
  78.2875344  39.0827446  50.6235404  76.8397645  39.1708691  51.0572132
  83.0215999  40.6871543  49.4972742  83.4299355  40.2453953  48.7527374
  82.2993261  40.1124170  49.7506935  79.3747069  35.6244150  46.8706299
  80.2208264  36.0483563  47.0140948  79.3145707  34.9677774  47.5644862
  83.3444814  41.2472733  43.2525031  82.7153676  41.4118448  42.5501098
  82.9570476  41.6614343  44.0235995  87.2234046  42.1827171  40.6069394
  86.5385084  42.5626073  40.0566428  87.3077895  42.7922498  41.3401342
  82.5246515  33.2848518  48.5287472  82.2807446  34.0390578  47.9921748
  82.8006445  33.6633866  49.3634719  84.4784977  39.8287130  47.2064738
  84.6901873  40.4718890  46.5299119  84.4314726  38.9949447  46.7386668
  82.0811206  32.4404951  44.1101310  81.2195685  32.7386205  44.4018048
  82.1073641  32.6575350  43.1782343  78.8972776  40.9847142  40.5175116
  79.3611121  41.2634845  39.7279738  78.6329574  40.0830586  40.3348206
  75.7896857  40.5318623  43.4554879  76.3598214  40.9605891  42.8172363
  76.3804969  40.2501208  44.1539065  77.8341662  37.1070294  37.3264681
  78.5365705  37.5591338  37.7938607  77.5022290  36.4654113  37.9544574
  76.2822023  35.6982051  51.7015890  75.6520684  36.3798331  51.9351287
  76.1758111  35.5865132  50.7569028  71.5766996  35.3653847  42.6281814
  70.7866050  35.6211375  42.1521925  72.0678243  36.1802184  42.7333855
  85.5930805  42.7059086  45.3787095  86.4148249  42.3039273  45.0969777
  85.5893208  42.6027320  46.3303211  73.5281741  35.7298426  39.5865291
  72.7312904  35.8417120  40.1048787  73.3007333  36.0685078  38.7206182
  79.3587409  42.2543129  47.5347806  79.4231841  42.7163536  48.3705978
  78.6498333  41.6240494  47.6630116  69.8604699  35.6184337  45.0596805
  70.1112737  36.5031347  45.3254381  70.3964247  35.4388939  44.2871897
  93.6836798  39.0497834  41.7272067  92.9300507  38.4805232  41.5716071
  93.8184340  39.0160499  42.6742701  79.0735426  43.9211237  37.4026786
  78.9381101  44.7662772  37.8311634  79.6145239  44.1230514  36.6392720
  75.5602766  30.0002816  54.0641141  75.1669712  29.4469015  54.7388785
  76.3768906  30.3113395  54.4547659  72.5264824  41.4386675  37.9754711
  73.0389344  42.2329925  38.1260276  73.1787537  40.7412965  37.9088313
  74.3359709  44.5552431  40.0577464  74.5126337  45.4770396  39.8698448
  75.1316542  44.2410850  40.4871844  78.4770727  31.4160695  51.6561398
  79.2180440  32.0167849  51.5765860  78.7088650  30.6738333  51.0979440
  73.6212065  36.6017063  49.9339627  73.5065580  35.7002320  50.2346726
  72.7656583  36.8480759  49.5824444  80.7003903  44.5434803  51.5327128
  80.2567757  43.7571182  51.2148033  81.3621116  44.7313954  50.8671019
  75.4591024  46.0730605  46.0587807  76.0098449  45.9447668  45.2864801
  74.6202500  46.3725494  45.7082699  82.7985141  44.8237603  49.5608529
  82.7803616  45.6446484  49.0688799  83.7205061  44.6991678  49.7858671
  79.2558195  42.3381732  50.4032038  79.7886532  41.5770021  50.1731346
  78.7272276  42.0455384  51.1456192  82.4227890  27.4441798  45.9325679
  82.0792159  28.3343440  45.8564790  82.7906853  27.2543456  45.0695264
  70.4913741  39.7675329  38.7514282  71.3288963  40.1772337  38.5347989
  70.6692008  38.8274771  38.7214475  82.3878173  37.4350410  34.4398115
  81.8724796  38.2055014  34.6786502  82.1155481  36.7615546  35.0631176
  79.9725284  32.2800110  39.4983353  79.1166880  31.8906961  39.3188992
  80.3852235  32.3592071  38.6383138  81.5024430  29.8146454  43.8974913
  80.9989226  29.7776589  43.0842718  81.7955037  30.7239196  43.9571569
  77.7467316  29.8985183  42.9041094  78.6120313  29.7027992  42.5446984
  77.8144825  29.6695535  43.8310451  87.3612447  40.1882764  36.3751288
  86.5841890  39.8493924  35.9306450  88.0403928  40.1935387  35.7006253
  82.1764476  35.3077502  36.2657896  81.8714611  35.6223651  37.1168039
  83.1294918  35.3858922  36.3085229  80.6210908  41.4667725  37.9150850
  80.0932269  40.7320485  37.6024087  80.1198410  42.2442401  37.6690818
  85.6003754  39.6616745  43.0317896  84.9427428  40.3516007  43.1198025
  86.4044153  40.0513177  43.3751882  75.3529635  32.1287391  40.2757461
  75.9273387  31.9062573  39.5430654  75.9400618  32.1976086  41.0286063
  84.4109213  38.0161118  41.0821838  84.9241094  38.6491110  41.5843548
  85.0610436  37.4162314  40.7165198  75.6799222  34.1591852  34.2953347
  74.8436535  34.4966539  34.6162621  75.5403992  34.0240832  33.3580483
  77.6552303  29.0028640  39.0032531  77.0016715  28.6877657  38.3789145
  77.6132777  28.3804381  39.7292354  78.7663508  39.2847935  30.9185823
  77.8590570  39.0537189  31.1176972  79.2634540  38.4885554  31.1059804
  81.6731587  47.9945442  33.8382509  80.9993286  48.2977139  34.4467467
  82.0597409  48.7974523  33.4887966  80.8890043  35.4910574  43.3280178
  79.9712605  35.7125521  43.1701866  81.3050187  35.5656884  42.4691886
  81.6725091  36.8901989  38.4582859  82.4196910  37.4023387  38.1489981
  81.9416681  36.5686042  39.3187252  79.9451741  39.3860530  35.4409813
  79.0362961  39.1019563  35.5382283  79.9746825  39.8059609  34.5813120
  85.1771009  42.9967120  39.2100980  84.7233336  42.1558029  39.2666171
  84.5464975  43.6328518  39.5475761  84.1203928  33.9259106  40.4401648
  83.3826685  33.4136492  40.7711890  84.3730702  33.4859487  39.6284925
  83.6203948  44.8343616  40.1450799  83.9126922  45.3948673  39.4263164
  84.1302569  45.1272177  40.9003958  84.2215556  26.7035358  41.0343417
  84.5274432  25.8432721  40.7469332  84.9468160  27.2952978  40.8342411
  70.5139912  37.1066044  39.4225015  70.3164312  36.5135405  38.6976082
  69.9586576  36.8018254  40.1400954  78.4936635  36.9989151  41.5419608
  78.5485245  36.0462987  41.4662085  77.6827837  37.1548590  42.0260907
  79.6427829  40.9269274  32.7797891  79.2047259  40.2105133  32.3203529
  80.3838270  41.1545389  32.2182983  76.4328995  35.6166210  39.3009987
  75.6196861  35.9160381  39.7075179  76.9287989  35.2221899  40.0184469
  78.5837573  45.6123967  41.2344252  78.5413752  45.8384814  40.3052784
  79.5000272  45.3787342  41.3830053  82.0303207  36.0808035  48.1324881
  82.3852595  36.3079508  48.9919347  82.6775338  36.4126412  47.5102136
  87.7600944  39.2026471  38.8374210  87.6218843  39.3928067  37.9095399
  87.4037163  39.9645854  39.2942261  75.9243070  33.1884566  44.9171222
  76.5642449  33.0473325  44.2194185  75.0920601  32.9019079  44.5409824
  87.7870324  41.2702998  43.8485482  88.2206830  41.1778287  44.6968536
  88.5001904  41.2460498  43.2105498  76.7003374  42.4886996  41.0306214
  77.4943972  41.9937316  40.8288789  75.9895066  41.9604859  40.6673920
  81.5198218  44.8705092  45.3818582  81.5735241  45.4396028  46.1496298
  80.6513000  45.0406977  45.0172619  73.0086137  36.6330078  37.1065967
  72.0783726  36.5714534  37.3235929  73.1043609  36.1106031  36.3102608
  72.9271686  33.1584891  39.6944209  73.1878504  34.0730224  39.5853369
  73.7488859  32.6909333  39.8440822  74.3996612  34.5722648  46.8643033
  75.0719665  34.3640010  46.2155682  73.5726398  34.3744734  46.4248266
  88.6485873  41.3126698  46.3818367  88.8421763  42.2172509  46.6277642
  88.5486491  40.8534118  47.2156952  80.3022184  31.1984589  48.8808694
  79.6550099  31.8974539  48.7873171  81.0723199  31.6320733  49.2484942
  83.7100982  41.4633441  51.9559248  83.5586488  41.2343993  51.0389331
  83.7005661  42.4204043  51.9690593  80.4786318  39.0365354  46.9405514
  81.4078378  39.1876514  46.7674481  80.0577348  39.1249375  46.0854160
  79.2774650  43.0616018  44.7104052  79.1385736  42.6934803  45.5829990
  78.4889246  43.5763658  44.5388009  79.8722802  48.1625115  36.0529588
  80.0474558  47.6913158  36.8675211  79.1855590  48.7890881  36.2810849
  80.8279865  42.4397621  42.0992889  80.4929698  42.3998391  42.9950539
  80.3283811  41.7742337  41.6263300  74.8024109  37.8465251  47.6245471
  74.6643907  37.1145490  48.2257010  75.7129033  37.7574151  47.3429658
  83.7639057  39.7853655  32.3729949  83.1468227  39.0600484  32.2763002
  83.2955545  40.5463016  32.0297023  77.4306410  37.5585210  47.1129150
  78.1406028  36.9178403  47.0715769  77.3875718  37.8098105  48.0355331
  85.4193188  44.4952564  50.0335729  85.3605735  43.8111784  49.3666312
  85.8212707  45.2371554  49.5816355  76.1435344  34.5450428  48.9324790
  75.6072701  34.0941167  49.5846386  75.5552052  34.6796337  48.1895254
  75.5537603  34.0039080  31.4951253  74.6767069  33.8827880  31.1313500
  76.0295356  33.2125158  31.2430142  85.4210596  42.4592148  48.2649709
  84.5337374  42.1218069  48.3876108  85.9909147  41.7275179  48.5018474
  67.0739743  38.7916239  41.5892760  67.7610783  38.4777969  41.0013776
  66.9187871  39.6957604  41.3160012  71.8774465  33.6806436  46.0177784
  71.7932654  33.0732106  45.2828194  71.0557171  34.1715454  46.0187280
  78.9511749  47.1193600  45.2310952  78.8781921  47.9248572  45.7430257
  78.5089142  47.3185566  44.4058974  78.7401529  46.3565370  38.7413774
  77.9569051  46.8987050  38.8351998  79.4394274  46.8739350  39.1408015
  82.0498179  32.1660000  41.3847979  82.5466878  31.4129962  41.0649049
  81.2785160  32.2024316  40.8191189  89.9027936  37.8700365  43.0266271
  89.8917812  38.7525080  42.6560204  89.0345316  37.5171916  42.8320808
  81.4110433  47.0180434  47.3869111  82.1238405  47.6527899  47.3145012
  80.9200461  47.1144300  46.5709113  83.1327960  40.9231687  38.9586403
  82.1984238  41.0433149  38.7891107  83.3104628  40.0204153  38.6946412
  78.6333148  34.3077382  41.1119664  78.2630935  33.7548423  41.8000569
  79.1292240  33.7035516  40.5594664  86.5200511  36.7649006  39.4936437
  86.9860963  37.5976998  39.4196739  86.9708011  36.2993988  40.1981695
  76.4622346  44.7674878  48.2074682  77.1631806  45.4011360  48.3604076
  75.9917461  45.1089609  47.4470321  84.5876742  43.1092827  36.4922589
  84.8636586  42.9949422  37.4016463  83.7181241  42.7110312  36.4534762
  84.4917174  29.1329593  43.5327338  83.5780253  29.3633820  43.7009545
  84.9210275  29.2168037  44.3841370  84.2623632  37.3219485  46.0327232
  83.6095082  37.5695392  45.3779685  84.6404012  36.5083623  45.6989709
  81.2230806  47.3579178  40.1355402  81.4053201  46.5400834  40.5983155
  82.0463792  47.5746870  39.6980292  81.5572971  46.2847363  37.3970451
  82.0860738  45.7739818  36.7840613  81.8201191  45.9689893  38.2615984
  80.3111205  38.0639296  52.5193269  79.6351842  37.9633425  53.1895644
  81.1338839  37.9078510  52.9829266  72.0590064  44.3011233  45.1405784
  72.6443501  43.5554920  45.2733689  71.8614903  44.6115189  46.0242448
  74.9128719  47.3362480  40.1568227  74.2439095  47.8208608  39.6732267
  74.7741589  47.5831700  41.0711605  66.6507719  36.8716833  43.8610228
  66.6891818  36.3380423  44.6547346  66.1448012  36.3452038  43.2421205
  79.0533988  49.3706223  46.7550885  79.6052296  49.5337845  47.5199970
  79.3940181  49.9610661  46.0830910  74.0298481  31.7181373  47.3572770
  74.0939808  32.5796204  46.9450168  73.9665601  31.1055375  46.6245128
  73.5050754  33.7904506  51.0045804  74.1322793  33.4081583  51.6183328
  72.6478673  33.5718708  51.3701497  83.9044862  44.1967481  52.6099540
  84.4484766  44.8097439  52.1154494  83.3231707  44.7547059  53.1266553
  70.2816297  35.5980935  36.9364159  70.5769738  34.6891613  36.8831213
  69.3804332  35.5768674  36.6145161  82.1902375  47.3188199  43.7414567
  82.0653515  46.5177939  43.2325513  82.8481466  47.8134392  43.2528537
  73.8110544  33.6736931  42.9191708  73.0897129  34.2872899  42.7799181
  74.6003799  34.2094696  42.8408354  84.2537284  45.1197219  45.3694117
  83.3067619  45.0002570  45.2972444  84.6020057  44.2319717  45.4520379
  76.6136857  31.0091358  49.1932359  77.1371259  31.2553655  49.9558669
  76.3949190  31.8411393  48.7735497  72.0104138  33.2795033  37.0603484
  71.6816844  32.3992412  36.8778590  72.3643509  33.2242701  37.9479873
  81.2583717  44.9149935  41.5698470  81.1108679  43.9866643  41.7506040
  82.0837210  44.9370026  41.0855545  75.1245961  33.5668002  37.4278962
  75.4642034  34.0953924  36.7057570  75.5718082  33.9048409  38.2037528
  84.8617839  45.7378494  42.6563342  85.7864386  45.5321355  42.5187794
  84.6933142  45.4894895  43.5652684  77.8189402  31.9505053  46.8782030
  77.4786222  31.1512866  47.2802710  77.1128408  32.2506764  46.3058863
  78.4705874  29.0354366  45.3309353  79.2931943  28.5614844  45.2088243
  78.7143937  29.8144849  45.8308039  77.1114108  32.0642624  35.6272255
  77.8322471  32.4423877  35.1235971  76.4879413  32.7831501  35.7307233
  81.2545231  32.7687773  36.5630587  81.4708846  33.6512411  36.2619415
  80.7739298  32.3773986  35.8336229  75.9944453  35.7273486  43.1401331
  75.8489033  36.0413789  44.0325613  75.5169656  36.3458386  42.5872230
  77.8540836  32.7176034  43.1882221  77.8402404  31.8217127  42.8514519
  78.5713264  32.7246698  43.8220507  79.7066966  33.1513374  45.2335348
  79.4484744  34.0730445  45.2319679  79.1752007  32.7543809  45.9235813
  84.6513155  46.2564161  38.0125434  84.8250033  45.6910584  37.2599286
  85.1442046  47.0565056  37.8304924  70.4690115  38.2678831  46.0788993
  69.9243583  39.0438639  46.2109267  71.3469465  38.6149635  45.9208114
  77.2577731  31.5990414  38.4569791  77.3793643  30.6707061  38.6560679
  76.9679774  31.6129100  37.5448107  80.1268922  29.2845325  41.5936511
  80.1490619  29.3484658  40.6388491  80.5436981  28.4449834  41.7877017
  90.5052546  39.0200584  39.6315734  90.9483692  38.2707910  39.2334857
  89.6279056  39.0110721  39.2489466  85.6388328  45.5730926  35.1122332
  86.3339232  46.1937619  35.3309647  85.9811478  44.7226277  35.3874710
  71.2556137  37.3948727  48.9719150  70.5137873  37.5431362  49.5583780
  70.9348881  37.6556992  48.1085899  87.5379751  43.0230631  36.6409663
  88.0631075  43.3617904  35.9158983  87.4502103  42.0877647  36.4572798
  79.1999799  46.9364705  48.7699540  79.5086926  46.6913852  49.6422239
  79.9975281  47.1411344  48.2818410  79.2220411  49.0902615  41.0004916
  78.7825402  48.5978993  41.6937773  79.9728528  48.5475582  40.7596991
  71.7012750  45.2814156  41.0029544  72.5270770  44.9817927  40.6228188
  71.3506802  44.5121778  41.4519333  76.6694284  44.6340624  43.0727218
  76.0474293  43.9711329  42.7729446  77.3399150  44.6601756  42.3900866
  69.9021355  43.2000482  41.9618478  69.0653264  42.7722656  41.7802479
  69.8745001  43.3932925  42.8989269  76.7418811  33.1122412  52.6659724
  76.7906966  33.9884535  52.2837493  77.2841325  32.5699805  52.0931367
  87.2273657  43.6563535  51.9460861  86.4369200  43.6387674  51.4065360
  86.9907011  44.1951829  52.7009897  87.3471532  40.5056001  49.2593589
  87.3969537  40.3406009  50.2009112  87.2385455  39.6383260  48.8691470
  76.2307790  43.1844547  36.5485678  76.3795911  43.8680012  35.8952351
  77.0374234  43.1649637  37.0635134  84.6375294  36.4886929  50.5752896
  85.5385157  36.3493394  50.2836894  84.7123269  36.6541384  51.5151074
  78.9718099  33.8653784  49.4206082  78.1021409  34.1587350  49.1488671
  79.2077580  34.4494229  50.1413346  88.8489729  42.9252943  49.5035611
  88.5574537  43.2882923  50.3399072  88.2361860  42.2119951  49.3248943
  90.0485411  40.4905823  42.0238181  90.8832302  40.9295627  42.1875742
  90.1844540  40.0144476  41.2046427  87.0976917  38.0485558  47.9715669
  87.5731038  38.2413204  47.1634520  86.1742482  38.1044743  47.7259053
  73.9860423  39.2109725  37.5546747  73.7406465  38.3072055  37.7526957
  74.1556338  39.2126875  36.6126225  81.6757133  30.0833401  46.9371503
  82.1939077  30.8194428  46.6117991  81.3212266  30.3897394  47.7718262
  73.2556071  34.9438082  35.0532909  72.5625316  35.0182437  34.3972945
  73.0107823  34.1798426  35.5754426  81.9269727  26.5033684  42.4572399
  82.2071481  25.8356873  43.0832826  82.7120334  26.6962779  41.9447063
  79.7303196  45.6792678  34.0197426  79.1577163  46.2982865  33.5667898
  80.3035990  46.2292039  34.5537348  85.7978586  34.9251318  46.2043975
  86.7496009  35.0249415  46.2256199  85.6282036  34.1329586  46.7142059
  83.8192965  32.0106901  46.3903375  83.2242897  32.2911914  45.6949864
  83.5342662  32.5000802  47.1620117  82.9500456  45.9629828  35.1506008
  83.8831129  45.8975389  35.3538884  82.8623669  46.7986095  34.6920541
  85.5788472  45.2795698  32.1109956  85.5002104  44.9455562  33.0045713
  86.3998139  45.7717466  32.1101428  88.2766664  38.1457437  45.3186274
  88.2442984  37.2073438  45.5045958  88.8867287  38.2241474  44.5852099
  80.1149994  37.0153490  31.3613478  81.0609099  36.8859698  31.4301896
  79.7364239  36.2768152  31.8382906  88.4261152  34.9368481  45.3644557
  87.9100201  34.1526937  45.1774486  89.3101101  34.6087197  45.5291077
  86.0871879  28.6809496  41.3240370  85.8896700  28.3724585  42.2083702
  86.6971585  29.4071135  41.4538300  94.0943213  39.2073444  44.4592311
  94.8246602  38.9458732  45.0200014  93.4850159  38.4702166  44.4994379
  92.1758511  37.3481307  45.0566762  91.4491674  37.2137272  44.4483254
  91.7605797  37.6558135  45.8623480  79.9988687  41.0671236  52.8214135
  80.9191696  41.2449835  53.0154182  79.9638270  40.1227282  52.6693834
  78.2992912  34.9403467  31.2968363  77.3924367  34.6436579  31.3731077
  78.5768893  34.6433285  30.4302650  69.2170852  36.2609830  41.7467410
  68.8973636  35.4075138  41.4541784  68.6704280  36.4758408  42.5025377
  72.9950760  38.9772271  45.4636916  73.2136769  39.9089379  45.4824950
  73.4076533  38.6180246  46.2491720  79.9154977  29.4840356  37.4512605
  79.1055706  29.1387441  37.8267851  80.6039394  29.1747900  38.0400216
  81.8445526  28.5618403  39.0736901  82.3976564  28.9813857  39.7326924
  82.0815612  27.6354151  39.1159857  77.8678625  34.5505477  54.8539665
  77.7675352  35.4999834  54.7851756  77.6500167  34.2223716  53.9815735
  77.0691696  31.7990402  31.4380343  77.9310860  32.1245300  31.6976160
  77.2542040  31.0121898  30.9253408  69.0859112  39.8812742  43.7160531
  68.3922583  39.4666694  43.2030486  69.8332103  39.9233278  43.1193950
  85.2224333  30.6718928  38.5815566  84.6423002  31.3303732  38.1993618
  84.9560265  29.8496273  38.1702983  83.6727899  30.0723986  40.7836886
  84.1727677  30.1840521  39.9751205  84.3163507  29.7685039  41.4237694
  77.7309895  37.9802616  53.6704727  77.2476977  38.7802976  53.8768616
  77.8170834  37.9910561  52.7172171  70.9995855  39.8130995  41.5926546
  70.9766543  39.9118683  40.6408429  71.3096491  40.6596146  41.9143712
  73.6583232  41.8707150  45.7073161  74.6126486  41.8391093  45.6403092
  73.4595756  41.4097774  46.5223387  74.2482615  40.4408266  48.2743958
  75.0675504  40.9352345  48.2978796  74.5219422  39.5240235  48.2461526
  84.0049211  32.8319019  37.6371914  83.1175066  33.1168669  37.4192109
  84.4203200  32.6712782  36.7899191  87.3563747  32.8565540  41.3526253
  88.1324137  33.3461992  41.6250870  86.6311881  33.2823594  41.8098123
  89.7936305  33.5693159  42.4100194  90.3880796  33.3288895  41.6993502
  89.8662889  32.8500290  43.0373730  72.0133461  47.4126770  42.7243359
  71.8787929  46.6527171  42.1581357  71.5965523  48.1367670  42.2572147
  83.1492424  42.5963693  31.7319934  83.8528274  42.8013696  32.3477589
  82.4255073  43.1640455  31.9969017  83.9790234  38.3473555  37.8522204
  83.9225436  38.8042106  37.0129836  84.5318577  37.5864239  37.6745047
  87.7895040  34.1363287  38.6772324  87.5331975  33.7359922  39.5080531
  87.1647908  34.8507081  38.5522463  92.1007378  36.8759360  41.1843615
  91.5406936  36.9452549  41.9575177  91.4950882  36.7000344  40.4643111
  85.0579122  43.0346223  33.7818394  85.8924726  42.6027421  33.5995869
  84.8963465  42.8628236  34.7095288  84.7125014  39.5378336  35.1474733
  84.6573818  39.3722607  34.2063177  84.0871069  40.2454369  35.3036923
  69.5017529  34.7746400  48.9736155  70.1476392  34.2645354  49.4623381
  69.2934680  35.5115082  49.5479581  82.0270921  41.8427248  54.4728296
  82.8962081  42.0167900  54.1114931  81.5477672  42.6621665  54.3504025
  78.0221139  29.0386445  34.7260052  78.0099809  29.9828285  34.8828323
  78.9144561  28.8556590  34.4319513  77.9510703  47.7155335  42.8127808
  77.0006334  47.7157197  42.6992181  78.2543189  46.9688070  42.2963843
  81.8373259  25.6329222  38.9805988  81.0705655  25.0787708  39.1262671
  82.2483964  25.7051090  39.8420140  73.8415020  31.9214017  53.0711170
  74.7046481  31.5650822  53.2814494  73.2680430  31.5827912  53.7586574
  93.6863397  53.5515874  43.8773571  94.3241807  53.4322621  43.1736911
  93.5684240  54.4996718  43.9361523  90.4953103  53.5043302  43.8135095
  90.1571614  53.3884367  42.9255630  91.3642871  53.1034467  43.7936102
  86.3539919  55.3578778  39.8031986  85.7904784  55.2668715  39.0348274
  86.2392314  54.5378683  40.2834479  90.9772886  54.6578154  49.7721301
  90.9661527  54.2630952  48.9001805  91.1393525  53.9244226  50.3655072
  83.9004351  56.8529970  42.6416207  84.6925643  56.5120795  42.2262506
  84.1401001  56.9624945  43.5618360  91.9339477  59.0249746  35.1146451
  91.2827457  59.6103826  34.7280465  92.7283840  59.5555941  35.1741489
  85.8595105  56.1138883  35.5133586  86.6325981  55.5667870  35.3746461
  86.2120503  56.9783132  35.7248047  87.6980147  57.4415265  48.7200485
  87.4070013  58.3460896  48.6047151  88.3337131  57.4831793  49.4344554
  88.6236354  54.8192114  45.3101845  89.2199926  54.5948136  44.5958807
  88.6811325  54.0776859  45.9127292  88.1961382  52.2731549  33.1452035
  88.4486903  51.7513071  32.3835498  87.2585941  52.1097695  33.2478719
  93.2404665  51.2767328  40.9526779  94.0267754  50.8586751  40.6017196
  93.5043370  52.1813420  41.1208427  93.4114743  56.7140178  35.6515436
  92.7760576  56.7874804  36.3636340  93.0812149  57.3033777  34.9734515
  98.6413092  51.2142561  41.8559757  99.3738264  50.6441778  42.0897587
  97.8852448  50.8264161  42.2966263  87.9157671  54.1759655  35.3476410
  87.7993929  53.5004559  36.0157495  88.0259931  53.6892029  34.5308564
  90.2589212  53.6369802  39.0523100  89.8947419  53.1100423  39.7636021
  91.1156328  53.2468271  38.8789585  96.1638513  44.9264135  46.3154366
  95.8321837  45.7959546  46.0915581  95.5684126  44.6100419  46.9948396
  89.8994699  48.6659702  34.0484448  90.0669101  49.5339938  34.4154919
  89.7091868  48.8286984  33.1245737  92.6570032  57.1276681  45.7150279
  92.3570755  58.0301720  45.6066086  92.3121092  56.8608864  46.5671431
  86.1082514  53.5790478  41.7486983  85.1833010  53.4466692  41.9564675
  86.3566927  54.3584697  42.2456925  96.0567176  49.6459221  43.3947716
  95.1484053  49.5774630  43.1006477  96.0054772  50.1231166  44.2229541
  89.8783920  51.1217359  35.0331115  89.7583545  51.5674410  35.8716595
  89.1836508  51.4702677  34.4744653  83.4691325  53.2223751  42.5830772
  83.5983706  53.4758230  43.4970184  82.7888776  53.8151459  42.2635427
  87.6390812  63.8921001  38.6821246  87.5614842  64.8428826  38.7609727
  87.0352456  63.5466874  39.3396173  90.1308042  51.0648867  51.3382613
  89.3541376  51.6242787  51.3285478  90.7698605  51.5505650  51.8597483
  97.9228822  47.8475659  45.1725590  97.2803203  48.1408193  44.5265384
  97.4183751  47.7328580  45.9778786  95.5768986  51.5938833  35.8611449
  96.4886842  51.8266219  35.6859147  95.0678633  52.1775877  35.2986528
  88.3854414  53.8734320  50.9000580  89.1269098  54.4119364  50.6235404
  87.6791400  54.5000609  51.0572132  93.8609754  56.0163461  49.4972742
  94.2693110  55.5745871  48.7527374  93.1387015  55.4416088  49.7506935
  90.2140824  50.9536067  46.8706299  91.0602019  51.3775481  47.0140948
  90.1539461  50.2969692  47.5644862  94.1838568  56.5764651  43.2525031
  93.5547431  56.7410365  42.5501098  93.7964230  56.9906261  44.0235995
  98.0627800  57.5119089  40.6069394  97.3778838  57.8917990  40.0566428
  98.1471650  58.1214416  41.3401342  93.3640269  48.6140436  48.5287472
  93.1201201  49.3682496  47.9921748  93.6400200  48.9925783  49.3634719
  95.3178732  55.1579048  47.2064738  95.5295627  55.8010808  46.5299119
  95.2708480  54.3241365  46.7386668  92.9204961  47.7696869  44.1101310
  92.0589440  48.0678122  44.4018048  92.9467395  47.9867268  43.1782343
  89.7366530  56.3139059  40.5175116  90.2004876  56.5926762  39.7279738
  89.4723328  55.4122504  40.3348206  86.6290611  55.8610541  43.4554879
  87.1991968  56.2897809  42.8172363  87.2198723  55.5793125  44.1539065
  88.6735416  52.4362212  37.3264681  89.3759460  52.8883255  37.7938607
  88.3416045  51.7946030  37.9544574  87.1215778  51.0273968  51.7015890
  86.4914438  51.7090249  51.9351287  87.0151866  50.9157050  50.7569028
  82.4160750  50.6945764  42.6281814  81.6259804  50.9503293  42.1521925
  82.9071998  51.5094102  42.7333855  96.4324560  58.0351003  45.3787095
  97.2542004  57.6331191  45.0969777  96.4286963  57.9319238  46.3303211
  84.3675496  51.0590343  39.5865291  83.5706659  51.1709038  40.1048787
  84.1401088  51.3976996  38.7206182  90.1981163  57.5835047  47.5347806
  90.2625596  58.0455454  48.3705978  89.4892087  56.9532412  47.6630116
  80.6998453  50.9476255  45.0596805  80.9506492  51.8323265  45.3254381
  81.2358002  50.7680856  44.2871897 104.5230553  54.3789752  41.7272067
 103.7694261  53.8097150  41.5716071 104.6578094  54.3452416  42.6742701
  89.9129181  59.2503154  37.4026786  89.7774856  60.0954690  37.8311634
  90.4538993  59.4522432  36.6392720  86.3996521  45.3294734  54.0641141
  86.0063466  44.7760933  54.7388785  87.2162661  45.6405313  54.4547659
  83.3658578  56.7678592  37.9754711  83.8783099  57.5621842  38.1260276
  84.0181291  56.0704883  37.9088313  85.1753463  59.8844349  40.0577464
  85.3520091  60.8062313  39.8698448  85.9710297  59.5702768  40.4871844
  89.3164482  46.7452613  51.6561398  90.0574195  47.3459766  51.5765860
  89.5482404  46.0030251  51.0979440  84.4605820  51.9308980  49.9339627
  84.3459335  51.0294238  50.2346726  83.6050337  52.1772677  49.5824444
  93.6378895  60.1529521  49.5608529  93.6197371  60.9738402  49.0688799
  94.5598815  60.0283596  49.7858671  90.0951950  57.6673650  50.4032038
  90.6280286  56.9061938  50.1731346  89.5666031  57.3747302  51.1456192
  93.2621644  42.7733716  45.9325679  92.9185914  43.6635358  45.8564790
  93.6300607  42.5835374  45.0695264  81.3307495  55.0967247  38.7514282
  82.1682717  55.5064255  38.5347989  81.5085763  54.1566689  38.7214475
  93.2271927  52.7642327  34.4398115  92.7118551  53.5346932  34.6786502
  92.9549236  52.0907463  35.0631176  90.8119038  47.6092028  39.4983353
  89.9560635  47.2198878  39.3188992  91.2245990  47.6883989  38.6383138
  92.3418185  45.1438371  43.8974913  91.8382980  45.1068506  43.0842718
  92.6348792  46.0531114  43.9571569  88.5861071  45.2277101  42.9041094
  89.4514068  45.0319910  42.5446984  88.6538580  44.9987453  43.8310451
  98.2006201  55.5174682  36.3751288  97.4235644  55.1785841  35.9306450
  98.8797682  55.5227305  35.7006253  93.0158230  50.6369419  36.2657896
  92.7108366  50.9515568  37.1168039  93.9688672  50.7150839  36.3085229
  91.4604662  56.7959643  37.9150850  90.9326024  56.0612402  37.6024087
  90.9592165  57.5734319  37.6690818  96.4397508  54.9908663  43.0317896
  95.7821183  55.6807924  43.1198025  97.2437907  55.3805095  43.3751882
  86.1923390  47.4579309  40.2757461  86.7667142  47.2354490  39.5430654
  86.7794372  47.5268003  41.0286063  95.2502967  53.3453036  41.0821838
  95.7634849  53.9783028  41.5843548  95.9004191  52.7454231  40.7165198
  86.5192977  49.4883770  34.2953347  85.6830289  49.8258456  34.6162621
  86.3797747  49.3532750  33.3580483  88.4946058  44.3320558  39.0032531
  87.8410470  44.0169575  38.3789145  88.4526532  43.7096298  39.7292354
  89.6057262  54.6139853  30.9185823  88.6984324  54.3829106  31.1176972
  90.1028294  53.8177472  31.1059804  92.5125341  63.3237360  33.8382509
  91.8387040  63.6269057  34.4467467  92.8991163  64.1266440  33.4887966
  91.7283798  50.8202491  43.3280178  90.8106359  51.0417438  43.1701866
  92.1443942  50.8948802  42.4691886  92.5118846  52.2193907  38.4582859
  93.2590665  52.7315304  38.1489981  92.7810435  51.8977960  39.3187252
  90.7845496  54.7152448  35.4409813  89.8756715  54.4311481  35.5382283
  90.8140580  55.1351526  34.5813120  96.0164763  58.3259037  39.2100980
  95.5627090  57.4849947  39.2666171  95.3858730  58.9620436  39.5475761
  94.9597683  49.2551023  40.4401648  94.2220440  48.7428409  40.7711890
  95.2124456  48.8151405  39.6284925  94.4597702  60.1635534  40.1450799
  94.7520677  60.7240591  39.4263164  94.9696323  60.4564095  40.9003958
  95.0609310  42.0327275  41.0343417  95.3668187  41.1724639  40.7469332
  95.7861915  42.6244895  40.8342411  81.3533666  52.4357962  39.4225015
  81.1558066  51.8427323  38.6976082  80.7980330  52.1310172  40.1400954
  89.3330390  52.3281068  41.5419608  89.3879000  51.3754905  41.4662085
  88.5221592  52.4840507  42.0260907  90.4821584  56.2561191  32.7797891
  90.0441014  55.5397050  32.3203529  91.2232024  56.4837306  32.2182983
  87.2722750  50.9458128  39.3009987  86.4590615  51.2452299  39.7075179
  87.7681744  50.5513817  40.0184469  89.4231328  60.9415885  41.2344252
  89.3807506  61.1676731  40.3052784  90.3394027  60.7079260  41.3830053
  92.8696961  51.4099953  48.1324881  93.2246349  51.6371426  48.9919347
  93.5169093  51.7418329  47.5102136  98.5994698  54.5318388  38.8374210
  98.4612597  54.7219984  37.9095399  98.2430917  55.2937771  39.2942261
  86.7636825  48.5176484  44.9171222  87.4036204  48.3765243  44.2194185
  85.9314355  48.2310997  44.5409824  98.6264078  56.5994915  43.8485482
  99.0600585  56.5070205  44.6968536  99.3395659  56.5752416  43.2105498
  87.5397128  57.8178914  41.0306214  88.3337727  57.3229234  40.8288789
  86.8288821  57.2896777  40.6673920  92.3591973  60.1997010  45.3818582
  92.4128995  60.7687946  46.1496298  91.4906754  60.3698895  45.0172619
  83.8479892  51.9621996  37.1065967  82.9177480  51.9006451  37.3235929
  83.9437364  51.4397949  36.3102608  83.7665441  48.4876809  39.6944209
  84.0272258  49.4022142  39.5853369  84.5882613  48.0201251  39.8440822
  85.2390366  49.9014566  46.8643033  85.9113420  49.6931928  46.2155682
  84.4120153  49.7036652  46.4248266  99.4879628  56.6418616  46.3818367
  99.6815518  57.5464427  46.6277642  99.3880246  56.1826035  47.2156952
  91.1415938  46.5276507  48.8808694  90.4943853  47.2266456  48.7873171
  91.9116954  46.9612651  49.2484942  94.5494736  56.7925359  51.9559248
  94.3980243  56.5635911  51.0389331  94.5399416  57.7495960  51.9690593
  91.3180073  54.3657272  46.9405514  92.2472133  54.5168431  46.7674481
  90.8971103  54.4541292  46.0854160  90.1168404  58.3907936  44.7104052
  89.9779490  58.0226720  45.5829990  89.3283001  58.9055575  44.5388009
  90.7116556  63.4917032  36.0529588  90.8868312  63.0205076  36.8675211
  90.0249344  64.1182799  36.2810849  91.6673620  57.7689539  42.0992889
  91.3323452  57.7290309  42.9950539  91.1677565  57.1034255  41.6263300
  85.6417864  53.1757169  47.6245471  85.5037661  52.4437408  48.2257010
  86.5522787  53.0866069  47.3429658  94.6032811  55.1145573  32.3729949
  93.9861982  54.3892401  32.2763002  94.1349300  55.8754933  32.0297023
  88.2700164  52.8877128  47.1129150  88.9799783  52.2470320  47.0715769
  88.2269472  53.1390023  48.0355331  96.2586943  59.8244481  50.0335729
  96.1999489  59.1403702  49.3666312  96.6606461  60.5663471  49.5816355
  86.9829098  49.8742346  48.9324790  86.4466455  49.4233084  49.5846386
  86.3945807  50.0088255  48.1895254  85.2777642  66.6406395  42.8269448
  85.5174240  67.2724919  43.5048467  84.4346838  66.2894435  43.1134808
  86.3931357  49.3330997  31.4951253  85.5160823  49.2119798  31.1313500
  86.8689110  48.5417076  31.2430142  96.2604350  57.7884065  48.2649709
  95.3731129  57.4509987  48.3876108  96.8302901  57.0567097  48.5018474
  77.9133497  54.1208157  41.5892760  78.6004537  53.8069887  41.0013776
  77.7581626  55.0249522  41.3160012  82.7168219  49.0098354  46.0177784
  82.6326408  48.4024023  45.2828194  81.8950926  49.5007372  46.0187280
  89.5795283  61.6857288  38.7413774  88.7962805  62.2278968  38.8351998
  90.2788028  62.2031267  39.1408015  92.8891933  47.4951917  41.3847979
  93.3860633  46.7421880  41.0649049  92.1178915  47.5316234  40.8191189
 100.7421691  53.1992283  43.0266271 100.7311567  54.0816998  42.6560204
  99.8739070  52.8463834  42.8320808  92.2504187  62.3472352  47.3869111
  92.9632159  62.9819817  47.3145012  91.7594216  62.4436218  46.5709113
  93.9721714  56.2523604  38.9586403  93.0377993  56.3725067  38.7891107
  94.1498382  55.3496071  38.6946412  89.4726902  49.6369300  41.1119664
  89.1024690  49.0840341  41.8000569  89.9685995  49.0327434  40.5594664
  97.3594265  52.0940924  39.4936437  97.8254718  52.9268915  39.4196739
  97.8101766  51.6285905  40.1981695  95.4270496  58.4384745  36.4922589
  95.7030340  58.3241340  37.4016463  94.5574995  58.0402230  36.4534762
  95.3310928  44.4621511  43.5327338  94.4174008  44.6925738  43.7009545
  95.7604030  44.5459955  44.3841370  95.1017387  52.6511403  46.0327232
  94.4488837  52.8987310  45.3779685  95.4797766  51.8375541  45.6989709
  92.0624560  62.6871096  40.1355402  92.2446955  61.8692752  40.5983155
  92.8857546  62.9038788  39.6980292  92.3966726  61.6139281  37.3970451
  92.9254492  61.1031736  36.7840613  92.6594946  61.2981811  38.2615984
  91.1504960  53.3931214  52.5193269  90.4745597  53.2925343  53.1895644
  91.9732593  53.2370427  52.9829266  82.8983819  59.6303150  45.1405784
  83.4837255  58.8846838  45.2733689  82.7008657  59.9407107  46.0242448
  85.7522474  62.6654398  40.1568227  85.0832849  63.1500525  39.6732267
  85.6135344  62.9123618  41.0711605  84.8692236  47.0473291  47.3572770
  84.9333562  47.9088122  46.9450168  84.8059356  46.4347293  46.6245128
  84.3444508  49.1196423  51.0045804  84.9716547  48.7373501  51.6183328
  83.4872427  48.9010625  51.3701497  81.1210051  50.9272853  36.9364159
  81.4163492  50.0183531  36.8831213  80.2198087  50.9060592  36.6145161
  93.0296130  62.6480117  43.7414567  92.9047269  61.8469857  43.2325513
  93.6875221  63.1426310  43.2528537  84.6504298  49.0028849  42.9191708
  83.9290884  49.6164817  42.7799181  85.4397554  49.5386614  42.8408354
  95.0931038  60.4489137  45.3694117  94.1461374  60.3294488  45.2972444
  95.4413811  59.5611635  45.4520379  87.4530612  46.3383276  49.1932359
  87.9765013  46.5845572  49.9558669  87.2342945  47.1703310  48.7735497
  82.8497893  48.6086950  37.0603484  82.5210599  47.7284329  36.8778590
  83.2037263  48.5534619  37.9479873  92.0977471  60.2441853  41.5698470
  91.9502434  59.3158560  41.7506040  92.9230965  60.2661944  41.0855545
  85.9639716  48.8959920  37.4278962  86.3035788  49.4245841  36.7057570
  86.4111836  49.2340326  38.2037528  95.7011593  61.0670412  42.6563342
  96.6258141  60.8613273  42.5187794  95.5326897  60.8186813  43.5652684
  88.6583157  47.2796971  46.8782030  88.3179977  46.4804784  47.2802710
  87.9522163  47.5798682  46.3058863  89.3099628  44.3646283  45.3309353
  90.1325698  43.8906761  45.2088243  89.5537692  45.1436767  45.8308039
  87.9507863  47.3934542  35.6272255  88.6716225  47.7715794  35.1235971
  87.3273167  48.1123418  35.7307233  92.0938986  48.0979691  36.5630587
  92.3102600  48.9804328  36.2619415  91.6133053  47.7065904  35.8336229
  86.8338207  51.0565404  43.1401331  86.6882788  51.3705707  44.0325613
  86.3563411  51.6750304  42.5872230  88.6934590  48.0467952  43.1882221
  88.6796159  47.1509045  42.8514519  89.4107018  48.0538616  43.8220507
  90.5460721  48.4805292  45.2335348  90.2878499  49.4022363  45.2319679
  90.0145761  48.0835727  45.9235813  95.4906910  61.5856079  38.0125434
  95.6643787  61.0202502  37.2599286  95.9835801  62.3856974  37.8304924
  81.3083869  53.5970748  46.0788993  80.7637337  54.3730556  46.2109267
  82.1863219  53.9441553  45.9208114  88.0971486  46.9282332  38.4569791
  88.2187397  45.9998978  38.6560679  87.8073528  46.9421018  37.5448107
  90.9662676  44.6137243  41.5936511  90.9884373  44.6776576  40.6388491
  91.3830735  43.7741751  41.7877017 101.3446301  54.3492502  39.6315734
 101.7877447  53.5999827  39.2334857 100.4672811  54.3402638  39.2489466
  96.4782082  60.9022844  35.1122332  97.1732987  61.5229536  35.3309647
  96.8205232  60.0518195  35.3874710  82.0949891  52.7240645  48.9719150
  81.3531627  52.8723280  49.5583780  81.7742635  52.9848910  48.1085899
  98.3773505  58.3522549  36.6409663  98.9024829  58.6909822  35.9158983
  98.2895858  57.4169564  36.4572798  90.0614166  64.4194532  41.0004916
  89.6219156  63.9270911  41.6937773  90.8122283  63.8767500  40.7596991
  82.5406505  60.6106073  41.0029544  83.3664525  60.3109845  40.6228188
  82.1900557  59.8413696  41.4519333  87.5088038  59.9632541  43.0727218
  86.8868047  59.3003246  42.7729446  88.1792905  59.9893673  42.3900866
  80.7415110  58.5292400  41.9618478  79.9047018  58.1014574  41.7802479
  80.7138755  58.7224843  42.8989269  87.5812566  48.4414329  52.6659724
  87.6300721  49.3176452  52.2837493  88.1235080  47.8991723  52.0931367
  98.0667411  58.9855453  51.9460861  97.2762955  58.9679592  51.4065360
  97.8300766  59.5243746  52.7009897  98.1865286  55.8347919  49.2593589
  98.2363291  55.6697927  50.2009112  98.0779210  54.9675178  48.8691470
  87.0701545  58.5136465  36.5485678  87.2189665  59.1971929  35.8952351
  87.8767988  58.4941555  37.0635134  95.4769049  51.8178847  50.5752896
  96.3778911  51.6785312  50.2836894  95.5517023  51.9833302  51.5151074
  89.8111854  49.1945702  49.4206082  88.9415163  49.4879268  49.1488671
  90.0471334  49.7786147  50.1413346  99.6883483  58.2544861  49.5035611
  99.3968291  58.6174841  50.3399072  99.0755614  57.5411869  49.3248943
 100.8879165  55.8197740  42.0238181 101.7226057  56.2587544  42.1875742
 101.0238294  55.3436394  41.2046427  97.9370671  53.3777475  47.9715669
  98.4124793  53.5705122  47.1634520  97.0136237  53.4336661  47.7259053
  84.8254178  54.5401642  37.5546747  84.5800220  53.6363972  37.7526957
  84.9950092  54.5418793  36.6126225  92.5150888  45.4125319  46.9371503
  93.0332832  46.1486346  46.6117991  92.1606021  45.7189312  47.7718262
  84.0949825  50.2730000  35.0532909  83.4019070  50.3474355  34.3972945
  83.8501577  49.5090344  35.5754426  92.7663482  41.8325601  42.4572399
  93.0465236  41.1648790  43.0832826  93.5514089  42.0254697  41.9447063
  90.5696950  61.0084595  34.0197426  89.9970918  61.6274782  33.5667898
  91.1429744  61.5583957  34.5537348  96.6372340  50.2543235  46.2043975
  97.5889763  50.3541333  46.2256199  96.4675791  49.4621504  46.7142059
  94.6586720  47.3398819  46.3903375  94.0636652  47.6203831  45.6949864
  94.3736416  47.8292719  47.1620117  93.7894210  61.2921745  35.1506008
  94.7224883  61.2267307  35.3538884  93.7017423  62.1278012  34.6920541
  96.4182227  60.6087616  32.1109956  96.3395858  60.2747479  33.0045713
  97.2391894  61.1009384  32.1101428  99.1160418  53.4749355  45.3186274
  99.0836738  52.5365356  45.5045958  99.7261042  53.5533392  44.5852099
  90.9543749  52.3445408  31.3613478  91.9002854  52.2151616  31.4301896
  90.5757994  51.6060070  31.8382906  99.2654907  50.2660398  45.3644557
  98.7493955  49.4818855  45.1774486 100.1494855  49.9379115  45.5291077
  96.9265633  44.0101414  41.3240370  96.7290455  43.7016502  42.2083702
  97.5365339  44.7363053  41.4538300 104.9336968  54.5365362  44.4592311
 105.6640356  54.2750650  45.0200014 104.3243913  53.7994084  44.4994379
 103.0152265  52.6773224  45.0566762 102.2885429  52.5429189  44.4483254
 102.5999552  52.9850053  45.8623480  90.8382441  56.3963154  52.8214135
  91.7585451  56.5741753  53.0154182  90.8032025  55.4519199  52.6693834
  89.1386666  50.2695384  31.2968363  88.2318121  49.9728497  31.3731077
  89.4162647  49.9725202  30.4302650  80.0564606  51.5901748  41.7467410
  79.7367391  50.7367056  41.4541784  79.5098035  51.8050326  42.5025377
  83.8344514  54.3064189  45.4636916  84.0530524  55.2381297  45.4824950
  84.2470288  53.9472163  46.2491720  90.7548732  44.8132274  37.4512605
  89.9449460  44.4679359  37.8267851  91.4433149  44.5039818  38.0400216
  92.6839280  43.8910321  39.0736901  93.2370319  44.3105774  39.7326924
  92.9209366  42.9646069  39.1159857  88.7072379  49.8797395  54.8539665
  88.6069106  50.8291752  54.7851756  88.4893921  49.5515633  53.9815735
  87.9085451  47.1282320  31.4380343  88.7704615  47.4537218  31.6976160
  88.0935795  46.3413816  30.9253408  79.9252866  55.2104659  43.7160531
  79.2316338  54.7958612  43.2030486  80.6725857  55.2525196  43.1193950
  96.0618087  46.0010846  38.5815566  95.4816756  46.6595650  38.1993618
  95.7954020  45.1788191  38.1702983  94.5121654  45.4015904  40.7836886
  95.0121432  45.5132438  39.9751205  95.1557261  45.0976957  41.4237694
  88.5703649  53.3094533  53.6704727  88.0870731  54.1094894  53.8768616
  88.6564588  53.3202478  52.7172171  81.8389609  55.1422913  41.5926546
  81.8160297  55.2410600  40.6408429  82.1490245  55.9888064  41.9143712
  84.4976987  57.1999068  45.7073161  85.4520240  57.1683010  45.6403092
  84.2989510  56.7389692  46.5223387  85.0876369  55.7700184  48.2743958
  85.9069258  56.2644263  48.2978796  85.3613177  54.8532152  48.2461526
  94.8442965  48.1610936  37.6371914  93.9568820  48.4460587  37.4192109
  95.2596954  48.0004700  36.7899191  98.1957501  48.1857457  41.3526253
  98.9717891  48.6753910  41.6250870  97.4705636  48.6115512  41.8098123
 100.6330060  48.8985077  42.4100194 101.2274551  48.6580813  41.6993502
 100.7056644  48.1792207  43.0373730  82.8527216  62.7418688  42.7243359
  82.7181684  61.9819088  42.1581357  82.4359278  63.4659587  42.2572147
  93.9886179  57.9255611  31.7319934  94.6922029  58.1305614  32.3477589
  93.2648827  58.4932373  31.9969017  94.8183989  53.6765472  37.8522204
  94.7619190  54.1334024  37.0129836  95.3712331  52.9156157  37.6745047
  98.6288795  49.4655204  38.6772324  98.3725729  49.0651840  39.5080531
  98.0041663  50.1798998  38.5522463 102.9401133  52.2051277  41.1843615
 102.3800691  52.2744467  41.9575177 102.3344636  52.0292262  40.4643111
  86.0096342  63.6388005  42.9361801  85.8928726  64.5833437  42.8340492
  85.1888788  63.3361566  43.3247600  95.8972876  58.3638140  33.7818394
  96.7318480  57.9319339  33.5995869  95.7357219  58.1920154  34.7095288
  95.5518768  54.8670254  35.1474733  95.4967572  54.7014525  34.2063177
  94.9264824  55.5746287  35.3036923  80.3411283  50.1038318  48.9736155
  80.9870147  49.5937272  49.4623381  80.1328434  50.8407000  49.5479581
  92.8664675  57.1719165  54.4728296  93.7355835  57.3459818  54.1114931
  92.3871427  57.9913582  54.3504025  88.8614894  44.3678363  34.7260052
  88.8493564  45.3120203  34.8828323  89.7538316  44.1848508  34.4319513
  88.7904458  63.0447253  42.8127808  87.8400089  63.0449115  42.6992181
  89.0936944  62.2979988  42.2963843  92.6767013  40.9621139  38.9805988
  91.9099409  40.4079626  39.1262671  93.0877718  41.0343008  39.8420140
  84.6808774  47.2505935  53.0711170  85.5440236  46.8942740  53.2814494
  84.1074185  46.9119830  53.7586574 104.5257151  68.8807791  43.8773571
 105.1635561  68.7614539  43.1736911 104.4077994  69.8288635  43.9361523
 101.3346857  68.8335220  43.8135095 100.9965369  68.7176284  42.9255630
 102.2036626  68.4326385  43.7936102  97.1933673  70.6870696  39.8031986
  96.6298538  70.5960633  39.0348274  97.0786068  69.8670600  40.2834479
  94.7398105  72.1821888  42.6416207  95.5319397  71.8412712  42.2262506
  94.9794755  72.2916863  43.5618360  96.6988859  71.4430801  35.5133586
  97.4719735  70.8959788  35.3746461  97.0514258  72.3075050  35.7248047
  99.0355137  67.6023467  33.1452035  99.2880658  67.0804988  32.3835498
  98.0979696  67.4389612  33.2478719 104.0798420  66.6059245  40.9526779
 104.8661509  66.1878668  40.6017196 104.3437124  67.5105337  41.1208427
 109.4806847  66.5434478  41.8559757 110.2132019  65.9733695  42.0897587
 108.7246202  66.1556079  42.2966263  98.7551426  69.5051573  35.3476410
  98.6387684  68.8296476  36.0157495  98.8653685  69.0183947  34.5308564
 101.0982967  68.9661720  39.0523100 100.7341174  68.4392341  39.7636021
 101.9550082  68.5760189  38.8789585 107.0032267  60.2556053  46.3154366
 106.6715592  61.1251464  46.0915581 106.4077881  59.9392337  46.9948396
 100.7388453  63.9951620  34.0484448 100.9062856  64.8631856  34.4154919
 100.5485623  64.1578901  33.1245737  96.9476268  68.9082395  41.7486983
  96.0226765  68.7758610  41.9564675  97.1960681  69.6876615  42.2456925
 106.8960930  64.9751139  43.3947716 105.9877808  64.9066547  43.1006477
 106.8448526  65.4523084  44.2229541 100.7177674  66.4509277  35.0331115
 100.5977300  66.8966328  35.8716595 100.0230263  66.7994595  34.4744653
  94.3085079  68.5515669  42.5830772  94.4377460  68.8050148  43.4970184
  93.6282531  69.1443377  42.2635427 100.9701796  66.3940784  51.3382613
 100.1935130  66.9534704  51.3285478 101.6092359  66.8797567  51.8597483
 108.7622577  63.1767577  45.1725590 108.1196957  63.4700110  44.5265384
 108.2577505  63.0620497  45.9778786 106.4162741  66.9230750  35.8611449
 107.3280597  67.1558137  35.6859147 105.9072388  67.5067795  35.2986528
 101.0534578  66.2827985  46.8706299 101.8995773  66.7067399  47.0140948
 100.9933216  65.6261609  47.5644862 105.0232323  71.9056569  43.2525031
 104.3941185  72.0702283  42.5501098 104.6357985  72.3198178  44.0235995
 104.2034024  63.9432353  48.5287472 103.9594955  64.6974414  47.9921748
 104.4793954  64.3217701  49.3634719 106.1572486  70.4870966  47.2064738
 106.3689382  71.1302726  46.5299119 106.1102235  69.6533282  46.7386668
 103.7598715  63.0988786  44.1101310 102.8983194  63.3970040  44.4018048
 103.7861150  63.3159185  43.1782343  97.4684366  71.1902458  43.4554879
  98.0385723  71.6189727  42.8172363  98.0592478  70.9085043  44.1539065
  99.5129171  67.7654129  37.3264681 100.2153214  68.2175173  37.7938607
  99.1809799  67.1237948  37.9544574  93.2554505  66.0237682  42.6281814
  92.4653559  66.2795210  42.1521925  93.7465752  66.8386020  42.7333855
  95.2069250  66.3882261  39.5865291  94.4100413  66.5000955  40.1048787
  94.9794842  66.7268913  38.7206182  91.5392208  66.2768172  45.0596805
  91.7900246  67.1615182  45.3254381  92.0751756  66.0972774  44.2871897
 115.3624307  69.7081670  41.7272067 114.6088016  69.1389068  41.5716071
 115.4971849  69.6744334  42.6742701  97.2390275  60.6586652  54.0641141
  96.8457221  60.1052850  54.7388785  98.0556415  60.9697230  54.4547659
  94.2052333  72.0970510  37.9754711  94.7176853  72.8913760  38.1260276
  94.8575046  71.3996800  37.9088313  96.0147217  75.2136266  40.0577464
  96.1913846  76.1354231  39.8698448  96.8104051  74.8994685  40.4871844
 100.1558236  62.0744531  51.6561398 100.8967949  62.6751684  51.5765860
 100.3876159  61.3322169  51.0979440  95.2999574  67.2600898  49.9339627
  95.1853089  66.3586155  50.2346726  94.4444092  67.5064595  49.5824444
  97.1378533  76.7314440  46.0587807  97.6885958  76.6031503  45.2864801
  96.2990009  77.0309329  45.7082699 104.1015399  58.1025634  45.9325679
 103.7579668  58.9927275  45.8564790 104.4694362  57.9127291  45.0695264
  92.1701250  70.4259164  38.7514282  93.0076472  70.8356173  38.5347989
  92.3479517  69.4858606  38.7214475 104.0665682  68.0934245  34.4398115
 103.5512305  68.8638850  34.6786502 103.7942990  67.4199381  35.0631176
 101.6512793  62.9383946  39.4983353 100.7954389  62.5490796  39.3188992
 102.0639744  63.0175906  38.6383138 103.1811939  60.4730289  43.8974913
 102.6776735  60.4360424  43.0842718 103.4742546  61.3823032  43.9571569
  99.4254825  60.5569019  42.9041094 100.2907822  60.3611827  42.5446984
  99.4932334  60.3279370  43.8310451 109.0399956  70.8466600  36.3751288
 108.2629399  70.5077759  35.9306450 109.7191437  70.8519223  35.7006253
 103.8551985  65.9661337  36.2657896 103.5502120  66.2807486  37.1168039
 104.8082427  66.0442757  36.3085229 107.2791263  70.3200581  43.0317896
 106.6214937  71.0099842  43.1198025 108.0831662  70.7097013  43.3751882
  97.0317144  62.7871227  40.2757461  97.6060896  62.5646408  39.5430654
  97.6188127  62.8559921  41.0286063 106.0896722  68.6744953  41.0821838
 106.6028603  69.3074945  41.5843548 106.7397945  68.0746149  40.7165198
  97.3586731  64.8175688  34.2953347  96.5224044  65.1550374  34.6162621
  97.2191501  64.6824667  33.3580483  99.3339812  59.6612475  39.0032531
  98.6804224  59.3461493  38.3789145  99.2920286  59.0388216  39.7292354
 100.4451017  69.9431771  30.9185823  99.5378079  69.7121024  31.1176972
 100.9422049  69.1469390  31.1059804 102.5677552  66.1494409  43.3280178
 101.6500114  66.3709356  43.1701866 102.9837696  66.2240719  42.4691886
 103.3512600  67.5485825  38.4582859 104.0984419  68.0607222  38.1489981
 103.6204190  67.2269877  39.3187252 101.6239250  70.0444365  35.4409813
 100.7150470  69.7603398  35.5382283 101.6534334  70.4643444  34.5813120
 105.7991437  64.5842941  40.4401648 105.0614194  64.0720327  40.7711890
 106.0518211  64.1443323  39.6284925 105.9003065  57.3619193  41.0343417
 106.2061941  56.5016556  40.7469332 106.6255669  57.9536813  40.8342411
  92.1927421  67.7649880  39.4225015  91.9951821  67.1719240  38.6976082
  91.6374085  67.4602090  40.1400954 100.1724144  67.6572986  41.5419608
 100.2272754  66.7046822  41.4662085  99.3615346  67.8132425  42.0260907
  98.1116504  66.2750046  39.3009987  97.2984370  66.5744216  39.7075179
  98.6075498  65.8805735  40.0184469 103.7090716  66.7391870  48.1324881
 104.0640104  66.9663343  48.9919347 104.3562847  67.0710247  47.5102136
 109.4388453  69.8610306  38.8374210 109.3006351  70.0511902  37.9095399
 109.0824672  70.6229689  39.2942261  97.6030579  63.8468401  44.9171222
  98.2429958  63.7057160  44.2194185  96.7708110  63.5602915  44.5409824
 109.4657833  71.9286833  43.8485482 109.8994339  71.8362122  44.6968536
 110.1789413  71.9044334  43.2105498  98.3790883  73.1470832  41.0306214
  99.1731481  72.6521152  40.8288789  97.6682575  72.6188695  40.6673920
  94.6873646  67.2913913  37.1065967  93.7571235  67.2298369  37.3235929
  94.7831118  66.7689866  36.3102608  94.6059195  63.8168726  39.6944209
  94.8666013  64.7314060  39.5853369  95.4276368  63.3493169  39.8440822
  96.0784121  65.2306483  46.8643033  96.7507174  65.0223846  46.2155682
  95.2513907  65.0328569  46.4248266 110.3273382  71.9710534  46.3818367
 110.5209272  72.8756344  46.6277642 110.2274000  71.5117953  47.2156952
 101.9809693  61.8568424  48.8808694 101.3337608  62.5558374  48.7873171
 102.7510708  62.2904568  49.2484942 102.1573827  69.6949189  46.9405514
 103.0865887  69.8460349  46.7674481 101.7364857  69.7833210  46.0854160
 100.9562159  73.7199854  44.7104052 100.8173245  73.3518638  45.5829990
 100.1676755  74.2347493  44.5388009 102.5067374  73.0981456  42.0992889
 102.1717207  73.0582226  42.9950539 102.0071320  72.4326172  41.6263300
 105.4426566  70.4437491  32.3729949 104.8255736  69.7184319  32.2763002
 104.9743054  71.2046851  32.0297023  97.8222853  65.2034264  48.9324790
  97.2860210  64.7525002  49.5846386  97.2339561  65.3380172  48.1895254
  97.2325112  64.6622915  31.4951253  96.3554578  64.5411716  31.1313500
  97.7082865  63.8708993  31.2430142  88.7527252  69.4500075  41.5892760
  89.4398292  69.1361805  41.0013776  88.5975380  70.3541439  41.3160012
  93.5561974  64.3390271  46.0177784  93.4720163  63.7315941  45.2828194
  92.7344680  64.8299290  46.0187280 103.7285688  62.8243835  41.3847979
 104.2254387  62.0713797  41.0649049 102.9572669  62.8608152  40.8191189
 111.5815445  68.5284200  43.0266271 111.5705321  69.4108916  42.6560204
 110.7132825  68.1755751  42.8320808 100.3120657  64.9661218  41.1119664
  99.9418444  64.4132258  41.8000569 100.8079749  64.3619351  40.5594664
 108.1988020  67.4232841  39.4936437 108.6648472  68.2560833  39.4196739
 108.6495520  66.9577823  40.1981695 106.1704683  59.7913428  43.5327338
 105.2567762  60.0217655  43.7009545 106.5997784  59.8751872  44.3841370
 105.9411141  67.9803320  46.0327232 105.2882591  68.2279228  45.3779685
 106.3191521  67.1667459  45.6989709  93.7377573  74.9595068  45.1405784
  94.3231010  74.2138756  45.2733689  93.5402412  75.2699025  46.0242448
  88.3295228  67.5300668  43.8610228  88.3679327  66.9964259  44.6547346
  87.8235521  67.0035874  43.2421205  95.7085990  62.3765209  47.3572770
  95.7727317  63.2380040  46.9450168  95.6453110  61.7639210  46.6245128
  95.1838263  64.4488341  51.0045804  95.8110302  64.0665418  51.6183328
  94.3266182  64.2302543  51.3701497  91.9603805  66.2564770  36.9364159
  92.2557247  65.3475449  36.8831213  91.0591841  66.2352510  36.6145161
  95.4898052  64.3320767  42.9191708  94.7684638  64.9456735  42.7799181
  96.2791308  64.8678532  42.8408354  98.2924366  61.6675193  49.1932359
  98.8158768  61.9137490  49.9558669  98.0736699  62.4995228  48.7735497
  93.6891647  63.9378868  37.0603484  93.3604353  63.0576247  36.8778590
  94.0431018  63.8826537  37.9479873  96.8033470  64.2251838  37.4278962
  97.1429543  64.7537759  36.7057570  97.2505591  64.5632244  38.2037528
  99.4976911  62.6088888  46.8782030  99.1573731  61.8096702  47.2802710
  98.7915917  62.9090599  46.3058863 100.1493383  59.6938201  45.3309353
 100.9719452  59.2198679  45.2088243 100.3931446  60.4728685  45.8308039
  98.7901617  62.7226459  35.6272255  99.5109980  63.1007712  35.1235971
  98.1666921  63.4415336  35.7307233 102.9332740  63.4271608  36.5630587
 103.1496355  64.3096246  36.2619415 102.4526807  63.0357822  35.8336229
  97.6731962  66.3857322  43.1401331  97.5276542  66.6997625  44.0325613
  97.1957165  67.0042222  42.5872230  99.5328345  63.3759870  43.1882221
  99.5189913  62.4800963  42.8514519 100.2500773  63.3830533  43.8220507
 101.3854475  63.8097210  45.2335348 101.1272253  64.7314280  45.2319679
 100.8539516  63.4127644  45.9235813  92.1477624  68.9262666  46.0788993
  91.6031092  69.7022474  46.2109267  93.0256974  69.2733470  45.9208114
  98.9365240  62.2574250  38.4569791  99.0581152  61.3290896  38.6560679
  98.6467283  62.2712936  37.5448107 101.8056431  59.9429160  41.5936511
 101.8278128  60.0068493  40.6388491 102.2224490  59.1033669  41.7877017
 112.1840055  69.6784420  39.6315734 112.6271201  68.9291745  39.2334857
 111.3066565  69.6694556  39.2489466  93.3800259  75.9397991  41.0029544
  94.2058279  75.6401763  40.6228188  93.0294311  75.1705613  41.4519333
  98.3481793  75.2924459  43.0727218  97.7261802  74.6295164  42.7729446
  99.0186659  75.3185591  42.3900866  91.5808864  73.8584317  41.9618478
  90.7440773  73.4306492  41.7802479  91.5532510  74.0516761  42.8989269
  98.4206320  63.7706247  52.6659724  98.4694475  64.6468370  52.2837493
  98.9628834  63.2283640  52.0931367 100.6505608  64.5237620  49.4206082
  99.7808918  64.8171186  49.1488671 100.8865089  65.1078065  50.1413346
 111.7272920  71.1489658  42.0238181 112.5619811  71.5879462  42.1875742
 111.8632049  70.6728311  41.2046427 108.7764426  68.7069393  47.9715669
 109.2518547  68.8997039  47.1634520 107.8529991  68.7628579  47.7259053
  95.6647932  69.8693560  37.5546747  95.4193974  68.9655890  37.7526957
  95.8343847  69.8710711  36.6126225 103.3544642  60.7417236  46.9371503
 103.8726586  61.4778263  46.6117991 102.9999775  61.0481230  47.7718262
  94.9343580  65.6021918  35.0532909  94.2412825  65.6766273  34.3972945
  94.6895332  64.8382261  35.5754426 103.6057236  57.1617519  42.4572399
 103.8858990  56.4940708  43.0832826 104.3907843  57.3546615  41.9447063
 107.4766095  65.5835153  46.2043975 108.4283518  65.6833251  46.2256199
 107.3069545  64.7913422  46.7142059 105.4980474  62.6690736  46.3903375
 104.9030406  62.9495749  45.6949864 105.2130171  63.1584637  47.1620117
 107.2575981  75.9379533  32.1109956 107.1789613  75.6039397  33.0045713
 108.0785648  76.4301301  32.1101428 109.9554173  68.8041273  45.3186274
 109.9230493  67.8657273  45.5045958 110.5654796  68.8825309  44.5852099
 101.7937503  67.6737326  31.3613478 102.7396608  67.5443534  31.4301896
 101.4151748  66.9351988  31.8382906 110.1048661  65.5952316  45.3644557
 109.5887710  64.8110773  45.1774486 110.9888610  65.2671033  45.5291077
 107.7659388  59.3393332  41.3240370 107.5684209  59.0308420  42.2083702
 108.3759094  60.0654971  41.4538300 115.7730722  69.8657280  44.4592311
 116.5034111  69.6042568  45.0200014 115.1637668  69.1286001  44.4994379
 113.8546020  68.0065142  45.0566762 113.1279183  67.8721107  44.4483254
 113.4393306  68.3141971  45.8623480  99.9780421  65.5987302  31.2968363
  99.0711876  65.3020415  31.3731077 100.2556402  65.3017120  30.4302650
  90.8958361  66.9193665  41.7467410  90.5761145  66.0658974  41.4541784
  90.3491789  67.1342244  42.5025377 101.5942486  60.1424192  37.4512605
 100.7843215  59.7971277  37.8267851 102.2826903  59.8331736  38.0400216
 103.5233035  59.2202239  39.0736901 104.0764073  59.6397692  39.7326924
 103.7603121  58.2937987  39.1159857  98.7479205  62.4574237  31.4380343
  99.6098369  62.7829136  31.6976160  98.9329549  61.6705733  30.9253408
  90.7646621  70.5396577  43.7160531  90.0710092  70.1250530  43.2030486
  91.5119612  70.5817113  43.1193950 106.9011842  61.3302764  38.5815566
 106.3210511  61.9887568  38.1993618 106.6347774  60.5080108  38.1702983
 105.3515408  60.7307821  40.7836886 105.8515186  60.8424356  39.9751205
 105.9951016  60.4268874  41.4237694  92.6783363  70.4714831  41.5926546
  92.6554052  70.5702518  40.6408429  92.9884000  71.3179982  41.9143712
 105.6836720  63.4902854  37.6371914 104.7962575  63.7752505  37.4192109
 106.0990709  63.3296617  36.7899191 109.0351256  63.5149375  41.3526253
 109.8111646  64.0045828  41.6250870 108.3099390  63.9407429  41.8098123
 111.4723814  64.2276994  42.4100194 112.0668305  63.9872730  41.6993502
 111.5450398  63.5084125  43.0373730  93.6920970  78.0710605  42.7243359
  93.5575438  77.3111006  42.1581357  93.2753032  78.7951505  42.2572147
 105.6577743  69.0057390  37.8522204 105.6012945  69.4625941  37.0129836
 106.2106086  68.2448075  37.6745047 109.4682549  64.7947122  38.6772324
 109.2119484  64.3943758  39.5080531 108.8435417  65.5090916  38.5522463
 113.7794887  67.5343195  41.1843615 113.2194445  67.6036384  41.9575177
 113.1738391  67.3584180  40.4643111  96.8490096  78.9679922  42.9361801
  96.7322480  79.9125355  42.8340492  96.0282542  78.6653484  43.3247600
  99.7008648  59.6970280  34.7260052  99.6887318  60.6412120  34.8828323
 100.5932070  59.5140426  34.4319513  99.6298212  78.3739171  42.8127808
  98.6793843  78.3741032  42.6992181  99.9330698  77.6271905  42.2963843
 103.5160768  56.2913057  38.9805988 102.7493163  55.7371544  39.1262671
 103.9271473  56.3634926  39.8420140  95.5202529  62.5797853  53.0711170
  96.3833990  62.2234658  53.2814494  94.9467939  62.2411748  53.7586574
 115.3650906  84.2099709  43.8773571 116.0029316  84.0906456  43.1736911
 115.2471749  85.1580553  43.9361523 112.1740612  84.1627137  43.8135095
 111.8359123  84.0468202  42.9255630 113.0430380  83.7618302  43.7936102
 108.0327428  86.0162614  39.8031986 107.4692293  85.9252551  39.0348274
 107.9179823  85.1962518  40.2834479 105.5791860  87.5113805  42.6416207
 106.3713151  87.1704630  42.2262506 105.8188510  87.6208780  43.5618360
 113.6126986  89.6833581  35.1146451 112.9614966  90.2687662  34.7280465
 114.4071349  90.2139776  35.1741489 107.5382614  86.7722718  35.5133586
 108.3113490  86.2251706  35.3746461 107.8908012  87.6366968  35.7248047
 109.8748891  82.9315385  33.1452035 110.1274412  82.4096906  32.3835498
 108.9373450  82.7681530  33.2478719 114.9192174  81.9351163  40.9526779
 115.7055263  81.5170586  40.6017196 115.1830878  82.8397255  41.1208427
 115.0902252  87.3724013  35.6515436 114.4548084  87.4458640  36.3636340
 114.7599658  87.9617612  34.9734515 120.3200601  81.8726396  41.8559757
 121.0525773  81.3025613  42.0897587 119.5639957  81.4847997  42.2966263
 109.5945180  84.8343491  35.3476410 109.4781438  84.1588394  36.0157495
 109.7047440  84.3475864  34.5308564 111.9376721  84.2953638  39.0523100
 111.5734928  83.7684259  39.7636021 112.7943837  83.9052107  38.8789585
 117.8426022  75.5847970  46.3154366 117.5109346  76.4543381  46.0915581
 117.2471635  75.2684254  46.9948396 111.5782208  79.3243537  34.0484448
 111.7456610  80.1923774  34.4154919 111.3879377  79.4870819  33.1245737
 114.3357541  87.7860516  45.7150279 114.0358264  88.6885555  45.6066086
 113.9908601  87.5192699  46.5671431 107.7870023  84.2374313  41.7486983
 106.8620519  84.1050527  41.9564675 108.0354436  85.0168532  42.2456925
 111.5571429  81.7801195  35.0331115 111.4371054  82.2258246  35.8716595
 110.8624017  82.1286513  34.4744653 105.1478834  83.8807587  42.5830772
 105.2771215  84.1342066  43.4970184 104.4676285  84.4735295  42.2635427
 109.3178321  94.5504837  38.6821246 109.2402351  95.5012662  38.7609727
 108.7139965  94.2050709  39.3396173 119.6016331  78.5059495  45.1725590
 118.9590712  78.7992028  44.5265384 119.0971260  78.3912415  45.9778786
 117.2556495  82.2522668  35.8611449 118.1674351  82.4850055  35.6859147
 116.7466142  82.8359712  35.2986528 115.5397263  86.6747296  49.4972742
 115.9480619  86.2329706  48.7527374 114.8174524  86.0999923  49.7506935
 115.8626077  87.2348486  43.2525031 115.2334940  87.3994201  42.5501098
 115.4751739  87.6490096  44.0235995 119.7415309  88.1702924  40.6069394
 119.0566347  88.5501826  40.0566428 119.8259159  88.7798251  41.3401342
 116.9966241  85.8162883  47.2064738 117.2083136  86.4594643  46.5299119
 116.9495989  84.9825200  46.7386668 111.4154039  86.9722895  40.5175116
 111.8792385  87.2510598  39.7279738 111.1510837  86.0706339  40.3348206
 108.3078120  86.5194376  43.4554879 108.8779477  86.9481644  42.8172363
 108.8986232  86.2376961  44.1539065 110.3522925  83.0946047  37.3264681
 111.0546969  83.5467091  37.7938607 110.0203554  82.4529866  37.9544574
 118.1112069  88.6934839  45.3787095 118.9329513  88.2915026  45.0969777
 118.1074472  88.5903073  46.3303211 106.0463005  81.7174179  39.5865291
 105.2494168  81.8292873  40.1048787 105.8188597  82.0560831  38.7206182
 126.2018062  85.0373587  41.7272067 125.4481770  84.4680985  41.5716071
 126.3365603  85.0036252  42.6742701 111.5916690  89.9086990  37.4026786
 111.4562365  90.7538525  37.8311634 112.1326502  90.1106267  36.6392720
 105.0446087  87.4262428  37.9754711 105.5570608  88.2205678  38.1260276
 105.6968800  86.7288718  37.9088313 106.8540972  90.5428184  40.0577464
 107.0307600  91.4646149  39.8698448 107.6497805  90.2286603  40.4871844
 113.2185166  90.5310556  51.5327128 112.7749020  89.7446935  51.2148033
 113.8802380  90.7189707  50.8671019 107.9772287  92.0606358  46.0587807
 108.5279713  91.9323421  45.2864801 107.1383763  92.3601247  45.7082699
 115.3166404  90.8113356  49.5608529 115.2984880  91.6322237  49.0688799
 116.2386324  90.6867431  49.7858671 114.9409153  73.4317551  45.9325679
 114.5973423  74.3219193  45.8564790 115.3088116  73.2419209  45.0695264
 103.0095004  85.7551082  38.7514282 103.8470226  86.1648090  38.5347989
 103.1873272  84.8150524  38.7214475 114.9059436  83.4226163  34.4398115
 114.3906060  84.1930767  34.6786502 114.6336745  82.7491299  35.0631176
 112.4906547  78.2675863  39.4983353 111.6348144  77.8782714  39.3188992
 112.9033499  78.3467824  38.6383138 114.0205694  75.8022207  43.8974913
 113.5170489  75.7652342  43.0842718 114.3136301  76.7114949  43.9571569
 119.8793710  86.1758517  36.3751288 119.1023153  85.8369677  35.9306450
 120.5585191  86.1811140  35.7006253 114.6945739  81.2953255  36.2657896
 114.3895875  81.6099404  37.1168039 115.6476181  81.3734675  36.3085229
 113.1392171  87.4543478  37.9150850 112.6113533  86.7196238  37.6024087
 112.6379674  88.2318154  37.6690818 118.1185017  85.6492498  43.0317896
 117.4608692  86.3391760  43.1198025 118.9225416  86.0388930  43.3751882
 116.9290476  84.0036871  41.0821838 117.4422358  84.6366863  41.5843548
 117.5791700  83.4038067  40.7165198 108.1980486  80.1467605  34.2953347
 107.3617798  80.4842292  34.6162621 108.0585256  80.0116585  33.3580483
 111.2844771  85.2723688  30.9185823 110.3771833  85.0412942  31.1176972
 111.7815803  84.4761307  31.1059804 114.1912850  93.9821195  33.8382509
 113.5174549  94.2852892  34.4467467 114.5778672  94.7850276  33.4887966
 114.1906355  82.8777742  38.4582859 114.9378174  83.3899140  38.1489981
 114.4597944  82.5561795  39.3187252 112.4633005  85.3736283  35.4409813
 111.5544224  85.0895316  35.5382283 112.4928089  85.7935362  34.5813120
 117.6952272  88.9842873  39.2100980 117.2414599  88.1433782  39.2666171
 117.0646239  89.6204271  39.5475761 116.6385192  79.9134859  40.4401648
 115.9007949  79.4012245  40.7711890 116.8911965  79.4735240  39.6284925
 116.1385211  90.8219369  40.1450799 116.4308186  91.3824426  39.4263164
 116.6483832  91.1147930  40.9003958 116.7396819  72.6911111  41.0343417
 117.0455696  71.8308474  40.7469332 117.4649424  73.2828731  40.8342411
 111.0117899  82.9864904  41.5419608 111.0666509  82.0338740  41.4662085
 110.2009101  83.1424343  42.0260907 112.1609093  86.9145027  32.7797891
 111.7228523  86.1980886  32.3203529 112.9019533  87.1421142  32.2182983
 108.9510259  81.6041963  39.3009987 108.1378124  81.9036134  39.7075179
 109.4469253  81.2097652  40.0184469 111.1018837  91.5999720  41.2344252
 111.0595015  91.8260567  40.3052784 112.0181536  91.3663095  41.3830053
 120.2782207  85.1902224  38.8374210 120.1400106  85.3803820  37.9095399
 119.9218426  85.9521607  39.2942261 120.3051587  87.2578751  43.8485482
 120.7388094  87.1654040  44.6968536 121.0183168  87.2336251  43.2105498
 109.2184637  88.4762749  41.0306214 110.0125236  87.9813070  40.8288789
 108.5076330  87.9480613  40.6673920 114.0379482  90.8580845  45.3818582
 114.0916504  91.4271781  46.1496298 113.1694263  91.0282730  45.0172619
 121.1667137  87.3002451  46.3818367 121.3603027  88.2048262  46.6277642
 121.0667755  86.8409871  47.2156952 116.2282245  87.4509194  51.9559248
 116.0767752  87.2219746  51.0389331 116.2186925  88.4079796  51.9690593
 111.7955913  89.0491771  44.7104052 111.6566999  88.6810556  45.5829990
 111.0070510  89.5639411  44.5388009 112.3904065  94.1500868  36.0529588
 112.5655821  93.6788911  36.8675211 111.7036853  94.7766634  36.2810849
 113.3461129  88.4273374  42.0992889 113.0110961  88.3874144  42.9950539
 112.8465074  87.7618090  41.6263300 116.2820320  85.7729408  32.3729949
 115.6649491  85.0476237  32.2763002 115.8136809  86.5338769  32.0297023
 117.9374452  90.4828317  50.0335729 117.8786998  89.7987537  49.3666312
 118.3393970  91.2247307  49.5816355 106.9565151  97.2990231  42.8269448
 107.1961749  97.9308755  43.5048467 106.1134347  96.9478271  43.1134808
 108.0718866  79.9914833  31.4951253 107.1948332  79.8703633  31.1313500
 108.5476619  79.2000911  31.2430142 117.9391859  88.4467901  48.2649709
 117.0518638  88.1093822  48.3876108 118.5090410  87.7150932  48.5018474
 111.4693013  93.1069353  45.2310952 111.3963184  93.9124325  45.7430257
 111.0270406  93.3061319  44.4058974 111.2582792  92.3441123  38.7413774
 110.4750314  92.8862803  38.8351998 111.9575537  92.8615103  39.1408015
 114.5679442  78.1535753  41.3847979 115.0648142  77.4005715  41.0649049
 113.7966424  78.1900069  40.8191189 122.4209200  83.8576118  43.0266271
 122.4099076  84.7400833  42.6560204 121.5526579  83.5047669  42.8320808
 113.9291696  93.0056187  47.3869111 114.6419668  93.6403652  47.3145012
 113.4381725  93.1020053  46.5709113 115.6509223  86.9107440  38.9586403
 114.7165502  87.0308902  38.7891107 115.8285891  86.0079907  38.6946412
 111.1514411  80.2953136  41.1119664 110.7812199  79.7424176  41.8000569
 111.6473503  79.6911269  40.5594664 119.0381774  82.7524759  39.4936437
 119.5042227  83.5852751  39.4196739 119.4889275  82.2869741  40.1981695
 117.1058005  89.0968580  36.4922589 117.3817849  88.9825175  37.4016463
 116.2362504  88.6986065  36.4534762 117.0098437  75.1205346  43.5327338
 116.0961517  75.3509573  43.7009545 117.4391539  75.2043790  44.3841370
 113.7412069  93.3454931  40.1355402 113.9234464  92.5276587  40.5983155
 114.5645055  93.5622623  39.6980292 114.0754235  92.2723116  37.3970451
 114.6042001  91.7615571  36.7840613 114.3382455  91.9565647  38.2615984
 104.5771328  90.2886986  45.1405784 105.1624764  89.5430673  45.2733689
 104.3796166  90.5990942  46.0242448 107.4309983  93.3238233  40.1568227
 106.7620358  93.8084361  39.6732267 107.2922853  93.5707453  41.0711605
 111.5715251  95.3581976  46.7550885 112.1233560  95.5213598  47.5199970
 111.9121445  95.9486414  46.0830910 116.4226126  90.1843234  52.6099540
 116.9666030  90.7973192  52.1154494 115.8412971  90.7422812  53.1266553
 114.7083639  93.3063952  43.7414567 114.5834778  92.5053692  43.2325513
 115.3662730  93.8010145  43.2528537 116.7718547  91.1072972  45.3694117
 115.8248883  90.9878323  45.2972444 117.1201320  90.2195470  45.4520379
 113.7764980  90.9025688  41.5698470 113.6289943  89.9742396  41.7506040
 114.6018474  90.9245779  41.0855545 107.6427225  79.5543755  37.4278962
 107.9823297  80.0829677  36.7057570 108.0899345  79.8924162  38.2037528
 117.3799102  91.7254247  42.6563342 118.3045650  91.5197108  42.5187794
 117.2114406  91.4770648  43.5652684 109.6295372  78.0518377  35.6272255
 110.3503734  78.4299630  35.1235971 109.0060676  78.7707254  35.7307233
 113.7726495  78.7563526  36.5630587 113.9890109  79.6388164  36.2619415
 113.2920562  78.3649739  35.8336229 108.5125716  81.7149239  43.1401331
 108.3670297  82.0289542  44.0325613 108.0350920  82.3334140  42.5872230
 117.1694418  92.2439915  38.0125434 117.3431296  91.6786337  37.2599286
 117.6623310  93.0440809  37.8304924 102.9871378  84.2554584  46.0788993
 102.4424846  85.0314392  46.2109267 103.8650728  84.6025388  45.9208114
 109.7758995  77.5866167  38.4569791 109.8974906  76.6582814  38.6560679
 109.4861037  77.6004853  37.5448107 112.6450185  75.2721078  41.5936511
 112.6671882  75.3360411  40.6388491 113.0618244  74.4325587  41.7877017
 123.0233810  85.0076337  39.6315734 123.4664956  84.2583663  39.2334857
 122.1460320  84.9986474  39.2489466 118.1569591  91.5606679  35.1122332
 118.8520496  92.1813372  35.3309647 118.4992741  90.7102030  35.3874710
 120.0561014  89.0106384  36.6409663 120.5812338  89.3493657  35.9158983
 119.9683367  88.0753400  36.4572798 111.7181063  92.9240458  48.7699540
 112.0268189  92.6789605  49.6422239 112.5156545  93.1287097  48.2818410
 111.7401675  95.0778368  41.0004916 111.3006665  94.5854746  41.6937773
 112.4909792  94.5351335  40.7596991 104.2194014  91.2689909  41.0029544
 105.0452034  90.9693680  40.6228188 103.8688066  90.4997531  41.4519333
 109.1875547  90.6216377  43.0727218 108.5655556  89.9587082  42.7729446
 109.8580414  90.6477509  42.3900866 102.4202619  89.1876235  41.9618478
 101.5834527  88.7598409  41.7802479 102.3926264  89.3808678  42.8989269
 119.7454920  89.6439288  51.9460861 118.9550464  89.6263427  51.4065360
 119.5088275  90.1827582  52.7009897 119.8652795  86.4931754  49.2593589
 119.9150800  86.3281762  50.2009112 119.7566719  85.6259013  48.8691470
 108.7489054  89.1720300  36.5485678 108.8977174  89.8555765  35.8952351
 109.5555497  89.1525390  37.0635134 121.3670992  88.9128696  49.5035611
 121.0755800  89.2758677  50.3399072 120.7543123  88.1995704  49.3248943
 122.5666674  86.4781576  42.0238181 123.4013566  86.9171380  42.1875742
 122.7025803  86.0020229  41.2046427 119.6158180  84.0361311  47.9715669
 120.0912302  84.2288957  47.1634520 118.6923746  84.0920496  47.7259053
 106.5041687  85.1985478  37.5546747 106.2587729  84.2947808  37.7526957
 106.6737601  85.2002628  36.6126225 114.1938397  76.0709154  46.9371503
 114.7120341  76.8070181  46.6117991 113.8393530  76.3773147  47.7718262
 105.7737334  80.9313835  35.0532909 105.0806579  81.0058190  34.3972945
 105.5289086  80.1674179  35.5754426 114.4450991  72.4909437  42.4572399
 114.7252745  71.8232626  43.0832826 115.2301598  72.6838532  41.9447063
 112.2484459  91.6668431  34.0197426 111.6758427  92.2858618  33.5667898
 112.8217253  92.2167792  34.5537348 115.4681719  91.9505581  35.1506008
 116.4012392  91.8851142  35.3538884 115.3804932  92.7861848  34.6920541
 118.0969736  91.2671451  32.1109956 118.0183367  90.9331315  33.0045713
 118.9179403  91.7593219  32.1101428 120.7947927  84.1333190  45.3186274
 120.7624247  83.1949191  45.5045958 121.4048551  84.2117227  44.5852099
 112.6331258  83.0029243  31.3613478 113.5790363  82.8735451  31.4301896
 112.2545503  82.2643905  31.8382906 120.9442416  80.9244234  45.3644557
 120.4281464  80.1402690  45.1774486 121.8282364  80.5962950  45.5291077
 118.6053142  74.6685249  41.3240370 118.4077964  74.3600338  42.2083702
 119.2152848  75.3946888  41.4538300 126.6124477  85.1949197  44.4592311
 127.3427865  84.9334485  45.0200014 126.0031422  84.4577919  44.4994379
 124.6939774  83.3357060  45.0566762 123.9672938  83.2013025  44.4483254
 124.2787061  83.6433888  45.8623480 110.8174175  80.9279220  31.2968363
 109.9105630  80.6312332  31.3731077 111.0950156  80.6309038  30.4302650
 105.5132023  84.9648024  45.4636916 105.7318033  85.8965132  45.4824950
 105.9257797  84.6055999  46.2491720 112.4336241  75.4716109  37.4512605
 111.6236969  75.1263194  37.8267851 113.1220658  75.1623653  38.0400216
 114.3626789  74.5494156  39.0736901 114.9157828  74.9689610  39.7326924
 114.5996875  73.6229904  39.1159857 109.5872960  77.7866155  31.4380343
 110.4492124  78.1121053  31.6976160 109.7723304  76.9997651  30.9253408
 117.7405596  76.6594681  38.5815566 117.1604265  77.3179485  38.1993618
 117.4741529  75.8372026  38.1702983 116.1909163  76.0599739  40.7836886
 116.6908941  76.1716274  39.9751205 116.8344770  75.7560792  41.4237694
 103.5177118  85.8006748  41.5926546 103.4947806  85.8994436  40.6408429
 103.8277754  86.6471899  41.9143712 106.1764496  87.8582903  45.7073161
 107.1307749  87.8266846  45.6403092 105.9777019  87.3973527  46.5223387
 116.5230474  78.8194772  37.6371914 115.6356329  79.1044422  37.4192109
 116.9384463  78.6588535  36.7899191 119.8745010  78.8441293  41.3526253
 120.6505400  79.3337745  41.6250870 119.1493144  79.2699347  41.8098123
 122.3117569  79.5568912  42.4100194 122.9062060  79.3164648  41.6993502
 122.3844153  78.8376043  43.0373730 104.5314725  93.4002523  42.7243359
 104.3969193  92.6402924  42.1581357 104.1146787  94.1243423  42.2572147
 115.6673688  88.5839446  31.7319934 116.3709538  88.7889449  32.3477589
 114.9436336  89.1516208  31.9969017 116.4971498  84.3349308  37.8522204
 116.4406699  84.7917859  37.0129836 117.0499840  83.5739992  37.6745047
 120.3076304  80.1239040  38.6772324 120.0513238  79.7235675  39.5080531
 119.6829172  80.8382834  38.5522463 124.6188642  82.8635113  41.1843615
 124.0588200  82.9328302  41.9575177 124.0132145  82.6876097  40.4643111
 107.6883851  94.2971840  42.9361801 107.5716235  95.2417272  42.8340492
 106.8676297  93.9945402  43.3247600 117.5760385  89.0221976  33.7818394
 118.4105989  88.5903174  33.5995869 117.4144728  88.8503989  34.7095288
 117.2306277  85.5254089  35.1474733 117.1755081  85.3598360  34.2063177
 116.6052333  86.2330122  35.3036923 110.5402403  75.0262198  34.7260052
 110.5281073  75.9704038  34.8828323 111.4325825  74.8432343  34.4319513
 108.7138365  94.9500102  46.1517730 109.6165611  94.9823712  46.4684225
 108.4875735  94.0200553  46.1664065 110.4691967  93.7031088  42.8127808
 109.5187598  93.7032950  42.6992181 110.7724453  92.9563823  42.2963843
 114.3554522  71.6204975  38.9805988 113.5886918  71.0663461  39.1262671
 114.7665227  71.6926843  39.8420140 126.2044660  99.5391627  43.8773571
 126.8423070  99.4198374  43.1736911 126.0865503 100.4872471  43.9361523
 123.0134366  99.4919055  43.8135095 122.6752878  99.3760120  42.9255630
 123.8824135  99.0910220  43.7936102 118.8721182 101.3454531  39.8031986
 118.3086047 101.2544468  39.0348274 118.7573577 100.5254436  40.2834479
 123.4954149 100.6453907  49.7721301 123.4842790 100.2506705  48.9001805
 123.6574789  99.9119979  50.3655072 116.4185614 102.8405723  42.6416207
 117.2106906 102.4996548  42.2262506 116.6582264 102.9500698  43.5618360
 124.4520741 105.0125499  35.1146451 123.8008721 105.5979579  34.7280465
 125.2465104 105.5431694  35.1741489 118.3776368 102.1014636  35.5133586
 119.1507244 101.5543623  35.3746461 118.7301767 102.9658885  35.7248047
 120.2161411 103.4291018  48.7200485 119.9251277 104.3336649  48.6047151
 120.8518395 103.4707546  49.4344554 121.1417617 100.8067867  45.3101845
 121.7381190 100.5823889  44.5958807 121.1992589 100.0652612  45.9127292
 120.7142646  98.2607302  33.1452035 120.9668167  97.7388824  32.3835498
 119.7767205  98.0973448  33.2478719 125.7585929  97.2643081  40.9526779
 126.5449018  96.8462504  40.6017196 126.0224633  98.1689173  41.1208427
 125.9296006 102.7015931  35.6515436 125.2941839 102.7750557  36.3636340
 125.5993412 103.2909530  34.9734515 131.1594356  97.2018314  41.8559757
 131.8919528  96.6317531  42.0897587 130.4033711  96.8139914  42.2966263
 120.4338935 100.1635408  35.3476410 120.3175193  99.4880312  36.0157495
 120.5441194  99.6767782  34.5308564 122.7770475  99.6245555  39.0523100
 122.4128683  99.0976176  39.7636021 123.6337591  99.2344024  38.8789585
 128.6819776  90.9139888  46.3154366 128.3503101  91.7835299  46.0915581
 128.0865390  90.5976172  46.9948396 122.4175962  94.6535455  34.0484448
 122.5850365  95.5215691  34.4154919 122.2273132  94.8162737  33.1245737
 125.1751296 103.1152434  45.7150279 124.8752019 104.0177473  45.6066086
 124.8302355 102.8484617  46.5671431 118.6263777  99.5666231  41.7486983
 117.7014274  99.4342445  41.9564675 118.8748190 100.3460450  42.2456925
 128.5748439  95.6334974  43.3947716 127.6665317  95.5650383  43.1006477
 128.5236035  96.1106919  44.2229541 122.3965183  97.1093113  35.0331115
 122.2764809  97.5550163  35.8716595 121.7017772  97.4578430  34.4744653
 115.9872588  99.2099504  42.5830772 116.1164969  99.4633983  43.4970184
 115.3070039  99.8027212  42.2635427 120.1572075 109.8796754  38.6821246
 120.0796105 110.8304579  38.7609727 119.5533719 109.5342627  39.3396173
 122.6489305  97.0524620  51.3382613 121.8722639  97.6118540  51.3285478
 123.2879868  97.5381403  51.8597483 130.4410086  93.8351413  45.1725590
 129.7984466  94.1283946  44.5265384 129.9365014  93.7204333  45.9778786
 128.0950250  97.5814586  35.8611449 129.0068106  97.8141972  35.6859147
 127.5859897  98.1651630  35.2986528 120.9035678  99.8610073  50.9000580
 121.6450362 100.3995117  50.6235404 120.1972663 100.4876362  51.0572132
 126.3791017 102.0039214  49.4972742 126.7874373 101.5621624  48.7527374
 125.6568279 101.4291841  49.7506935 122.7322087  96.9411820  46.8706299
 123.5783282  97.3651234  47.0140948 122.6720725  96.2845445  47.5644862
 126.7019832 102.5640404  43.2525031 126.0728694 102.7286118  42.5501098
 126.3145494 102.9782014  44.0235995 130.5809064 103.4994842  40.6069394
 129.8960102 103.8793743  40.0566428 130.6652913 104.1090169  41.3401342
 125.8821533  94.6016189  48.5287472 125.6382464  95.3558249  47.9921748
 126.1581463  94.9801536  49.3634719 127.8359995 101.1454801  47.2064738
 128.0476891 101.7886561  46.5299119 127.7889744 100.3117118  46.7386668
 125.4386224  93.7572622  44.1101310 124.5770703  94.0553875  44.4018048
 125.4648659  93.9743021  43.1782343 122.2547794 102.3014812  40.5175116
 122.7186139 102.5802515  39.7279738 121.9904592 101.3998257  40.3348206
 119.1471875 101.8486294  43.4554879 119.7173232 102.2773562  42.8172363
 119.7379987 101.5668878  44.1539065 121.1916680  98.4237965  37.3264681
 121.8940723  98.8759008  37.7938607 120.8597308  97.7821783  37.9544574
 119.6397041  97.0149721  51.7015890 119.0095702  97.6966002  51.9351287
 119.5333129  96.9032803  50.7569028 114.9342014  96.6821517  42.6281814
 114.1441068  96.9379046  42.1521925 115.4253261  97.4969855  42.7333855
 128.9505823 104.0226756  45.3787095 129.7723267 103.6206944  45.0969777
 128.9468226 103.9194991  46.3303211 116.8856759  97.0466097  39.5865291
 116.0887922  97.1584791  40.1048787 116.6582351  97.3852749  38.7206182
 122.7162427 103.5710800  47.5347806 122.7806859 104.0331207  48.3705978
 122.0073351 102.9408165  47.6630116 113.2179717  96.9352008  45.0596805
 113.4687755  97.8199018  45.3254381 113.7539265  96.7556609  44.2871897
 137.0411816 100.3665505  41.7272067 136.2875525  99.7972903  41.5716071
 137.1759358 100.3328169  42.6742701 122.4310444 105.2378907  37.4026786
 122.2956119 106.0830443  37.8311634 122.9720257 105.4398185  36.6392720
 118.9177784  91.3170487  54.0641141 118.5244730  90.7636686  54.7388785
 119.7343924  91.6281066  54.4547659 115.8839842 102.7554345  37.9754711
 116.3964362 103.5497596  38.1260276 116.5362555 102.0580636  37.9088313
 117.6934726 105.8720102  40.0577464 117.8701355 106.7938066  39.8698448
 118.4891560 105.5578521  40.4871844 121.8345745  92.7328366  51.6561398
 122.5755458  93.3335519  51.5765860 122.0663668  91.9906004  51.0979440
 116.9787083  97.9184733  49.9339627 116.8640598  97.0169991  50.2346726
 116.1231601  98.1648430  49.5824444 124.0578921 105.8602474  51.5327128
 123.6142775 105.0738852  51.2148033 124.7196134 106.0481624  50.8671019
 118.8166042 107.3898275  46.0587807 119.3673467 107.2615339  45.2864801
 117.9777518 107.6893164  45.7082699 126.1560159 106.1405274  49.5608529
 126.1378634 106.9614155  49.0688799 127.0780079 106.0159349  49.7858671
 122.6133213 103.6549403  50.4032038 123.1461550 102.8937691  50.1731346
 122.0847294 103.3623055  51.1456192 125.7802908  88.7609469  45.9325679
 125.4367177  89.6511111  45.8564790 126.1481871  88.5711127  45.0695264
 113.8488759 101.0843000  38.7514282 114.6863981 101.4940008  38.5347989
 114.0267026 100.1442442  38.7214475 125.7453191  98.7518080  34.4398115
 125.2299814  99.5222685  34.6786502 125.4730499  98.0783216  35.0631176
 123.3300302  93.5967781  39.4983353 122.4741898  93.2074631  39.3188992
 123.7427253  93.6759742  38.6383138 124.8599448  91.1314124  43.8974913
 124.3564244  91.0944259  43.0842718 125.1530055  92.0406867  43.9571569
 121.1042334  91.2152854  42.9041094 121.9695331  91.0195663  42.5446984
 121.1719843  90.9863206  43.8310451 130.7187465 101.5050435  36.3751288
 129.9416908 101.1661594  35.9306450 131.3978946 101.5103058  35.7006253
 125.5339494  96.6245172  36.2657896 125.2289629  96.9391321  37.1168039
 126.4869936  96.7026592  36.3085229 123.9785926 102.7835396  37.9150850
 123.4507287 102.0488155  37.6024087 123.4773428 103.5610072  37.6690818
 128.9578772 100.9784416  43.0317896 128.3002446 101.6683678  43.1198025
 129.7619171 101.3680848  43.3751882 118.7104653  93.4455062  40.2757461
 119.2848405  93.2230243  39.5430654 119.2975636  93.5143756  41.0286063
 127.7684231  99.3328789  41.0821838 128.2816112  99.9658781  41.5843548
 128.4185454  98.7329984  40.7165198 119.0374240  95.4759523  34.2953347
 118.2011553  95.8134209  34.6162621 118.8979010  95.3408503  33.3580483
 121.0127321  90.3196311  39.0032531 120.3591733  90.0045328  38.3789145
 120.9707795  89.6972051  39.7292354 122.1238526 100.6015606  30.9185823
 121.2165588 100.3704859  31.1176972 122.6209558  99.8053225  31.1059804
 125.0306605 109.3113113  33.8382509 124.3568304 109.6144810  34.4467467
 125.4172427 110.1142193  33.4887966 124.2465061  96.8078244  43.3280178
 123.3287623  97.0293191  43.1701866 124.6625205  96.8824555  42.4691886
 125.0300109  98.2069660  38.4582859 125.7771928  98.7191057  38.1489981
 125.2991699  97.8853713  39.3187252 123.3026759 100.7028201  35.4409813
 122.3937979 100.4187234  35.5382283 123.3321843 101.1227279  34.5813120
 128.5346027 104.3134790  39.2100980 128.0808354 103.4725700  39.2666171
 127.9039993 104.9496189  39.5475761 127.4778946  95.2426776  40.4401648
 126.7401703  94.7304163  40.7711890 127.7305720  94.8027158  39.6284925
 126.9778966 106.1511287  40.1450799 127.2701940 106.7116344  39.4263164
 127.4877587 106.4439848  40.9003958 127.5790574  88.0203028  41.0343417
 127.8849450  87.1600392  40.7469332 128.3043178  88.6120648  40.8342411
 113.8714930  98.4233715  39.4225015 113.6739329  97.8303076  38.6976082
 113.3161594  98.1185925  40.1400954 121.8511653  98.3156821  41.5419608
 121.9060263  97.3630658  41.4662085 121.0402855  98.4716260  42.0260907
 123.0002847 102.2436944  32.7797891 122.5622277 101.5272803  32.3203529
 123.7413288 102.4713059  32.2182983 119.7904013  96.9333881  39.3009987
 118.9771879  97.2328052  39.7075179 120.2863007  96.5389570  40.0184469
 121.9412591 106.9291638  41.2344252 121.8988770 107.1552484  40.3052784
 122.8575290 106.6955013  41.3830053 125.3878225  97.3975706  48.1324881
 125.7427613  97.6247179  48.9919347 126.0350356  97.7294082  47.5102136
 131.1175962 100.5194141  38.8374210 130.9793860 100.7095737  37.9095399
 130.7612181 101.2813524  39.2942261 119.2818088  94.5052237  44.9171222
 119.9217467  94.3640996  44.2194185 118.4495619  94.2186750  44.5409824
 131.1445341 102.5870668  43.8485482 131.5781848 102.4945958  44.6968536
 131.8576922 102.5628169  43.2105498 120.0578392 103.8054667  41.0306214
 120.8518990 103.3104987  40.8288789 119.3470084 103.2772530  40.6673920
 124.8773236 106.1872763  45.3818582 124.9310259 106.7563699  46.1496298
 124.0088018 106.3574648  45.0172619 116.3661155  97.9497749  37.1065967
 115.4358743  97.8882204  37.3235929 116.4618627  97.4273702  36.3102608
 116.2846704  94.4752562  39.6944209 116.5453522  95.3897895  39.5853369
 117.1063877  94.0077004  39.8440822 117.7571630  95.8890319  46.8643033
 118.4294683  95.6807681  46.2155682 116.9301416  95.6912405  46.4248266
 132.0060891 102.6294369  46.3818367 132.1996781 103.5340180  46.6277642
 131.9061509 102.1701788  47.2156952 123.6597202  92.5152260  48.8808694
 123.0125117  93.2142209  48.7873171 124.4298217  92.9488404  49.2484942
 127.0676000 102.7801112  51.9559248 126.9161506 102.5511664  51.0389331
 127.0580679 103.7371713  51.9690593 123.8361336 100.3533025  46.9405514
 124.7653396 100.5044184  46.7674481 123.4152366 100.4417045  46.0854160
 122.6349668 104.3783689  44.7104052 122.4960754 104.0102473  45.5829990
 121.8464264 104.8931328  44.5388009 123.2297820 109.4792786  36.0529588
 123.4049576 109.0080829  36.8675211 122.5430608 110.1058552  36.2810849
 124.1854883 103.7565292  42.0992889 123.8504716 103.7166062  42.9950539
 123.6858829 103.0910008  41.6263300 118.1599127  99.1632922  47.6245471
 118.0218925  98.4313161  48.2257010 119.0704050  99.0741822  47.3429658
 127.1214075 101.1021326  32.3729949 126.5043245 100.3768154  32.2763002
 126.6530563 101.8630686  32.0297023 120.7881428  98.8752881  47.1129150
 121.4981046  98.2346073  47.0715769 120.7450736  99.1265776  48.0355331
 128.7768206 105.8120234  50.0335729 128.7180753 105.1279455  49.3666312
 129.1787725 106.5539224  49.5816355 119.5010362  95.8618099  48.9324790
 118.9647719  95.4108837  49.5846386 118.9127070  95.9964008  48.1895254
 117.7958905 112.6282148  42.8269448 118.0355503 113.2600672  43.5048467
 116.9528102 112.2770188  43.1134808 118.9112621  95.3206750  31.4951253
 118.0342087  95.1995551  31.1313500 119.3870374  94.5292829  31.2430142
 128.7785614 103.7759818  48.2649709 127.8912392 103.4385740  48.3876108
 129.3484165 103.0442850  48.5018474 110.4314761 100.1083910  41.5892760
 111.1185801  99.7945640  41.0013776 110.2762889 101.0125275  41.3160012
 115.2349483  94.9974107  46.0177784 115.1507672  94.3899776  45.2828194
 114.4132189  95.4883125  46.0187280 122.3086767 108.4361271  45.2310952
 122.2356939 109.2416242  45.7430257 121.8664160 108.6353237  44.4058974
 122.0976547 107.6733041  38.7413774 121.3144069 108.2154721  38.8351998
 122.7969292 108.1907020  39.1408015 125.4073197  93.4827670  41.3847979
 125.9041896  92.7297633  41.0649049 124.6360178  93.5191987  40.8191189
 133.2602954  99.1868036  43.0266271 133.2492830 100.0692751  42.6560204
 132.3920334  98.8339587  42.8320808 124.7685451 108.3348105  47.3869111
 125.4813423 108.9695570  47.3145012 124.2775479 108.4311971  46.5709113
 126.4902977 102.2399357  38.9586403 125.5559256 102.3600820  38.7891107
 126.6679646 101.3371824  38.6946412 121.9908166  95.6245053  41.1119664
 121.6205953  95.0716094  41.8000569 122.4867258  95.0203187  40.5594664
 129.8775529  98.0816677  39.4936437 130.3435981  98.9144668  39.4196739
 130.3283029  97.6161658  40.1981695 119.8197364 106.0842548  48.2074682
 120.5206824 106.7179031  48.3604076 119.3492479 106.4257280  47.4470321
 127.9451760 104.4260498  36.4922589 128.2211604 104.3117093  37.4016463
 127.0756259 104.0277983  36.4534762 127.8492192  90.4497264  43.5327338
 126.9355271  90.6801491  43.7009545 128.2785293  90.5335708  44.3841370
 127.6198650  98.6387156  46.0327232 126.9670100  98.8863063  45.3779685
 127.9979030  97.8251294  45.6989709 124.5805824 108.6746849  40.1355402
 124.7628218 107.8568505  40.5983155 125.4038810 108.8914541  39.6980292
 124.9147989 107.6015034  37.3970451 125.4435756 107.0907489  36.7840613
 125.1776209 107.2857564  38.2615984 123.6686223  99.3806967  52.5193269
 122.9926860  99.2801096  53.1895644 124.4913857  99.2246180  52.9829266
 115.4165082 105.6178903  45.1405784 116.0018519 104.8722591  45.2733689
 115.2189921 105.9282860  46.0242448 118.2703737 108.6530151  40.1568227
 117.6014113 109.1376278  39.6732267 118.1316607 108.8999371  41.0711605
 110.0082737  98.1884503  43.8610228 110.0466836  97.6548094  44.6547346
 109.5023030  97.6619709  43.2421205 122.4109006 110.6873894  46.7550885
 122.9627314 110.8505516  47.5199970 122.7515199 111.2778332  46.0830910
 117.3873499  93.0349044  47.3572770 117.4514826  93.8963875  46.9450168
 117.3240619  92.4223046  46.6245128 116.8625772  95.1072177  51.0045804
 117.4897811  94.7249254  51.6183328 116.0053691  94.8886378  51.3701497
 127.2619880 105.5135152  52.6099540 127.8059784 106.1265110  52.1154494
 126.6806725 106.0714730  53.1266553 113.6391314  96.9148606  36.9364159
 113.9344756  96.0059284  36.8831213 112.7379350  96.8936345  36.6145161
 125.5477393 108.6355870  43.7414567 125.4228533 107.8345610  43.2325513
 126.2056484 109.1302063  43.2528537 117.1685561  94.9904602  42.9191708
 116.4472147  95.6040570  42.7799181 117.9578817  95.5262367  42.8408354
 127.6112302 106.4364890  45.3694117 126.6642637 106.3170241  45.2972444
 127.9595075 105.5487388  45.4520379 119.9711875  92.3259029  49.1932359
 120.4946277  92.5721325  49.9558669 119.7524208  93.1579064  48.7735497
 115.3679156  94.5962703  37.0603484 115.0391862  93.7160082  36.8778590
 115.7218527  94.5410372  37.9479873 124.6158735 106.2317606  41.5698470
 124.4683697 105.3034313  41.7506040 125.4412228 106.2537697  41.0855545
 118.4820979  94.8835673  37.4278962 118.8217052  95.4121594  36.7057570
 118.9293100  95.2216079  38.2037528 128.2192857 107.0546165  42.6563342
 129.1439404 106.8489026  42.5187794 128.0508160 106.8062566  43.5652684
 121.1764420  93.2672724  46.8782030 120.8361240  92.4680537  47.2802710
 120.4703426  93.5674435  46.3058863 121.8280892  90.3522036  45.3309353
 122.6506961  89.8782514  45.2088243 122.0718955  91.1312520  45.8308039
 120.4689126  93.3810295  35.6272255 121.1897489  93.7591547  35.1235971
 119.8454430  94.0999171  35.7307233 124.6120249  94.0855444  36.5630587
 124.8283864  94.9680082  36.2619415 124.1314316  93.6941657  35.8336229
 119.3519471  97.0441157  43.1401331 119.2064051  97.3581460  44.0325613
 118.8744674  97.6626057  42.5872230 121.2115853  94.0343705  43.1882221
 121.1977422  93.1384798  42.8514519 121.9288282  94.0414369  43.8220507
 123.0641984  94.4681045  45.2335348 122.8059762  95.3898116  45.2319679
 122.5327025  94.0711480  45.9235813 128.0088173 107.5731832  38.0125434
 128.1825051 107.0078255  37.2599286 128.5017064 108.3732727  37.8304924
 113.8265133  99.5846501  46.0788993 113.2818601 100.3606309  46.2109267
 114.7044483  99.9317306  45.9208114 120.6152749  92.9158085  38.4569791
 120.7368661  91.9874731  38.6560679 120.3254792  92.9296771  37.5448107
 123.4843940  90.6012996  41.5936511 123.5065637  90.6652329  40.6388491
 123.9011999  89.7617504  41.7877017 133.8627564 100.3368255  39.6315734
 134.3058710  99.5875580  39.2334857 132.9854074 100.3278391  39.2489466
 128.9963345 106.8898597  35.1122332 129.6914250 107.5105289  35.3309647
 129.3386496 106.0393948  35.3874710 114.6131155  98.7116398  48.9719150
 113.8712891  98.8599033  49.5583780 114.2923899  98.9724663  48.1085899
 130.8954769 104.3398302  36.6409663 131.4206093 104.6785575  35.9158983
 130.8077121 103.4045317  36.4572798 122.5574817 108.2532376  48.7699540
 122.8661944 108.0081523  49.6422239 123.3550299 108.4579014  48.2818410
 122.5795429 110.4070285  41.0004916 122.1400420 109.9146664  41.6937773
 123.3303546 109.8643253  40.7596991 115.0587768 106.5981826  41.0029544
 115.8845788 106.2985598  40.6228188 114.7081820 105.8289449  41.4519333
 120.0269301 105.9508294  43.0727218 119.4049311 105.2879000  42.7729446
 120.6974168 105.9769426  42.3900866 113.2596373 104.5168153  41.9618478
 112.4228282 104.0890327  41.7802479 113.2320019 104.7100596  42.8989269
 120.0993829  94.4290083  52.6659724 120.1481984  95.3052205  52.2837493
 120.6416343  93.8867476  52.0931367 130.5848675 104.9731206  51.9460861
 129.7944218 104.9555345  51.4065360 130.3482029 105.5119499  52.7009897
 130.7046550 101.8223672  49.2593589 130.7544555 101.6573680  50.2009112
 130.5960473 100.9550931  48.8691470 119.5882808 104.5012218  36.5485678
 119.7370929 105.1847682  35.8952351 120.3949252 104.4817308  37.0635134
 127.9950312  97.8054600  50.5752896 128.8960175  97.6661065  50.2836894
 128.0698287  97.9709055  51.5151074 122.3293117  95.1821455  49.4206082
 121.4596427  95.4755021  49.1488671 122.5652598  95.7661900  50.1413346
 132.2064747 104.2420614  49.5035611 131.9149555 104.6050594  50.3399072
 131.5936878 103.5287622  49.3248943 133.4060429 101.8073493  42.0238181
 134.2407320 102.2463297  42.1875742 133.5419558 101.3312147  41.2046427
 130.4551935  99.3653228  47.9715669 130.9306056  99.5580875  47.1634520
 129.5317500  99.4212414  47.7259053 117.3435441 100.5277395  37.5546747
 117.0981483  99.6239725  37.7526957 117.5131356 100.5294546  36.6126225
 125.0332151  91.4001072  46.9371503 125.5514095  92.1362099  46.6117991
 124.6787284  91.7065065  47.7718262 116.6131089  96.2605753  35.0532909
 115.9200334  96.3350108  34.3972945 116.3682841  95.4966097  35.5754426
 125.2844745  87.8201354  42.4572399 125.5646499  87.1524543  43.0832826
 126.0695352  88.0130450  41.9447063 123.0878214 106.9960348  34.0197426
 122.5152181 107.6150535  33.5667898 123.6611008 107.5459710  34.5537348
 129.1553604  96.2418988  46.2043975 130.1071027  96.3417086  46.2256199
 128.9857054  95.4497257  46.7142059 127.1767983  93.3274572  46.3903375
 126.5817915  93.6079584  45.6949864 126.8917680  93.8168473  47.1620117
 126.3075474 107.2797498  35.1506008 127.2406147 107.2143060  35.3538884
 126.2198687 108.1153765  34.6920541 128.9363490 106.5963369  32.1109956
 128.8577122 106.2623232  33.0045713 129.7573157 107.0885137  32.1101428
 131.6341682  99.4625108  45.3186274 131.6018002  98.5241109  45.5045958
 132.2442305  99.5409145  44.5852099 123.4725012  98.3321161  31.3613478
 124.4184117  98.2027369  31.4301896 123.0939257  97.5935823  31.8382906
 131.7836170  96.2536151  45.3644557 131.2675219  95.4694608  45.1774486
 132.6676119  95.9254868  45.5291077 129.4446897  89.9977167  41.3240370
 129.2471718  89.6892255  42.2083702 130.0546603  90.7238806  41.4538300
 135.5333529  98.6648977  45.0566762 134.8066692  98.5304942  44.4483254
 135.1180815  98.9725806  45.8623480 123.3563705 102.3838907  52.8214135
 124.2766714 102.5617506  53.0154182 123.3213288 101.4394953  52.6693834
 121.6567930  96.2571137  31.2968363 120.7499385  95.9604250  31.3731077
 121.9343911  95.9600955  30.4302650 112.5745870  97.5777501  41.7467410
 112.2548654  96.7242809  41.4541784 112.0279298  97.7926079  42.5025377
 116.3525777 100.2939942  45.4636916 116.5711787 101.2257050  45.4824950
 116.7651551  99.9347916  46.2491720 123.2729995  90.8008027  37.4512605
 122.4630724  90.4555112  37.8267851 123.9614412  90.4915571  38.0400216
 125.2020544  89.8786074  39.0736901 125.7551582  90.2981527  39.7326924
 125.4390630  88.9521822  39.1159857 121.2253643  95.8673148  54.8539665
 121.1250370  96.8167505  54.7851756 121.0075185  95.5391386  53.9815735
 120.4266714  93.1158073  31.4380343 121.2885878  93.4412971  31.6976160
 120.6117058  92.3289569  30.9253408 112.4434130 101.1980412  43.7160531
 111.7497601 100.7834365  43.2030486 113.1907121 101.2400949  43.1193950
 128.5799351  91.9886599  38.5815566 127.9998020  92.6471403  38.1993618
 128.3135283  91.1663944  38.1702983 127.0302917  91.3891657  40.7836886
 127.5302695  91.5008191  39.9751205 127.6738525  91.0852710  41.4237694
 121.0884913  99.2970286  53.6704727 120.6051995 100.0970647  53.8768616
 121.1745852  99.3078231  52.7172171 114.3570872 101.1298666  41.5926546
 114.3341561 101.2286353  40.6408429 114.6671509 101.9763817  41.9143712
 117.0158250 103.1874821  45.7073161 117.9701504 103.1558763  45.6403092
 116.8170774 102.7265445  46.5223387 117.6057632 101.7575937  48.2743958
 118.4250521 102.2520016  48.2978796 117.8794440 100.8407905  48.2461526
 127.3624229  94.1486689  37.6371914 126.4750084  94.4336340  37.4192109
 127.7778218  93.9880453  36.7899191 130.7138765  94.1733210  41.3526253
 131.4899155  94.6629663  41.6250870 129.9886899  94.5991265  41.8098123
 133.1511323  94.8860830  42.4100194 133.7455814  94.6456566  41.6993502
 133.2237907  94.1667960  43.0373730 115.3708479 108.7294441  42.7243359
 115.2362947 107.9694841  42.1581357 114.9540541 109.4535340  42.2572147
 126.5067442 103.9131364  31.7319934 127.2103292 104.1181367  32.3477589
 125.7830091 104.4808126  31.9969017 127.3365252  99.6641225  37.8522204
 127.2800454 100.1209777  37.0129836 127.8893595  98.9031910  37.6745047
 131.1470058  95.4530957  38.6772324 130.8906993  95.0527593  39.5080531
 130.5222926  96.1674751  38.5522463 135.4582396  98.1927031  41.1843615
 134.8981954  98.2620220  41.9575177 134.8525900  98.0168015  40.4643111
 118.5277605 109.6263758  42.9361801 118.4109989 110.5709190  42.8340492
 117.7070051 109.3237319  43.3247600 128.4154140 104.3513893  33.7818394
 129.2499743 103.9195092  33.5995869 128.2538482 104.1795907  34.7095288
 128.0700032 100.8546007  35.1474733 128.0148836 100.6890278  34.2063177
 127.4446087 101.5622040  35.3036923 112.8592547  96.0914071  48.9736155
 113.5051410  95.5813025  49.4623381 112.6509698  96.8282753  49.5479581
 125.3845939 103.1594919  54.4728296 126.2537099 103.3335571  54.1114931
 124.9052690 103.9789335  54.3504025 121.3796157  90.3554116  34.7260052
 121.3674827  91.2995956  34.8828323 122.2719579  90.1724261  34.4319513
 119.5532119 110.2792020  46.1517730 120.4559366 110.3115630  46.4684225
 119.3269489 109.3492470  46.1664065 121.3085721 109.0323006  42.8127808
 120.3581352 109.0324868  42.6992181 121.6118207 108.2855741  42.2963843
 125.1948277  86.9496892  38.9805988 124.4280672  86.3955379  39.1262671
 125.6058982  87.0218761  39.8420140 117.1990038  93.2381688  53.0711170
 118.0621499  92.8818493  53.2814494 116.6255448  92.8995583  53.7586574
 133.8528121 114.8210973  43.8135095 133.5146632 114.7052037  42.9255630
 134.7217889 114.4202138  43.7936102 129.7114937 116.6746449  39.8031986
 129.1479802 116.5836386  39.0348274 129.5967332 115.8546353  40.2834479
 134.3347904 115.9745824  49.7721301 134.3236545 115.5798623  48.9001805
 134.4968543 115.2411897  50.3655072 127.2579369 118.1697641  42.6416207
 128.0500660 117.8288465  42.2262506 127.4976019 118.2792616  43.5618360
 131.0555165 118.7582936  48.7200485 130.7645031 119.6628567  48.6047151
 131.6912149 118.7999464  49.4344554 131.9811372 116.1359785  45.3101845
 132.5774944 115.9115807  44.5958807 132.0386343 115.3944530  45.9127292
 136.5979683 112.5934998  40.9526779 137.3842772 112.1754421  40.6017196
 136.8618387 113.4981090  41.1208427 133.6164230 114.9537473  39.0523100
 133.2522437 114.4268094  39.7636021 134.4731346 114.5635942  38.8789585
 129.4657532 114.8958148  41.7486983 128.5408028 114.7634363  41.9564675
 129.7141945 115.6752368  42.2456925 126.8266343 114.5391422  42.5830772
 126.9558724 114.7925901  43.4970184 126.1463794 115.1319130  42.2635427
 133.4883060 112.3816537  51.3382613 132.7116394 112.9410458  51.3285478
 134.1273623 112.8673320  51.8597483 131.7429432 115.1901991  50.9000580
 132.4844116 115.7287035  50.6235404 131.0366417 115.8168279  51.0572132
 137.2184772 117.3331131  49.4972742 137.6268128 116.8913542  48.7527374
 136.4962033 116.7583759  49.7506935 133.5715842 112.2703738  46.8706299
 134.4177037 112.6943152  47.0140948 133.5114479 111.6137362  47.5644862
 136.7215287 109.9308106  48.5287472 136.4776219 110.6850167  47.9921748
 136.9975218 110.3093454  49.3634719 136.2779979 109.0864539  44.1101310
 135.4164458 109.3845793  44.4018048 136.3042413 109.3034938  43.1782343
 133.0941548 117.6306730  40.5175116 133.5579894 117.9094433  39.7279738
 132.8298346 116.7290174  40.3348206 129.9865629 117.1778211  43.4554879
 130.5566986 117.6065480  42.8172363 130.5773741 116.8960796  44.1539065
 132.0310434 113.7529882  37.3264681 132.7334478 114.2050926  37.7938607
 131.6991063 113.1113701  37.9544574 130.4790796 112.3441639  51.7015890
 129.8489456 113.0257920  51.9351287 130.3726884 112.2324721  50.7569028
 125.7735768 112.0113435  42.6281814 124.9834822 112.2670963  42.1521925
 126.2647016 112.8261773  42.7333855 127.7250514 112.3758014  39.5865291
 126.9281677 112.4876708  40.1048787 127.4976106 112.7144666  38.7206182
 133.5556181 118.9002717  47.5347806 133.6200614 119.3623125  48.3705978
 132.8467105 118.2700082  47.6630116 124.0573471 112.2643925  45.0596805
 124.3081510 113.1490935  45.3254381 124.5933020 112.0848527  44.2871897
 129.7571538 106.6462405  54.0641141 129.3638484 106.0928603  54.7388785
 130.5737679 106.9572983  54.4547659 126.7233596 118.0846263  37.9754711
 127.2358117 118.8789513  38.1260276 127.3756309 117.3872553  37.9088313
 132.6739499 108.0620284  51.6561398 133.4149213 108.6627437  51.5765860
 132.9057422 107.3197922  51.0979440 127.8180837 113.2476651  49.9339627
 127.7034353 112.3461908  50.2346726 126.9625355 113.4940348  49.5824444
 129.6559796 122.7190193  46.0587807 130.2067222 122.5907256  45.2864801
 128.8171272 123.0185082  45.7082699 133.4526967 118.9841321  50.4032038
 133.9855304 118.2229609  50.1731346 132.9241049 118.6914973  51.1456192
 136.6196662 104.0901387  45.9325679 136.2760932 104.9803028  45.8564790
 136.9875625 103.9003044  45.0695264 124.6882513 116.4134917  38.7514282
 125.5257735 116.8231926  38.5347989 124.8660781 115.4734359  38.7214475
 134.1694056 108.9259699  39.4983353 133.3135653 108.5366549  39.3188992
 134.5821008 109.0051659  38.6383138 135.6993203 106.4606042  43.8974913
 135.1957998 106.4236177  43.0842718 135.9923810 107.3698785  43.9571569
 131.9436089 106.5444772  42.9041094 132.8089085 106.3487580  42.5446984
 132.0113598 106.3155123  43.8310451 129.5498408 108.7746980  40.2757461
 130.1242160 108.5522161  39.5430654 130.1369390 108.8435674  41.0286063
 131.8521075 105.6488228  39.0032531 131.1985488 105.3337246  38.3789145
 131.8101550 105.0263969  39.7292354 135.0858816 112.1370162  43.3280178
 134.1681377 112.3585109  43.1701866 135.5018959 112.2116473  42.4691886
 124.7108684 113.7525633  39.4225015 124.5133084 113.1594993  38.6976082
 124.1555348 113.4477843  40.1400954 132.6905408 113.6448739  41.5419608
 132.7454018 112.6922575  41.4662085 131.8796610 113.8008178  42.0260907
 130.6297768 112.2625799  39.3009987 129.8165633 112.5619969  39.7075179
 131.1256762 111.8681488  40.0184469 136.2271979 112.7267623  48.1324881
 136.5821367 112.9539096  48.9919347 136.8744111 113.0586000  47.5102136
 130.1211843 109.8344154  44.9171222 130.7611222 109.6932913  44.2194185
 129.2889373 109.5478668  44.5409824 130.8972146 119.1346585  41.0306214
 131.6912745 118.6396905  40.8288789 130.1863839 118.6064448  40.6673920
 127.2054910 113.2789666  37.1065967 126.2752498 113.2174122  37.3235929
 127.3012382 112.7565619  36.3102608 127.1240459 109.8044479  39.6944209
 127.3847276 110.7189813  39.5853369 127.9457631 109.3368922  39.8440822
 128.5965384 111.2182236  46.8643033 129.2688438 111.0099599  46.2155682
 127.7695171 111.0204322  46.4248266 134.4990956 107.8444177  48.8808694
 133.8518871 108.5434127  48.7873171 135.2691972 108.2780321  49.2484942
 134.6755091 115.6824942  46.9405514 135.6047151 115.8336102  46.7674481
 134.2546121 115.7708963  46.0854160 133.4743422 119.7075607  44.7104052
 133.3354508 119.3394391  45.5829990 132.6858019 120.2223246  44.5388009
 135.0248638 119.0857209  42.0992889 134.6898470 119.0457979  42.9950539
 134.5252583 118.4201925  41.6263300 128.9992882 114.4924839  47.6245471
 128.8612679 113.7605078  48.2257010 129.9097805 114.4033740  47.3429658
 131.6275182 114.2044799  47.1129150 132.3374801 113.5637991  47.0715769
 131.5844490 114.4557694  48.0355331 130.3404116 111.1910017  48.9324790
 129.8041473 110.7400755  49.5846386 129.7520825 111.3255925  48.1895254
 121.2708515 115.4375828  41.5892760 121.9579555 115.1237558  41.0013776
 121.1156644 116.3417192  41.3160012 126.0743237 110.3266024  46.0177784
 125.9901426 109.7191694  45.2828194 125.2525944 110.8175043  46.0187280
 136.2466951 108.8119588  41.3847979 136.7435651 108.0589550  41.0649049
 135.4753933 108.8483905  40.8191189 132.8301920 110.9536971  41.1119664
 132.4599708 110.4008011  41.8000569 133.3261012 110.3495104  40.5594664
 134.5079978 114.7098884  52.5193269 133.8320615 114.6093014  53.1895644
 135.3307611 114.5538098  52.9829266 126.2558837 120.9470821  45.1405784
 126.8412273 120.2014509  45.2733689 126.0583675 121.2574778  46.0242448
 120.8476491 113.5176421  43.8610228 120.8860591 112.9840012  44.6547346
 120.3416784 112.9911627  43.2421205 128.2267254 108.3640962  47.3572770
 128.2908580 109.2255793  46.9450168 128.1634374 107.7514963  46.6245128
 127.7019526 110.4364094  51.0045804 128.3291565 110.0541172  51.6183328
 126.8447445 110.2178296  51.3701497 124.4785069 112.2440523  36.9364159
 124.7738510 111.3351202  36.8831213 123.5773105 112.2228263  36.6145161
 128.0079316 110.3196520  42.9191708 127.2865902 110.9332488  42.7799181
 128.7972572 110.8554285  42.8408354 130.8105629 107.6550946  49.1932359
 131.3340031 107.9013243  49.9558669 130.5917963 108.4870981  48.7735497
 126.2072911 109.9254621  37.0603484 125.8785617 109.0452000  36.8778590
 126.5612281 109.8702290  37.9479873 129.3214734 110.2127591  37.4278962
 129.6610806 110.7413512  36.7057570 129.7686854 110.5507997  38.2037528
 132.0158175 108.5964641  46.8782030 131.6754995 107.7972455  47.2802710
 131.3097181 108.8966352  46.3058863 132.6674646 105.6813954  45.3309353
 133.4900716 105.2074432  45.2088243 132.9112710 106.4604438  45.8308039
 131.3082881 108.7102212  35.6272255 132.0291243 109.0883465  35.1235971
 130.6848185 109.4291089  35.7307233 135.4514004 109.4147361  36.5630587
 135.6677618 110.2971999  36.2619415 134.9708071 109.0233575  35.8336229
 130.1913225 112.3733075  43.1401331 130.0457806 112.6873378  44.0325613
 129.7138429 112.9917975  42.5872230 132.0509608 109.3635623  43.1882221
 132.0371177 108.4676716  42.8514519 132.7682036 109.3706286  43.8220507
 133.9035739 109.7972963  45.2335348 133.6453517 110.7190033  45.2319679
 133.3720779 109.4003397  45.9235813 124.6658887 114.9138419  46.0788993
 124.1212355 115.6898227  46.2109267 125.5438237 115.2609223  45.9208114
 131.4546504 108.2450003  38.4569791 131.5762415 107.3166649  38.6560679
 131.1648546 108.2588689  37.5448107 134.3237694 105.9304913  41.5936511
 134.3459391 105.9944246  40.6388491 134.7405753 105.0909422  41.7877017
 125.4524909 114.0408315  48.9719150 124.7106645 114.1890951  49.5583780
 125.1317653 114.3016581  48.1085899 125.8981523 121.9273744  41.0029544
 126.7239543 121.6277516  40.6228188 125.5475575 121.1581366  41.4519333
 130.8663056 121.2800212  43.0727218 130.2443065 120.6170917  42.7729446
 131.5367923 121.3061344  42.3900866 124.0990128 119.8460070  41.9618478
 123.2622036 119.4182245  41.7802479 124.0713773 120.0392514  42.8989269
 130.9387583 109.7582000  52.6659724 130.9875739 110.6344123  52.2837493
 131.4810098 109.2159393  52.0931367 133.1686872 110.5113373  49.4206082
 132.2990181 110.8046939  49.1488671 133.4046352 111.0953818  50.1413346
 128.1829196 115.8569313  37.5546747 127.9375238 114.9531643  37.7526957
 128.3525110 115.8586464  36.6126225 135.8725906 106.7292990  46.9371503
 136.3907850 107.4654016  46.6117991 135.5181039 107.0356983  47.7718262
 127.4524843 111.5897671  35.0532909 126.7594088 111.6642026  34.3972945
 127.2076595 110.8258014  35.5754426 136.1238500 103.1493272  42.4572399
 136.4040254 102.4816461  43.0832826 136.9089107 103.3422368  41.9447063
 134.1957459 117.7130825  52.8214135 135.1160469 117.8909424  53.0154182
 134.1607042 116.7686870  52.6693834 123.4139624 112.9069419  41.7467410
 123.0942409 112.0534727  41.4541784 122.8673053 113.1217997  42.5025377
 127.1919532 115.6231860  45.4636916 127.4105542 116.5548967  45.4824950
 127.6045306 115.2639834  46.2491720 134.1123750 106.1299945  37.4512605
 133.3024478 105.7847030  37.8267851 134.8008167 105.8207489  38.0400216
 136.0414298 105.2077992  39.0736901 136.5945337 105.6273445  39.7326924
 136.2784384 104.2813740  39.1159857 132.0647397 111.1965065  54.8539665
 131.9644124 112.1459422  54.7851756 131.8468939 110.8683304  53.9815735
 123.2827884 116.5272330  43.7160531 122.5891356 116.1126283  43.2030486
 124.0300875 116.5692867  43.1193950 131.9278667 114.6262204  53.6704727
 131.4445749 115.4262564  53.8768616 132.0139606 114.6370149  52.7172171
 125.1964627 116.4590584  41.5926546 125.1735315 116.5578271  40.6408429
 125.5065263 117.3055735  41.9143712 127.8552005 118.5166739  45.7073161
 128.8095258 118.4850681  45.6403092 127.6564528 118.0557363  46.5223387
 128.4451387 117.0867855  48.2743958 129.2644276 117.5811934  48.2978796
 128.7188195 116.1699823  48.2461526 126.2102234 124.0586358  42.7243359
 126.0756702 123.2986759  42.1581357 125.7934296 124.7827258  42.2572147
 123.6986301 111.4205989  48.9736155 124.3445165 110.9104943  49.4623381
 123.4903452 112.1574670  49.5479581 132.2189912 105.6846033  34.7260052
 132.2068582 106.6287873  34.8828323 133.1113334 105.5016179  34.4319513
 136.0342031 102.2788810  38.9805988 135.2674427 101.7247297  39.1262671
 136.4452736 102.3510679  39.8420140 128.0383792 108.5673606  53.0711170
 128.9015254 108.2110411  53.2814494 127.4649203 108.2287501  53.7586574
  59.7322925  -6.6341279  34.1114418  60.4450897  -5.9993814  34.0390319
  59.2412954  -6.5377413  33.2954419  57.3746480  -4.2815489  33.4796192
  57.9264788  -4.1183868  34.2445277  57.7152674  -3.6911051  32.8076217
  57.5212292  -6.7157008  35.4944846  57.8299418  -6.9607861  36.3667546
  58.3187774  -6.5110369  35.0063716  72.0075889  -0.1005839  30.6018877
  72.6454299  -0.2199092  29.8982217  71.8896732   0.8475005  30.6606829
  68.8165595  -0.1478411  30.5380402  68.4784107  -0.2637346  29.6500937
  69.6855363  -0.5487246  30.5181408  69.2985378   1.0056441  36.4966608
  69.2874019   0.6109239  35.6247111  69.4606018   0.2722513  37.0900379
  62.2216843   3.2008257  29.3661513  63.0138135   2.8599082  28.9507813
  62.4613493   3.3103232  30.2863667  70.2551970   5.3728033  21.8391758
  69.6039949   5.9582114  21.4525772  71.0496332   5.9034228  21.8986795
  66.0192639   3.7893553  35.4445792  65.7282505   4.6939183  35.3292458
  66.6549624   3.8310080  36.1589861  66.9448846   1.1670401  32.0347151
  67.5412418   0.9426424  31.3204114  67.0023818   0.4255147  32.6372599
  68.5801704  -0.0151910  25.7768406  68.2159912  -0.5421289  26.4881328
  69.4368820  -0.4053441  25.6034892  70.9782524   3.4754968  32.4395585
  70.6783248   4.3780007  32.3311392  70.6333584   3.2087151  33.2916738
  64.4295006  -0.0731235  28.4732290  63.5045502  -0.2055021  28.6809981
  64.6779419   0.7062984  28.9702232  61.7903817  -0.4297961  29.3076079
  61.9196198  -0.1763483  30.2215490  61.1101268   0.1629747  28.9880734
  65.9603304  10.2399288  25.4066553  65.8827334  11.1907114  25.4855033
  65.3564948   9.8945161  26.0641479  68.4520534  -2.5872846  38.0627920
  67.6753868  -2.0278926  38.0530784  69.0911097  -2.1016063  38.5842790
  66.7066906   0.2212607  37.6245887  67.4481591   0.7597651  37.3480710
  66.0003892   0.8478896  37.7817439  72.1822246   2.3641748  36.2218048
  72.5905602   1.9224158  35.4772681  71.4599507   1.7894375  36.4752241
  68.5353316  -2.6985645  33.5951605  69.3814511  -2.2746232  33.7386254
  68.4751954  -3.3552021  34.2890168  72.5051061   2.9242938  29.9770337
  71.8759923   3.0888653  29.2746405  72.1176723   3.3384548  30.7481301
  76.3840293   3.8597376  27.3314701  75.6991331   4.2396278  26.7811734
  76.4684142   4.4692703  28.0646649  73.6391224   1.5057335  33.9310044
  73.8508119   2.1489095  33.2544426  73.5920972   0.6719652  33.4631975
  68.0579022   2.6617346  27.2420422  68.5217368   2.9405049  26.4525045
  67.7935821   1.7600791  27.0593513  64.9503104   2.2088828  30.1800186
  65.5204461   2.6376096  29.5417670  65.5411215   1.9271413  30.8784371
  65.4428270  -2.6247745  38.4261197  64.8126931  -1.9431464  38.6596594
  65.3364358  -2.7364663  37.4814335  74.7537052   4.3829291  32.1032402
  75.5754496   3.9809478  31.8215083  74.7499455   4.2797525  33.0548518
  68.5193656   3.9313334  34.2593112  68.5838088   4.3933741  35.0951284
  67.8104579   3.3010699  34.3875422  59.0210945  -2.7045458  31.7842112
  59.2718984  -1.8198448  32.0499688  59.5570494  -2.8840857  31.0117204
  68.2341673   5.5981441  24.1272093  68.0987348   6.4432977  24.5556940
  68.7751486   5.8000719  23.3638026  63.4965955   6.2322636  26.7822771
  63.6732584   7.1540600  26.5943755  64.2922789   5.9181055  27.2117151
  62.7818312  -1.7212732  36.6584934  62.6671827  -2.6227475  36.9592033
  61.9262830  -1.4749036  36.3069751  69.8610150   6.2205008  38.2572435
  69.4174004   5.4341387  37.9393339  70.5227363   6.4084158  37.5916326
  64.6197271   7.7500810  32.7833113  65.1704696   7.6217873  32.0110107
  63.7808747   8.0495699  32.4328006  71.9591388   6.5007808  36.2853836
  71.9409863   7.3216689  35.7934105  72.8811308   6.3761883  36.5103977
  68.4164442   4.0151937  37.1277344  68.9492779   3.2540226  36.8976652
  67.8878523   3.7225589  37.8701499  76.5218694   1.8652969  23.0996595
  75.7448136   1.5264129  22.6551757  77.2010175   1.8705592  22.4251560
  69.7817154   3.1437930  24.6396156  69.2538516   2.4090689  24.3269394
  69.2804657   3.9212606  24.3936125  74.7610001   1.3386950  29.7563203
  74.1033675   2.0286212  29.8443331  75.5650400   1.7283382  30.0997189
  73.5715459  -0.3068677  27.8067144  74.0847341   0.3261315  28.3088854
  74.2216683  -0.9067481  27.4410504  70.8337834   9.6715647  20.5627816
  70.1599532   9.9747344  21.1712773  71.2203656  10.4744728  20.2133273
  70.0496290  -2.8319221  30.0525485  69.1318852  -2.6104274  29.8947173
  70.4656434  -2.7572911  29.1937192  70.8331338  -1.4327806  25.1828165
  71.5803157  -0.9206409  24.8735287  71.1022927  -1.7543753  26.0432559
  74.3377256   4.6737324  25.9346287  73.8839583   3.8328234  25.9911478
  73.7071222   5.3098723  26.2721067  72.7810195   6.5113821  26.8696105
  73.0733169   7.0718878  26.1508471  73.2908815   6.8042382  27.6249264
  67.6542882  -1.3240644  28.2664915  67.7091492  -2.2766808  28.1907391
  66.8434084  -1.1681205  28.7506213  67.7443820   7.2894172  27.9589558
  67.7019999   7.5155019  27.0298090  68.6606519   7.0557547  28.1075360
  71.1909454  -2.2421760  34.8570188  71.5458841  -2.0150287  35.7164653
  71.8381585  -1.9103383  34.2347443  76.9207191   0.8796676  25.5619517
  76.7825089   1.0698272  24.6340706  76.5643409   1.6416059  26.0187568
  76.9476570   2.9473203  30.5730788  77.3813077   2.8548492  31.4213842
  77.6608151   2.9230703  29.9350804  65.8609621   4.1657201  27.7551521
  66.6550219   3.6707521  27.5534096  65.1501313   3.6375064  27.3919227
  70.6804465   6.5475297  32.1063889  70.7341487   7.1166233  32.8741605
  69.8119247   6.7177182  31.7417926  63.5602859  -3.7507147  33.5888340
  64.2325912  -3.9589785  32.9400989  62.7332645  -3.9485061  33.1493572
  77.8092120   2.9896903  33.1063674  78.0028010   3.8942714  33.3522948
  77.7092738   2.5304322  33.9402259  72.8707229   3.1403646  38.6804554
  72.7192735   2.9114198  37.7634638  72.8611908   4.0974248  38.6935899
  69.6392565   0.7135559  33.6650821  70.5684625   0.8646718  33.4919788
  69.2183595   0.8019580  32.8099467  68.4380897   4.7386223  31.4349358
  68.2991982   4.3705008  32.3075296  67.6495493   5.2533863  31.2633316
  69.0329049   9.8395320  22.7774895  69.2080804   9.3683363  23.5920517
  68.3461837  10.4661086  23.0056155  69.9886112   4.1167826  28.8238196
  69.6535944   4.0768596  29.7195846  69.4890058   3.4512542  28.3508606
  63.9630356  -0.4764544  34.3490777  63.8250154  -1.2084305  34.9502316
  64.8735279  -0.5655644  34.0674965  66.5912656  -0.7644585  33.8374457
  67.3012275  -1.4051392  33.7961075  66.5481965  -0.5131690  34.7600638
  74.5799435   6.1722769  36.7581036  74.5211981   5.4881989  36.0911619
  74.9818954   6.9141759  36.3061662  65.3041590  -3.7779367  35.6570096
  64.7678947  -4.2288628  36.3091693  64.7158299  -3.6433458  34.9140561
  63.5990134  12.9884682  29.5514755  63.8386732  13.6203207  30.2293773
  62.7559330  12.6372723  29.8380114  74.5816842   4.1362353  34.9895016
  73.6943621   3.7988274  35.1121415  75.1515394   3.4045384  35.2263781
  61.0380712  -4.6423359  32.7423091  60.9538900  -5.2497690  32.0073501
  60.2163418  -4.1514341  32.7432587  68.1117996   8.7963805  31.9556259
  68.0388167   9.6018776  32.4675563  67.6695389   8.9955771  31.1304280
  67.9007775   8.0335575  25.4659080  67.1175297   8.5757255  25.5597305
  68.6000521   8.5509555  25.8653322  70.5716679   8.6950639  34.1114418
  71.2844652   9.3298104  34.0390319  70.0806708   8.7914505  33.2954419
  72.2934206   2.6001892  25.6831709  71.3590485   2.7203354  25.5136414
  72.4710875   1.6974358  25.4191719  65.6228593   6.4445082  34.9319988
  66.3238052   7.0781565  35.0849383  65.1523708   6.7859814  34.1715628
  73.7482989   4.7863032  23.2167895  74.0242833   4.6719627  24.1261769
  72.8787487   4.3880517  23.1780068  73.4229879  -1.0010310  32.7572539
  72.7701329  -0.7534403  32.1024991  73.8010259  -1.8146172  32.4235016
  70.3837053   9.0349383  26.8600709  70.5659447   8.2171039  27.3228461
  71.2070039   9.2517075  26.4225599  70.7179218   7.9617568  24.1215758
  71.2466985   7.4510023  23.5085920  70.9807438   7.6460098  24.9861291
  69.4717452  -0.2590499  39.2438576  68.7958089  -0.3596370  39.9140951
  70.2945086  -0.4151285  39.7074573  61.2196311   5.9781437  31.8651091
  61.8049748   5.2325125  31.9978995  61.0221149   6.2885394  32.7487755
  64.0734966   9.0132685  26.8813533  63.4045341   9.4978812  26.3977573
  63.9347836   9.2601905  27.7956912  68.2140235  11.0476428  33.4796192
  68.7658543  11.2108050  34.2445277  68.5546428  11.6380866  32.8076217
  62.6657001  -4.5325289  37.7291111  63.2929039  -4.9148212  38.3428635
  61.8084919  -4.7511087  38.0946803  73.0651109   5.8737686  39.3344846
  73.6091013   6.4867644  38.8399801  72.4837954   6.4317264  39.8511859
  71.3508622   8.9958404  30.4659874  71.2259761   8.1948144  29.9570819
  72.0087713   9.4904597  29.9773844  73.4143530   6.7967424  32.0939424
  72.4673866   6.6772775  32.0217751  73.7626304   5.9089922  32.1765685
  70.4189964   6.5920140  28.2943776  70.2714926   5.6636848  28.4751346
  71.2443457   6.6140231  27.8100852  74.0224086   7.4148699  29.3808649
  74.9470633   7.2091560  29.2433100  73.8539389   7.1665100  30.2897991
  65.1550699  -2.5956309  29.8646638  65.0095280  -2.2816006  30.7570920
  64.6775903  -1.9771409  29.3117537  73.8119402   7.9334366  24.7370740
  73.9856279   7.3680789  23.9844593  74.3048293   8.7335261  24.5550230
  59.6296362  -0.0550965  32.8034299  59.0849830   0.7208843  32.9354574
  60.5075711   0.2919840  32.6453421  74.7994574   7.2501131  21.8367639
  75.4945479   7.8707823  22.0554953  75.1417724   6.3996482  22.1120017
  60.4162383  -0.9281068  35.6964456  59.6744119  -0.7798433  36.2829087
  60.0955128  -0.6672803  34.8331206  76.6985997   4.7000836  23.3654970
  77.2237321   5.0388109  22.6404290  76.6108350   3.7647852  23.1818104
  68.3606046   8.6134910  35.4944846  68.6693173   8.3684057  36.3667546
  69.1581528   8.8181548  35.0063716  68.3826658  10.7672820  27.7250223
  67.9431648  10.2749198  28.4183079  69.1334775  10.2245787  27.4842298
  60.8618997   6.9584360  27.7274851  61.6877017   6.6588132  27.3473494
  60.5113049   6.1891983  28.1764639  65.8300530   6.3110829  29.7972524
  65.2080540   5.6481534  29.4974752  66.5005397   6.3371961  29.1146172
  59.0627602   4.8770687  28.6863784  58.2259510   4.4492861  28.5047786
  59.0351248   5.0703130  29.6234576  76.3879903   5.3333740  38.6706168
  75.5975447   5.3157879  38.1310667  76.1513258   5.8722034  39.4255204
  76.5077778   2.1826206  35.9838896  76.5575783   2.0176214  36.9254419
  76.3991702   1.3153465  35.5936777  78.0095975   4.6023148  36.2280918
  77.7180784   4.9653128  37.0644379  77.3968107   3.8890156  36.0494250
  79.2091658   2.1676028  28.7483488  80.0438549   2.6065832  28.9121048
  79.3450786   1.6914681  27.9291734  76.2583164  -0.2744238  34.6960976
  76.7337285  -0.0816591  33.8879827  75.3348729  -0.2185052  34.4504359
  72.1106703   7.6400033  21.8751315  73.0437376   7.5745594  22.0784190
  72.0229915   8.4756299  21.4165847  74.7394719   6.9565903  18.8355262
  74.6608351   6.6225767  19.7291020  75.5604386   7.4487671  18.8346735
  69.1594934   2.7441441  39.5459442  70.0797943   2.9220040  39.7399488
  69.1244517   1.7997487  39.3939141  62.1557006   0.6542476  32.1882223
  62.3743016   1.5859584  32.2070257  62.5682780   0.2950450  32.9737027
  67.0284872  -3.7724318  41.5784972  66.9281599  -2.8229961  41.5097063
  66.8106414  -4.1006079  40.7061042  58.2465359   1.5582947  30.4405838
  57.5528830   1.1436899  29.9275792  58.9938350   1.6003483  29.8439257
  66.8916142  -0.3427179  40.3950034  66.4083223   0.4573181  40.6013923
  66.9777081  -0.3319235  39.4417478  62.8189479   3.5477355  32.4318467
  63.7732733   3.5161298  32.3648399  62.6202003   3.0867979  33.2468693
  63.4088861   2.1178471  34.9989265  64.2281750   2.6122550  35.0224102
  63.6825669   1.2010440  34.9706833  61.1739708   9.0896975  29.4488665
  61.0394176   8.3297376  28.8826663  60.7571770   9.8137875  28.9817454
  73.1396481   0.0243760  24.5767511  73.0831683   0.4812311  23.7375143
  73.6924824  -0.7365556  24.3990353  64.3308834   9.9866292  29.6607108
  64.2141218  10.9311724  29.5585798  63.5101280   9.6839853  30.0492907
  74.2185368   4.7116428  20.5063701  75.0530972   4.2797626  20.3241175
  74.0569711   4.5398441  21.4340595  58.6623776  -3.5483395  35.6981462
  59.3082639  -4.0584441  36.1868687  58.4540927  -2.8114713  36.2724887
  71.1877168   3.5197453  41.1973603  72.0568327   3.6938105  40.8360238
  70.7083919   4.3391870  41.0749332  65.3563348  10.6394554  32.8763036
  66.2590595  10.6718164  33.1929531  65.1300718   9.7095005  32.8909372
  67.1116950   9.3925540  29.5373115  66.1612581   9.3927402  29.4237487
  67.4149436   8.6458275  29.0209150  82.8469643  15.2286079  30.6018877
  83.4848053  15.1092826  29.8982217  82.7290486  16.1766923  30.6606829
  79.6559350  15.1813507  30.5380402  79.3177861  15.0654571  29.6500937
  80.5249118  14.7804672  30.5181408  75.5146165  17.0348983  26.5277293
  74.9511031  16.9438920  25.7593581  75.3998560  16.2148888  27.0079785
  80.1379133  16.3348359  36.4966608  80.1267773  15.9401157  35.6247111
  80.2999772  15.6014431  37.0900379  73.0610597  18.5300175  29.3661513
  73.8531889  18.1890999  28.9507813  73.3007248  18.6395150  30.2863667
  81.0945724  20.7019951  21.8391758  80.4433704  21.2874031  21.4525772
  81.8890087  21.2326146  21.8986795  75.0201351  17.7909088  22.2378892
  75.7932227  17.2438075  22.0991768  75.3726750  18.6553337  22.4493354
  76.8586394  19.1185470  35.4445792  76.5676260  20.0231101  35.3292458
  77.4943378  19.1601998  36.1589861  77.7842601  16.4962319  32.0347151
  78.3806173  16.2718341  31.3204114  77.8417572  15.7547064  32.6372599
  77.3567629  13.9501754  19.8697342  77.6093150  13.4283275  19.1080805
  76.4192188  13.7867900  19.9724026  82.4010912  12.9537533  27.6772085
  83.1874001  12.5356956  27.3262502  82.6649616  13.8583625  27.8453734
  82.5720989  18.3910383  22.3760742  81.9366822  18.4645009  23.0881647
  82.2418396  18.9803982  21.6979821  87.8019339  12.8912766  28.5805064
  88.5344511  12.3211983  28.8142893  87.0458695  12.5034366  29.0211569
  77.0763918  15.8529860  22.0721717  76.9600176  15.1774763  22.7402801
  77.1866178  15.3662234  21.2553870  79.4195459  15.3140007  25.7768406
  79.0553666  14.7870628  26.4881328  80.2762575  14.9238476  25.6034892
  85.3244759   6.6034340  33.0399672  84.9928084   7.4729751  32.8160887
  84.7290373   6.2870624  33.7193703  79.0600946  10.3429907  20.7729755
  79.2275348  11.2110143  21.1400226  78.8698115  10.5057189  19.8491044
  81.8176279  18.8046886  32.4395585  81.5177002  19.7071925  32.3311392
  81.4727338  18.5379069  33.2916738  75.2688760  15.2560683  28.4732290
  74.3439257  15.1236897  28.6809981  75.5173174  16.0354902  28.9702232
  85.2173423  11.3229426  30.1193023  84.3090300  11.2544834  29.8251784
  85.1661019  11.8001371  30.9474848  79.0390167  12.7987564  21.7576422
  78.9189792  13.2444615  22.5961902  78.3442755  13.1472882  21.1989960
  72.6297571  14.8993956  29.3076079  72.7589953  15.1528435  30.2215490
  71.9495023  15.4921664  28.9880734  76.7997059  25.5691206  25.4066553
  76.7221088  26.5199031  25.4855033  76.1958702  25.2237079  26.0641479
  79.2914289  12.7419072  38.0627920  78.5147623  13.3012992  38.0530784
  79.9304852  13.2275855  38.5842790  87.0835069   9.5245864  31.8970896
  86.4409449   9.8178398  31.2510691  86.5789998   9.4098785  32.7024093
  84.7375233  13.2709038  22.5856756  85.6493089  13.5036424  22.4104453
  84.2284880  13.8546082  22.0231834  77.5460661  15.5504525  37.6245887
  78.2875345  16.0889569  37.3480710  76.8397646  16.1770814  37.7817439
  83.0216000  17.6933665  36.2218048  83.4299357  17.2516076  35.4772681
  82.2993262  17.1186293  36.4752241  79.3747071  12.6306272  33.5951605
  80.2208266  13.0545686  33.7386254  79.3145708  11.9739897  34.2890168
  83.3444815  18.2534856  29.9770337  82.7153678  18.4180570  29.2746405
  82.9570477  18.6676466  30.7481301  87.2234047  19.1889294  27.3314701
  86.5385085  19.5688195  26.7811734  87.3077896  19.7984621  28.0646649
  82.5246516  10.2910641  35.2532779  82.2807448  11.0452701  34.7167055
  82.8006446  10.6695988  36.0880026  84.4784979  16.8349253  33.9310044
  84.6901874  17.4781013  33.2544426  84.4314727  16.0011569  33.4631975
  82.0811208   9.4467074  30.8346617  81.2195687   9.7448327  31.1263354
  82.1073642   9.6637472  29.9027649  78.8972777  17.9909264  27.2420422
  79.3611123  18.2696967  26.4525045  78.6329575  17.0892709  27.0593513
  75.7896858  17.5380746  30.1800186  76.3598215  17.9668014  29.5417670
  76.3804970  17.2563330  30.8784371  77.8341663  14.1132417  24.0509987
  78.5365706  14.5653460  24.5183914  77.5022292  13.4716235  24.6789881
  76.2822025  12.7044173  38.4261197  75.6520685  13.3860454  38.6596594
  76.1758112  12.5927255  37.4814335  71.5766997  12.3715969  29.3527121
  70.7866051  12.6273498  28.8767232  72.0678244  13.1864307  29.4579162
  85.5930807  19.7121208  32.1032402  86.4148250  19.3101396  31.8215083
  85.5893209  19.6089443  33.0548518  73.5281742  12.7360548  26.3110598
  72.7312906  12.8479243  26.8294093  73.3007335  13.0747201  25.4451488
  79.3587410  19.2605252  34.2593112  79.4231843  19.7225659  35.0951284
  78.6498334  18.6302617  34.3875422  69.8604700  12.6246460  31.7842112
  70.1112738  13.5093470  32.0499688  70.3964248  12.4451061  31.0117204
  93.6836800  16.0559957  28.4517373  92.9300508  15.4867355  28.2961378
  93.8184341  16.0222621  29.3988008  79.0735428  20.9273359  24.1272093
  78.9381102  21.7724895  24.5556940  79.6145240  21.1292637  23.3638026
  75.5602767   7.0064939  40.7886448  75.1669713   6.4531138  41.4634092
  76.3768908   7.3175517  41.1792965  72.5264825  18.4448797  24.7000018
  73.0389346  19.2392047  24.8505582  73.1787538  17.7475088  24.6333619
  74.3359710  21.5614553  26.7822771  74.5126338  22.4832518  26.5943755
  75.1316543  21.2472973  27.2117151  78.4770728   8.4222818  38.3806704
  79.2180442   9.0229971  38.3011167  78.7088651   7.6800456  37.8224747
  73.6212066  13.6079185  36.6584934  73.5065581  12.7064443  36.9592033
  72.7656584  13.8542882  36.3069751  80.7003904  21.5496926  38.2572435
  80.2567758  20.7633304  37.9393339  81.3621118  21.7376076  37.5916326
  75.4591025  23.0792727  32.7833113  76.0098450  22.9509791  32.0110107
  74.6202501  23.3787616  32.4328006  82.7985142  21.8299726  36.2853836
  82.7803617  22.6508607  35.7934105  83.7205062  21.7053801  36.5103977
  79.2558196  19.3443855  37.1277344  79.7886533  18.5832143  36.8976652
  78.7272277  19.0517507  37.8701499  82.4227891   4.4503921  32.6570986
  82.0792161   5.3405563  32.5810097  82.7906854   4.2605579  31.7940571
  70.4913742  16.7737451  25.4759588  71.3288964  17.1834460  25.2593296
  70.6692010  15.8336894  25.4459782  82.3878174  14.4412532  21.1643421
  81.8724797  15.2117137  21.4031809  82.1155482  13.7677668  21.7876483
  79.9725285   9.2862233  26.2228660  79.1166881   8.8969083  26.0434298
  80.3852237   9.3654194  25.3628445  81.5024432   6.8208576  30.6220219
  80.9989227   6.7838711  29.8088025  81.7955038   7.7301319  30.6816876
  77.7467318   6.9047306  29.6286401  78.6120314   6.7090115  29.2692291
  77.8144826   6.6757658  30.5555758  87.3612448  17.1944887  23.0996595
  86.5841891  16.8556046  22.6551757  88.0403929  17.1997510  22.4251560
  82.1764477  12.3139624  22.9903202  81.8714613  12.6285773  23.8413346
  83.1294919  12.3921044  23.0330535  80.6210909  18.4729848  24.6396156
  80.0932271  17.7382607  24.3269394  80.1198412  19.2504524  24.3936125
  85.6003755  16.6678868  29.7563203  84.9427429  17.3578129  29.8443331
  86.4044154  17.0575300  30.0997189  75.3529637   9.1349514  27.0002768
  75.9273388   8.9124695  26.2675961  75.9400619   9.2038208  27.7531369
  84.4109214  15.0223241  27.8067144  84.9241096  15.6553233  28.3088854
  85.0610438  14.4224436  27.4410504  75.6799224  11.1653975  21.0198653
  74.8436536  11.5028661  21.3407928  75.5403993  11.0302955  20.0825790
  77.6552304   6.0090763  25.7277837  77.0016717   5.6939780  25.1034452
  77.6132778   5.3866503  26.4537660  78.7663509  16.2910058  17.6431129
  77.8590571  16.0599311  17.8422278  79.2634541  15.4947677  17.8305111
  81.6731588  25.0007565  20.5627816  80.9993287  25.3039262  21.1712773
  82.0597410  25.8036645  20.2133273  80.8890045  12.4972696  30.0525485
  79.9712606  12.7187643  29.8947173  81.3050188  12.5719007  29.1937192
  81.6725092  13.8964112  25.1828165  82.4196911  14.4085509  24.8735287
  81.9416682  13.5748165  26.0432559  79.9451743  16.3922653  22.1655120
  79.0362962  16.1081685  22.2627589  79.9746826  16.8121731  21.3058426
  85.1771010  20.0029242  25.9346287  84.7233337  19.1620152  25.9911478
  84.5464977  20.6390641  26.2721067  84.1203930  10.9321228  27.1646955
  83.3826686  10.4198614  27.4957197  84.3730703  10.4921610  26.3530231
  83.6203949  21.8405739  26.8696105  83.9126924  22.4010796  26.1508471
  84.1302570  22.1334300  27.6249264  84.2215557   3.7097480  27.7588724
  84.5274434   2.8494844  27.4714639  84.9468162   4.3015100  27.5587718
  70.5139913  14.1128167  26.1470322  70.3164313  13.5197527  25.4221388
  69.9586577  13.8080377  26.8646260  78.4936637  14.0051273  28.2664915
  78.5485246  13.0525110  28.1907391  77.6827839  14.1610712  28.7506213
  79.6427830  17.9331396  19.5043198  79.2047260  17.2167255  19.0448835
  80.3838271  18.1607511  18.9428289  76.4328997  12.6228333  26.0255294
  75.6196862  12.9222504  26.4320486  76.9287991  12.2284022  26.7429776
  78.5837574  22.6186090  27.9589558  78.5413753  22.8446936  27.0298090
  79.5000273  22.3849465  28.1075360  82.0303208  13.0870157  34.8570188
  82.3852596  13.3141631  35.7164653  82.6775339  13.4188534  34.2347443
  87.7600945  16.2088593  25.5619517  87.6218844  16.3990189  24.6340706
  87.4037164  16.9707976  26.0187568  75.9243071  10.1946689  31.6416529
  76.5642451  10.0535448  30.9439492  75.0920602   9.9081202  31.2655131
  87.7870325  18.2765120  30.5730788  88.2206831  18.1840409  31.4213842
  88.5001905  18.2522621  29.9350804  76.7003375  19.4949119  27.7551521
  77.4943974  18.9999439  27.5534096  75.9895068  18.9666982  27.3919227
  81.5198220  21.8767214  32.1063889  81.5735242  22.4458151  32.8741605
  80.6513001  22.0469100  31.7417926  73.0086139  13.6392201  23.8311274
  72.0783727  13.5776656  24.0481236  73.1043611  13.1168153  23.0347915
  72.9271688  10.1647014  26.4189515  73.1878505  11.0792347  26.3098676
  73.7488860   9.6971456  26.5686128  74.3996613  11.5784771  33.5888340
  75.0719666  11.3702133  32.9400989  73.5726400  11.3806857  33.1493572
  88.6485874  18.3188821  33.1063674  88.8421764  19.2234632  33.3522948
  88.5486493  17.8596240  33.9402259  80.3022185   8.2046712  35.6054001
  79.6550100   8.9036661  35.5118477  81.0723200   8.6382856  35.9730249
  83.7100983  18.4695564  38.6804554  83.5586489  18.2406115  37.7634638
  83.7005662  19.4266165  38.6935899  80.4786319  16.0427477  33.6650821
  81.4078379  16.1938636  33.4919788  80.0577349  16.1311497  32.8099467
  79.2774651  20.0678141  31.4349358  79.1385737  19.6996925  32.3075296
  78.4889247  20.5825780  31.2633316  79.8722803  25.1687237  22.7774895
  80.0474559  24.6975281  23.5920517  79.1855591  25.7953004  23.0056155
  80.8279866  19.4459744  28.8238196  80.4929699  19.4060514  29.7195846
  80.3283812  18.7804460  28.3508606  74.8024110  14.8527374  34.3490777
  74.6643908  14.1207612  34.9502316  75.7129034  14.7636274  34.0674965
  83.7639058  16.7915778  19.0975256  83.1468229  16.0662606  19.0008308
  83.2955546  17.5525138  18.7542330  77.4306411  14.5647333  33.8374457
  78.1406030  13.9240525  33.7961075  77.3875719  14.8160228  34.7600638
  85.4193190  21.5014686  36.7581036  85.3605736  20.8173906  36.0911619
  85.8212708  22.2433676  36.3061662  76.1435345  11.5512551  35.6570096
  75.6072702  11.1003289  36.3091693  75.5552053  11.6858460  34.9140561
  74.4383888  28.3176600  29.5514755  74.6780487  28.9495124  30.2293773
  73.5953085  27.9664640  29.8380114  75.5537604  11.0101202  18.2196560
  74.6767070  10.8890003  17.8558807  76.0295357  10.2187281  17.9675449
  85.4210597  19.4654270  34.9895016  84.5337376  19.1280192  35.1121415
  85.9909148  18.7337301  35.2263781  67.0739744  15.7978362  28.3138067
  67.7610784  15.4840092  27.7259082  66.9187873  16.7019727  28.0405319
  71.8774466  10.6868559  32.7423091  71.7932655  10.0794228  32.0073501
  71.0557173  11.1777577  32.7432587  78.9511750  24.1255723  31.9556259
  78.8781922  24.9310694  32.4675563  78.5089143  24.3247688  31.1304280
  78.7401530  23.3627493  25.4659080  77.9569052  23.9049173  25.5597305
  79.4394275  23.8801472  25.8653322  82.0498180   9.1722122  28.1093286
  82.5466880   8.4192084  27.7894356  81.2785162   9.2086439  27.5436495
  89.9027937  14.8762488  29.7511577  89.8917814  15.7587203  29.3805510
  89.0345317  14.5234038  29.5566114  81.4110434  24.0242557  34.1114418
  82.1238406  24.6590021  34.0390319  80.9200462  24.1206423  33.2954419
  83.1327961  17.9293809  25.6831709  82.1984239  18.0495272  25.5136414
  83.3104629  17.0266276  25.4191719  78.6333149  11.3139505  27.8364970
  78.2630936  10.7610545  28.5245876  79.1292241  10.7097639  27.2839970
  86.5200512  13.7711129  26.2181743  86.9860964  14.6039120  26.1442046
  86.9708013  13.3056110  26.9227002  76.4622347  21.7737000  34.9319988
  77.1631807  22.4073483  35.0849383  75.9917462  22.1151732  34.1715628
  84.5876743  20.1154950  23.2167895  84.8636587  20.0011544  24.1261769
  83.7181242  19.7172435  23.1780068  84.4917175   6.1391716  30.2572645
  83.5780255   6.3695942  30.4254852  84.9210276   6.2230160  31.1086677
  84.2623633  14.3281608  32.7572539  83.6095084  14.5757515  32.1024991
  84.6404013  13.5145746  32.4235016  81.2230807  24.3641301  26.8600709
  81.4053202  23.5462957  27.3228461  82.0463793  24.5808993  26.4225599
  81.5572973  23.2909486  24.1215758  82.0860739  22.7801940  23.5085920
  81.8201192  22.9752016  24.9861291  80.3111206  15.0701419  39.2438576
  79.6351843  14.9695548  39.9140951  81.1338840  14.9140632  39.7074573
  72.0590065  21.3073355  31.8651091  72.6443502  20.5617043  31.9978995
  71.8614904  21.6177312  32.7487755  74.9128721  24.3424603  26.8813533
  74.2439096  24.8270730  26.3977573  74.7741590  24.5893823  27.7956912
  66.6507720  13.8778955  30.5855534  66.6891820  13.3442546  31.3792652
  66.1448013  13.3514161  29.9666511  79.0533989  26.3768346  33.4796192
  79.6052297  26.5399968  34.2445277  79.3940183  26.9672784  32.8076217
  74.0298482   8.7243496  34.0818077  74.0939809   9.5858327  33.6695474
  73.9665603   8.1117498  33.3490435  73.5050755  10.7966628  37.7291111
  74.1322794  10.4143706  38.3428635  72.6478674  10.5780830  38.0946803
  83.9044864  21.2029604  39.3344846  84.4484768  21.8159562  38.8399801
  83.3231708  21.7609182  39.8511859  70.2816298  12.6043058  23.6609466
  70.5769739  11.6953736  23.6076519  69.3804334  12.5830797  23.3390468
  82.1902377  24.3250322  30.4659874  82.0653516  23.5240061  29.9570819
  82.8481468  24.8196515  29.9773844  73.8110545  10.6799054  29.6437014
  73.0897131  11.2935022  29.5044488  74.6003801  11.2156819  29.5653660
  84.2537285  22.1259342  32.0939424  83.3067620  22.0064693  32.0217751
  84.6020058  21.2381840  32.1765685  76.6136858   8.0153481  35.9177666
  77.1371260   8.2615777  36.6803975  76.3949192   8.8473515  35.4980803
  72.0104139  10.2857155  23.7848791  71.6816846   9.4054534  23.6023897
  72.3643510  10.2304824  24.6725180  81.2583718  21.9212058  28.2943776
  81.1108681  20.9928765  28.4751346  82.0837212  21.9432149  27.8100852
  75.1245963  10.5730125  24.1524268  75.4642035  11.1016046  23.4302877
  75.5718083  10.9110531  24.9282835  84.8617840  22.7440617  29.3808649
  85.7864388  22.5383478  29.2433100  84.6933143  22.4957018  30.2897991
  77.8189403   8.9567176  33.6027336  77.4786224   8.1574989  34.0048016
  77.1128410   9.2568887  33.0304170  78.4705875   6.0416488  32.0554660
  79.2931944   5.5676966  31.9333550  78.7143939   6.8206972  32.5553346
  77.1114110   9.0704747  22.3517561  77.8322472   9.4485999  21.8481278
  76.4879414   9.7893623  22.4552539  81.2545233   9.7749896  23.2875894
  81.4708847  10.6574533  22.9864722  80.7739300   9.3836109  22.5581536
  75.9944454  12.7335609  29.8646638  75.8489035  13.0475912  30.7570920
  75.5169658  13.3520509  29.3117537  77.8540837   9.7238157  29.9127528
  77.8402406   8.8279250  29.5759826  78.5713265   9.7308820  30.5465814
  79.7066968  10.1575497  31.9580655  79.4484745  11.0792568  31.9564986
  79.1752008   9.7605931  32.6481119  84.6513156  23.2626284  24.7370740
  84.8250034  22.6972707  23.9844593  85.1442048  24.0627179  24.5550230
  70.4690116  15.2740953  32.8034299  69.9243584  16.0500761  32.9354574
  71.3469466  15.6211758  32.6453421  77.2577733   8.6052537  25.1815098
  77.3793644   7.6769183  25.3805985  76.9679775   8.6191223  24.2693413
  80.1268923   6.2907447  28.3181818  80.1490620   6.3546781  27.3633797
  80.5436982   5.4511956  28.5122324  90.5052547  16.0262707  26.3561040
  90.9483693  15.2770032  25.9580164  89.6279058  16.0172843  25.9734772
  85.6388329  22.5793048  21.8367639  86.3339233  23.1999741  22.0554953
  85.9811479  21.7288400  22.1120017  71.2556138  14.4010849  35.6964456
  70.5137874  14.5493485  36.2829087  70.9348882  14.6619115  34.8331206
  87.5379752  20.0292754  23.3654970  88.0631076  20.3680027  22.6404290
  87.4502104  19.0939769  23.1818104  79.1999801  23.9426828  35.4944846
  79.5086927  23.6975974  36.3667546  79.9975283  24.1473466  35.0063716
  79.2220413  26.0964737  27.7250223  78.7825403  25.6041116  28.4183079
  79.9728530  25.5537705  27.4842298  71.7012752  22.2876278  27.7274851
  72.5270772  21.9880050  27.3473494  71.3506804  21.5183901  28.1764639
  76.6694285  21.6402746  29.7972524  76.0474294  20.9773451  29.4974752
  77.3399152  21.6663878  29.1146172  69.9021357  20.2062605  28.6863784
  69.0653265  19.7784779  28.5047786  69.8745002  20.3995048  29.6234576
  76.7418812  10.1184534  39.3905030  76.7906968  10.9946657  39.0082800
  77.2841326   9.5761927  38.8176674  87.2273658  20.6625658  38.6706168
  86.4369202  20.6449796  38.1310667  86.9907013  21.2013951  39.4255204
  87.3471533  17.5118124  35.9838896  87.3969538  17.3468131  36.9254419
  87.2385456  16.6445383  35.5936777  76.2307792  20.1906670  23.2730985
  76.3795912  20.8742134  22.6197658  77.0374235  20.1711760  23.7880441
  84.6375295  13.4949052  37.2998203  85.5385158  13.3555517  37.0082201
  84.7123270  13.6603507  38.2396380  78.9718101  10.8715907  36.1451389
  78.1021410  11.1649473  35.8733978  79.2077581  11.4556352  36.8658653
  88.8489730  19.9315066  36.2280918  88.5574538  20.2945046  37.0644379
  88.2361861  19.2182074  36.0494250  90.0485412  17.4967945  28.7483488
  90.8832304  17.9357749  28.9121048  90.1844541  17.0206599  27.9291734
  87.0976918  15.0547680  34.6960976  87.5731040  15.2475326  33.8879827
  86.1742483  15.1106866  34.4504359  73.9860425  16.2171847  24.2792054
  73.7406467  15.3134177  24.4772264  74.1556339  16.2188998  23.3371532
  81.6757135   7.0895524  33.6616809  82.1939078   7.8256551  33.3363298
  81.3212267   7.3959517  34.4963569  73.2556072  11.9500205  21.7778215
  72.5625317  12.0244560  21.1218251  73.0107824  11.1860549  22.2999732
  81.9269729   3.5095806  29.1817706  82.2071482   2.8418995  29.8078133
  82.7120336   3.7024902  28.6692370  79.7303197  22.6854800  20.7442732
  79.1577164  23.3044987  20.2913204  80.3035991  23.2354162  21.2782654
  85.7978587  11.9313440  32.9289281  86.7496010  12.0311538  32.9501505
  85.6282037  11.1391709  33.4387366  83.8192967   9.0169023  33.1148682
  83.2242899   9.2974036  32.4195171  83.5342663   9.5062924  33.8865423
  82.9500457  22.9691950  21.8751315  83.8831130  22.9037512  22.0784190
  82.8623670  23.8048217  21.4165847  85.5788474  22.2857821  18.8355262
  85.5002105  21.9517684  19.7291020  86.3998140  22.7779589  18.8346735
  88.2766665  15.1519560  32.0431581  88.2442985  14.2135561  32.2291265
  88.8867288  15.2303597  31.3097406  80.1149996  14.0215613  18.0858785
  81.0609100  13.8921821  18.1547203  79.7364241  13.2830275  18.5628213
  88.4261153  11.9430603  32.0889864  87.9100202  11.1589060  31.9019793
  89.3101102  11.6149320  32.2536383  86.0871880   5.6871619  28.0485677
  85.8896701   5.3786707  28.9329009  86.6971586   6.4133258  28.1783607
  94.0943215  16.2135567  31.1837618  94.8246603  15.9520855  31.7445321
  93.4850160  15.4764289  31.2239686  92.1758512  14.3543429  31.7812069
  91.4491675  14.2199394  31.1728560  91.7605799  14.6620258  32.5868787
  79.9988688  18.0733359  39.5459442  80.9191698  18.2511958  39.7399488
  79.9638271  17.1289404  39.3939141  78.2992913  11.9465589  18.0213670
  77.3924368  11.6498702  18.0976384  78.5768894  11.6495407  17.1547956
  69.2170853  13.2671953  28.4712716  68.8973638  12.4137261  28.1787090
  68.6704281  13.4820531  29.2270684  72.9950761  15.9834394  32.1882223
  73.2136771  16.9151502  32.2070257  73.4076535  15.6242368  32.9737027
  79.9154979   6.4902479  24.1757911  79.1055707   6.1449564  24.5513157
  80.6039396   6.1810023  24.7645523  81.8445527   5.5680526  25.7982208
  82.3976565   5.9875979  26.4572231  82.0815613   4.6416274  25.8405164
  77.8678626  11.5567599  41.5784972  77.7675353  12.5061956  41.5097063
  77.6500168  11.2285838  40.7061042  77.0691697   8.8052525  18.1625649
  77.9310861   9.1307423  18.4221467  77.2542042   8.0184020  17.6498715
  69.0859113  16.8874864  30.4405838  68.3922585  16.4728817  29.9275792
  69.8332104  16.9295401  29.8439257  85.2224334   7.6781051  25.3060872
  84.6423003   8.3365855  24.9238925  84.9560267   6.8558396  24.8948290
  83.6727900   7.0786109  27.5082193  84.1727679   7.1902643  26.6996511
  84.3163508   6.7747162  28.1483001  77.7309896  14.9864738  40.3950034
  77.2476978  15.7865098  40.6013923  77.8170835  14.9972683  39.4417478
  70.9995856  16.8193118  28.3171853  70.9766544  16.9180805  27.3653736
  71.3096492  17.6658269  28.6389019  73.6583234  18.8769273  32.4318467
  74.6126487  18.8453215  32.3648399  73.4595757  18.4159897  33.2468693
  74.2482616  17.4470389  34.9989265  75.0675505  17.9414468  35.0224102
  74.5219423  16.5302357  34.9706833  84.0049212   9.8381141  24.3617221
  83.1175067  10.1230792  24.1437415  84.4203201   9.6774905  23.5144497
  87.3563748   9.8627662  28.0771560  88.1324138  10.3524115  28.3496177
  86.6311882  10.2885717  28.5343429  89.7936307  10.5755282  29.1345500
  90.3880798  10.3351018  28.4238809  89.8662890   9.8562412  29.7619037
  72.0133462  24.4188893  29.4488665  71.8787930  23.6589293  28.8826663
  71.5965525  25.1429792  28.9817454  83.1492425  19.6025816  18.4565241
  83.8528276  19.8075819  19.0722896  82.4255074  20.1702578  18.7214324
  83.9790236  15.3535677  24.5767511  83.9225437  15.8104229  23.7375143
  84.5318578  14.5926362  24.3990353  87.7895042  11.1425409  25.4017630
  87.5331976  10.7422045  26.2325838  87.1647910  11.8569203  25.2767769
  92.1007379  13.8821482  27.9088922  91.5406937  13.9514672  28.6820484
  91.4950883  13.7062467  27.1888418  75.1702588  25.3158210  29.6607108
  75.0534972  26.2603642  29.5585798  74.3495035  25.0131771  30.0492907
  85.0579123  20.0408345  20.5063701  85.8924727  19.6089544  20.3241175
  84.8963466  19.8690359  21.4340595  84.7125015  16.5440459  21.8720040
  84.6573819  16.3784730  20.9308484  84.0871070  17.2516491  22.0282230
  69.5017530  11.7808523  35.6981462  70.1476394  11.2707477  36.1868687
  69.2934681  12.5177205  36.2724887  82.0270922  18.8489370  41.1973603
  82.8962082  19.0230023  40.8360238  81.5477674  19.6683787  41.0749332
  78.0221140   6.0448568  21.4505358  78.0099810   6.9890407  21.6073629
  78.9144562   5.8618713  21.1564819  76.1957102  25.9686471  32.8763036
  77.0984349  26.0010082  33.1929531  75.9694473  25.0386922  32.8909372
  77.9510704  24.7217458  29.5373115  77.0006335  24.7219320  29.4237487
  78.2543191  23.9750193  29.0209150  81.8373260   2.6391344  25.7051295
  81.0705656   2.0849831  25.8507977  82.2483965   2.7113213  26.5665447
  73.8415021   8.9276140  39.7956476  74.7046483   8.5712945  40.0059801
  73.2680432   8.5890035  40.4831881  93.6863398  30.5577996  30.6018877
  94.3241808  30.4384744  29.8982217  93.5684241  31.5058840  30.6606829
  90.4953104  30.5105424  30.5380402  90.1571616  30.3946489  29.6500937
  91.3642872  30.1096590  30.5181408  86.3539920  32.3640901  26.5277293
  85.7904785  32.2730838  25.7593581  86.2392315  31.5440805  27.0079785
  90.9772887  31.6640276  36.4966608  90.9661528  31.2693074  35.6247111
  91.1393527  30.9306349  37.0900379  83.9004352  33.8592092  29.3661513
  84.6925644  33.5182917  28.9507813  84.1401002  33.9687068  30.2863667
  91.9339479  36.0311869  21.8391758  91.2827458  36.6165949  21.4525772
  92.7283841  36.5618063  21.8986795  85.8595106  33.1201006  22.2378892
  86.6325982  32.5729993  22.0991768  86.2120505  33.9845255  22.4493354
  87.6980148  34.4477388  35.4445792  87.4070014  35.3523019  35.3292458
  88.3337133  34.4893916  36.1589861  88.6236355  31.8254237  32.0347151
  89.2199927  31.6010259  31.3204114  88.6811327  31.0838982  32.6372599
  88.1961384  29.2793672  19.8697342  88.4486904  28.7575193  19.1080805
  87.2585943  29.1159817  19.9724026  93.2404666  28.2829450  27.6772085
  94.0267756  27.8648873  27.3262502  93.5043371  29.1875542  27.8453734
  93.4114744  33.7202301  22.3760742  92.7760577  33.7936927  23.0881647
  93.0812150  34.3095899  21.6979821  98.6413094  28.2204683  28.5805064
  99.3738266  27.6503900  28.8142893  97.8852449  27.8326284  29.0211569
  87.9157672  31.1821778  22.0721717  87.7993930  30.5066681  22.7402801
  88.0259932  30.6954152  21.2553870  90.2589213  30.6431925  25.7768406
  89.8947421  30.1162546  26.4881328  91.1156329  30.2530394  25.6034892
  96.1638514  21.9326258  33.0399672  95.8321839  22.8021668  32.8160887
  95.5684127  21.6162542  33.7193703  89.8994700  25.6721825  20.7729755
  90.0669103  26.5402061  21.1400226  89.7091869  25.8349106  19.8491044
  92.6570033  34.1338804  32.4395585  92.3570757  35.0363842  32.3311392
  92.3121093  33.8670987  33.2916738  86.1082515  30.5852600  28.4732290
  85.1833011  30.4528814  28.6809981  86.3566928  31.3646820  28.9702232
  96.0567177  26.6521344  30.1193023  95.1484055  26.5836752  29.8251784
  96.0054773  27.1293289  30.9474848  89.8783921  28.1279482  21.7576422
  89.7583546  28.5736533  22.5961902  89.1836510  28.4764800  21.1989960
  83.4691326  30.2285874  29.3076079  83.5983707  30.4820353  30.2215490
  82.7888777  30.8213582  28.9880734  87.6390813  40.8983124  25.4066553
  87.5614843  41.8490949  25.4855033  87.0352457  40.5528996  26.0641479
  90.1308043  28.0710989  38.0627920  89.3541377  28.6304909  38.0530784
  90.7698606  28.5567772  38.5842790  97.9228824  24.8537782  31.8970896
  97.2803204  25.1470315  31.2510691  97.4183752  24.7390702  32.7024093
  95.5768987  28.6000955  22.5856756  96.4886843  28.8328342  22.4104453
  95.0678634  29.1837999  22.0231834  88.3854415  30.8796443  37.6245887
  89.1269100  31.4181487  37.3480710  87.6791401  31.5062731  37.7817439
  93.8609755  33.0225583  36.2218048  94.2693111  32.5807994  35.4772681
  93.1387016  32.4478211  36.4752241  90.2140825  27.9598190  33.5951605
  91.0602020  28.3837603  33.7386254  90.1539463  27.3031814  34.2890168
  94.1838570  33.5826774  29.9770337  93.5547432  33.7472488  29.2746405
  93.7964232  33.9968383  30.7481301  98.0627802  34.5181212  27.3314701
  97.3778840  34.8980113  26.7811734  98.1471651  35.1276538  28.0646649
  93.3640270  25.6202558  35.2532779  93.1201202  26.3744619  34.7167055
  93.6400201  25.9987906  36.0880026  95.3178733  32.1641171  33.9310044
  95.5295628  32.8072930  33.2544426  95.2708481  31.3303487  33.4631975
  92.9204962  24.7758991  30.8346617  92.0589441  25.0740245  31.1263354
  92.9467397  24.9929390  29.9027649  89.7366531  33.3201182  27.2420422
  90.2004877  33.5988885  26.4525045  89.4723330  32.4184626  27.0593513
  86.6290613  32.8672663  30.1800186  87.1991970  33.2959932  29.5417670
  87.2198724  32.5855248  30.8784371  88.6735418  29.4424334  24.0509987
  89.3759461  29.8945378  24.5183914  88.3416046  28.8008153  24.6789881
  87.1215779  28.0336091  38.4261197  86.4914440  28.7152372  38.6596594
  87.0151867  27.9219172  37.4814335  82.4160751  27.7007887  29.3527121
  81.6259805  27.9565415  28.8767232  82.9071999  28.5156225  29.4579162
  96.4324561  35.0413126  32.1032402  97.2542005  34.6393313  31.8215083
  96.4286964  34.9381360  33.0548518  84.3675497  28.0652466  26.3110598
  83.5706660  28.1771160  26.8294093  84.1401089  28.4039118  25.4451488
  90.1981164  34.5897169  34.2593112  90.2625597  35.0517577  35.0951284
  89.4892088  33.9594534  34.3875422  80.6998454  27.9538377  31.7842112
  80.9506493  28.8385387  32.0499688  81.2358003  27.7742979  31.0117204
 104.5230554  31.3851874  28.4517373 103.7694262  30.8159273  28.2961378
 104.6578095  31.3514539  29.3988008  89.9129182  36.2565277  24.1272093
  89.7774857  37.1016813  24.5556940  90.4538995  36.4584554  23.3638026
  86.3996522  22.3356857  40.7886448  86.0063467  21.7823055  41.4634092
  87.2162662  22.6467435  41.1792965  83.3658580  33.7740715  24.7000018
  83.8783100  34.5683965  24.8505582  84.0181292  33.0767005  24.6333619
  85.1753464  36.8906471  26.7822771  85.3520093  37.8124436  26.5943755
  85.9710298  36.5764890  27.2117151  89.3164483  23.7514736  38.3806704
  90.0574196  24.3521889  38.3011167  89.5482406  23.0092374  37.8224747
  84.4605821  28.9371103  36.6584934  84.3459336  28.0356360  36.9592033
  83.6050339  29.1834800  36.3069751  91.5397659  36.8788843  38.2572435
  91.0961513  36.0925222  37.9393339  92.2014872  37.0667994  37.5916326
  86.2984780  38.4084645  32.7833113  86.8492205  38.2801708  32.0110107
  85.4596256  38.7079534  32.4328006  93.6378897  37.1591643  36.2853836
  93.6197372  37.9800524  35.7934105  94.5598817  37.0345718  36.5103977
  90.0951951  34.6735773  37.1277344  90.6280288  33.9124061  36.8976652
  89.5666032  34.3809425  37.8701499  93.2621646  19.7795839  32.6570986
  92.9185915  20.6697480  32.5810097  93.6300608  19.5897496  31.7940571
  81.3307496  32.1029369  25.4759588  82.1682718  32.5126378  25.2593296
  81.5085764  31.1628811  25.4459782  93.2271928  29.7704450  21.1643421
  92.7118552  30.5409054  21.4031809  92.9549237  29.0969586  21.7876483
  90.8119039  24.6154151  26.2228660  89.9560636  24.2261001  26.0434298
  91.2245991  24.6946111  25.3628445  92.3418186  22.1500494  30.6220219
  91.8382982  22.1130629  29.8088025  92.6348793  23.0593237  30.6816876
  88.5861072  22.2339224  29.6286401  89.4514069  22.0382032  29.2692291
  88.6538581  22.0049575  30.5555758  98.2006203  32.5236804  23.0996595
  97.4235645  32.1847964  22.6551757  98.8797684  32.5289428  22.4251560
  93.0158232  27.6431542  22.9903202  92.7108367  27.9577691  23.8413346
  93.9688674  27.7212962  23.0330535  91.4604663  33.8021765  24.6396156
  90.9326025  33.0674525  24.3269394  90.9592166  34.5796442  24.3936125
  96.4397509  31.9970786  29.7563203  95.7821184  32.6870047  29.8443331
  97.2437909  32.3867218  30.0997189  86.1923391  24.4641431  27.0002768
  86.7667143  24.2416613  26.2675961  86.7794374  24.5330126  27.7531369
  95.2502968  30.3515158  27.8067144  95.7634850  30.9845150  28.3088854
  95.9004192  29.7516354  27.4410504  86.5192978  26.4945893  21.0198653
  85.6830290  26.8320579  21.3407928  86.3797748  26.3594872  20.0825790
  88.4946059  21.3382680  25.7277837  87.8410471  21.0231698  25.1034452
  88.4526533  20.7158421  26.4537660  89.6057264  31.6201975  17.6431129
  88.6984325  31.3891229  17.8422278  90.1028296  30.8239595  17.8305111
  92.5125343  40.3299483  20.5627816  91.8387041  40.6331179  21.1712773
  92.8991164  41.1328563  20.2133273  91.7283799  27.8264614  30.0525485
  90.8106361  28.0479561  29.8947173  92.1443943  27.9010924  29.1937192
  92.5118847  29.2256030  25.1828165  93.2590666  29.7377427  24.8735287
  92.7810436  28.9040082  26.0432559  90.7845497  31.7214570  22.1655120
  89.8756716  31.4373603  22.2627589  90.8140581  32.1413649  21.3058426
  96.0164764  35.3321160  25.9346287  95.5627092  34.4912070  25.9911478
  95.3858731  35.9682558  26.2721067  94.9597684  26.2613146  27.1646955
  94.2220441  25.7490532  27.4957197  95.2124458  25.8213527  26.3530231
  94.4597704  37.1697657  26.8696105  94.7520678  37.7302714  26.1508471
  94.9696324  37.4626218  27.6249264  95.0609311  19.0389398  27.7588724
  95.3668188  18.1786761  27.4714639  95.7861916  19.6307018  27.5587718
  81.3533667  29.4420084  26.1470322  81.1558067  28.8489445  25.4221388
  80.7980331  29.1372295  26.8646260  89.3330391  29.3343191  28.2664915
  89.3879001  28.3817027  28.1907391  88.5221593  29.4902630  28.7506213
  90.4821585  33.2623314  19.5043198  90.0441015  32.5459173  19.0448835
  91.2232026  33.4899429  18.9428289  87.2722751  27.9520251  26.0255294
  86.4590617  28.2514421  26.4320486  87.7681745  27.5575939  26.7429776
  89.4231329  37.9478008  27.9589558  89.3807508  38.1738854  27.0298090
  90.3394028  37.7141382  28.1075360  92.8696963  28.4162075  34.8570188
  93.2246350  28.6433548  35.7164653  93.5169094  28.7480452  34.2347443
  98.5994700  31.5380511  25.5619517  98.4612598  31.7282107  24.6340706
  98.2430918  32.2999894  26.0187568  86.7636826  25.5238606  31.6416529
  87.4036205  25.3827365  30.9439492  85.9314356  25.2373120  31.2655131
  98.6264079  33.6057038  30.5730788  99.0600586  33.5132327  31.4213842
  99.3395660  33.5814539  29.9350804  87.5397130  34.8241037  27.7551521
  88.3337728  34.3291357  27.5534096  86.8288822  34.2958900  27.3919227
  92.3591974  37.2059132  32.1063889  92.4128996  37.7750068  32.8741605
  91.4906756  37.3761017  31.7417926  83.8479893  28.9684118  23.8311274
  82.9177481  28.9068574  24.0481236  83.9437365  28.4460071  23.0347915
  83.7665442  25.4938931  26.4189515  84.0272260  26.4084264  26.3098676
  84.5882615  25.0263374  26.5686128  85.2390368  26.9076688  33.5888340
  85.9113421  26.6994050  32.9400989  84.4120154  26.7098774  33.1493572
  99.4879629  33.6480739  33.1063674  99.6815519  34.5526549  33.3522948
  99.3880247  33.1888158  33.9402259  91.1415940  23.5338629  35.6054001
  90.4943855  24.2328579  35.5118477  91.9116955  23.9674773  35.9730249
  94.5494738  33.7987481  38.6804554  94.3980244  33.5698033  37.7634638
  94.5399417  34.7558083  38.6935899  91.3180074  31.3719394  33.6650821
  92.2472134  31.5230554  33.4919788  90.8971104  31.4603415  32.8099467
  90.1168406  35.3970059  31.4349358  89.9779491  35.0288843  32.3075296
  89.3283002  35.9117698  31.2633316  90.7116558  40.4979155  22.7774895
  90.8868313  40.0267198  23.5920517  90.0249346  41.1244921  23.0056155
  91.6673621  34.7751661  28.8238196  91.3323453  34.7352431  29.7195846
  91.1677567  34.1096377  28.3508606  85.6417865  30.1819291  34.3490777
  85.5037663  29.4499530  34.9502316  86.5522788  30.0928191  34.0674965
  94.6032812  32.1207696  19.0975256  93.9861983  31.3954524  19.0008308
  94.1349301  32.8817056  18.7542330  88.2700165  29.8939251  33.8374457
  88.9799784  29.2532443  33.7961075  88.2269474  30.1452146  34.7600638
  96.2586944  36.8306604  36.7581036  96.1999490  36.1465824  36.0911619
  96.6606463  37.5725594  36.3061662  86.9829099  26.8804469  35.6570096
  86.4466456  26.4295207  36.3091693  86.3945808  27.0150377  34.9140561
  85.2777643  43.6468518  29.5514755  85.5174241  44.2787042  30.2293773
  84.4346839  43.2956558  29.8380114  86.3931358  26.3393120  18.2196560
  85.5160825  26.2181921  17.8558807  86.8689111  25.5479198  17.9675449
  96.2604351  34.7946188  34.9895016  95.3731130  34.4572110  35.1121415
  96.8302902  34.0629219  35.2263781  77.9133499  31.1270280  28.3138067
  78.6004538  30.8132010  27.7259082  77.7581627  32.0311644  28.0405319
  82.7168221  26.0160476  32.7423091  82.6326409  25.4086146  32.0073501
  81.8950927  26.5069495  32.7432587  89.7905505  39.4547640  31.9556259
  89.7175676  40.2602612  32.4675563  89.3482898  39.6539606  31.1304280
  89.5795284  38.6919410  25.4659080  88.7962806  39.2341091  25.5597305
  90.2788030  39.2093390  25.8653322  92.8891935  24.5014040  28.1093286
  93.3860634  23.7484002  27.7894356  92.1178916  24.5378356  27.5436495
 100.7421692  30.2054405  29.7511577 100.7311568  31.0879121  29.3805510
  99.8739071  29.8525956  29.5566114  92.2504188  39.3534474  34.1114418
  92.9632161  39.9881939  34.0390319  91.7594217  39.4498340  33.2954419
  93.9721715  33.2585727  25.6831709  93.0377994  33.3787189  25.5136414
  94.1498384  32.3558194  25.4191719  89.4726903  26.6431423  27.8364970
  89.1024691  26.0902463  28.5245876  89.9685996  26.0389556  27.2839970
  97.3594267  29.1003046  26.2181743  97.8254719  29.9331038  26.1442046
  97.8101767  28.6348028  26.9227002  87.3016102  37.1028918  34.9319988
  88.0025561  37.7365401  35.0849383  86.8311217  37.4443649  34.1715628
  95.4270498  35.4446868  23.2167895  95.7030342  35.3303462  24.1261769
  94.5574996  35.0464352  23.1780068  95.3310929  21.4683633  30.2572645
  94.4174009  21.6987860  30.4254852  95.7604031  21.5522077  31.1086677
  95.1017388  29.6573525  32.7572539  94.4488838  29.9049433  32.1024991
  95.4797768  28.8437663  32.4235016  92.0624562  39.6933218  26.8600709
  92.2446956  38.8754874  27.3228461  92.8857548  39.9100911  26.4225599
  92.3966727  38.6201404  24.1215758  92.9254494  38.1093858  23.5085920
  92.6594947  38.3043934  24.9861291  91.1504961  30.3993336  39.2438576
  90.4745598  30.2987466  39.9140951  91.9732595  30.2432550  39.7074573
  82.8983820  36.6365273  31.8651091  83.4837257  35.8908961  31.9978995
  82.7008658  36.9469230  32.7487755  85.7522475  39.6716520  26.8813533
  85.0832850  40.1562648  26.3977573  85.6135345  39.9185741  27.7956912
  77.4901475  29.2070873  30.5855534  77.5285574  28.6734464  31.3792652
  76.9841767  28.6806079  29.9666511  89.8927744  41.7060264  33.4796192
  90.4446052  41.8691885  34.2445277  90.2333937  42.2964702  32.8076217
  84.8692237  24.0535414  34.0818077  84.9333563  24.9150244  33.6695474
  84.8059357  23.4409415  33.3490435  84.3444509  26.1258546  37.7291111
  84.9716548  25.7435623  38.3428635  83.4872428  25.9072748  38.0946803
  94.7438618  36.5321521  39.3344846  95.2878522  37.1451480  38.8399801
  94.1625463  37.0901100  39.8511859  81.1210052  27.9334975  23.6609466
  81.4163493  27.0245654  23.6076519  80.2198088  27.9122715  23.3390468
  93.0296131  39.6542239  30.4659874  92.9047270  38.8531979  29.9570819
  93.6875222  40.1488433  29.9773844  84.6504299  26.0090972  29.6437014
  83.9290885  26.6226939  29.5044488  85.4397555  26.5448737  29.5653660
  95.0931039  37.4551259  32.0939424  94.1461375  37.3356611  32.0217751
  95.4413813  36.5673757  32.1765685  87.4530613  23.3445398  35.9177666
  87.9765015  23.5907695  36.6803975  87.2342946  24.1765433  35.4980803
  82.8497894  25.6149073  23.7848791  82.5210600  24.7346452  23.6023897
  83.2037265  25.5596742  24.6725180  92.0977473  37.2503976  28.2943776
  91.9502435  36.3220683  28.4751346  92.9230966  37.2724066  27.8100852
  85.9639717  25.9022043  24.1524268  86.3035789  26.4307964  23.4302877
  86.4111837  26.2402449  24.9282835  95.7011595  38.0732534  29.3808649
  96.6258142  37.8675396  29.2433100  95.5326898  37.8248935  30.2897991
  88.6583158  24.2859093  33.6027336  88.3179978  23.4866906  34.0048016
  87.9522164  24.5860804  33.0304170  89.3099630  21.3708406  32.0554660
  90.1325699  20.8968884  31.9333550  89.5537693  22.1498890  32.5553346
  87.9507864  24.3996664  22.3517561  88.6716227  24.7777917  21.8481278
  87.3273168  25.1185541  22.4552539  92.0938987  25.1041813  23.2875894
  92.3102601  25.9866451  22.9864722  91.6133054  24.7128027  22.5581536
  86.8338208  28.0627526  29.8646638  86.6882789  28.3767830  30.7570920
  86.3563412  28.6812427  29.3117537  88.6934591  25.0530074  29.9127528
  88.6796160  24.1571168  29.5759826  89.4107019  25.0600738  30.5465814
  90.5460722  25.4867415  31.9580655  90.2878500  26.4084485  31.9564986
  90.0145762  25.0897849  32.6481119  95.4906911  38.5918202  24.7370740
  95.6643788  38.0264624  23.9844593  95.9835802  39.3919097  24.5550230
  81.3083871  30.6032871  32.8034299  80.7637339  31.3792679  32.9354574
  82.1863220  30.9503675  32.6453421  88.0971487  23.9344455  25.1815098
  88.2187398  23.0061101  25.3805985  87.8073530  23.9483141  24.2693413
  90.9662678  21.6199365  28.3181818  90.9884374  21.6838698  27.3633797
  91.3830737  20.7803874  28.5122324 101.3446302  31.3554625  26.3561040
 101.7877448  30.6061950  25.9580164 100.4672812  31.3464761  25.9734772
  96.4782083  37.9084966  21.8367639  97.1732988  38.5291659  22.0554953
  96.8205233  37.0580317  22.1120017  82.0949892  29.7302767  35.6964456
  81.3531628  29.8785402  36.2829087  81.7742637  29.9911033  34.8331206
  98.3773506  35.3584672  23.3654970  98.9024830  35.6971944  22.6404290
  98.2895859  34.4231687  23.1818104  90.0393555  39.2718745  35.4944846
  90.3480682  39.0267892  36.3667546  90.8369037  39.4765384  35.0063716
  90.0614167  41.4256655  27.7250223  89.6219157  40.9333034  28.4183079
  90.8122284  40.8829623  27.4842298  82.5406506  37.6168196  27.7274851
  83.3664526  37.3171968  27.3473494  82.1900558  36.8475818  28.1764639
  87.5088039  36.9694664  29.7972524  86.8868049  36.3065369  29.4974752
  88.1792906  36.9955796  29.1146172  80.7415111  35.5354522  28.6863784
  79.9047019  35.1076697  28.5047786  80.7138757  35.7286966  29.6234576
  87.5812567  25.4476452  39.3905030  87.6300722  26.3238575  39.0082800
  88.1235081  24.9053845  38.8176674  98.0667412  35.9917575  38.6706168
  97.2762956  35.9741714  38.1310667  97.8300767  36.5305869  39.4255204
  98.1865287  32.8410042  35.9838896  98.2363292  32.6760049  36.9254419
  98.0779211  31.9737301  35.5936777  87.0701546  35.5198587  23.2730985
  87.2189667  36.2034052  22.6197658  87.8767990  35.5003677  23.7880441
  95.4769050  28.8240970  37.2998203  96.3778913  28.6847435  37.0082201
  95.5517024  28.9895425  38.2396380  89.8111855  26.2007824  36.1451389
  88.9415165  26.4941391  35.8733978  90.0471336  26.7848269  36.8658653
  99.6883484  35.2606983  36.2280918  99.3968293  35.6236964  37.0644379
  99.0755616  34.5473992  36.0494250 100.8879167  32.8259863  28.7483488
 101.7226058  33.2649667  28.9121048 101.0238295  32.3498516  27.9291734
  97.9370673  30.3839598  34.6960976  98.4124794  30.5767244  33.8879827
  97.0136238  30.4398784  34.4504359  84.8254179  31.5463765  24.2792054
  84.5800221  30.6426095  24.4772264  84.9950094  31.5480915  23.3371532
  92.5150889  22.4187441  33.6616809  93.0332833  23.1548468  33.3363298
  92.1606022  22.7251435  34.4963569  84.0949827  27.2792123  21.7778215
  83.4019072  27.3536478  21.1218251  83.8501579  26.5152466  22.2999732
  92.7663483  18.8387724  29.1817706  93.0465237  18.1710913  29.8078133
  93.5514090  19.0316820  28.6692370  90.5696952  38.0146718  20.7442732
  89.9970919  38.6336905  20.2913204  91.1429745  38.5646080  21.2782654
  96.6372342  27.2605358  32.9289281  97.5889764  27.3603456  32.9501505
  96.4675792  26.4683626  33.4387366  94.6586721  24.3460941  33.1148682
  94.0636653  24.6265954  32.4195171  94.3736418  24.8354842  33.8865423
  93.7894211  38.2983868  21.8751315  94.7224885  38.2329430  22.0784190
  93.7017424  39.1340135  21.4165847  96.4182228  37.6149738  18.8355262
  96.3395860  37.2809602  19.7291020  97.2391895  38.1071506  18.8346735
  99.1160419  30.4811478  32.0431581  99.0836739  29.5427478  32.2291265
  99.7261043  30.5595514  31.3097406  90.9543750  29.3507531  18.0858785
  91.9002855  29.2213739  18.1547203  90.5757995  28.6122193  18.5628213
  99.2654908  27.2722521  32.0889864  98.7493956  26.4880978  31.9019793
 100.1494856  26.9441238  32.2536383  96.9265635  21.0163537  28.0485677
  96.7290456  20.7078625  28.9329009  97.5365340  21.7425176  28.1783607
 104.9336969  31.5427484  31.1837618 105.6640358  31.2812773  31.7445321
 104.3243915  30.8056206  31.2239686 103.0152266  29.6835347  31.7812069
 102.2885430  29.5491312  31.1728560 102.5999553  29.9912176  32.5868787
  90.8382443  33.4025277  39.5459442  91.7585452  33.5803876  39.7399488
  90.8032026  32.4581322  39.3939141  89.1386667  27.2757507  18.0213670
  88.2318123  26.9790620  18.0976384  89.4162648  26.9787325  17.1547956
  80.0564608  28.5963870  28.4712716  79.7367392  27.7429179  28.1787090
  79.5098036  28.8112449  29.2270684  83.8344515  31.3126311  32.1882223
  84.0530525  32.2443419  32.2070257  84.2470289  30.9534286  32.9737027
  90.7548733  21.8194397  24.1757911  89.9449461  21.4741482  24.5513157
  91.4433150  21.5101940  24.7645523  92.6839281  20.8972444  25.7982208
  93.2370320  21.3167897  26.4572231  92.9209368  19.9708192  25.8405164
  88.7072381  26.8859517  41.5784972  88.6069107  27.8353874  41.5097063
  88.4893923  26.5577756  40.7061042  87.9085452  24.1344442  18.1625649
  88.7704616  24.4599341  18.4221467  88.0935796  23.3475938  17.6498715
  79.9252868  32.2166782  30.4405838  79.2316339  31.8020735  29.9275792
  80.6725859  32.2587318  29.8439257  96.0618088  23.0072969  25.3060872
  95.4816758  23.6657773  24.9238925  95.7954021  22.1850313  24.8948290
  94.5121655  22.4078026  27.5082193  95.0121433  22.5194561  26.6996511
  95.1557263  22.1039079  28.1483001  88.5703651  30.3156656  40.3950034
  88.0870732  31.1157016  40.6013923  88.6564590  30.3264601  39.4417478
  81.8389610  32.1485036  28.3171853  81.8160298  32.2472723  27.3653736
  82.1490247  32.9950186  28.6389019  84.4976988  34.2061191  32.4318467
  85.4520242  34.1745133  32.3648399  84.2989512  33.7451814  33.2468693
  85.0876370  32.7762307  34.9989265  85.9069259  33.2706385  35.0224102
  85.3613178  31.8594275  34.9706833  94.8442966  25.1673059  24.3617221
  93.9568821  25.4522710  24.1437415  95.2596956  25.0066822  23.5144497
  98.1957503  25.1919580  28.0771560  98.9717893  25.6816032  28.3496177
  97.4705637  25.6177634  28.5343429 100.6330061  25.9047199  29.1345500
 101.2274552  25.6642935  28.4238809 100.7056645  25.1854330  29.7619037
  82.8527217  39.7480810  29.4488665  82.7181685  38.9881211  28.8826663
  82.4359279  40.4721710  28.9817454  93.9886180  34.9317734  18.4565241
  94.6922030  35.1367736  19.0722896  93.2648829  35.4994496  18.7214324
  94.8183990  30.6827595  24.5767511  94.7619192  31.1396146  23.7375143
  95.3712333  29.9218280  24.3990353  98.6288796  26.4717327  25.4017630
  98.3725730  26.0713963  26.2325838  98.0041664  27.1861121  25.2767769
 102.9401134  29.2113400  27.9088922 102.3800692  29.2806589  28.6820484
 102.3344637  29.0354385  27.1888418  86.0096343  40.6450127  29.6607108
  85.8928727  41.5895560  29.5585798  85.1888789  40.3423689  30.0492907
  95.8972877  35.3700263  20.5063701  96.7318481  34.9381461  20.3241175
  95.7357220  35.1982277  21.4340595  95.5518770  31.8732376  21.8720040
  95.4967573  31.7076648  20.9308484  94.9264825  32.5808409  22.0282230
  80.3411285  27.1100441  35.6981462  80.9870148  26.5999395  36.1868687
  80.1328436  27.8469122  36.2724887  92.8664677  34.1781288  41.1973603
  93.7355836  34.3521940  40.8360238  92.3871428  34.9975705  41.0749332
  88.8614895  21.3740485  21.4505358  88.8493565  22.3182325  21.6073629
  89.7538317  21.1910631  21.1564819  87.0350857  41.2978389  32.8763036
  87.9378104  41.3301999  33.1929531  86.8088227  40.3678840  32.8909372
  88.7904459  40.0509376  29.5373115  87.8400090  40.0511237  29.4237487
  89.0936945  39.3042110  29.0209150  92.6767014  17.9683262  25.7051295
  91.9099410  17.4141749  25.8507977  93.0877719  18.0405131  26.5665447
  84.6808776  24.2568058  39.7956476  85.5440237  23.9004863  40.0059801
  84.1074186  23.9181953  40.4831881 104.5257152  45.8869914  30.6018877
 105.1635562  45.7676661  29.8982217 104.4077995  46.8350758  30.6606829
 101.3346859  45.8397342  30.5380402 100.9965370  45.7238407  29.6500937
 102.2036627  45.4388507  30.5181408  97.1933674  47.6932819  26.5277293
  96.6298540  47.6022755  25.7593581  97.0786069  46.8732723  27.0079785
 101.8166642  46.9932194  36.4966608 101.8055282  46.5984992  35.6247111
 101.9787281  46.2598266  37.0900379  94.7398106  49.1884010  29.3661513
  95.5319398  48.8474835  28.9507813  94.9794757  49.2978985  30.2863667
 102.7733233  51.3603786  21.8391758 102.1221213  51.9457867  21.4525772
 103.5677596  51.8909981  21.8986795  96.6988860  48.4492923  22.2378892
  97.4719736  47.9021910  22.0991768  97.0514259  49.3137173  22.4493354
  98.5373903  49.7769306  35.4445792  98.2463769  50.6814937  35.3292458
  99.1730887  49.8185833  36.1589861  99.4630110  47.1546154  32.0347151
 100.0593682  46.9302177  31.3204114  99.5205081  46.4130900  32.6372599
  99.0355138  44.6085590  19.8697342  99.2880659  44.0867111  19.1080805
  98.0979697  44.4451735  19.9724026 104.0798421  43.6121368  27.6772085
 104.8661510  43.1940791  27.3262502 104.3437125  44.5167460  27.8453734
 104.2508498  49.0494218  22.3760742 103.6154331  49.1228845  23.0881647
 103.9205905  49.6387817  21.6979821 109.4806848  43.5496601  28.5805064
 110.2132020  42.9795818  28.8142893 108.7246204  43.1618202  29.0211569
  98.7551427  46.5113695  22.0721717  98.6387685  45.8358599  22.7402801
  98.8653687  46.0246069  21.2553870 101.0982968  45.9723843  25.7768406
 100.7341175  45.4454464  26.4881328 101.9550084  45.5822312  25.6034892
 107.0032268  37.2618175  33.0399672 106.6715593  38.1313586  32.8160887
 106.4077882  36.9454459  33.7193703 100.7388455  41.0013742  20.7729755
 100.9062857  41.8693979  21.1400226 100.5485624  41.1641024  19.8491044
 103.4963788  49.4630721  32.4395585 103.1964511  50.3655760  32.3311392
 103.1514847  49.1962904  33.2916738  96.9476269  45.9144518  28.4732290
  96.0226766  45.7820732  28.6809981  97.1960683  46.6938737  28.9702232
 106.8960932  41.9813261  30.1193023 105.9877809  41.9128670  29.8251784
 106.8448528  42.4585206  30.9474848 100.7177676  43.4571400  21.7576422
 100.5977301  43.9028451  22.5961902 100.0230264  43.8056717  21.1989960
  94.3085080  45.5577792  29.3076079  94.4377462  45.8112270  30.2215490
  93.6282532  46.1505500  28.9880734  98.4784568  56.2275042  25.4066553
  98.4008597  57.1782867  25.4855033  97.8746211  55.8820914  26.0641479
 100.9701797  43.4002907  38.0627920 100.1935132  43.9596827  38.0530784
 101.6092361  43.8859690  38.5842790 108.7622578  40.1829700  31.8970896
 108.1196958  40.4762233  31.2510691 108.2577507  40.0682620  32.7024093
 106.4162742  43.9292873  22.5856756 107.3280598  44.1620260  22.4104453
 105.9072389  44.5129917  22.0231834  99.2248170  46.2088360  37.6245887
  99.9662854  46.7473404  37.3480710  98.5185155  46.8354649  37.7817439
 104.7003509  48.3517501  36.2218048 105.1086865  47.9099911  35.4772681
 103.9780771  47.7770128  36.4752241 101.0534579  43.2890108  33.5951605
 101.8995775  43.7129521  33.7386254 100.9933217  42.6323732  34.2890168
 105.0232324  48.9118691  29.9770337 104.3941187  49.0764406  29.2746405
 104.6357986  49.3260301  30.7481301 108.9021556  49.8473129  27.3314701
 108.2172594  50.2272031  26.7811734 108.9865405  50.4568456  28.0646649
 104.2034025  40.9494476  35.2532779 103.9594957  41.7036536  34.7167055
 104.4793955  41.3279824  36.0880026 106.1572488  47.4933088  33.9310044
 106.3689383  48.1364848  33.2544426 106.1102236  46.6595405  33.4631975
 103.7598717  40.1050909  30.8346617 102.8983196  40.4032162  31.1263354
 103.7861151  40.3221308  29.9027649 100.5760286  48.6493099  27.2420422
 101.0398632  48.9280802  26.4525045 100.3117084  47.7476544  27.0593513
  97.4684367  48.1964581  30.1800186  98.0385724  48.6251849  29.5417670
  98.0592479  47.9147166  30.8784371  99.5129172  44.7716252  24.0509987
 100.2153215  45.2237296  24.5183914  99.1809801  44.1300071  24.6789881
  97.9609534  43.3628008  38.4261197  97.3308194  44.0444289  38.6596594
  97.8545621  43.2511090  37.4814335  93.2554506  43.0299805  29.3527121
  92.4653560  43.2857333  28.8767232  93.7465753  43.8448142  29.4579162
 107.2718316  50.3705044  32.1032402 108.0935759  49.9685231  31.8215083
 107.2680718  50.2673278  33.0548518  95.2069251  43.3944384  26.3110598
  94.4100415  43.5063078  26.8294093  94.9794844  43.7331036  25.4451488
 101.0374919  49.9189087  34.2593112 101.1019352  50.3809494  35.0951284
 100.3285843  49.2886452  34.3875422  91.5392209  43.2830295  31.7842112
  91.7900247  44.1677305  32.0499688  92.0751757  43.1034896  31.0117204
 115.3624309  46.7143792  28.4517373 114.6088017  46.1451190  28.2961378
 115.4971850  46.6806457  29.3988008 100.7522937  51.5857194  24.1272093
 100.6168611  52.4308730  24.5556940 101.2932749  51.7876472  23.3638026
  97.2390276  37.6648774  40.7886448  96.8457222  37.1114973  41.4634092
  98.0556417  37.9759353  41.1792965  94.2052334  49.1032633  24.7000018
  94.7176855  49.8975883  24.8505582  94.8575047  48.4058923  24.6333619
  96.0147219  52.2198389  26.7822771  96.1913847  53.1416353  26.5943755
  96.8104052  51.9056808  27.2117151 100.1558237  39.0806653  38.3806704
 100.8967951  39.6813807  38.3011167 100.3876160  38.3384291  37.8224747
  95.2999575  44.2663021  36.6584934  95.1853090  43.3648278  36.9592033
  94.4444093  44.5126717  36.3069751 102.3791413  52.2080761  38.2572435
 101.9355267  51.4217140  37.9393339 103.0408627  52.3959911  37.5916326
  97.1378534  53.7376563  32.7833113  97.6885959  53.6093626  32.0110107
  96.2990010  54.0371452  32.4328006 104.4772651  52.4883561  36.2853836
 104.4591126  53.3092442  35.7934105 105.3992571  52.3637636  36.5103977
 100.9345705  50.0027690  37.1277344 101.4674042  49.2415979  36.8976652
 100.4059786  49.7101342  37.8701499 104.1015400  35.1087756  32.6570986
 103.7579670  35.9989398  32.5810097 104.4694363  34.9189414  31.7940571
  92.1701251  47.4321287  25.4759588  93.0076473  47.8418295  25.2593296
  92.3479519  46.4920729  25.4459782 104.0665683  45.0996367  21.1643421
 103.5512306  45.8700972  21.4031809 103.7942991  44.4261504  21.7876483
 101.6512794  39.9446068  26.2228660 100.7954390  39.5552919  26.0434298
 102.0639746  40.0238029  25.3628445 103.1811941  37.4792412  30.6220219
 102.6776736  37.4422547  29.8088025 103.4742547  38.3885154  30.6816876
  99.4254826  37.5631141  29.6286401 100.2907823  37.3673950  29.2692291
  99.4932335  37.3341493  30.5555758 109.0399957  47.8528722  23.0996595
 108.2629400  47.5139882  22.6551757 109.7191438  47.8581345  22.4251560
 103.8551986  42.9723460  22.9903202 103.5502122  43.2869609  23.8413346
 104.8082428  43.0504879  23.0330535 102.2998418  49.1313683  24.6396156
 101.7719780  48.3966442  24.3269394 101.7985921  49.9088359  24.3936125
 107.2791264  47.3262703  29.7563203 106.6214938  48.0161965  29.8443331
 108.0831663  47.7159135  30.0997189  97.0317146  39.7933349  27.0002768
  97.6060897  39.5708531  26.2675961  97.6188128  39.8622044  27.7531369
 106.0896723  45.6807076  27.8067144 106.6028605  46.3137068  28.3088854
 106.7397947  45.0808272  27.4410504  97.3586733  41.8237810  21.0198653
  96.5224045  42.1612497  21.3407928  97.2191502  41.6886790  20.0825790
  99.3339813  36.6674598  25.7277837  98.6804226  36.3523615  25.1034452
  99.2920287  36.0450339  26.4537660 100.4451018  46.9493893  17.6431129
  99.5378080  46.7183147  17.8422278 100.9422050  46.1531512  17.8305111
 103.3519097  55.6591400  20.5627816 102.6780796  55.9623097  21.1712773
 103.7384919  56.4620481  20.2133273 102.5677554  43.1556532  30.0525485
 101.6500115  43.3771479  29.8947173 102.9837697  43.2302842  29.1937192
 103.3512601  44.5547947  25.1828165 104.0984420  45.0669345  24.8735287
 103.6204191  44.2332000  26.0432559 101.6239252  47.0506488  22.1655120
 100.7150471  46.7665521  22.2627589 101.6534335  47.4705567  21.3058426
 106.8558519  50.6613078  25.9346287 106.4020846  49.8203987  25.9911478
 106.2252486  51.2974476  26.2721067 105.7991439  41.5905064  27.1646955
 105.0614195  41.0782450  27.4957197 106.0518212  41.1505445  26.3530231
 105.2991458  52.4989574  26.8696105 105.5914433  53.0594631  26.1508471
 105.8090079  52.7918135  27.6249264 105.9003066  34.3681316  27.7588724
 106.2061943  33.5078679  27.4714639 106.6255671  34.9598936  27.5587718
  92.1927422  44.7712002  26.1470322  91.9951822  44.1781363  25.4221388
  91.6374086  44.4664212  26.8646260 100.1724146  44.6635109  28.2664915
 100.2272755  43.7108945  28.1907391  99.3615348  44.8194548  28.7506213
 101.3215339  48.5915232  19.5043198 100.8834769  47.8751091  19.0448835
 102.0625780  48.8191347  18.9428289  98.1116506  43.2812168  26.0255294
  97.2984371  43.5806339  26.4320486  98.6075500  42.8867857  26.7429776
 100.2625083  53.2769925  27.9589558 100.2201262  53.5030772  27.0298090
 101.1787782  53.0433300  28.1075360 103.7090717  43.7453993  34.8570188
 104.0640105  43.9725466  35.7164653 104.3562848  44.0772370  34.2347443
 109.4388454  46.8672429  25.5619517 109.3006353  47.0574025  24.6340706
 109.0824673  47.6291812  26.0187568  97.6030580  40.8530524  31.6416529
  98.2429960  40.7119283  30.9439492  96.7708111  40.5665037  31.2655131
 109.4657834  48.9348956  30.5730788 109.8994340  48.8424245  31.4213842
 110.1789414  48.9106456  29.9350804  98.3790884  50.1532954  27.7551521
  99.1731483  49.6583274  27.5534096  97.6682577  49.6250817  27.3919227
 103.1985729  52.5351050  32.1063889 103.2522751  53.1041986  32.8741605
 102.3300510  52.7052935  31.7417926  94.6873648  44.2976036  23.8311274
  93.7571236  44.2360492  24.0481236  94.7831120  43.7751989  23.0347915
  94.6059197  40.8230849  26.4189515  94.8666014  41.7376182  26.3098676
  95.4276369  40.3555291  26.5686128  96.0784122  42.2368606  33.5888340
  96.7507175  42.0285968  32.9400989  95.2513909  42.0390692  33.1493572
 110.3273383  48.9772656  33.1063674 110.5209273  49.8818467  33.3522948
 110.2274001  48.5180075  33.9402259 101.9809694  38.8630547  35.6054001
 101.3337609  39.5620497  35.5118477 102.7510709  39.2966691  35.9730249
 105.3888492  49.1279399  38.6804554 105.2373998  48.8989951  37.7634638
 105.3793171  50.0850001  38.6935899 102.1573828  46.7011312  33.6650821
 103.0865888  46.8522471  33.4919788 101.7364858  46.7895333  32.8099467
 100.9562160  50.7261976  31.4349358 100.8173246  50.3580761  32.3075296
 100.1676756  51.2409616  31.2633316 101.5510312  55.8271073  22.7774895
 101.7262068  55.3559116  23.5920517 100.8643100  56.4536839  23.0056155
 102.5067375  50.1043579  28.8238196 102.1717208  50.0644349  29.7195846
 102.0071321  49.4388295  28.3508606  96.4811619  45.5111209  34.3490777
  96.3431417  44.7791448  34.9502316  97.3916543  45.4220109  34.0674965
 105.4426567  47.4499613  19.0975256 104.8255738  46.7246441  19.0008308
 104.9743055  48.2108974  18.7542330  99.1093920  45.2231168  33.8374457
  99.8193538  44.5824361  33.7961075  99.0663228  45.4744063  34.7600638
 107.0980699  52.1598522  36.7581036 107.0393245  51.4757742  36.0911619
 107.5000217  52.9017512  36.3061662  97.8222854  42.2096386  35.6570096
  97.2860211  41.7587125  36.3091693  97.2339562  42.3442295  34.9140561
  96.1171397  58.9760436  29.5514755  96.3567996  59.6078960  30.2293773
  95.2740594  58.6248476  29.8380114  97.2325113  41.6685038  18.2196560
  96.3554579  41.5473838  17.8558807  97.7082866  40.8771116  17.9675449
 107.0998106  50.1238106  34.9895016 106.2124885  49.7864027  35.1121415
 107.6696657  49.3921137  35.2263781  88.7527253  46.4562197  28.3138067
  89.4398293  46.1423927  27.7259082  88.5975382  47.3603562  28.0405319
  93.5561975  41.3452394  32.7423091  93.4720164  40.7378063  32.0073501
  92.7344682  41.8361412  32.7432587 100.6299259  54.7839558  31.9556259
 100.5569431  55.5894529  32.4675563 100.1876652  54.9831524  31.1304280
 100.4189039  54.0211328  25.4659080  99.6356561  54.5633008  25.5597305
 101.1181784  54.5385308  25.8653322 103.7285689  39.8305957  28.1093286
 104.2254389  39.0775920  27.7894356 102.9572671  39.8670274  27.5436495
 111.5815446  45.5346323  29.7511577 111.5705323  46.4171038  29.3805510
 110.7132826  45.1817874  29.5566114 103.0897943  54.6826392  34.1114418
 103.8025915  55.3173857  34.0390319 102.5987971  54.7790258  33.2954419
 104.8115470  48.5877645  25.6831709 103.8771748  48.7079107  25.5136414
 104.9892138  47.6850111  25.4191719 100.3120658  41.9723340  27.8364970
  99.9418445  41.4194381  28.5245876 100.8079750  41.3681474  27.2839970
 108.1988021  44.4294964  26.2181743 108.6648473  45.2622956  26.1442046
 108.6495522  43.9639946  26.9227002  98.1409856  52.4320835  34.9319988
  98.8419316  53.0657318  35.0849383  97.6704971  52.7735567  34.1715628
 106.2664252  50.7738785  23.2167895 106.5424096  50.6595380  24.1261769
 105.3968751  50.3756270  23.1780068 106.1704684  36.7975551  30.2572645
 105.2567764  37.0279778  30.4254852 106.5997785  36.8813995  31.1086677
 105.9411142  44.9865443  32.7572539 105.2882593  45.2341350  32.1024991
 106.3191522  44.1729581  32.4235016 102.9018316  55.0225136  26.8600709
 103.0840711  54.2046792  27.3228461 103.7251302  55.2392828  26.4225599
 103.2360482  53.9493321  24.1215758 103.7648248  53.4385776  23.5085920
 103.4988701  53.6335851  24.9861291 101.9898715  45.7285254  39.2438576
 101.3139352  45.6279383  39.9140951 102.8126349  45.5724468  39.7074573
  93.7377574  51.9657191  31.8651091  94.3231011  51.2200878  31.9978995
  93.5402413  52.2761147  32.7487755  96.5916230  55.0008438  26.8813533
  95.9226605  55.4854566  26.3977573  96.4529099  55.2477658  27.7956912
  88.3295229  44.5362791  30.5855534  88.3679329  44.0026381  31.3792652
  87.8235522  44.0097996  29.9666511 100.7321498  57.0352181  33.4796192
 101.2839806  57.1983803  34.2445277 101.0727692  57.6256619  32.8076217
  95.7085991  39.3827331  34.0818077  95.7727318  40.2442162  33.6695474
  95.6453112  38.7701333  33.3490435  95.1838264  41.4550464  37.7291111
  95.8110303  41.0727541  38.3428635  94.3266183  41.2364666  38.0946803
 105.5832373  51.8613439  39.3344846 106.1272277  52.4743397  38.8399801
 105.0019217  52.4193017  39.8511859  91.9603807  43.2626893  23.6609466
  92.2557248  42.3537571  23.6076519  91.0591843  43.2414632  23.3390468
 103.8689886  54.9834157  30.4659874 103.7441025  54.1823897  29.9570819
 104.5268977  55.4780350  29.9773844  95.4898054  41.3382889  29.6437014
  94.7684639  41.9518857  29.5044488  96.2791310  41.8740654  29.5653660
 105.9324794  52.7843177  32.0939424 104.9855129  52.6648528  32.0217751
 106.2807567  51.8965675  32.1765685  98.2924367  38.6737316  35.9177666
  98.8158769  38.9199612  36.6803975  98.0736701  39.5057351  35.4980803
  93.6891648  40.9440991  23.7848791  93.3604354  40.0638369  23.6023897
  94.0431019  40.8888659  24.6725180 102.9371227  52.5795893  28.2943776
 102.7896190  51.6512601  28.4751346 103.7624721  52.6015984  27.8100852
  96.8033471  41.2313960  24.1524268  97.1429544  41.7599882  23.4302877
  97.2505592  41.5694366  24.9282835 106.5405349  53.4024452  29.3808649
 107.4651897  53.1967313  29.2433100 106.3720652  53.1540853  30.2897991
  99.4976912  39.6151011  33.6027336  99.1573733  38.8158824  34.0048016
  98.7915919  39.9152722  33.0304170 100.1493384  36.7000323  32.0554660
 100.9719453  36.2260802  31.9333550 100.3931448  37.4790807  32.5553346
  98.7901619  39.7288582  22.3517561  99.5109981  40.1069835  21.8481278
  98.1666923  40.4477459  22.4552539 102.9332742  40.4333731  23.2875894
 103.1496356  41.3158369  22.9864722 102.4526809  40.0419944  22.5581536
  97.6731963  43.3919444  29.8646638  97.5276544  43.7059747  30.7570920
  97.1957167  44.0104344  29.3117537  99.5328346  40.3821992  29.9127528
  99.5189915  39.4863085  29.5759826 100.2500774  40.3892656  30.5465814
 101.3854476  40.8159332  31.9580655 101.1272254  41.7376403  31.9564986
 100.8539517  40.4189767  32.6481119 106.3300665  53.9210119  24.7370740
 106.5037543  53.3556542  23.9844593 106.8229556  54.7211014  24.5550230
  92.1477625  45.9324789  32.8034299  91.6031093  46.7084596  32.9354574
  93.0256975  46.2795593  32.6453421  98.9365242  39.2636372  25.1815098
  99.0581153  38.3353019  25.3805985  98.6467284  39.2775058  24.2693413
 101.8056432  36.9491283  28.3181818 101.8278129  37.0130616  27.3633797
 102.2224491  36.1095791  28.5122324 112.1840056  46.6846542  26.3561040
 112.6271202  45.9353868  25.9580164 111.3066567  46.6756679  25.9734772
 107.3175838  53.2376884  21.8367639 108.0126742  53.8583577  22.0554953
 107.6598988  52.3872235  22.1120017  92.9343647  45.0594685  35.6964456
  92.1925383  45.2077320  36.2829087  92.6136391  45.3202950  34.8331206
 109.2167261  50.6876589  23.3654970 109.7418585  51.0263862  22.6404290
 109.1289613  49.7523605  23.1818104 100.8787310  54.6010663  35.4944846
 101.1874436  54.3559810  36.3667546 101.6762792  54.8057301  35.0063716
 100.9007922  56.7548573  27.7250223 100.4612912  56.2624951  28.4183079
 101.6516039  56.2121540  27.4842298  93.3800261  52.9460113  27.7274851
  94.2058280  52.6463885  27.3473494  93.0294313  52.1767736  28.1764639
  98.3481794  52.2986582  29.7972524  97.7261803  51.6357287  29.4974752
  99.0186661  52.3247714  29.1146172  91.5808866  50.8646440  28.6863784
  90.7440774  50.4368614  28.5047786  91.5532511  51.0578883  29.6234576
  98.4206321  40.7768370  39.3905030  98.4694477  41.6530493  39.0082800
  98.9628835  40.2345763  38.8176674 108.9061167  51.3209493  38.6706168
 108.1156711  51.3033632  38.1310667 108.6694521  51.8597787  39.4255204
 109.0259042  48.1701959  35.9838896 109.0757047  48.0051967  36.9254419
 108.9172965  47.3029218  35.5936777  97.9095301  50.8490505  23.2730985
  98.0583421  51.5325969  22.6197658  98.7161744  50.8295595  23.7880441
 106.3162804  44.1532887  37.2998203 107.2172667  44.0139352  37.0082201
 106.3910779  44.3187342  38.2396380 100.6505610  41.5299742  36.1451389
  99.7808919  41.8233308  35.8733978 100.8865090  42.1140187  36.8658653
 110.5277239  50.5898901  36.2280918 110.2362047  50.9528881  37.0644379
 109.9149370  49.8765909  36.0494250 111.7272921  48.1551781  28.7483488
 112.5619813  48.5941585  28.9121048 111.8632050  47.6790434  27.9291734
 108.7764427  45.7131516  34.6960976 109.2518549  45.9059162  33.8879827
 107.8529992  45.7690701  34.4504359  95.6647934  46.8755683  24.2792054
  95.4193976  45.9718013  24.4772264  95.8343848  46.8772833  23.3371532
 103.3544644  37.7479359  33.6616809 103.8726587  38.4840386  33.3363298
 102.9999776  38.0543352  34.4963569  94.9343581  42.6084040  21.7778215
  94.2412826  42.6828395  21.1218251  94.6895333  41.8444384  22.2999732
 103.6057238  34.1679642  29.1817706 103.8858991  33.5002831  29.8078133
 104.3907845  34.3608737  28.6692370 101.4090706  53.3438636  20.7442732
 100.8364673  53.9628823  20.2913204 101.9823500  53.8937997  21.2782654
 107.4766096  42.5897276  32.9289281 108.4283519  42.6895373  32.9501505
 107.3069546  41.7975544  33.4387366 105.4980476  39.6752859  33.1148682
 104.9030408  39.9557872  32.4195171 105.2130172  40.1646760  33.8865423
 104.6287966  53.6275786  21.8751315 105.5618639  53.5621347  22.0784190
 104.5411179  54.4632052  21.4165847 107.2575983  52.9441656  18.8355262
 107.1789614  52.6101520  19.7291020 108.0785649  53.4363424  18.8346735
 109.9554174  45.8103395  32.0431581 109.9230494  44.8719396  32.2291265
 110.5654797  45.8887432  31.3097406 101.7937505  44.6799448  18.0858785
 102.7396609  44.5505656  18.1547203 101.4151750  43.9414110  18.5628213
 110.1048662  42.6014439  32.0889864 109.5887711  41.8172895  31.9019793
 110.9888611  42.2733155  32.2536383 107.7659389  36.3455454  28.0485677
 107.5684210  36.0370542  28.9329009 108.3759095  37.0717093  28.1783607
 115.7730724  46.8719402  31.1837618 116.5034112  46.6104690  31.7445321
 115.1637669  46.1348124  31.2239686 113.8546021  45.0127265  31.7812069
 113.1279184  44.8783230  31.1728560 113.4393308  45.3204093  32.5868787
 101.6776197  48.7317194  39.5459442 102.5979207  48.9095793  39.7399488
 101.6425780  47.7873240  39.3939141  99.9780422  42.6049425  18.0213670
  99.0711877  42.3082537  18.0976384 100.2556403  42.3079243  17.1547956
  90.8958362  43.9255788  28.4712716  90.5761147  43.0721096  28.1787090
  90.3491790  44.1404366  29.2270684  94.6738270  46.6418229  32.1882223
  94.8924280  47.5735337  32.2070257  95.0864044  46.2826203  32.9737027
 101.5942488  37.1486314  24.1757911 100.7843216  36.8033399  24.5513157
 102.2826904  36.8393858  24.7645523 103.5233036  36.2264361  25.7982208
 104.0764074  36.6459815  26.4572231 103.7603122  35.3000109  25.8405164
  99.5466135  42.2151435  41.5784972  99.4462862  43.1645792  41.5097063
  99.3287677  41.8869674  40.7061042  98.7479206  39.4636360  18.1625649
  99.6098370  39.7891258  18.4221467  98.9329551  38.6767856  17.6498715
  90.7646622  47.5458700  30.4405838  90.0710094  47.1312652  29.9275792
  91.5119613  47.5879236  29.8439257 106.9011843  38.3364886  25.3060872
 106.3210512  38.9949690  24.9238925 106.6347776  37.5142231  24.8948290
 105.3515409  37.7369944  27.5082193 105.8515188  37.8486479  26.6996511
 105.9951017  37.4330997  28.1483001  99.4097405  45.6448574  40.3950034
  98.9264487  46.4448934  40.6013923  99.4958344  45.6556519  39.4417478
  92.6783365  47.4776953  28.3171853  92.6554053  47.5764641  27.3653736
  92.9884001  48.3242104  28.6389019  95.3370743  49.5353108  32.4318467
  96.2913996  49.5037051  32.3648399  95.1383266  49.0743732  33.2468693
  95.9270125  48.1054224  34.9989265  96.7463014  48.5998303  35.0224102
  96.2006932  47.1886193  34.9706833 105.6836721  40.4964977  24.3617221
 104.7962576  40.7814627  24.1437415 106.0990710  40.3358740  23.5144497
 109.0351257  40.5211498  28.0771560 109.8111647  41.0107950  28.3496177
 108.3099391  40.9469552  28.5343429 111.4723816  41.2339117  29.1345500
 112.0668307  40.9934853  28.4238809 111.5450399  40.5146247  29.7619037
  93.6920971  55.0772728  29.4488665  93.5575439  54.3173129  28.8826663
  93.2753034  55.8013628  28.9817454 104.8279934  50.2609651  18.4565241
 105.5315785  50.4659654  19.0722896 104.1042583  50.8286413  18.7214324
 105.6577745  46.0119513  24.5767511 105.6012946  46.4688064  23.7375143
 106.2106087  45.2510197  24.3990353 109.4682551  41.8009245  25.4017630
 109.2119485  41.4005880  26.2325838 108.8435419  42.5153038  25.2767769
 113.7794888  44.5405318  27.9088922 113.2194446  44.6098507  28.6820484
 113.1738392  44.3646302  27.1888418  96.8490097  55.9742045  29.6607108
  96.7322481  56.9187477  29.5585798  96.0282544  55.6715606  30.0492907
 106.7366632  50.6992181  20.5063701 107.5712236  50.2673379  20.3241175
 106.5750975  50.5274194  21.4340595 106.3912524  47.2024294  21.8720040
 106.3361328  47.0368565  20.9308484 105.7658579  47.9100327  22.0282230
  91.1805039  42.4392358  35.6981462  91.8263903  41.9291312  36.1868687
  90.9722190  43.1761040  36.2724887 103.7058431  49.5073206  41.1973603
 104.5749591  49.6813858  40.8360238 103.2265183  50.3267623  41.0749332
  99.7008649  36.7032403  21.4505358  99.6887319  37.6474243  21.6073629
 100.5932071  36.5202548  21.1564819  97.8744611  56.6270307  32.8763036
  98.7771858  56.6593917  33.1929531  97.6481981  55.6970758  32.8909372
  99.6298213  55.3801293  29.5373115  98.6793844  55.3803155  29.4237487
  99.9330700  54.6334028  29.0209150 103.5160769  33.2975180  25.7051295
 102.7493165  32.7433666  25.8507977 103.9271474  33.3697048  26.5665447
  95.5202530  39.5859975  39.7956476  96.3833992  39.2296780  40.0059801
  94.9467941  39.2473870  40.4831881 115.3650907  61.2161832  30.6018877
 116.0029317  61.0968579  29.8982217 115.2471750  62.1642676  30.6606829
 112.1740613  61.1689260  30.5380402 111.8359125  61.0530325  29.6500937
 113.0430381  60.7680425  30.5181408 108.0327429  63.0224736  26.5277293
 107.4692294  62.9314673  25.7593581 107.9179824  62.2024641  27.0079785
 112.6560396  62.3224112  36.4966608 112.6449037  61.9276910  35.6247111
 112.8181036  61.5890184  37.0900379 105.5791861  64.5175928  29.3661513
 106.3713153  64.1766752  28.9507813 105.8188511  64.6270903  30.2863667
 113.6126988  66.6895704  21.8391758 112.9614967  67.2749784  21.4525772
 114.4071350  67.2201899  21.8986795 107.5382615  63.7784841  22.2378892
 108.3113491  63.2313828  22.0991768 107.8908014  64.6429090  22.4493354
 109.3767657  65.1061223  35.4445792 109.0857523  66.0106854  35.3292458
 110.0124642  65.1477751  36.1589861 110.3023864  62.4838072  32.0347151
 110.8987436  62.2594094  31.3204114 110.3598836  61.7422817  32.6372599
 109.8748893  59.9377507  19.8697342 110.1274413  59.4159028  19.1080805
 108.9373452  59.7743653  19.9724026 114.9192175  58.9413286  27.6772085
 115.7055265  58.5232709  27.3262502 115.1830880  59.8459378  27.8453734
 115.0902253  64.3786136  22.3760742 114.4548086  64.4520762  23.0881647
 114.7599659  64.9679735  21.6979821 120.3200603  58.8788519  28.5805064
 121.0525774  58.3087736  28.8142893 119.5639958  58.4910119  29.0211569
 109.5945181  61.8405613  22.0721717 109.4781439  61.1650517  22.7402801
 109.7047441  61.3537987  21.2553870 111.9376722  61.3015760  25.7768406
 111.5734929  60.7746381  26.4881328 112.7943838  60.9114229  25.6034892
 117.8426023  52.5910093  33.0399672 117.5109348  53.4605504  32.8160887
 117.2471636  52.2746377  33.7193703 111.5782209  56.3305660  20.7729755
 111.7456612  57.1985896  21.1400226 111.3879378  56.4932942  19.8491044
 114.3357542  64.7922639  32.4395585 114.0358266  65.6947678  32.3311392
 113.9908602  64.5254822  33.2916738 107.7870024  61.2436436  28.4732290
 106.8620520  61.1112650  28.6809981 108.0354437  62.0230655  28.9702232
 117.7354686  57.3105179  30.1193023 116.8271564  57.2420587  29.8251784
 117.6842282  57.7877124  30.9474848 111.5571430  58.7863317  21.7576422
 111.4371055  59.2320368  22.5961902 110.8624018  59.1348635  21.1989960
 105.1478835  60.8869709  29.3076079 105.2771216  61.1404188  30.2215490
 104.4676286  61.4797417  28.9880734 109.3178322  71.5566959  25.4066553
 109.2402352  72.5074784  25.4855033 108.7139966  71.2112832  26.0641479
 111.8095552  58.7294825  38.0627920 111.0328886  59.2888745  38.0530784
 112.4486115  59.2151608  38.5842790 119.6016333  55.5121617  31.8970896
 118.9590713  55.8054151  31.2510691 119.0971261  55.3974538  32.7024093
 117.2556496  59.2584791  22.5856756 118.1674352  59.4912177  22.4104453
 116.7466143  59.8421835  22.0231834 110.0641924  61.5380278  37.6245887
 110.8056609  62.0765322  37.3480710 109.3578910  62.1646567  37.7817439
 115.5397264  63.6809418  36.2218048 115.9480620  63.2391829  35.4772681
 114.8174525  63.1062046  36.4752241 111.8928334  58.6182025  33.5951605
 112.7389529  59.0421439  33.7386254 111.8326972  57.9615650  34.2890168
 115.8626079  64.2410609  29.9770337 115.2334941  64.4056323  29.2746405
 115.4751741  64.6552219  30.7481301 119.7415310  65.1765047  27.3314701
 119.0566349  65.5563948  26.7811734 119.8259160  65.7860374  28.0646649
 115.0427779  56.2786394  35.2532779 114.7988711  57.0328454  34.7167055
 115.3187710  56.6571741  36.0880026 116.9966242  62.8225006  33.9310044
 117.2083137  63.4656766  33.2544426 116.9495990  61.9887323  33.4631975
 114.5992471  55.4342827  30.8346617 113.7376950  55.7324080  31.1263354
 114.6254906  55.6513225  29.9027649 111.4154040  63.9785017  27.2420422
 111.8792386  64.2572720  26.4525045 111.1510839  63.0768462  27.0593513
 108.3078122  63.5256499  30.1800186 108.8779479  63.9543767  29.5417670
 108.8986233  63.2439083  30.8784371 110.3522927  60.1008170  24.0509987
 111.0546970  60.5529213  24.5183914 110.0203555  59.4591988  24.6789881
 108.8003288  58.6919926  38.4261197 108.1701949  59.3736207  38.6596594
 108.6939376  58.5803008  37.4814335 104.0948260  58.3591722  29.3527121
 103.3047314  58.6149251  28.8767232 104.5859508  59.1740060  29.4579162
 118.1112070  65.6996961  32.1032402 118.9329514  65.2977149  31.8215083
 118.1074473  65.5965196  33.0548518 106.0463006  58.7236301  26.3110598
 105.2494169  58.8354996  26.8294093 105.8188598  59.0622954  25.4451488
 111.8768673  65.2481005  34.2593112 111.9413106  65.7101412  35.0951284
 111.1679597  64.6178370  34.3875422 102.3785963  58.6122213  31.7842112
 102.6294002  59.4969223  32.0499688 102.9145512  58.4326814  31.0117204
 126.2018063  62.0435710  28.4517373 125.4481771  61.4743108  28.2961378
 126.3365604  62.0098374  29.3988008 111.5916691  66.9149112  24.1272093
 111.4562366  67.7600648  24.5556940 112.1326504  67.1168390  23.3638026
 108.0784031  52.9940692  40.7886448 107.6850976  52.4406891  41.4634092
 108.8950171  53.3051270  41.1792965 105.0446089  64.4324550  24.7000018
 105.5570609  65.2267800  24.8505582 105.6968801  63.7350841  24.6333619
 106.8540973  67.5490306  26.7822771 107.0307602  68.4708271  26.5943755
 107.6497807  67.2348726  27.2117151 110.9951992  54.4098571  38.3806704
 111.7361705  55.0105724  38.3011167 111.2269915  53.6676209  37.8224747
 106.1393330  59.5954938  36.6584934 106.0246845  58.6940196  36.9592033
 105.2837848  59.8418635  36.3069751 113.2185168  67.5372679  38.2572435
 112.7749022  66.7509057  37.9393339 113.8802381  67.7251829  37.5916326
 107.9772289  69.0668480  32.7833113 108.5279714  68.9385544  32.0110107
 107.1383765  69.3663369  32.4328006 115.3166406  67.8175479  36.2853836
 115.2984881  68.6384360  35.7934105 116.2386326  67.6929554  36.5103977
 111.7739460  65.3319608  37.1277344 112.3067797  64.5707896  36.8976652
 111.2453541  65.0393260  37.8701499 114.9409155  50.4379674  32.6570986
 114.5973424  51.3281316  32.5810097 115.3088117  50.2481332  31.7940571
 103.0095005  62.7613204  25.4759588 103.8470227  63.1710213  25.2593296
 103.1873273  61.8212647  25.4459782 114.9059437  60.4288285  21.1643421
 114.3906061  61.1992890  21.4031809 114.6336746  59.7553421  21.7876483
 112.4906548  55.2737986  26.2228660 111.6348145  54.8844836  26.0434298
 112.9033500  55.3529947  25.3628445 114.0205695  52.8084329  30.6220219
 113.5170491  52.7714464  29.8088025 114.3136302  53.7177072  30.6816876
 110.2648581  52.8923059  29.6286401 111.1301578  52.6965868  29.2692291
 110.3326090  52.6633411  30.5555758 119.8793712  63.1820640  23.0996595
 119.1023154  62.8431799  22.6551757 120.5585193  63.1873263  22.4251560
 114.6945741  58.3015377  22.9903202 114.3895876  58.6161526  23.8413346
 115.6476183  58.3796797  23.0330535 113.1392172  64.4605601  24.6396156
 112.6113534  63.7258360  24.3269394 112.6379675  65.2380277  24.3936125
 118.1185018  62.6554621  29.7563203 117.4608693  63.3453882  29.8443331
 118.9225418  63.0451053  30.0997189 107.8710900  55.1225267  27.0002768
 108.4454652  54.9000448  26.2675961 108.4581882  55.1913961  27.7531369
 116.9290477  61.0098994  27.8067144 117.4422359  61.6428986  28.3088854
 117.5791701  60.4100189  27.4410504 108.1980487  57.1529728  21.0198653
 107.3617799  57.4904414  21.3407928 108.0585257  57.0178708  20.0825790
 110.1733568  51.9966516  25.7277837 109.5197980  51.6815533  25.1034452
 110.1314042  51.3742256  26.4537660 111.2844773  62.2785811  17.6431129
 110.3771834  62.0475064  17.8422278 111.7815805  61.4823430  17.8305111
 114.1912852  70.9883318  20.5627816 113.5174550  71.2915015  21.1712773
 114.5778673  71.7912398  20.2133273 113.4071308  58.4848449  30.0525485
 112.4893870  58.7063396  29.8947173 113.8231452  58.5594760  29.1937192
 114.1906356  59.8839865  25.1828165 114.9378175  60.3961262  24.8735287
 114.4597945  59.5623918  26.0432559 112.4633006  62.3798406  22.1655120
 111.5544225  62.0957439  22.2627589 112.4928090  62.7997484  21.3058426
 117.6952273  65.9904995  25.9346287 117.2414601  65.1495905  25.9911478
 117.0646240  66.6266394  26.2721067 116.6385193  56.9196981  27.1646955
 115.9007950  56.4074367  27.4957197 116.8911967  56.4797363  26.3530231
 116.1385213  67.8281492  26.8696105 116.4308187  68.3886549  26.1508471
 116.6483833  68.1210053  27.6249264 116.7396820  49.6973233  27.7588724
 117.0455697  48.8370597  27.4714639 117.4649425  50.2890853  27.5587718
 103.0321176  60.1003920  26.1470322 102.8345576  59.5073281  25.4221388
 102.4767840  59.7956130  26.8646260 111.0117900  59.9927026  28.2664915
 111.0666510  59.0400863  28.1907391 110.2009102  60.1486465  28.7506213
 112.1609094  63.9207149  19.5043198 111.7228524  63.2043008  19.0448835
 112.9019535  64.1483264  18.9428289 108.9510260  58.6104086  26.0255294
 108.1378126  58.9098257  26.4320486 109.4469254  58.2159775  26.7429776
 111.1018838  68.6061843  27.9589558 111.0595017  68.8322689  27.0298090
 112.0181537  68.3725218  28.1075360 114.5484472  59.0745911  34.8570188
 114.9033859  59.3017384  35.7164653 115.1956603  59.4064287  34.2347443
 120.2782209  62.1964346  25.5619517 120.1400107  62.3865942  24.6340706
 119.9218427  62.9583729  26.0187568 108.4424335  56.1822442  31.6416529
 109.0823714  56.0411201  30.9439492 107.6101865  55.8956955  31.2655131
 120.3051588  64.2640873  30.5730788 120.7388095  64.1716163  31.4213842
 121.0183169  64.2398374  29.9350804 109.2184639  65.4824872  27.7551521
 110.0125237  64.9875192  27.5534096 108.5076331  64.9542735  27.3919227
 114.0379483  67.8642968  32.1063889 114.0916505  68.4333904  32.8741605
 113.1694265  68.0344853  31.7417926 105.5267402  59.6267954  23.8311274
 104.5964990  59.5652409  24.0481236 105.6224874  59.1043906  23.0347915
 105.4452951  56.1522767  26.4189515 105.7059769  57.0668100  26.3098676
 106.2670124  55.6847209  26.5686128 106.9177877  57.5660524  33.5888340
 107.5900930  57.3577886  32.9400989 106.0907663  57.3682610  33.1493572
 121.1667138  64.3064574  33.1063674 121.3603028  65.2110385  33.3522948
 121.0667756  63.8471993  33.9402259 112.8203449  54.1922465  35.6054001
 112.1731364  54.8912414  35.5118477 113.5904464  54.6258609  35.9730249
 116.2282246  64.4571317  38.6804554 116.0767753  64.2281868  37.7634638
 116.2186926  65.4141918  38.6935899 112.9967583  62.0303230  33.6650821
 113.9259643  62.1814389  33.4919788 112.5758613  62.1187250  32.8099467
 111.7955915  66.0553894  31.4349358 111.6567000  65.6872678  32.3075296
 111.0070511  66.5701533  31.2633316 112.3904067  71.1562990  22.7774895
 112.5655822  70.6851034  23.5920517 111.7036855  71.7828757  23.0056155
 113.3461130  65.4335497  28.8238196 113.0110962  65.3936267  29.7195846
 112.8465076  64.7680213  28.3508606 107.3205374  60.8403127  34.3490777
 107.1825172  60.1083366  34.9502316 108.2310297  60.7512027  34.0674965
 116.2820321  62.7791531  19.0975256 115.6649492  62.0538359  19.0008308
 115.8136810  63.5400891  18.7542330 109.9487674  60.5523086  33.8374457
 110.6587293  59.9116278  33.7961075 109.9056983  60.8035981  34.7600638
 117.9374453  67.4890439  36.7581036 117.8786999  66.8049659  36.0911619
 118.3393972  68.2309429  36.3061662 108.6616608  57.5388304  35.6570096
 108.1253965  57.0879042  36.3091693 108.0733317  57.6734213  34.9140561
 106.9565152  74.3052353  29.5514755 107.1961750  74.9370877  30.2293773
 106.1134348  73.9540393  29.8380114 108.0718867  56.9976955  18.2196560
 107.1948334  56.8765756  17.8558807 108.5476620  56.2063034  17.9675449
 117.9391860  65.4530023  34.9895016 117.0518639  65.1155945  35.1121415
 118.5090411  64.7213055  35.2263781  99.5921008  61.7854115  28.3138067
 100.2792047  61.4715845  27.7259082  99.4369136  62.6895480  28.0405319
 104.3955730  56.6744312  32.7423091 104.3113918  56.0669981  32.0073501
 103.5738436  57.1653330  32.7432587 111.4693014  70.1131476  31.9556259
 111.3963185  70.9186447  32.4675563 111.0270407  70.3123441  31.1304280
 111.2582793  69.3503246  25.4659080 110.4750315  69.8924926  25.5597305
 111.9575539  69.8677225  25.8653322 114.5679444  55.1597875  28.1093286
 115.0648143  54.4067837  27.7894356 113.7966425  55.1962192  27.5436495
 122.4209201  60.8638241  29.7511577 122.4099077  61.7462956  29.3805510
 121.5526580  60.5109791  29.5566114 113.9291697  70.0118310  34.1114418
 114.6419670  70.6465774  34.0390319 113.4381726  70.1082176  33.2954419
 115.6509224  63.9169562  25.6831709 114.7165503  64.0371025  25.5136414
 115.8285893  63.0142029  25.4191719 111.1514412  57.3015258  27.8364970
 110.7812200  56.7486299  28.5245876 111.6473505  56.6973392  27.2839970
 119.0381776  59.7586882  26.2181743 119.5042228  60.5914873  26.1442046
 119.4889276  59.2931863  26.9227002 108.9803611  67.7612753  34.9319988
 109.6813070  68.3949236  35.0849383 108.5098726  68.1027485  34.1715628
 117.1058007  66.1030703  23.2167895 117.3817851  65.9887298  24.1261769
 116.2362505  65.7048188  23.1780068 117.0098438  52.1267469  30.2572645
 116.0961518  52.3571695  30.4254852 117.4391540  52.2105913  31.1086677
 116.7804897  60.3157361  32.7572539 116.1276347  60.5633268  32.1024991
 117.1585277  59.5021499  32.4235016 113.7412071  70.3517054  26.8600709
 113.9234465  69.5338710  27.3228461 114.5645057  70.5684746  26.4225599
 114.0754236  69.2785239  24.1215758 114.6042003  68.7677693  23.5085920
 114.3382456  68.9627769  24.9861291 112.8292470  61.0577172  39.2438576
 112.1533107  60.9571301  39.9140951 113.6520104  60.9016385  39.7074573
 104.5771329  67.2949108  31.8651091 105.1624766  66.5492796  31.9978995
 104.3796167  67.6053065  32.7487755 107.4309984  70.3300356  26.8813533
 106.7620359  70.8146483  26.3977573 107.2922854  70.5769576  27.7956912
  99.1688984  59.8654708  30.5855534  99.2073083  59.3318299  31.3792652
  98.6629276  59.3389914  29.9666511 111.5715253  72.3644099  33.4796192
 112.1233561  72.5275721  34.2445277 111.9121446  72.9548537  32.8076217
 106.5479746  54.7119249  34.0818077 106.6121072  55.5734080  33.6695474
 106.4846866  54.0993251  33.3490435 106.0232018  56.7842381  37.7291111
 106.6504057  56.4019459  38.3428635 105.1659937  56.5656583  38.0946803
 116.4226127  67.1905357  39.3344846 116.9666031  67.8035315  38.8399801
 115.8412972  67.7484935  39.8511859 102.7997561  58.5918811  23.6609466
 103.0951002  57.6829489  23.6076519 101.8985597  58.5706550  23.3390468
 114.7083640  70.3126075  30.4659874 114.5834779  69.5115814  29.9570819
 115.3662731  70.8072268  29.9773844 106.3291808  56.6674807  29.6437014
 105.6078394  57.2810775  29.5044488 107.1185064  57.2032572  29.5653660
 116.7718548  68.1135095  32.0939424 115.8248884  67.9940446  32.0217751
 117.1201321  67.2257593  32.1765685 109.1318122  54.0029234  35.9177666
 109.6552524  54.2491530  36.6803975 108.9130455  54.8349268  35.4980803
 104.5285403  56.2732908  23.7848791 104.1998109  55.3930287  23.6023897
 104.8824774  56.2180577  24.6725180 113.7764982  67.9087811  28.2943776
 113.6289944  66.9804518  28.4751346 114.6018475  67.9307902  27.8100852
 107.6427226  56.5605878  24.1524268 107.9823298  57.0891799  23.4302877
 108.0899346  56.8986284  24.9282835 117.3799104  68.7316370  29.3808649
 118.3045651  68.5259231  29.2433100 117.2114407  68.4832771  30.2897991
 110.3370667  54.9442929  33.6027336 109.9967487  54.1450742  34.0048016
 109.6309673  55.2444640  33.0304170 110.9887139  52.0292241  32.0554660
 111.8113208  51.5552719  31.9333550 111.2325202  52.8082725  32.5553346
 109.6295373  55.0580500  22.3517561 110.3503736  55.4361752  21.8481278
 109.0060677  55.7769376  22.4552539 113.7726496  55.7625649  23.2875894
 113.9890110  56.6450286  22.9864722 113.2920563  55.3711862  22.5581536
 108.5125717  58.7211362  29.8646638 108.3670298  59.0351665  30.7570920
 108.0350921  59.3396262  29.3117537 110.3722100  55.7113910  29.9127528
 110.3583669  54.8155003  29.5759826 111.0894528  55.7184574  30.5465814
 112.2248231  56.1451250  31.9580655 111.9666009  57.0668321  31.9564986
 111.6933271  55.7481685  32.6481119 117.1694420  69.2502037  24.7370740
 117.3431297  68.6848460  23.9844593 117.6623311  70.0502932  24.5550230
 102.9871380  61.2616706  32.8034299 102.4424848  62.0376514  32.9354574
 103.8650729  61.6087511  32.6453421 109.7758996  54.5928290  25.1815098
 109.8974907  53.6644936  25.3805985 109.4861039  54.6066976  24.2693413
 112.6450187  52.2783200  28.3181818 112.6671883  52.3422534  27.3633797
 113.0618246  51.4387709  28.5122324 123.0233811  62.0138460  26.3561040
 123.4664957  61.2645785  25.9580164 122.1460321  62.0048596  25.9734772
 118.1569592  68.5668802  21.8367639 118.8520497  69.1875494  22.0554953
 118.4992742  67.7164153  22.1120017 103.7737401  60.3886602  35.6964456
 103.0319137  60.5369238  36.2829087 103.4530146  60.6494868  34.8331206
 120.0561015  66.0168507  23.3654970 120.5812339  66.3555780  22.6404290
 119.9683368  65.0815522  23.1818104 111.7181064  69.9302581  35.4944846
 112.0268190  69.6851727  36.3667546 112.5156546  70.1349219  35.0063716
 111.7401676  72.0840490  27.7250223 111.3006666  71.5916869  28.4183079
 112.4909793  71.5413458  27.4842298 104.2194015  68.2752031  27.7274851
 105.0452035  67.9755803  27.3473494 103.8688067  67.5059654  28.1764639
 109.1875548  67.6278499  29.7972524 108.5655558  66.9649204  29.4974752
 109.8580415  67.6539631  29.1146172 102.4202620  66.1938358  28.6863784
 101.5834528  65.7660532  28.5047786 102.3926266  66.3870801  29.6234576
 109.2600076  56.1060287  39.3905030 109.3088231  56.9822410  39.0082800
 109.8022590  55.5637680  38.8176674 119.7454921  66.6501411  38.6706168
 118.9550465  66.6325550  38.1310667 119.5088276  67.1889704  39.4255204
 119.8652796  63.4993877  35.9838896 119.9150801  63.3343884  36.9254419
 119.7566720  62.6321136  35.5936777 108.7489055  66.1782423  23.2730985
 108.8977176  66.8617887  22.6197658 109.5555499  66.1587513  23.7880441
 117.1556559  59.4824805  37.2998203 118.0566422  59.3431270  37.0082201
 117.2304533  59.6479260  38.2396380 111.4899364  56.8591660  36.1451389
 110.6202674  57.1525226  35.8733978 111.7258845  57.4432105  36.8658653
 121.3670993  65.9190819  36.2280918 121.0755802  66.2820799  37.0644379
 120.7543125  65.2057827  36.0494250 122.5666676  63.4843698  28.7483488
 123.4013567  63.9233502  28.9121048 122.7025804  63.0082352  27.9291734
 119.6158182  61.0423433  34.6960976 120.0912303  61.2351080  33.8879827
 118.6923747  61.0982619  34.4504359 106.5041688  62.2047600  24.2792054
 106.2587730  61.3009930  24.4772264 106.6737603  62.2064751  23.3371532
 114.1938398  53.0771277  33.6616809 114.7120342  53.8132304  33.3363298
 113.8393531  53.3835270  34.4963569 105.7737336  57.9375958  21.7778215
 105.0806581  58.0120313  21.1218251 105.5289088  57.1736302  22.2999732
 114.4450992  49.4971559  29.1817706 114.7252746  48.8294748  29.8078133
 115.2301599  49.6900655  28.6692370 112.2484461  68.6730553  20.7442732
 111.6758428  69.2920740  20.2913204 112.8217254  69.2229915  21.2782654
 118.3159851  57.9189193  32.9289281 119.2677273  58.0187291  32.9501505
 118.1463301  57.1267462  33.4387366 116.3374230  55.0044776  33.1148682
 115.7424162  55.2849789  32.4195171 116.0523927  55.4938677  33.8865423
 115.4681720  68.9567703  21.8751315 116.4012394  68.8913265  22.0784190
 115.3804933  69.7923970  21.4165847 118.0969737  68.2733574  18.8355262
 118.0183369  67.9393437  19.7291020 118.9179404  68.7655342  18.8346735
 120.7947928  61.1395313  32.0431581 120.7624248  60.2011314  32.2291265
 121.4048552  61.2179350  31.3097406 112.6331259  60.0091366  18.0858785
 113.5790364  59.8797574  18.1547203 112.2545504  59.2706028  18.5628213
 120.9442417  57.9306356  32.0889864 120.4281465  57.1464813  31.9019793
 121.8282365  57.6025073  32.2536383 118.6053144  51.6747372  28.0485677
 118.4077965  51.3662460  28.9329009 119.2152849  52.4009011  28.1783607
 126.6124478  62.2011320  31.1837618 127.3427867  61.9396608  31.7445321
 126.0031424  61.4640042  31.2239686 124.6939775  60.3419182  31.7812069
 123.9672939  60.2075147  31.1728560 124.2787062  60.6496011  32.5868787
 112.5169952  64.0609112  39.5459442 113.4372961  64.2387711  39.7399488
 112.4819535  63.1165157  39.3939141 110.8174176  57.9341342  18.0213670
 109.9105632  57.6374455  18.0976384 111.0950157  57.6371160  17.1547956
 101.7352117  59.2547706  28.4712716 101.4154901  58.4013014  28.1787090
 101.1885545  59.4696284  29.2270684 105.5132024  61.9710147  32.1882223
 105.7318034  62.9027255  32.2070257 105.9257798  61.6118121  32.9737027
 112.4336242  52.4778232  24.1757911 111.6236970  52.1325317  24.5513157
 113.1220659  52.1685776  24.7645523 114.3626790  51.5556279  25.7982208
 114.9157829  51.9751732  26.4572231 114.5996877  50.6292027  25.8405164
 110.3859890  57.5443352  41.5784972 110.2856616  58.4937709  41.5097063
 110.1681432  57.2161591  40.7061042 109.5872961  54.7928278  18.1625649
 110.4492125  55.1183176  18.4221467 109.7723305  54.0059773  17.6498715
 101.6040377  62.8750617  30.4405838 100.9103848  62.4604570  29.9275792
 102.3513368  62.9171154  29.8439257 117.7405597  53.6656804  25.3060872
 117.1604266  54.3241608  24.9238925 117.4741530  52.8434149  24.8948290
 116.1909164  53.0661862  27.5082193 116.6908942  53.1778396  26.6996511
 116.8344772  52.7622915  28.1483001 110.2491160  60.9740491  40.3950034
 109.7658241  61.7740851  40.6013923 110.3352099  60.9848436  39.4417478
 103.5177119  62.8068871  28.3171853 103.4947807  62.9056558  27.3653736
 103.8277756  63.6534022  28.6389019 106.1764497  64.8645026  32.4318467
 107.1307751  64.8328968  32.3648399 105.9777021  64.4035650  33.2468693
 106.7663879  63.4346142  34.9989265 107.5856768  63.9290221  35.0224102
 107.0400687  62.5178110  34.9706833 116.5230475  55.8256894  24.3617221
 115.6356330  56.1106545  24.1437415 116.9384465  55.6650658  23.5144497
 119.8745012  55.8503415  28.0771560 120.6505402  56.3399868  28.3496177
 119.1493146  56.2761470  28.5343429 122.3117570  56.5631035  29.1345500
 122.9062061  56.3226771  28.4238809 122.3844154  55.8438165  29.7619037
 104.5314726  70.4064646  29.4488665 104.3969194  69.6465046  28.8826663
 104.1146788  71.1305545  28.9817454 115.6673689  65.5901569  18.4565241
 116.3709539  65.7951572  19.0722896 114.9436338  66.1578331  18.7214324
 116.4971499  61.3411430  24.5767511 116.4406701  61.7979982  23.7375143
 117.0499842  60.5802115  24.3990353 120.3076305  57.1301162  25.4017630
 120.0513239  56.7297798  26.2325838 119.6829173  57.8444956  25.2767769
 124.6188643  59.8697235  27.9088922 124.0588201  59.9390425  28.6820484
 124.0132146  59.6938220  27.1888418 107.6883852  71.3033963  29.6607108
 107.5716236  72.2479395  29.5585798 106.8676298  71.0007524  30.0492907
 117.5760386  66.0284098  20.5063701 118.4105990  65.5965297  20.3241175
 117.4144729  65.8566112  21.4340595 117.2306279  62.5316212  21.8720040
 117.1755082  62.3660483  20.9308484 116.6052334  63.2392244  22.0282230
 102.0198793  57.7684276  35.6981462 102.6657657  57.2583230  36.1868687
 101.8115945  58.5052958  36.2724887 114.5452186  64.8365123  41.1973603
 115.4143345  65.0105776  40.8360238 114.0658937  65.6559540  41.0749332
 110.5402404  52.0324321  21.4505358 110.5281074  52.9766160  21.6073629
 111.4325826  51.8494466  21.1564819 108.7138366  71.9562224  32.8763036
 109.6165613  71.9885835  33.1929531 108.4875736  71.0262675  32.8909372
 110.4691968  70.7093211  29.5373115 109.5187599  70.7095073  29.4237487
 110.7724454  69.9625946  29.0209150 114.3554523  48.6267097  25.7051295
 113.5886919  48.0725584  25.8507977 114.7665228  48.6988966  26.5665447
 106.3596284  54.9151893  39.7956476 107.2227746  54.5588698  40.0059801
 105.7861695  54.5765788  40.4831881 126.2044661  76.5453749  30.6018877
 126.8423071  76.4260497  29.8982217 126.0865504  77.4934593  30.6606829
 123.0134368  76.4981177  30.5380402 122.6752879  76.3822242  29.6500937
 123.8824136  76.0972343  30.5181408 118.8721183  78.3516654  26.5277293
 118.3086049  78.2606591  25.7593581 118.7573578  77.5316558  27.0079785
 123.4954151  77.6516029  36.4966608 123.4842791  77.2568827  35.6247111
 123.6574790  76.9182102  37.0900379 116.4185615  79.8467845  29.3661513
 117.2106907  79.5058670  28.9507813 116.6582265  79.9562821  30.2863667
 124.4520742  82.0187622  21.8391758 123.8008722  82.6041702  21.4525772
 125.2465105  82.5493817  21.8986795 118.3776369  79.1076759  22.2378892
 119.1507245  78.5605746  22.0991768 118.7301768  79.9721008  22.4493354
 120.2161412  80.4353141  35.4445792 119.9251278  81.3398772  35.3292458
 120.8518396  80.4769669  36.1589861 121.1417619  77.8129990  32.0347151
 121.7381191  77.5886012  31.3204114 121.1992590  77.0714735  32.6372599
 120.7142647  75.2669425  19.8697342 120.9668168  74.7450946  19.1080805
 119.7767206  75.1035570  19.9724026 125.7585930  74.2705203  27.6772085
 126.5449019  73.8524626  27.3262502 126.0224634  75.1751295  27.8453734
 125.9296007  79.7078054  22.3760742 125.2941840  79.7812680  23.0881647
 125.5993414  80.2971652  21.6979821 131.1594357  74.2080436  28.5805064
 131.8919529  73.6379653  28.8142893 130.4033713  73.8202037  29.0211569
 120.4338936  77.1697531  22.0721717 120.3175194  76.4942434  22.7402801
 120.5441196  76.6829905  21.2553870 122.7770477  76.6307678  25.7768406
 122.4128684  76.1038299  26.4881328 123.6337593  76.2406147  25.6034892
 128.6819777  67.9202011  33.0399672 128.3503102  68.7897421  32.8160887
 128.0865391  67.6038295  33.7193703 122.4175964  71.6597578  20.7729755
 122.5850366  72.5277814  21.1400226 122.2273133  71.8224859  19.8491044
 125.1751297  80.1214557  32.4395585 124.8752020  81.0239595  32.3311392
 124.8302356  79.8546740  33.2916738 118.6263778  76.5728353  28.4732290
 117.7014275  76.4404567  28.6809981 118.8748192  77.3522573  28.9702232
 128.5748441  72.6397097  30.1193023 127.6665318  72.5712505  29.8251784
 128.5236036  73.1169042  30.9474848 122.3965185  74.1155235  21.7576422
 122.2764810  74.5612286  22.5961902 121.7017773  74.4640553  21.1989960
 115.9872589  76.2161627  29.3076079 116.1164971  76.4696106  30.2215490
 115.3070041  76.8089335  28.9880734 120.1572077  86.8858877  25.4066553
 120.0796106  87.8366702  25.4855033 119.5533720  86.5404749  26.0641479
 122.6489306  74.0586742  38.0627920 121.8722641  74.6180662  38.0530784
 123.2879870  74.5443525  38.5842790 130.4410087  70.8413535  31.8970896
 129.7984467  71.1346068  31.2510691 129.9365016  70.7266455  32.7024093
 128.0950251  74.5876708  22.5856756 129.0068107  74.8204095  22.4104453
 127.5859898  75.1713753  22.0231834 120.9035679  76.8672196  37.6245887
 121.6450363  77.4057240  37.3480710 120.1972664  77.4938484  37.7817439
 126.3791018  79.0101336  36.2218048 126.7874374  78.5683747  35.4772681
 125.6568280  78.4353964  36.4752241 122.7322088  73.9473943  33.5951605
 123.5783284  74.3713356  33.7386254 122.6720726  73.2907567  34.2890168
 126.7019833  79.5702527  29.9770337 126.0728696  79.7348241  29.2746405
 126.3145495  79.9844136  30.7481301 130.5809065  80.5056965  27.3314701
 129.8960103  80.8855866  26.7811734 130.6652914  81.1152291  28.0646649
 125.8821534  71.6078311  35.2532779 125.6382466  72.3620372  34.7167055
 126.1581464  71.9863659  36.0880026 127.8359997  78.1516924  33.9310044
 128.0476892  78.7948684  33.2544426 127.7889745  77.3179240  33.4631975
 125.4386226  70.7634744  30.8346617 124.5770705  71.0615998  31.1263354
 125.4648660  70.9805143  29.9027649 122.2547795  79.3076935  27.2420422
 122.7186140  79.5864638  26.4525045 121.9904593  78.4060379  27.0593513
 119.1471876  78.8548416  30.1800186 119.7173233  79.2835685  29.5417670
 119.7379988  78.5731001  30.8784371 121.1916681  75.4300087  24.0509987
 121.8940724  75.8821131  24.5183914 120.8597310  74.7883906  24.6789881
 119.6397043  74.0211844  38.4261197 119.0095703  74.7028125  38.6596594
 119.5333130  73.9094925  37.4814335 114.9342015  73.6883640  29.3527121
 114.1441069  73.9441168  28.8767232 115.4253262  74.5031978  29.4579162
 128.9505825  81.0288879  32.1032402 129.7723268  80.6269066  31.8215083
 128.9468227  80.9257113  33.0548518 116.8856760  74.0528219  26.3110598
 116.0887924  74.1646913  26.8294093 116.6582353  74.3914871  25.4451488
 122.7162428  80.5772922  34.2593112 122.7806860  81.0393330  35.0951284
 122.0073352  79.9470287  34.3875422 113.2179718  73.9414130  31.7842112
 113.4687756  74.8261140  32.0499688 113.7539266  73.7618732  31.0117204
 137.0411818  77.3727628  28.4517373 136.2875526  76.8035026  28.2961378
 137.1759359  77.3390292  29.3988008 122.4310446  82.2441030  24.1272093
 122.2956120  83.0892566  24.5556940 122.9720258  82.4460307  23.3638026
 118.9177785  68.3232610  40.7886448 118.5244731  67.7698808  41.4634092
 119.7343926  68.6343188  41.1792965 115.8839843  79.7616468  24.7000018
 116.3964364  80.5559718  24.8505582 116.5362556  79.0642758  24.6333619
 117.6934728  82.8782224  26.7822771 117.8701356  83.8000189  26.5943755
 118.4891561  82.5640643  27.2117151 121.8345746  69.7390489  38.3806704
 122.5755460  70.3397642  38.3011167 122.0663669  68.9968127  37.8224747
 116.9787084  74.9246856  36.6584934 116.8640599  74.0232113  36.9592033
 116.1231602  75.1710553  36.3069751 124.0578922  82.8664596  38.2572435
 123.6142776  82.0800975  37.9393339 124.7196136  83.0543747  37.5916326
 118.8166043  84.3960398  32.7833113 119.3673468  84.2677461  32.0110107
 117.9777519  84.6955287  32.4328006 126.1560160  83.1467396  36.2853836
 126.1378635  83.9676277  35.7934105 127.0780080  83.0221471  36.5103977
 122.6133214  80.6611526  37.1277344 123.1461551  79.8999814  36.8976652
 122.0847295  80.3685178  37.8701499 125.7802909  65.7671592  32.6570986
 125.4367179  66.6573233  32.5810097 126.1481872  65.5773249  31.7940571
 113.8488760  78.0905122  25.4759588 114.6863982  78.5002131  25.2593296
 114.0267028  77.1504564  25.4459782 125.7453192  75.7580203  21.1643421
 125.2299815  76.5284807  21.4031809 125.4730500  75.0845339  21.7876483
 123.3300303  70.6029904  26.2228660 122.4741899  70.2136754  26.0434298
 123.7427255  70.6821864  25.3628445 124.8599450  68.1376247  30.6220219
 124.3564245  68.1006382  29.8088025 125.1530056  69.0468990  30.6816876
 121.1042335  68.2214977  29.6286401 121.9695332  68.0257785  29.2692291
 121.1719844  67.9925328  30.5555758 130.7187466  78.5112557  23.0996595
 129.9416909  78.1723717  22.6551757 131.3978947  78.5165181  22.4251560
 125.5339495  73.6307295  22.9903202 125.2289631  73.9453444  23.8413346
 126.4869937  73.7088715  23.0330535 123.9785927  79.7897518  24.6396156
 123.4507289  79.0550278  24.3269394 123.4773430  80.5672195  24.3936125
 128.9578773  77.9846539  29.7563203 128.3002447  78.6745800  29.8443331
 129.7619172  78.3742971  30.0997189 118.7104655  70.4517185  27.0002768
 119.2848406  70.2292366  26.2675961 119.2975637  70.5205879  27.7531369
 127.7684232  76.3390911  27.8067144 128.2816114  76.9720903  28.3088854
 128.4185456  75.7392107  27.4410504 119.0374242  72.4821646  21.0198653
 118.2011554  72.8196332  21.3407928 118.8979011  72.3470625  20.0825790
 121.0127322  67.3258433  25.7277837 120.3591735  67.0107451  25.1034452
 120.9707796  66.7034174  26.4537660 122.1238527  77.6077728  17.6431129
 121.2165589  77.3766982  17.8422278 122.6209559  76.8115348  17.8305111
 125.0306606  86.3175236  20.5627816 124.3568305  86.6206932  21.1712773
 125.4172428  87.1204316  20.2133273 124.2465063  73.8140367  30.0525485
 123.3287624  74.0355314  29.8947173 124.6625206  73.8886677  29.1937192
 125.0300110  75.2131783  25.1828165 125.7771929  75.7253180  24.8735287
 125.2991700  74.8915835  26.0432559 123.3026761  77.7090323  22.1655120
 122.3937980  77.4249356  22.2627589 123.3321844  78.1289402  21.3058426
 128.5346028  81.3196913  25.9346287 128.0808355  80.4787823  25.9911478
 127.9039995  81.9558311  26.2721067 127.4778948  72.2488899  27.1646955
 126.7401704  71.7366285  27.4957197 127.7305721  71.8089281  26.3530231
 126.9778967  83.1573410  26.8696105 127.2701942  83.7178467  26.1508471
 127.4877588  83.4501971  27.6249264 127.5790575  65.0265151  27.7588724
 127.8849452  64.1662514  27.4714639 128.3043180  65.6182771  27.5587718
 113.8714931  75.4295837  26.1470322 113.6739331  74.8365198  25.4221388
 113.3161595  75.1248048  26.8646260 121.8511655  75.3218944  28.2664915
 121.9060264  74.3692780  28.1907391 121.0402857  75.4778383  28.7506213
 123.0002848  79.2499067  19.5043198 122.5622278  78.5334926  19.0448835
 123.7413289  79.4775182  18.9428289 119.7904015  73.9396004  26.0255294
 118.9771880  74.2390174  26.4320486 120.2863009  73.5451692  26.7429776
 121.9412592  83.9353761  27.9589558 121.8988771  84.1614607  27.0298090
 122.8575291  83.7017135  28.1075360 125.3878226  74.4037828  34.8570188
 125.7427614  74.6309301  35.7164653 126.0350357  74.7356205  34.2347443
 131.1175963  77.5256264  25.5619517 130.9793862  77.7157860  24.6340706
 130.7612182  78.2875647  26.0187568 119.2818089  71.5114359  31.6416529
 119.9217469  71.3703118  30.9439492 118.4495620  71.2248873  31.2655131
 131.1445343  79.5932791  30.5730788 131.5781849  79.5008080  31.4213842
 131.8576923  79.5690292  29.9350804 120.0578393  80.8116790  27.7551521
 120.8518992  80.3167110  27.5534096 119.3470086  80.2834653  27.3919227
 124.8773238  83.1934885  32.1063889 124.9310260  83.7625822  32.8741605
 124.0088019  83.3636770  31.7417926 116.3661157  74.9559871  23.8311274
 115.4358745  74.8944327  24.0481236 116.4618629  74.4335824  23.0347915
 116.2846706  71.4814684  26.4189515 116.5453523  72.3960017  26.3098676
 117.1063878  71.0139127  26.5686128 117.7571631  72.8952441  33.5888340
 118.4294684  72.6869804  32.9400989 116.9301418  72.6974527  33.1493572
 132.0060892  79.6356492  33.1063674 132.1996782  80.5402302  33.3522948
 131.9061510  79.1763911  33.9402259 123.6597203  69.5214382  35.6054001
 123.0125118  70.2204332  35.5118477 124.4298218  69.9550526  35.9730249
 127.0676001  79.7863234  38.6804554 126.9161507  79.5573786  37.7634638
 127.0580680  80.7433836  38.6935899 123.8361337  77.3595147  33.6650821
 124.7653397  77.5106307  33.4919788 123.4152367  77.4479168  32.8099467
 122.6349669  81.3845812  31.4349358 122.4960755  81.0164596  32.3075296
 121.8464265  81.8993451  31.2633316 123.2297821  86.4854908  22.7774895
 123.4049577  86.0142951  23.5920517 122.5430609  87.1120674  23.0056155
 124.1854884  80.7627414  28.8238196 123.8504717  80.7228184  29.7195846
 123.6858830  80.0972130  28.3508606 118.1599128  76.1695044  34.3490777
 118.0218926  75.4375283  34.9502316 119.0704052  76.0803944  34.0674965
 127.1214076  78.1083449  19.0975256 126.5043247  77.3830277  19.0008308
 126.6530564  78.8692809  18.7542330 120.7881429  75.8815004  33.8374457
 121.4981047  75.2408196  33.7961075 120.7450737  76.1327899  34.7600638
 128.7768208  82.8182357  36.7581036 128.7180754  82.1341577  36.0911619
 129.1787726  83.5601347  36.3061662 119.5010363  72.8680222  35.6570096
 118.9647720  72.4170960  36.3091693 118.9127071  73.0026130  34.9140561
 117.7958906  89.6344271  29.5514755 118.0355505  90.2662795  30.2293773
 116.9528103  89.2832311  29.8380114 118.9112622  72.3268873  18.2196560
 118.0342088  72.2057674  17.8558807 119.3870375  71.5354951  17.9675449
 128.7785615  80.7821941  34.9895016 127.8912394  80.4447863  35.1121415
 129.3484166  80.0504972  35.2263781 110.4314762  77.1146033  28.3138067
 111.1185802  76.8007763  27.7259082 110.2762891  78.0187397  28.0405319
 115.2349484  72.0036229  32.7423091 115.1507673  71.3961899  32.0073501
 114.4132191  72.4945248  32.7432587 122.3086768  85.4423393  31.9556259
 122.2356940  86.2478365  32.4675563 121.8664161  85.6415359  31.1304280
 122.0976548  84.6795163  25.4659080 121.3144070  85.2216844  25.5597305
 122.7969293  85.1969143  25.8653322 125.4073198  70.4889793  28.1093286
 125.9041898  69.7359755  27.7894356 124.6360180  70.5254109  27.5436495
 133.2602955  76.1930158  29.7511577 133.2492832  77.0754874  29.3805510
 132.3920335  75.8401709  29.5566114 124.7685452  85.3410227  34.1114418
 125.4813424  85.9757692  34.0390319 124.2775480  85.4374093  33.2954419
 126.4902979  79.2461480  25.6831709 125.5559257  79.3662942  25.5136414
 126.6679647  78.3433947  25.4191719 121.9908167  72.6307176  27.8364970
 121.6205954  72.0778216  28.5245876 122.4867259  72.0265309  27.2839970
 129.8775530  75.0878799  26.2181743 130.3435982  75.9206791  26.1442046
 130.3283031  74.6223781  26.9227002 119.8197365  83.0904671  34.9319988
 120.5206825  83.7241154  35.0849383 119.3492480  83.4319402  34.1715628
 127.9451761  81.4322621  23.2167895 128.2211605  81.3179215  24.1261769
 127.0756260  81.0340105  23.1780068 127.8492193  67.4559386  30.2572645
 126.9355273  67.6863613  30.4254852 128.2785294  67.5397830  31.1086677
 127.6198651  75.6449278  32.7572539 126.9670102  75.8925186  32.1024991
 127.9979031  74.8313416  32.4235016 124.5805825  85.6808971  26.8600709
 124.7628220  84.8630627  27.3228461 125.4038811  85.8976664  26.4225599
 124.9147991  84.6077157  24.1215758 125.4435757  84.0969611  23.5085920
 125.1776210  84.2919687  24.9861291 123.6686224  76.3869089  39.2438576
 122.9926861  76.2863219  39.9140951 124.4913858  76.2308303  39.7074573
 115.4165083  82.6241026  31.8651091 116.0018520  81.8784714  31.9978995
 115.2189922  82.9344983  32.7487755 118.2703739  85.6592273  26.8813533
 117.6014114  86.1438401  26.3977573 118.1316608  85.9061494  27.7956912
 110.0082738  75.1946626  30.5855534 110.0466838  74.6610217  31.3792652
 109.5023031  74.6681832  29.9666511 122.4109007  87.6936017  33.4796192
 122.9627315  87.8567638  34.2445277 122.7515201  88.2840455  32.8076217
 117.3873500  70.0411167  34.0818077 117.4514827  70.9025997  33.6695474
 117.3240621  69.4285168  33.3490435 116.8625773  72.1134299  37.7291111
 117.4897812  71.7311376  38.3428635 116.0053692  71.8948501  38.0946803
 127.2619882  82.5197274  39.3344846 127.8059786  83.1327233  38.8399801
 126.6806726  83.0776853  39.8511859 113.6391316  73.9210728  23.6609466
 113.9344757  73.0121407  23.6076519 112.7379351  73.8998468  23.3390468
 125.5477394  85.6417992  30.4659874 125.4228534  84.8407732  29.9570819
 126.2056486  86.1364186  29.9773844 117.1685563  71.9966725  29.6437014
 116.4472148  72.6102693  29.5044488 117.9578818  72.5324490  29.5653660
 127.6112303  83.4427012  32.0939424 126.6642638  83.3232364  32.0217751
 127.9595076  82.5549510  32.1765685 119.9711876  69.3321151  35.9177666
 120.4946278  69.5783448  36.6803975 119.7524210  70.1641186  35.4980803
 115.3679157  71.6024826  23.7848791 115.0391863  70.7222205  23.6023897
 115.7218528  71.5472495  24.6725180 124.6158736  83.2379729  28.2943776
 124.4683699  82.3096436  28.4751346 125.4412230  83.2599819  27.8100852
 118.4820980  71.8897796  24.1524268 118.8217053  72.4183717  23.4302877
 118.9293101  72.2278202  24.9282835 128.2192858  84.0608287  29.3808649
 129.1439405  83.8551149  29.2433100 128.0508161  83.8124688  30.2897991
 121.1764421  70.2734846  33.6027336 120.8361242  69.4742659  34.0048016
 120.4703428  70.5736557  33.0304170 121.8280893  67.3584159  32.0554660
 122.6506962  66.8844637  31.9333550 122.0718957  68.1374643  32.5553346
 120.4689128  70.3872417  22.3517561 121.1897490  70.7653670  21.8481278
 119.8454432  71.1061294  22.4552539 124.6120250  71.0917566  23.2875894
 124.8283865  71.9742204  22.9864722 124.1314318  70.7003780  22.5581536
 119.3519472  74.0503279  29.8646638 119.2064053  74.3643583  30.7570920
 118.8744676  74.6688180  29.3117537 121.2115855  71.0405827  29.9127528
 121.1977424  70.1446921  29.5759826 121.9288283  71.0476491  30.5465814
 123.0641985  71.4743168  31.9580655 122.8059763  72.3960238  31.9564986
 122.5327026  71.0773602  32.6481119 128.0088174  84.5793955  24.7370740
 128.1825052  84.0140377  23.9844593 128.5017065  85.3794850  24.5550230
 113.8265134  76.5908624  32.8034299 113.2818602  77.3668432  32.9354574
 114.7044484  76.9379428  32.6453421 120.6152751  69.9220208  25.1815098
 120.7368662  68.9936854  25.3805985 120.3254793  69.9358894  24.2693413
 123.4843941  67.6075118  28.3181818 123.5065638  67.6714451  27.3633797
 123.9012000  66.7679627  28.5122324 133.8627565  77.3430378  26.3561040
 134.3058711  76.5937703  25.9580164 132.9854076  77.3340514  25.9734772
 128.9963347  83.8960719  21.8367639 129.6914251  84.5167412  22.0554953
 129.3386497  83.0456070  22.1120017 114.6131156  75.7178520  35.6964456
 113.8712892  75.8661155  36.2829087 114.2923900  75.9786786  34.8331206
 130.8954770  81.3460425  23.3654970 131.4206094  81.6847697  22.6404290
 130.8077122  80.4107440  23.1818104 122.5574819  85.2594498  35.4944846
 122.8661945  85.0143645  36.3667546 123.3550301  85.4641137  35.0063716
 122.5795431  87.4132408  27.7250223 122.1400421  86.9208787  28.4183079
 123.3303548  86.8705376  27.4842298 115.0587770  83.6043949  27.7274851
 115.8845789  83.3047721  27.3473494 114.7081822  82.8351571  28.1764639
 120.0269303  82.9570417  29.7972524 119.4049312  82.2941122  29.4974752
 120.6974170  82.9831549  29.1146172 113.2596375  81.5230275  28.6863784
 112.4228283  81.0952450  28.5047786 113.2320020  81.7162719  29.6234576
 120.0993830  71.4352205  39.3905030 120.1481986  72.3114328  39.0082800
 120.6416344  70.8929598  38.8176674 130.5848676  81.9793328  38.6706168
 129.7944220  81.9617467  38.1310667 130.3482030  82.5181622  39.4255204
 130.7046551  78.8285795  35.9838896 130.7544556  78.6635802  36.9254419
 130.5960474  77.9613054  35.5936777 119.5882810  81.5074340  23.2730985
 119.7370930  82.1909805  22.6197658 120.3949253  81.4879430  23.7880441
 127.9950313  74.8116723  37.2998203 128.8960176  74.6723188  37.0082201
 128.0698288  74.9771178  38.2396380 122.3293119  72.1883578  36.1451389
 121.4596428  72.4817144  35.8733978 122.5652599  72.7724023  36.8658653
 132.2064748  81.2482736  36.2280918 131.9149556  81.6112717  37.0644379
 131.5936879  80.5349745  36.0494250 133.4060430  78.8135616  28.7483488
 134.2407321  79.2525420  28.9121048 133.5419559  78.3374269  27.9291734
 130.4551936  76.3715351  34.6960976 130.9306058  76.5642997  33.8879827
 129.5317501  76.4274537  34.4504359 117.3435443  77.5339518  24.2792054
 117.0981485  76.6301848  24.4772264 117.5131357  77.5356669  23.3371532
 125.0332153  68.4063194  33.6616809 125.5514096  69.1424221  33.3363298
 124.6787285  68.7127188  34.4963569 116.6131090  73.2667876  21.7778215
 115.9200335  73.3412231  21.1218251 116.3682842  72.5028219  22.2999732
 125.2844747  64.8263477  29.1817706 125.5646500  64.1586666  29.8078133
 126.0695354  65.0192573  28.6692370 123.0878215  84.0022471  20.7442732
 122.5152182  84.6212658  20.2913204 123.6611009  84.5521833  21.2782654
 129.1553605  73.2481111  32.9289281 130.1071028  73.3479209  32.9501505
 128.9857055  72.4559380  33.4387366 127.1767984  70.3336694  33.1148682
 126.5817917  70.6141707  32.4195171 126.8917681  70.8230595  33.8865423
 126.3075475  84.2859621  21.8751315 127.2406148  84.2205183  22.0784190
 126.2198688  85.1215888  21.4165847 128.9363492  83.6025491  18.8355262
 128.8577123  83.2685355  19.7291020 129.7573158  84.0947259  18.8346735
 131.6341683  76.4687231  32.0431581 131.6018003  75.5303231  32.2291265
 132.2442306  76.5471267  31.3097406 123.4725014  75.3383284  18.0858785
 124.4184118  75.2089492  18.1547203 123.0939259  74.5997946  18.5628213
 131.7836171  73.2598274  32.0889864 131.2675220  72.4756731  31.9019793
 132.6676120  72.9316991  32.2536383 129.4446898  67.0039290  28.0485677
 129.2471719  66.6954378  28.9329009 130.0546604  67.7300929  28.1783607
 135.5333530  75.6711100  31.7812069 134.8066693  75.5367065  31.1728560
 135.1180817  75.9787929  32.5868787 123.3563706  79.3901030  39.5459442
 124.2766716  79.5679629  39.7399488 123.3213289  78.4457075  39.3939141
 121.6567931  73.2633260  18.0213670 120.7499386  72.9666373  18.0976384
 121.9343912  72.9663078  17.1547956 112.5745871  74.5839623  28.4712716
 112.2548656  73.7304932  28.1787090 112.0279299  74.7988202  29.2270684
 116.3525779  77.3002064  32.1882223 116.5711789  78.2319172  32.2070257
 116.7651553  76.9410039  32.9737027 123.2729997  67.8070150  24.1757911
 122.4630725  67.4617235  24.5513157 123.9614413  67.4977693  24.7645523
 125.2020545  66.8848197  25.7982208 125.7551583  67.3043650  26.4572231
 125.4390631  65.9583945  25.8405164 121.2253644  72.8735270  41.5784972
 121.1250371  73.8229627  41.5097063 121.0075186  72.5453509  40.7061042
 120.4266715  70.1220195  18.1625649 121.2885879  70.4475094  18.4221467
 120.6117060  69.3351691  17.6498715 112.4434131  78.2042535  30.4405838
 111.7497603  77.7896488  29.9275792 113.1907122  78.2463071  29.8439257
 128.5799352  68.9948722  25.3060872 127.9998021  69.6533526  24.9238925
 128.3135285  68.1726066  24.8948290 127.0302918  68.3953779  27.5082193
 127.5302697  68.5070314  26.6996511 127.6738526  68.0914832  28.1483001
 121.0884914  76.3032409  40.3950034 120.6051996  77.1032769  40.6013923
 121.1745853  76.3140354  39.4417478 114.3570874  78.1360789  28.3171853
 114.3341562  78.2348476  27.3653736 114.6671510  78.9825939  28.6389019
 117.0158252  80.1936944  32.4318467 117.9701505  80.1620886  32.3648399
 116.8170775  79.7327567  33.2468693 117.6057634  78.7638060  34.9989265
 118.4250523  79.2582138  35.0224102 117.8794441  77.8470028  34.9706833
 127.3624230  71.1548812  24.3617221 126.4750085  71.4398463  24.1437415
 127.7778219  70.9942575  23.5144497 130.7138766  71.1795333  28.0771560
 131.4899156  71.6691785  28.3496177 129.9886900  71.6053387  28.5343429
 133.1511325  71.8922952  29.1345500 133.7455816  71.6518688  28.4238809
 133.2237908  71.1730083  29.7619037 115.3708480  85.7356563  29.4488665
 115.2362948  84.9756964  28.8826663 114.9540543  86.4597463  28.9817454
 126.5067443  80.9193487  18.4565241 127.2103294  81.1243489  19.0722896
 125.7830092  81.4870249  18.7214324 127.3365254  76.6703348  24.5767511
 127.2800455  77.1271899  23.7375143 127.8893596  75.9094033  24.3990353
 131.1470060  72.4593080  25.4017630 130.8906994  72.0589716  26.2325838
 130.5222928  73.1736874  25.2767769 135.4582397  75.1989153  27.9088922
 134.8981955  75.2682342  28.6820484 134.8525901  75.0230138  27.1888418
 118.5277606  86.6325880  29.6607108 118.4109990  87.5771313  29.5585798
 117.7070053  86.3299442  30.0492907 128.4154141  81.3576016  20.5063701
 129.2499745  80.9257214  20.3241175 128.2538484  81.1858030  21.4340595
 128.0700033  77.8608129  21.8720040 128.0148837  77.6952401  20.9308484
 127.4446088  78.5684162  22.0282230 112.8592548  73.0976194  35.6981462
 113.5051412  72.5875148  36.1868687 112.6509699  73.8344875  36.2724887
 125.3845940  80.1657041  41.1973603 126.2537100  80.3397693  40.8360238
 124.9052692  80.9851458  41.0749332 121.3796158  67.3616238  21.4505358
 121.3674828  68.3058078  21.6073629 122.2719580  67.1786384  21.1564819
 119.5532120  87.2854142  32.8763036 120.4559367  87.3177752  33.1929531
 119.3269490  86.3554593  32.8909372 121.3085722  86.0385129  29.5373115
 120.3581353  86.0386990  29.4237487 121.6118209  85.2917863  29.0209150
 125.1948278  63.9559015  25.7051295 124.4280674  63.4017502  25.8507977
 125.6058983  64.0280884  26.5665447 117.1990039  70.2443811  39.7956476
 118.0621501  69.8880616  40.0059801 116.6255450  69.9057706  40.4831881
 133.8528122  91.8273095  30.5380402 133.5146634  91.7114160  29.6500937
 134.7217890  91.4264260  30.5181408 129.7114938  93.6808572  26.5277293
 129.1479803  93.5898509  25.7593581 129.5967333  92.8608476  27.0079785
 134.3347905  92.9807947  36.4966608 134.3236546  92.5860745  35.6247111
 134.4968545  92.2474020  37.0900379 127.2579370  95.1759763  29.3661513
 128.0500662  94.8350588  28.9507813 127.4976020  95.2854738  30.2863667
 131.0555166  95.7645059  35.4445792 130.7645032  96.6690690  35.3292458
 131.6912151  95.8061586  36.1589861 131.9811373  93.1421907  32.0347151
 132.5774945  92.9177930  31.3204114 132.0386345  92.4006653  32.6372599
 136.5979684  89.5997121  27.6772085 137.3842774  89.1816544  27.3262502
 136.8618389  90.5043213  27.8453734 133.6164231  91.9599596  25.7768406
 133.2522438  91.4330217  26.4881328 134.4731347  91.5698065  25.6034892
 136.0145051  95.4506474  32.4395585 135.7145774  96.3531513  32.3311392
 135.6696111  95.1838657  33.2916738 129.4657533  91.9020271  28.4732290
 128.5408029  91.7696485  28.6809981 129.7141946  92.6814490  28.9702232
 126.8266344  91.5453545  29.3076079 126.9558725  91.7988024  30.2215490
 126.1463795  92.1381253  28.9880734 133.4883061  89.3878660  38.0627920
 132.7116395  89.9472580  38.0530784 134.1273624  89.8735443  38.5842790
 131.7429433  92.1964113  37.6245887 132.4844118  92.7349157  37.3480710
 131.0366419  92.8230402  37.7817439 137.2184773  94.3393254  36.2218048
 137.6268129  93.8975664  35.4772681 136.4962034  93.7645881  36.4752241
 133.5715843  89.2765861  33.5951605 134.4177038  89.7005274  33.7386254
 133.5114481  88.6199485  34.2890168 137.5413588  94.8994444  29.9770337
 136.9122450  95.0640159  29.2746405 137.1539250  95.3136054  30.7481301
 136.7215288  86.9370229  35.2532779 136.4776220  87.6912289  34.7167055
 136.9975219  87.3155577  36.0880026 136.2779980  86.0926662  30.8346617
 135.4164459  86.3907916  31.1263354 136.3042415  86.3097061  29.9027649
 133.0941549  94.6368853  27.2420422 133.5579895  94.9156556  26.4525045
 132.8298348  93.7352297  27.0593513 129.9865631  94.1840334  30.1800186
 130.5566988  94.6127602  29.5417670 130.5773742  93.9022919  30.8784371
 132.0310436  90.7592005  24.0509987 132.7334479  91.2113049  24.5183914
 131.6991064  90.1175824  24.6789881 130.4790797  89.3503762  38.4261197
 129.8489458  90.0320042  38.6596594 130.3726885  89.2386843  37.4814335
 125.7735769  89.0175558  29.3527121 124.9834823  89.2733086  28.8767232
 126.2647017  89.8323895  29.4579162 127.7250515  89.3820137  26.3110598
 126.9281678  89.4938831  26.8294093 127.4976107  89.7206789  25.4451488
 133.5556182  95.9064840  34.2593112 133.6200615  96.3685247  35.0951284
 132.8467106  95.2762205  34.3875422 124.0573472  89.2706048  31.7842112
 124.3081511  90.1553058  32.0499688 124.5933021  89.0910650  31.0117204
 129.7571540  83.6524527  40.7886448 129.3638485  83.0990726  41.4634092
 130.5737680  83.9635106  41.1792965 126.7233598  95.0908386  24.7000018
 127.2358118  95.8851636  24.8505582 127.3756310  94.3934676  24.6333619
 132.6739501  85.0682406  38.3806704 133.4149214  85.6689560  38.3011167
 132.9057424  84.3260044  37.8224747 127.8180839  90.2538774  36.6584934
 127.7034354  89.3524031  36.9592033 126.9625357  90.5002470  36.3069751
 134.8972677  98.1956514  38.2572435 134.4536531  97.4092893  37.9393339
 135.5589890  98.3835665  37.5916326 129.6559798  99.7252316  32.7833113
 130.2067223  99.5969379  32.0110107 128.8171274 100.0247205  32.4328006
 133.4526969  95.9903443  37.1277344 133.9855306  95.2291732  36.8976652
 132.9241050  95.6977095  37.8701499 136.6196664  81.0963509  32.6570986
 136.2760933  81.9865151  32.5810097 136.9875626  80.9065167  31.7940571
 124.6882514  93.4197040  25.4759588 125.5257736  93.8294048  25.2593296
 124.8660782  92.4796482  25.4459782 134.1694057  85.9321821  26.2228660
 133.3135654  85.5428672  26.0434298 134.5821009  86.0113782  25.3628445
 135.6993204  83.4668165  30.6220219 135.1958000  83.4298300  29.8088025
 135.9923811  84.3760907  30.6816876 131.9436090  83.5506894  29.6286401
 132.8089087  83.3549703  29.2692291 132.0113599  83.3217246  30.5555758
 129.5498409  85.7809102  27.0002768 130.1242161  85.5584284  26.2675961
 130.1369391  85.8497797  27.7531369 131.8521077  82.6550351  25.7277837
 131.1985489  82.3399368  25.1034452 131.8101551  82.0326092  26.4537660
 135.0858817  89.1432285  30.0525485 134.1681378  89.3647232  29.8947173
 135.5018961  89.2178595  29.1937192 124.7108685  90.7587755  26.1470322
 124.5133085  90.1657116  25.4221388 124.1555349  90.4539965  26.8646260
 132.6905409  90.6510862  28.2664915 132.7454019  89.6984698  28.1907391
 131.8796611  90.8070301  28.7506213 130.6297769  89.2687921  26.0255294
 129.8165635  89.5682092  26.4320486 131.1256763  88.8743610  26.7429776
 136.2271981  89.7329746  34.8570188 136.5821368  89.9601219  35.7164653
 136.8744112  90.0648123  34.2347443 130.1211844  86.8406277  31.6416529
 130.7611223  86.6995036  30.9439492 129.2889374  86.5540790  31.2655131
 130.8972148  96.1408707  27.7551521 131.6912746  95.6459027  27.5534096
 130.1863840  95.6126570  27.3919227 135.7166992  98.5226803  32.1063889
 135.7704014  99.0917739  32.8741605 134.8481774  98.6928688  31.7417926
 127.2054911  90.2851789  23.8311274 126.2752499  90.2236245  24.0481236
 127.3012383  89.7627742  23.0347915 127.1240460  86.8106602  26.4189515
 127.3847277  87.7251935  26.3098676 127.9457633  86.3431044  26.5686128
 128.5965386  88.2244359  33.5888340 129.2688439  88.0161721  32.9400989
 127.7695172  88.0266445  33.1493572 134.4990958  84.8506300  35.6054001
 133.8518873  85.5496250  35.5118477 135.2691973  85.2842444  35.9730249
 134.6755092  92.6887065  33.6650821 135.6047152  92.8398225  33.4919788
 134.2546122  92.7771086  32.8099467 133.4743424  96.7137729  31.4349358
 133.3354509  96.3456514  32.3075296 132.6858020  97.2285369  31.2633316
 135.0248639  96.0919332  28.8238196 134.6898471  96.0520102  29.7195846
 134.5252584  95.4264048  28.3508606 128.9992883  91.4986962  34.3490777
 128.8612681  90.7667201  34.9502316 129.9097806  91.4095862  34.0674965
 131.6275183  91.2106921  33.8374457 132.3374802  90.5700114  33.7961075
 131.5844492  91.4619816  34.7600638 130.3404117  88.1972139  35.6570096
 129.8041474  87.7462878  36.3091693 129.7520826  88.3318048  34.9140561
 121.2708517  92.4437950  28.3138067 121.9579556  92.1299680  27.7259082
 121.1156645  93.3479315  28.0405319 126.0743239  87.3328147  32.7423091
 125.9901427  86.7253817  32.0073501 125.2525945  87.8237165  32.7432587
 133.1480523 100.7715311  31.9556259 133.0750694 101.5770282  32.4675563
 132.7057916 100.9707277  31.1304280 136.2466953  85.8181710  28.1093286
 136.7435652  85.0651673  27.7894356 135.4753934  85.8546027  27.5436495
 135.6079206 100.6702145  34.1114418 136.3207179 101.3049610  34.0390319
 135.1169235 100.7666011  33.2954419 132.8301921  87.9599093  27.8364970
 132.4599709  87.4070134  28.5245876 133.3261014  87.3557227  27.2839970
 130.6591120  98.4196588  34.9319988 131.3600579  99.0533071  35.0849383
 130.1886235  98.7611320  34.1715628 134.5079979  91.7161007  39.2438576
 133.8320616  91.6155136  39.9140951 135.3307613  91.5600221  39.7074573
 126.2558838  97.9532944  31.8651091 126.8412275  97.2076631  31.9978995
 126.0583676  98.2636900  32.7487755 120.8476493  90.5238544  30.5855534
 120.8860592  89.9902134  31.3792652 120.3416785  89.9973749  29.9666511
 133.2502762 103.0227934  33.4796192 133.8021070 103.1859556  34.2445277
 133.5908955 103.6132372  32.8076217 128.2267255  85.3703084  34.0818077
 128.2908581  86.2317915  33.6695474 128.1634375  84.7577086  33.3490435
 127.7019527  87.4426217  37.7291111 128.3291566  87.0603294  38.3428635
 126.8447446  87.2240419  38.0946803 124.4785070  89.2502646  23.6609466
 124.7738511  88.3413324  23.6076519 123.5773106  89.2290385  23.3390468
 128.0079317  87.3258642  29.6437014 127.2865903  87.9394610  29.5044488
 128.7972573  87.8616407  29.5653660 130.8105631  84.6613069  35.9177666
 131.3340033  84.9075366  36.6803975 130.5917964  85.4933104  35.4980803
 126.2072912  86.9316744  23.7848791 125.8785618  86.0514122  23.6023897
 126.5612282  86.8764412  24.6725180 129.3214735  87.2189713  24.1524268
 129.6610807  87.7475635  23.4302877 129.7686855  87.5570119  24.9282835
 132.0158176  85.6026764  33.6027336 131.6754996  84.8034577  34.0048016
 131.3097182  85.9028475  33.0304170 132.6674648  82.6876076  32.0554660
 133.4900717  82.2136555  31.9333550 132.9112711  83.4666560  32.5553346
 131.3082882  85.7164335  22.3517561 132.0291245  86.0945588  21.8481278
 130.6848186  86.4353212  22.4552539 135.4514005  86.4209484  23.2875894
 135.6677619  87.3034122  22.9864722 134.9708072  86.0295697  22.5581536
 130.1913226  89.3795197  29.8646638 130.0457807  89.6935500  30.7570920
 129.7138430  89.9980097  29.3117537 132.0509609  86.3697745  29.9127528
 132.0371178  85.4738838  29.5759826 132.7682037  86.3768409  30.5465814
 133.9035740  86.8035085  31.9580655 133.6453518  87.7252156  31.9564986
 133.3720780  86.4065520  32.6481119 124.6658889  91.9200542  32.8034299
 124.1212357  92.6960350  32.9354574 125.5438238  92.2671346  32.6453421
 131.4546505  85.2512125  25.1815098 131.5762416  84.3228772  25.3805985
 131.1648548  85.2650811  24.2693413 134.3237696  82.9367036  28.3181818
 134.3459392  83.0006369  27.3633797 134.7405755  82.0971544  28.5122324
 125.4524910  91.0470438  35.6964456 124.7106646  91.1953073  36.2829087
 125.1317655  91.3078703  34.8331206 133.3968573 100.5886416  35.4944846
 133.7055699 100.3435563  36.3667546 134.1944055 100.7933055  35.0063716
 125.8981524  98.9335867  27.7274851 126.7239544  98.6339638  27.3473494
 125.5475576  98.1643489  28.1764639 130.8663057  98.2862335  29.7972524
 130.2443067  97.6233040  29.4974752 131.5367924  98.3123467  29.1146172
 124.0990129  96.8522193  28.6863784 123.2622037  96.4244367  28.5047786
 124.0713775  97.0454636  29.6234576 130.9387585  86.7644123  39.3905030
 130.9875740  87.6406246  39.0082800 131.4810099  86.2221516  38.8176674
 133.1686873  87.5175495  36.1451389 132.2990183  87.8109061  35.8733978
 133.4046354  88.1015940  36.8658653 128.1829197  92.8631436  24.2792054
 127.9375239  91.9593766  24.4772264 128.3525112  92.8648586  23.3371532
 135.8725907  83.7355112  33.6616809 136.3907851  84.4716139  33.3363298
 135.5181040  84.0419105  34.4963569 127.4524845  88.5959793  21.7778215
 126.7594090  88.6704148  21.1218251 127.2076597  87.8320137  22.2999732
 136.1238501  80.1555395  29.1817706 136.4040255  79.4878584  29.8078133
 136.9089108  80.3484490  28.6692370 134.1957461  94.7192947  39.5459442
 135.1160470  94.8971546  39.7399488 134.1607044  93.7748993  39.3939141
 123.4139626  89.9131541  28.4712716 123.0942410  89.0596849  28.1787090
 122.8673054  90.1280119  29.2270684 127.1919533  92.6293982  32.1882223
 127.4105543  93.5611090  32.2070257 127.6045307  92.2701956  32.9737027
 134.1123751  83.1362067  24.1757911 133.3024479  82.7909152  24.5513157
 134.8008168  82.8269611  24.7645523 136.0414299  82.2140114  25.7982208
 136.5945338  82.6335568  26.4572231 136.2784386  81.2875862  25.8405164
 132.0647399  88.2027188  41.5784972 131.9644125  89.1521545  41.5097063
 131.8468941  87.8745427  40.7061042 123.2827886  93.5334453  30.4405838
 122.5891357  93.1188405  29.9275792 124.0300877  93.5754989  29.8439257
 131.9278669  91.6324327  40.3950034 131.4445750  92.4324687  40.6013923
 132.0139608  91.6432272  39.4417478 125.1964628  93.4652706  28.3171853
 125.1735316  93.5640394  27.3653736 125.5065265  94.3117857  28.6389019
 127.8552006  95.5228861  32.4318467 128.8095260  95.4912804  32.3648399
 127.6564530  95.0619485  33.2468693 128.4451388  94.0929977  34.9989265
 129.2644277  94.5874056  35.0224102 128.7188196  93.1761946  34.9706833
 126.2102235 101.0648481  29.4488665 126.0756703 100.3048882  28.8826663
 125.7934297 101.7889381  28.9817454 129.3671361 101.9617798  29.6607108
 129.2503745 102.9063230  29.5585798 128.5463807 101.6591359  30.0492907
 123.6986302  88.4268111  35.6981462 124.3445166  87.9167065  36.1868687
 123.4903454  89.1636793  36.2724887 136.2239695  95.4948959  41.1973603
 137.0930854  95.6689611  40.8360238 135.7446446  96.3143376  41.0749332
 132.2189913  82.6908156  21.4505358 132.2068583  83.6349996  21.6073629
 133.1113335  82.5078301  21.1564819 130.3925875 102.6146060  32.8763036
 131.2953122 102.6469670  33.1929531 130.1663245 101.6846511  32.8909372
 136.0342032  79.2850933  25.7051295 135.2674428  78.7309419  25.8507977
 136.4452737  79.3572801  26.5665447 128.0383793  85.5735728  39.7956476
 128.9015255  85.2172533  40.0059801 127.4649204  85.2349623  40.4831881
 136.9136993 102.6620065  32.7423091 136.8295182 102.0545734  32.0073501
 136.0919700 103.1529083  32.7432587 136.2918665 106.3762355  35.6964456
 135.5500401 106.5244991  36.2829087 135.9711409 106.6370621  34.8331206
 134.5380057 103.7560029  35.6981462 135.1838921 103.2458983  36.1868687
 134.3297208 104.4928711  36.2724887  81.4110435   1.0304679  20.8359724
  82.1238407   1.6652144  20.7635626  80.9200464   1.1268545  20.0199726
  79.0533991   3.3830469  20.2041498  79.6052299   3.5462090  20.9690584
  79.3940184   3.9734906  19.5321523  79.1999802   0.9488950  22.2190153
  79.5086928   0.7038097  23.0912852  79.9975284   1.1535589  21.7309023
  93.6863399   7.5640119  17.3264184  94.3241809   7.4446866  16.6227524
  93.5684242   8.5120963  17.3852136  90.4953105   7.5167547  17.2625709
  90.1571617   7.4008612  16.3746244  91.3642874   7.1158712  17.2426715
  90.9772888   8.6702399  23.2211914  90.9661529   8.2755197  22.3492418
  91.1393528   7.9368471  23.8145686  83.9004353  10.8654215  16.0906820
  84.6925645  10.5245040  15.6753119  84.1401003  10.9749190  17.0108973
  91.9339480  13.0373991   8.5637065  91.2827460  13.6228072   8.1771078
  92.7283843  13.5680186   8.6232102  87.6980150  11.4539511  22.1691098
  87.4070016  12.3585141  22.0537764  88.3337134  11.4956038  22.8835168
  88.6236356   8.8316359  18.7592458  89.2199929   8.6072382  18.0449421
  88.6811328   8.0901105  19.3617906  90.2589215   7.6494047  12.5013713
  89.8947422   7.1224668  13.2126634  91.1156330   7.2592517  12.3280198
  92.6570035  11.1400926  19.1640892  92.3570758  12.0425965  19.0556699
  92.3121094  10.8733109  20.0162045  86.1082516   7.5914723  15.1977596
  85.1833013   7.4590937  15.4055288  86.3566929   8.3708942  15.6947539
  83.4691327   7.2347996  16.0321385  83.5983708   7.4882475  16.9460797
  82.7888779   7.8275704  15.7126040  87.6390815  17.9045246  12.1311860
  87.5614844  18.8553072  12.2100340  87.0352458  17.5591119  12.7886786
  90.1308044   5.0773112  24.7873226  89.3541378   5.6367032  24.7776091
  90.7698607   5.5629895  25.3088097  88.3854417   7.8858565  24.3491193
  89.1269101   8.4243609  24.0726017  87.6791402   8.5124854  24.5062745
  93.8609756  10.0287706  22.9463355  94.2693112   9.5870116  22.2017987
  93.1387018   9.4540333  23.1997548  90.2140826   4.9660312  20.3196912
  91.0602021   5.3899726  20.4631561  90.1539464   4.3093937  21.0135475
  94.1838571  10.5888896  16.7015644  93.5547433  10.7534610  15.9991712
  93.7964233  11.0030506  17.4726608  98.0627803  11.5243334  14.0560008
  97.3778841  11.9042236  13.5057041  98.1471652  12.1338661  14.7891955
  95.3178734   9.1703293  20.6555351  95.5295630   9.8135053  19.9789732
  95.2708483   8.3365610  20.1877281  89.7366533  10.3263304  13.9665729
  90.2004878  10.6051007  13.1770351  89.4723331   9.4246749  13.7838820
  86.6290614   9.8734786  16.9045492  87.1991971  10.3022054  16.2662977
  87.2198726   9.5917371  17.6029678  87.1215780   5.0398213  25.1506503
  86.4914441   5.7214494  25.3841900  87.0151868   4.9281295  24.2059642
  96.4324562  12.0475249  18.8277708  97.2542006  11.6455436  18.5460390
  96.4286965  11.9443483  19.7793824  90.1981166  11.5959292  20.9838419
  90.2625598  12.0579699  21.8196591  89.4892090  10.9656657  21.1120729
  80.6998456   4.9600500  18.5087418  80.9506494   5.8447510  18.7744994
  81.2358004   4.7805101  17.7362510  89.9129183  13.2627399  10.8517399
  89.7774858  14.1078935  11.2802247  90.4538996  13.4646677  10.0883333
  85.1753466  13.8968594  13.5068078  85.3520094  14.8186558  13.3189061
  85.9710299  13.5827013  13.9362457  84.4605822   5.9433226  23.3830241
  84.3459337   5.0418483  23.6837340  83.6050340   6.1896922  23.0315057
  91.5397660  13.8850966  24.9817741  91.0961514  13.0987344  24.6638646
  92.2014873  14.0730116  24.3161632  86.2984781  15.4146767  19.5078420
  86.8492206  15.2863831  18.7355414  85.4596257  15.7141657  19.1573313
  93.6378898  14.1653766  23.0099143  93.6197373  14.9862647  22.5179412
  94.5598818  14.0407841  23.2349284  90.0951952  11.6797895  23.8522651
  90.6280289  10.9186184  23.6221959  89.5666033  11.3871547  24.5946805
  91.4604665  10.8083888  11.3641463  90.9326026  10.0736647  11.0514700
  90.9592167  11.5858564  11.1181431  96.4397511   9.0032908  16.4808509
  95.7821185   9.6932170  16.5688638  97.2437910   9.3929340  16.8242496
  92.5125344  17.3361605   7.2873122  91.8387043  17.6393302   7.8958080
  92.8991166  18.1390686   6.9378579  91.7283800   4.8326737  16.7770792
  90.8106362   5.0541684  16.6192480  92.1443944   4.9073047  15.9182499
  96.0164766  12.3383282  12.6591594  95.5627093  11.4974192  12.7156784
  95.3858732  12.9744681  12.9966374  94.4597705  14.1759779  13.5941412
  94.7520679  14.7364836  12.8753777  94.9696326  14.4688340  14.3494571
  89.3330392   6.3405314  14.9910221  89.3879002   5.3879150  14.9152698
  88.5221594   6.4964753  15.4751520  89.4231330  14.9540130  14.6834865
  89.3807509  15.1800977  13.7543397  90.3394029  14.7203505  14.8320666
  92.8696964   5.4224198  21.5815494  93.2246352   5.6495671  22.4409960
  93.5169095   5.7542575  20.9592750  98.6264081  10.6119161  17.2976095
  99.0600587  10.5194450  18.1459149  99.3395661  10.5876661  16.6596111
  87.5397131  11.8303159  14.4796828  88.3337729  11.3353479  14.2779403
  86.8288823  11.3021022  14.1164533  92.3591975  14.2121255  18.8309195
  92.4128998  14.7812191  19.5986911  91.4906757  14.3823140  18.4663233
  85.2390369   3.9138811  20.3133647  85.9113422   3.7056173  19.6646296
  84.4120155   3.7160897  19.8738879  99.4879630  10.6542861  19.8308980
  99.6815520  11.5588672  20.0768255  99.3880248  10.1950280  20.6647565
  94.5494739  10.8049604  25.4049861  94.3980245  10.5760156  24.4879944
  94.5399418  11.7620205  25.4181206  91.3180075   8.3781517  20.3896127
  92.2472135   8.5292676  20.2165095  90.8971105   8.4665538  19.5344774
  90.1168407  12.4032181  18.1594665  89.9779493  12.0350966  19.0320603
  89.3283003  12.9179821  17.9878623  90.7116559  17.5041278   9.5020201
  90.8868315  17.0329321  10.3165824  90.0249347  18.1307044   9.7301462
  91.6673622  11.7813784  15.5483503  91.3323455  11.7414554  16.4441153
  91.1677568  11.1158500  15.0753913  85.6417866   7.1881414  21.0736084
  85.5037664   6.4561653  21.6747623  86.5522790   7.0990314  20.7920272
  88.2700167   6.9001373  20.5619763  88.9799785   6.2594565  20.5206382
  88.2269475   7.1514268  21.4845944  96.2586945  13.8368727  23.4826343
  96.1999492  13.1527947  22.8156926  96.6606464  14.5787717  23.0306969
  86.9829101   3.8866591  22.3815403  86.4466458   3.4357330  23.0336999
  86.3945809   4.0212500  21.6385867  85.2777644  20.6530640  16.2760062
  85.5174242  21.2849165  16.9539080  84.4346841  20.3018680  16.5625421
  96.2604353  11.8008311  21.7140322  95.3731131  11.4634232  21.8366721
  96.8302904  11.0691342  21.9509088  82.7168222   3.0222599  19.4668397
  82.6326411   2.4148268  18.7318807  81.8950928   3.5131617  19.4677894
  89.7905506  16.4609763  18.6801566  89.7175678  17.2664734  19.1920870
  89.3482899  16.6601729  17.8549587  89.5795286  15.6981533  12.1904387
  88.7962808  16.2403213  12.2842612  90.2788031  16.2155513  12.5898628
  92.2504190  16.3596597  20.8359724  92.9632162  16.9944062  20.7635626
  91.7594218  16.4560463  20.0199726  93.9721717  10.2647850  12.4077016
  93.0377995  10.3849312  12.2381720  94.1498385   9.3620316  12.1437026
  87.3016103  14.1091040  21.6565295  88.0025563  14.7427523  21.8094689
  86.8311218  14.4505772  20.8960934  95.1017389   6.6635648  19.4817845
  94.4488839   6.9111555  18.8270298  95.4797769   5.8499786  19.1480323
  92.0624563  16.6995341  13.5846016  92.2446958  15.8816997  14.0473768
  92.8857549  16.9163033  13.1470906  92.3966728  15.6263526  10.8461064
  92.9254495  15.1155981  10.2331226  92.6594948  15.3106056  11.7106597
  91.1504962   7.4055459  25.9683882  90.4745599   7.3049588  26.6386258
  91.9732596   7.2494673  26.4319880  82.8983821  13.6427395  18.5896398
  83.4837258  12.8971083  18.7224302  82.7008660  13.9531352  19.4733062
  85.7522476  16.6778643  13.6058840  85.0832852  17.1624770  13.1222880
  85.6135346  16.9247863  14.5202219  89.8927745  18.7122386  20.2041498
  90.4446053  18.8754008  20.9690584  90.2333938  19.3026824  19.5321523
  84.3444511   3.1320669  24.4536417  84.9716550   2.7497746  25.0673942
  83.4872430   2.9134871  24.8192110  94.7438619  13.5383644  26.0590153
  95.2878523  14.1513602  25.5645108  94.1625464  14.0963222  26.5757166
  93.0296132  16.6604362  17.1905181  92.9047272  15.8594102  16.6816126
  93.6875223  17.1550555  16.7019151  95.0931041  14.4613382  18.8184731
  94.1461376  14.3418733  18.7463057  95.4413814  13.5735880  18.9010992
  92.0977474  14.2566098  15.0189083  91.9502436  13.3282806  15.1996653
  92.9230967  14.2786189  14.5346158  95.7011596  15.0794657  16.1053956
  96.6258143  14.8737518  15.9678407  95.5326899  14.8311058  17.0143297
  86.8338210   5.0689649  16.5891945  86.6882790   5.3829952  17.4816226
  86.3563413   5.6874549  16.0362843  95.4906912  15.5980324  11.4616047
  95.6643790  15.0326747  10.7089900  95.9835803  16.3981219  11.2795537
  81.3083872   7.6094993  19.5279606  80.7637340   8.3854801  19.6599880
  82.1863222   7.9565798  19.3698727  82.0949894   6.7364890  22.4209763
  81.3531630   6.8847525  23.0074393  81.7742638   6.9973155  21.5576512
  90.0393556  16.2780868  22.2190153  90.3480683  16.0330015  23.0912852
  90.8369038  16.4827506  21.7309023  90.0614168  18.4318778  14.4495529
  89.6219159  17.9395156  15.1428386  90.8122285  17.8891745  14.2087605
  82.5406507  14.6230318  14.4520157  83.3664527  14.3234090  14.0718801
  82.1900559  13.8537941  14.9009946  87.5088041  13.9756787  16.5217831
  86.8868050  13.3127492  16.2220059  88.1792907  14.0017919  15.8391479
  80.7415112  12.5416645  15.4109091  79.9047021  12.1138819  15.2293092
  80.7138758  12.7349088  16.3479882  98.0667414  12.9979698  25.3951474
  97.2762957  12.9803837  24.8555974  97.8300768  13.5367992  26.1500511
  98.1865289   9.8472164  22.7084203  98.2363294   9.6822172  23.6499725
  98.0779212   8.9799423  22.3182083  99.6883486  12.2669106  22.9526224
  99.3968294  12.6299086  23.7889685  99.0755617  11.5536114  22.7739556
  97.9370674   7.3901720  21.4206282  98.4124795   7.5829367  20.6125134
  97.0136239   7.4460906  21.1749666  90.8382444  10.4087399  26.2704748
  91.7585453  10.5865998  26.4644795  90.8032027   9.4643445  26.1184448
  83.8344517   8.3188434  18.9127530  84.0530526   9.2505542  18.9315563
  84.2470290   7.9596408  19.6982333  88.7072382   3.8921640  28.3030279
  88.6069109   4.8415997  28.2342370  88.4893924   3.5639879  27.4306349
  79.9252869   9.2228904  17.1651145  79.2316340   8.8082857  16.6521099
  80.6725860   9.2649441  16.5684564  88.5703652   7.3218779  27.1195340
  88.0870734   8.1219139  27.3259229  88.6564591   7.3326723  26.1662784
  84.4976989  11.2123313  19.1563774  85.4520243  11.1807256  19.0893706
  84.2989513  10.7513937  19.9714000  85.0876372   9.7824429  21.7234572
  85.9069261  10.2768508  21.7469409  85.3613179   8.8656397  21.6952139
  82.8527218  16.7542933  16.1733972  82.7181686  15.9943334  15.6071970
  82.4359280  17.4783833  15.7062761  86.0096344  17.6512250  16.3852415
  85.8928728  18.5957682  16.2831105  85.1888790  17.3485811  16.7738214
  80.3411286   4.1162563  22.4226769  80.9870149   3.6061517  22.9113994
  80.1328437   4.8531245  22.9970194  92.8664678  11.1843411  27.9218909
  93.7355838  11.3584063  27.5605544  92.3871429  12.0037828  27.7994639
  87.0350858  18.3040512  19.6008343  87.9378105  18.3364122  19.9174838
  86.8088228  17.3740963  19.6154679  88.7904460  17.0571498  16.2618422
  87.8400091  17.0573360  16.1482794  89.0936946  16.3104233  15.7454456
 104.5257154  22.8932037  17.3264184 105.1635564  22.7738784  16.6227524
 104.4077997  23.8412881  17.3852136 101.3346860  22.8459465  17.2625709
 100.9965371  22.7300529  16.3746244 102.2036628  22.4450630  17.2426715
  97.1933676  24.6994941  13.2522600  96.6298541  24.6084878  12.4838887
  97.0786071  23.8794846  13.7325092 101.8166643  23.9994316  23.2211914
 101.8055284  23.6047115  22.3492418 101.9787282  23.2660389  23.8145686
  94.7398108  26.1946133  16.0906820  95.5319400  25.8536957  15.6753119
  94.9794758  26.3041108  17.0108973 102.7733234  28.3665909   8.5637065
 102.1221214  28.9519989   8.1771078 103.5677597  28.8972104   8.6232102
  96.6988862  25.4555046   8.9624199  97.4719738  24.9084033   8.8237075
  97.0514260  26.3199295   9.1738660  98.5373904  26.7831428  22.1691098
  98.2463770  27.6877059  22.0537764  99.1730888  26.8247956  22.8835168
  99.4630111  24.1608277  18.7592458 100.0593683  23.9364299  18.0449421
  99.5205082  23.4193022  19.3617906  98.7551428  23.5175818   8.7967024
  98.6387686  22.8420721   9.4648108  98.8653688  23.0308192   7.9799177
 101.0982969  22.9785965  12.5013713 100.7341176  22.4516586  13.2126634
 101.9550085  22.5884434  12.3280198 107.0032270  14.2680298  19.7644979
 106.6715594  15.1375709  19.5406194 106.4077883  13.9516582  20.4439010
 103.4963789  26.4692844  19.1640892 103.1964512  27.3717883  19.0556699
 103.1514849  26.2025027  20.0162045  96.9476271  22.9206641  15.1977596
  96.0226767  22.7882855  15.4055288  97.1960684  23.7000860  15.6947539
 106.8960933  18.9875384  16.8438329 105.9877810  18.9190792  16.5497090
 106.8448529  19.4647329  17.6720155  94.3085082  22.5639914  16.0321385
  94.4377463  22.8174393  16.9460797  93.6282533  23.1567622  15.7126040
  98.4784569  33.2337164  12.1311860  98.4008599  34.1844989  12.2100340
  97.8746213  32.8883037  12.7886786 100.9701799  20.4065030  24.7873226
 100.1935133  20.9658950  24.7776091 101.6092362  20.8921813  25.3088097
  99.2248171  23.2150483  24.3491193  99.9662855  23.7535527  24.0726017
  98.5185157  23.8416772  24.5062745 104.7003511  25.3579623  22.9463355
 105.1086867  24.9162034  22.2017987 103.9780772  24.7832251  23.1997548
 101.0534581  20.2952230  20.3196912 101.8995776  20.7191644  20.4631561
 100.9933218  19.6385854  21.0135475 105.0232325  25.9180814  16.7015644
 104.3941188  26.0826528  15.9991712 104.6357987  26.3322424  17.4726608
 108.9021557  26.8535252  14.0560008 108.2172595  27.2334153  13.5057041
 108.9865407  27.4630579  14.7891955 104.2034026  17.9556598  21.9778086
 103.9594958  18.7098659  21.4412361 104.4793957  18.3341946  22.8125333
 106.1572489  24.4995211  20.6555351 106.3689384  25.1426971  19.9789732
 106.1102237  23.6657527  20.1877281 103.7598718  17.1113032  17.5591923
 102.8983197  17.4094285  17.8508661 103.7861152  17.3283430  16.6272956
 100.5760287  25.6555222  13.9665729 101.0398633  25.9342925  13.1770351
 100.3117085  24.7538667  13.7838820  97.4684368  25.2026704  16.9045492
  98.0385725  25.6313972  16.2662977  98.0592480  24.9209288  17.6029678
  99.5129173  21.7778374  10.7755294 100.2153217  22.2299418  11.2429220
  99.1809802  21.1362193  11.4035187  97.9609535  20.3690131  25.1506503
  97.3308195  21.0506412  25.3841900  97.8545623  20.2573213  24.2059642
  93.2554507  20.0361927  16.0772428  92.4653561  20.2919456  15.6012538
  93.7465755  20.8510265  16.1824468 107.2718317  27.3767166  18.8277708
 108.0935761  26.9747354  18.5460390 107.2680720  27.2735400  19.7793824
  95.2069253  20.4006506  13.0355904  94.4100416  20.5125201  13.5539400
  94.9794845  20.7393159  12.1696795 101.0374920  26.9251210  20.9838419
 101.1019353  27.3871617  21.8196591 100.3285844  26.2948575  21.1120729
  91.5392210  20.2892418  18.5087418  91.7900249  21.1739427  18.7744994
  92.0751759  20.1097019  17.7362510 100.7522938  28.5919317  10.8517399
 100.6168613  29.4370853  11.2802247 101.2932750  28.7938595  10.0883333
  97.2390278  14.6710897  27.5131754  96.8457223  14.1177095  28.1879399
  98.0556418  14.9821475  27.9038272  94.2052335  26.1094755  11.4245324
  94.7176856  26.9038005  11.5750889  94.8575048  25.4121046  11.3578926
  96.0147220  29.2260511  13.5068078  96.1913848  30.1478476  13.3189061
  96.8104054  28.9118931  13.9362457 100.1558239  16.0868776  25.1052011
 100.8967952  16.6875929  25.0256474 100.3876161  15.3446414  24.5470054
  95.2999577  21.2725143  23.3830241  95.1853092  20.3710401  23.6837340
  94.4444094  21.5188840  23.0315057 102.3791414  29.2142884  24.9817741
 101.9355268  28.4279262  24.6638646 103.0408628  29.4022034  24.3161632
  97.1378535  30.7438685  19.5078420  97.6885961  30.6155749  18.7355414
  96.2990011  31.0433574  19.1573313 104.4772652  29.4945684  23.0099143
 104.4591128  30.3154565  22.5179412 105.3992572  29.3699759  23.2349284
 100.9345707  27.0089813  23.8522651 101.4674043  26.2478101  23.6221959
 100.4059788  26.7163465  24.5946805  92.1701252  24.4383409  12.2004895
  93.0076474  24.8480418  11.9838603  92.3479520  23.4982852  12.1705089
 103.1811942  14.4854534  17.3465526 102.6776737  14.4484669  16.5333331
 103.4742549  15.3947277  17.4062183  99.4254828  14.5693264  16.3531708
 100.2907825  14.3736073  15.9937597  99.4932337  14.3403616  17.2801064
 102.2998419  26.1375805  11.3641463 101.7719781  25.4028565  11.0514700
 101.7985922  26.9150482  11.1181431 107.2791265  24.3324826  16.4808509
 106.6214940  25.0224087  16.5688638 108.0831664  24.7221258  16.8242496
  97.0317147  16.7995472  13.7248075  97.6060899  16.5770653  12.9921267
  97.6188129  16.8684166  14.4776676 103.3519098  32.6653523   7.2873122
 102.6780797  32.9685220   7.8958080 103.7384920  33.4682603   6.9378579
 102.5677555  20.1618654  16.7770792 101.6500116  20.3833601  16.6192480
 102.9837699  20.2364965  15.9182499 106.8558520  27.6675200  12.6591594
 106.4020847  26.8266110  12.7156784 106.2252487  28.3036598  12.9966374
 105.2991459  29.5051697  13.5941412 105.5914434  30.0656754  12.8753777
 105.8090080  29.7980258  14.3494571  92.1927423  21.7774125  12.8715628
  91.9951823  21.1843485  12.1466695  91.6374087  21.4726335  13.5891567
 100.1724147  21.6697231  14.9910221 100.2272757  20.7171068  14.9152698
  99.3615349  21.8256670  15.4751520  98.1116507  20.2874291  12.7500600
  97.2984372  20.5868462  13.1565792  98.6075501  19.8929980  13.4675083
 100.2625085  30.2832048  14.6834865 100.2201263  30.5092894  13.7543397
 101.1787784  30.0495422  14.8320666 103.7090718  20.7516115  21.5815494
 104.0640106  20.9787589  22.4409960 104.3562850  21.0834492  20.9592750
  97.6030582  17.8592646  18.3661835  98.2429961  17.7181406  17.6684799
  96.7708112  17.5727160  17.9900437 109.4657835  25.9411078  17.2976095
 109.8994342  25.8486367  18.1459149 110.1789416  25.9168579  16.6596111
  98.3790885  27.1595077  14.4796828  99.1731484  26.6645397  14.2779403
  97.6682578  26.6312940  14.1164533 103.1985730  29.5413172  18.8309195
 103.2522752  30.1104109  19.5986911 102.3300511  29.7115057  18.4663233
  94.6873649  21.3038159  10.5556580  93.7571237  21.2422614  10.7726543
  94.7831121  20.7814111   9.7593222  94.6059198  17.8292971  13.1434822
  94.8666015  18.7438305  13.0343983  95.4276370  17.3617414  13.2931435
  96.0784123  19.2430729  20.3133647  96.7507177  19.0348091  19.6646296
  95.2513910  19.0452815  19.8738879 110.3273385  25.9834779  19.8308980
 110.5209275  26.8880589  20.0768255 110.2274003  25.5242198  20.6647565
 101.9809695  15.8692670  22.3299308 101.3337610  16.5682619  22.2363784
 102.7510711  16.3028813  22.6975556 105.3888493  26.1341522  25.4049861
 105.2374000  25.9052073  24.4879944 105.3793173  27.0912123  25.4181206
 102.1573830  23.7073434  20.3896127 103.0865890  23.8584594  20.2165095
 101.7364860  23.7957455  19.5344774 100.9562161  27.7324099  18.1594665
 100.8173247  27.3642883  19.0320603 100.1676758  28.2471738  17.9878623
 101.5510313  32.8333195   9.5020201 101.7262069  32.3621239  10.3165824
 100.8643101  33.4598962   9.7301462 102.5067377  27.1105702  15.5483503
 102.1717209  27.0706472  16.4441153 102.0071322  26.4450417  15.0753913
  96.4811621  22.5173332  21.0736084  96.3431418  21.7853570  21.6747623
  97.3916544  22.4282232  20.7920272  99.1093921  22.2293291  20.5619763
  99.8193540  21.5886483  20.5206382  99.0663229  22.4806186  21.4845944
 107.0980700  29.1660644  23.4826343 107.0393246  28.4819864  22.8156926
 107.5000218  29.9079634  23.0306969  97.8222855  19.2158509  22.3815403
  97.2860212  18.7649247  23.0336999  97.2339564  19.3504418  21.6385867
  96.1171399  35.9822558  16.2760062  96.3567997  36.6141082  16.9539080
  95.2740595  35.6310598  16.5625421 107.0998107  27.1300228  21.7140322
 106.2124886  26.7926150  21.8366721 107.6696658  26.3983259  21.9509088
  88.7527254  23.4624320  15.0383374  89.4398294  23.1486050  14.4504389
  88.5975383  24.3665685  14.7650625  93.5561976  18.3514517  19.4668397
  93.4720165  17.7440186  18.7318807  92.7344683  18.8423535  19.4677894
 100.6299261  31.7901681  18.6801566 100.5569432  32.5956652  19.1920870
 100.1876654  31.9893646  17.8549587 100.4189040  31.0273451  12.1904387
  99.6356562  31.5695131  12.2842612 101.1181785  31.5447430  12.5898628
 103.0897944  31.6888515  20.8359724 103.8025916  32.3235979  20.7635626
 102.5987973  31.7852381  20.0199726 104.8115471  25.5939767  12.4077016
 103.8771750  25.7141230  12.2381720 104.9892139  24.6912234  12.1437026
 100.3120659  18.9785463  14.5610277  99.9418447  18.4256503  15.2491183
 100.8079752  18.3743597  14.0085277  98.1409858  29.4382958  21.6565295
  98.8419317  30.0719441  21.8094689  97.6704973  29.7797690  20.8960934
 105.9411144  21.9927566  19.4817845 105.2882594  22.2403473  18.8270298
 106.3191523  21.1791704  19.1480323 102.9018317  32.0287259  13.5846016
 103.0840712  31.2108915  14.0473768 103.7251303  32.2454951  13.1470906
 103.2360483  30.9555444  10.8461064 103.7648249  30.4447898  10.2331226
 103.4988703  30.6397974  11.7106597 101.9898717  22.7347377  25.9683882
 101.3139354  22.6341506  26.6386258 102.8126350  22.5786590  26.4319880
  93.7377576  28.9719313  18.5896398  94.3231013  28.2263001  18.7224302
  93.5402414  29.2823270  19.4733062  96.5916231  32.0070560  13.6058840
  95.9226606  32.4916688  13.1222880  96.4529101  32.2539781  14.5202219
  88.3295230  21.5424913  17.3100841  88.3679330  21.0088504  18.1037959
  87.8235523  21.0160119  16.6911818 100.7321499  34.0414304  20.2041498
 101.2839808  34.2045926  20.9690584 101.0727693  34.6318742  19.5321523
  95.7085993  16.3889454  20.8063383  95.7727319  17.2504285  20.3940781
  95.6453113  15.7763455  20.0735742  95.1838265  18.4612586  24.4536417
  95.8110304  18.0789664  25.0673942  94.3266184  18.2426788  24.8192110
 105.5832374  28.8675562  26.0590153 106.1272278  29.4805520  25.5645108
 105.0019219  29.4255140  26.5757166  91.9603808  20.2689015  10.3854772
  92.2557249  19.3599694  10.3321826  91.0591844  20.2476755  10.0635775
 103.8689887  31.9896280  17.1905181 103.7441026  31.1886019  16.6816126
 104.5268978  32.4842473  16.7019151  95.4898055  18.3445012  16.3682321
  94.7684641  18.9580980  16.2289794  96.2791311  18.8802777  16.2898967
 105.9324795  29.7905300  18.8184731 104.9855131  29.6710651  18.7463057
 106.2807568  28.9027798  18.9010992  98.2924369  15.6799439  22.6422973
  98.8158770  15.9261735  23.4049282  98.0736702  16.5119473  22.2226110
  93.6891650  17.9503113  10.5094097  93.3604356  17.0700492  10.3269203
  94.0431020  17.8950782  11.3970487 102.9371228  29.5858016  15.0189083
 102.7896191  28.6574723  15.1996653 103.7624722  29.6078107  14.5346158
  96.8033473  18.2376083  10.8769575  97.1429545  18.7662004  10.1548183
  97.2505593  18.5756489  11.6528142 106.5405350  30.4086575  16.1053956
 107.4651898  30.2029436  15.9678407 106.3720654  30.1602976  17.0143297
  99.4976914  16.6213134  20.3272643  99.1573734  15.8220947  20.7293323
  98.7915920  16.9214844  19.7549476 100.1493385  13.7062446  18.7799966
 100.9719455  13.2322924  18.6578856 100.3931449  14.4852930  19.2798652
  97.6731964  20.3981567  16.5891945  97.5276545  20.7121870  17.4816226
  97.1957168  21.0166467  16.0362843  99.5328347  17.3884115  16.6372834
  99.5189916  16.4925208  16.3005132 100.2500775  17.3954778  17.2711120
 101.3854478  17.8221455  18.6825962 101.1272256  18.7438526  18.6810292
 100.8539518  17.4251889  19.3726426 106.3300667  30.9272242  11.4616047
 106.5037544  30.3618665  10.7089900 106.8229558  31.7273137  11.2795537
  92.1477626  22.9386911  19.5279606  91.6031094  23.7146719  19.6599880
  93.0256976  23.2857716  19.3698727  92.9343648  22.0656807  22.4209763
  92.1925384  22.2139443  23.0074393  92.6136392  22.3265073  21.5576512
 100.8787311  31.6072786  22.2190153 101.1874437  31.3621932  23.0912852
 101.6762793  31.8119424  21.7309023 100.9007923  33.7610695  14.4495529
 100.4612913  33.2687074  15.1428386 101.6516040  33.2183663  14.2087605
  93.3800262  29.9522236  14.4520157  94.2058282  29.6526008  14.0718801
  93.0294314  29.1829859  14.9009946  98.3481795  29.3048704  16.5217831
  97.7261804  28.6419409  16.2220059  99.0186662  29.3309836  15.8391479
  91.5808867  27.8708563  15.4109091  90.7440775  27.4430737  15.2293092
  91.5532512  28.0641006  16.3479882  98.4206323  17.7830492  26.1150337
  98.4694478  18.6592615  25.7328107  98.9628837  17.2407885  25.5421980
 108.9061168  28.3271616  25.3951474 108.1156712  28.3095754  24.8555974
 108.6694523  28.8659909  26.1500511 109.0259043  25.1764082  22.7084203
 109.0757048  25.0114089  23.6499725 108.9172967  24.3091341  22.3182083
  97.9095302  27.8552628   9.9976292  98.0583422  28.5388092   9.3442964
  98.7161745  27.8357718  10.5125747 106.3162806  21.1595010  24.0243509
 107.2172668  21.0201475  23.7327507 106.3910780  21.3249465  24.9641687
 100.6505611  18.5361865  22.8696696  99.7808920  18.8295431  22.5979284
 100.8865091  19.1202310  23.5903959 110.5277240  27.5961023  22.9526224
 110.2362048  27.9591004  23.7889685 109.9149371  26.8828032  22.7739556
 108.7764428  22.7193638  21.4206282 109.2518550  22.9121284  20.6125134
 107.8529994  22.7752824  21.1749666  95.6647935  23.8817805  11.0037360
  95.4193977  22.9780135  11.2017571  95.8343849  23.8834956  10.0616838
 103.3544645  14.7541482  20.3862116 103.8726589  15.4902509  20.0608605
 102.9999778  15.0605475  21.2208875  94.9343582  19.6146163   8.5023522
  94.2412827  19.6890518   7.8463558  94.6895334  18.8506507   9.0245039
 101.4090707  30.3500758   7.4688039 100.8364675  30.9690945   7.0158511
 101.9823501  30.9000120   8.0027961 107.4766097  19.5959398  19.6534588
 108.4283520  19.6957496  19.6746812 107.3069548  18.8037667  20.1632672
 105.4980477  16.6814981  19.8393989 104.9030409  16.9619994  19.1440477
 105.2130173  17.1708882  20.6110730 109.9554175  22.8165518  18.7676887
 109.9230495  21.8781519  18.9536571 110.5654799  22.8949555  18.0342712
 101.6776198  25.7379317  26.2704748 102.5979208  25.9157916  26.4644795
 101.6425782  24.7935362  26.1184448  90.8958363  20.9317911  15.1958023
  90.5761148  20.0783219  14.9032397  90.3491792  21.1466489  15.9515990
  94.6738271  23.6480352  18.9127530  94.8924281  24.5797459  18.9315563
  95.0864045  23.2888326  19.6982333  99.5466136  19.2213557  28.3030279
  99.4462863  20.1707914  28.2342370  99.3287678  18.8931796  27.4306349
  90.7646623  24.5520822  17.1651145  90.0710095  24.1374775  16.6521099
  91.5119614  24.5941359  16.5684564  99.4097406  22.6510696  27.1195340
  98.9264488  23.4511056  27.3259229  99.4958345  22.6618641  26.1662784
  92.6783366  24.4839076  15.0417160  92.6554054  24.5826763  14.0899043
  92.9884003  25.3304227  15.3634326  95.3370744  26.5415231  19.1563774
  96.2913997  26.5099173  19.0893706  95.1383267  26.0805855  19.9714000
  95.9270126  25.1116347  21.7234572  96.7463015  25.6060426  21.7469409
  96.2006934  24.1948315  21.6952139  93.6920973  32.0834850  16.1733972
  93.5575441  31.3235251  15.6071970  93.2753035  32.8075750  15.7062761
  96.8490099  32.9804167  16.3852415  96.7322483  33.9249600  16.2831105
  96.0282545  32.6777729  16.7738214  91.1805040  19.4454481  22.4226769
  91.8263904  18.9353435  22.9113994  90.9722191  20.1823163  22.9970194
 103.7058432  26.5135328  27.9218909 104.5749592  26.6875981  27.5605544
 103.2265184  27.3329745  27.7994639  97.8744613  33.6332429  19.6008343
  98.7771859  33.6656040  19.9174838  97.6481983  32.7032880  19.6154679
  99.6298215  32.3863416  16.2618422  98.6793846  32.3865278  16.1482794
  99.9330701  31.6396150  15.7454456  95.5202531  16.5922098  26.5201783
  96.3833993  16.2358903  26.7305108  94.9467942  16.2535993  27.2077187
 115.3650908  38.2223954  17.3264184 116.0029318  38.1030702  16.6227524
 115.2471751  39.1704798  17.3852136 112.1740614  38.1751382  17.2625709
 111.8359126  38.0592447  16.3746244 113.0430383  37.7742547  17.2426715
 108.0327430  40.0286859  13.2522600 107.4692295  39.9376796  12.4838887
 107.9179825  39.2086763  13.7325092 112.6560397  39.3286234  23.2211914
 112.6449038  38.9339032  22.3492418 112.8181037  38.5952307  23.8145686
 105.5791862  41.5238050  16.0906820 106.3713154  41.1828875  15.6753119
 105.8188512  41.6333025  17.0108973 113.6126989  43.6957827   8.5637065
 112.9614969  44.2811907   8.1771078 114.4071352  44.2264021   8.6232102
 107.5382616  40.7846964   8.9624199 108.3113492  40.2375951   8.8237075
 107.8908015  41.6491213   9.1738660 109.3767659  42.1123346  22.1691098
 109.0857525  43.0168977  22.0537764 110.0124643  42.1539874  22.8835168
 110.3023865  39.4900194  18.7592458 110.8987438  39.2656217  18.0449421
 110.3598837  38.7484940  19.3617906 109.5945183  38.8467736   8.7967024
 109.4781441  38.1712639   9.4648108 109.7047442  38.3600110   7.9799177
 111.9376724  38.3077883  12.5013713 111.5734931  37.7808504  13.2126634
 112.7943839  37.9176352  12.3280198 117.8426024  29.5972215  19.7644979
 117.5109349  30.4667626  19.5406194 117.2471638  29.2808499  20.4439010
 114.3357544  41.7984761  19.1640892 114.0358267  42.7009800  19.0556699
 113.9908603  41.5316945  20.0162045 107.7870025  38.2498558  15.1977596
 106.8620522  38.1174772  15.4055288 108.0354438  39.0292778  15.6947539
 117.7354687  34.3167302  16.8438329 116.8271565  34.2482710  16.5497090
 117.6842283  34.7939247  17.6720155 105.1478836  37.8931832  16.0321385
 105.2771217  38.1466311  16.9460797 104.4676288  38.4859540  15.7126040
 109.3178323  48.5629082  12.1311860 109.2402353  49.5136907  12.2100340
 108.7139967  48.2174954  12.7886786 111.8095553  35.7356947  24.7873226
 111.0328887  36.2950867  24.7776091 112.4486116  36.2213730  25.3088097
 110.0641926  38.5442401  24.3491193 110.8056610  39.0827445  24.0726017
 109.3578911  39.1708689  24.5062745 115.5397265  40.6871541  22.9463355
 115.9480621  40.2453952  22.2017987 114.8174527  40.1124169  23.1997548
 111.8928335  35.6244148  20.3196912 112.7389530  36.0483561  20.4631561
 111.8326973  34.9677772  21.0135475 115.8626080  41.2472732  16.7015644
 115.2334942  41.4118446  15.9991712 115.4751742  41.6614341  17.4726608
 119.7415312  42.1827170  14.0560008 119.0566350  42.5626071  13.5057041
 119.8259161  42.7922496  14.7891955 115.0427781  33.2848516  21.9778086
 114.7988712  34.0390577  21.4412361 115.3187711  33.6633864  22.8125333
 116.9966243  39.8287129  20.6555351 117.2083139  40.4718888  19.9789732
 116.9495992  38.9949445  20.1877281 114.5992472  32.4404949  17.5591923
 113.7376951  32.7386203  17.8508661 114.6254907  32.6575348  16.6272956
 111.4154042  40.9847140  13.9665729 111.8792387  41.2634843  13.1770351
 111.1510840  40.0830584  13.7838820 108.3078123  40.5318621  16.9045492
 108.8779480  40.9605890  16.2662977 108.8986235  40.2501206  17.6029678
 110.3522928  37.1070292  10.7755294 111.0546971  37.5591336  11.2429220
 110.0203556  36.4654111  11.4035187 108.8003289  35.6982049  25.1506503
 108.1701950  36.3798330  25.3841900 108.6939377  35.5865130  24.2059642
 104.0948262  35.3653845  16.0772428 103.3047316  35.6211373  15.6012538
 104.5859509  36.1802183  16.1824468 118.1112071  42.7059084  18.8277708
 118.9329515  42.3039271  18.5460390 118.1074474  42.6027318  19.7793824
 106.0463007  35.7298424  13.0355904 105.2494170  35.8417118  13.5539400
 105.8188599  36.0685076  12.1696795 111.8768675  42.2543127  20.9838419
 111.9413107  42.7163534  21.8196591 111.1679599  41.6240492  21.1120729
 102.3785965  35.6184335  18.5087418 102.6294003  36.5031345  18.7744994
 102.9145513  35.4388937  17.7362510 111.5916692  43.9211235  10.8517399
 111.4562367  44.7662770  11.2802247 112.1326505  44.1230512  10.0883333
 108.0784032  30.0002815  27.5131754 107.6850978  29.4469013  28.1879399
 108.8950172  30.3113393  27.9038272 105.0446090  41.4386673  11.4245324
 105.5570610  42.2329923  11.5750889 105.6968803  40.7412963  11.3578926
 106.8540974  44.5552429  13.5068078 107.0307603  45.4770394  13.3189061
 107.6497808  44.2410848  13.9362457 110.9951993  31.4160694  25.1052011
 111.7361706  32.0167847  25.0256474 111.2269916  30.6738331  24.5470054
 106.1393331  36.6017061  23.3830241 106.0246846  35.7002318  23.6837340
 105.2837849  36.8480758  23.0315057 113.2185169  44.5434801  24.9817741
 112.7749023  43.7571180  24.6638646 113.8802382  44.7313952  24.3161632
 107.9772290  46.0730603  19.5078420 108.5279715  45.9447666  18.7355414
 107.1383766  46.3725492  19.1573313 115.3166407  44.8237601  23.0099143
 115.2984882  45.6446482  22.5179412 116.2386327  44.6991676  23.2349284
 111.7739461  42.3381731  23.8522651 112.3067798  41.5770019  23.6221959
 111.2453542  42.0455382  24.5946805 103.0095007  39.7675327  12.2004895
 103.8470229  40.1772335  11.9838603 103.1873274  38.8274769  12.1705089
 114.0205696  29.8146452  17.3465526 113.5170492  29.7776587  16.5333331
 114.3136303  30.7239195  17.4062183 110.2648582  29.8985182  16.3531708
 111.1301579  29.7027990  15.9937597 110.3326091  29.6695533  17.2801064
 113.1392174  41.4667723  11.3641463 112.6113535  40.7320483  11.0514700
 112.6379676  42.2442399  11.1181431 118.1185020  39.6616744  16.4808509
 117.4608694  40.3516005  16.5688638 118.9225419  40.0513176  16.8242496
 107.8710901  32.1287389  13.7248075 108.4454653  31.9062571  12.9921267
 108.4581884  32.1976084  14.4776676 114.1912853  47.9945441   7.2873122
 113.5174552  48.2977137   7.8958080 114.5778675  48.7974521   6.9378579
 113.4071309  35.4910572  16.7770792 112.4893871  35.7125519  16.6192480
 113.8231453  35.5656882  15.9182499 117.6952275  42.9967118  12.6591594
 117.2414602  42.1558028  12.7156784 117.0646241  43.6328516  12.9966374
 116.1385214  44.8343614  13.5941412 116.4308188  45.3948672  12.8753777
 116.6483835  45.1272175  14.3494571 103.0321178  37.1066042  12.8715628
 102.8345578  36.5135403  12.1466695 102.4767842  36.8018253  13.5891567
 111.0117901  36.9989149  14.9910221 111.0666511  36.0462985  14.9152698
 110.2009103  37.1548588  15.4751520 108.9510261  35.6166209  12.7500600
 108.1378127  35.9160379  13.1565792 109.4469255  35.2221897  13.4675083
 111.1018839  45.6123966  14.6834865 111.0595018  45.8384812  13.7543397
 112.0181538  45.3787340  14.8320666 114.5484473  36.0808033  21.5815494
 114.9033861  36.3079506  22.4409960 115.1956604  36.4126410  20.9592750
 108.4424336  33.1884564  18.3661835 109.0823715  33.0473323  17.6684799
 107.6101867  32.9019078  17.9900437 120.3051590  41.2702996  17.2976095
 120.7388096  41.1778285  18.1459149 121.0183170  41.2460496  16.6596111
 109.2184640  42.4886995  14.4796828 110.0125238  41.9937315  14.2779403
 108.5076332  41.9604858  14.1164533 114.0379484  44.8705090  18.8309195
 114.0916507  45.4396026  19.5986911 113.1694266  45.0406975  18.4663233
 105.5267403  36.6330076  10.5556580 104.5964992  36.5714532  10.7726543
 105.6224875  36.1106029   9.7593222 105.4452952  33.1584889  13.1434822
 105.7059770  34.0730222  13.0343983 106.2670125  32.6909332  13.2931435
 106.9177878  34.5722646  20.3133647 107.5900931  34.3640008  19.6646296
 106.0907664  34.3744732  19.8738879 121.1667139  41.3126697  19.8308980
 121.3603029  42.2172507  20.0768255 121.0667757  40.8534116  20.6647565
 112.8203450  31.1984587  22.3299308 112.1731365  31.8974537  22.2363784
 113.5904465  31.6320731  22.6975556 116.2282248  41.4633439  25.4049861
 116.0767754  41.2343991  24.4879944 116.2186927  42.4204041  25.4181206
 112.9967584  39.0365352  20.3896127 113.9259644  39.1876512  20.2165095
 112.5758614  39.1249373  19.5344774 111.7955916  43.0616017  18.1594665
 111.6567002  42.6934801  19.0320603 111.0070512  43.5763656  17.9878623
 112.3904068  48.1625113   9.5020201 112.5655824  47.6913156  10.3165824
 111.7036856  48.7890879   9.7301462 113.3461131  42.4397619  15.5483503
 113.0110964  42.3998389  16.4441153 112.8465077  41.7742335  15.0753913
 107.3205375  37.8465249  21.0736084 107.1825173  37.1145488  21.6747623
 108.2310299  37.7574149  20.7920272 109.9487676  37.5585209  20.5619763
 110.6587294  36.9178401  20.5206382 109.9056984  37.8098103  21.4845944
 117.9374454  44.4952562  23.4826343 117.8787001  43.8111782  22.8156926
 118.3393973  45.2371552  23.0306969 108.6616610  34.5450426  22.3815403
 108.1253967  34.0941165  23.0336999 108.0733318  34.6796335  21.6385867
 106.9565153  51.3114476  16.2760062 107.1961751  51.9433000  16.9539080
 106.1134350  50.9602516  16.5625421 117.9391862  42.4592146  21.7140322
 117.0518640  42.1218068  21.8366721 118.5090413  41.7275177  21.9509088
  99.5921009  38.7916238  15.0383374 100.2792049  38.4777968  14.4504389
  99.4369137  39.6957602  14.7650625 104.3955731  33.6806434  19.4668397
 104.3113920  33.0732104  18.7318807 103.5738437  34.1715453  19.4677894
 111.4693015  47.1193598  18.6801566 111.3963187  47.9248570  19.1920870
 111.0270408  47.3185564  17.8549587 111.2582795  46.3565368  12.1904387
 110.4750317  46.8987048  12.2842612 111.9575540  46.8739348  12.5898628
 113.9291699  47.0180432  20.8359724 114.6419671  47.6527897  20.7635626
 113.4381727  47.1144298  20.0199726 115.6509225  40.9231685  12.4077016
 114.7165504  41.0433147  12.2381720 115.8285894  40.0204152  12.1437026
 111.1514414  34.3077381  14.5610277 110.7812201  33.7548421  15.2491183
 111.6473506  33.7035514  14.0085277 108.9803612  44.7674876  21.6565295
 109.6813072  45.4011359  21.8094689 108.5098727  45.1089607  20.8960934
 116.7804898  37.3219483  19.4817845 116.1276348  37.5695391  18.8270298
 117.1585278  36.5083621  19.1480323 113.7412072  47.3579176  13.5846016
 113.9234466  46.5400832  14.0473768 114.5645058  47.5746869  13.1470906
 114.0754237  46.2847361  10.8461064 114.6042004  45.7739816  10.2331226
 114.3382457  45.9689892  11.7106597 112.8292471  38.0639294  25.9683882
 112.1533108  37.9633424  26.6386258 113.6520105  37.9078508  26.4319880
 104.5771330  44.3011231  18.5896398 105.1624767  43.5554919  18.7224302
 104.3796169  44.6115187  19.4733062 107.4309985  47.3362478  13.6058840
 106.7620361  47.8208606  13.1222880 107.2922855  47.5831699  14.5202219
  99.1688985  36.8716831  17.3100841  99.2073084  36.3380422  18.1037959
  98.6629278  36.3452037  16.6911818 111.5715254  49.3706222  20.2041498
 112.1233562  49.5337843  20.9690584 111.9121447  49.9610660  19.5321523
 106.5479747  31.7181371  20.8063383 106.6121074  32.5796202  20.3940781
 106.4846867  31.1055373  20.0735742 106.0232020  33.7904504  24.4536417
 106.6504059  33.4081581  25.0673942 105.1659939  33.5718706  24.8192110
 116.4226128  44.1967479  26.0590153 116.9666032  44.8097437  25.5645108
 115.8412973  44.7547058  26.5757166 102.7997562  35.5980933  10.3854772
 103.0951004  34.6891612  10.3321826 101.8985598  35.5768673  10.0635775
 114.7083641  47.3188197  17.1905181 114.5834781  46.5177937  16.6816126
 115.3662732  47.8134391  16.7019151 106.3291809  33.6736930  16.3682321
 105.6078395  34.2872897  16.2289794 107.1185065  34.2094695  16.2898967
 116.7718550  45.1197217  18.8184731 115.8248885  45.0002568  18.7463057
 117.1201323  44.2319715  18.9010992 109.1318123  31.0091356  22.6422973
 109.6552525  31.2553653  23.4049282 108.9130456  31.8411391  22.2226110
 104.5285404  33.2795031  10.5094097 104.1998110  32.3992410  10.3269203
 104.8824775  33.2242699  11.3970487 113.7764983  44.9149934  15.0189083
 113.6289945  43.9866641  15.1996653 114.6018476  44.9370024  14.5346158
 107.6427227  33.5668001  10.8769575 107.9823300  34.0953922  10.1548183
 108.0899348  33.9048407  11.6528142 117.3799105  45.7378492  16.1053956
 118.3045652  45.5321354  15.9678407 117.2114408  45.4894893  17.0143297
 110.3370668  31.9505051  20.3272643 109.9967488  31.1512864  20.7293323
 109.6309674  32.2506762  19.7549476 110.9887140  29.0354364  18.7799966
 111.8113209  28.5614842  18.6578856 111.2325203  29.8144848  19.2798652
 108.5125719  35.7273484  16.5891945 108.3670299  36.0413787  17.4816226
 108.0350922  36.3458385  16.0362843 110.3722102  32.7176032  16.6372834
 110.3583670  31.8217126  16.3005132 111.0894530  32.7246696  17.2711120
 112.2248232  33.1513373  18.6825962 111.9666010  34.0730443  18.6810292
 111.6933273  32.7543807  19.3726426 117.1694421  46.2564160  11.4616047
 117.3431299  45.6910582  10.7089900 117.6623312  47.0565055  11.2795537
 102.9871381  38.2678829  19.5279606 102.4424849  39.0438637  19.6599880
 103.8650731  38.6149633  19.3698727 103.7737403  37.3948725  22.4209763
 103.0319139  37.5431360  23.0074393 103.4530147  37.6556991  21.5576512
 111.7181065  46.9364703  22.2190153 112.0268192  46.6913850  23.0912852
 112.5156547  47.1411342  21.7309023 111.7401677  49.0902613  14.4495529
 111.3006668  48.5978992  15.1428386 112.4909794  48.5475581  14.2087605
 104.2194016  45.2814154  14.4520157 105.0452036  44.9817926  14.0718801
 103.8688068  44.5121776  14.9009946 109.1875550  44.6340622  16.5217831
 108.5655559  43.9711327  16.2220059 109.8580416  44.6601754  15.8391479
 102.4202621  43.2000480  15.4109091 101.5834530  42.7722655  15.2293092
 102.3926267  43.3932924  16.3479882 109.2600077  33.1122410  26.1150337
 109.3088232  33.9884533  25.7328107 109.8022591  32.5699803  25.5421980
 119.7454923  43.6563533  25.3951474 118.9550466  43.6387672  24.8555974
 119.5088277  44.1951827  26.1500511 119.8652798  40.5056000  22.7084203
 119.9150803  40.3406007  23.6499725 119.7566721  39.6383259  22.3182083
 108.7489056  43.1844545   9.9976292 108.8977177  43.8680010   9.3442964
 109.5555500  43.1649635  10.5125747 117.1556560  36.4886928  24.0243509
 118.0566423  36.3493393  23.7327507 117.2304535  36.6541383  24.9641687
 111.4899365  33.8653782  22.8696696 110.6202675  34.1587348  22.5979284
 111.7258846  34.4494227  23.5903959 121.3670995  42.9252941  22.9526224
 121.0755803  43.2882922  23.7889685 120.7543126  42.2119949  22.7739556
 119.6158183  38.0485556  21.4206282 120.0912304  38.2413202  20.6125134
 118.6923748  38.1044742  21.1749666 106.5041689  39.2109723  11.0037360
 106.2587731  38.3072053  11.2017571 106.6737604  39.2126873  10.0616838
 114.1938399  30.0833399  20.3862116 114.7120343  30.8194426  20.0608605
 113.8393532  30.3897393  21.2208875 105.7737337  34.9438081   8.5023522
 105.0806582  35.0182436   7.8463558 105.5289089  34.1798424   9.0245039
 112.2484462  45.6792676   7.4688039 111.6758429  46.2982863   7.0158511
 112.8217256  46.2292037   8.0027961 118.3159852  34.9251316  19.6534588
 119.2677275  35.0249414  19.6746812 118.1463302  34.1329584  20.1632672
 116.3374231  32.0106899  19.8393989 115.7424163  32.2911912  19.1440477
 116.0523928  32.5000800  20.6110730 120.7947930  38.1457436  18.7676887
 120.7624250  37.2073436  18.9536571 121.4048553  38.2241472  18.0342712
 112.5169953  41.0671235  26.2704748 113.4372962  41.2449834  26.4644795
 112.4819536  40.1227280  26.1184448 101.7352118  36.2609828  15.1958023
 101.4154902  35.4075137  14.9032397 101.1885546  36.4758406  15.9515990
 105.5132026  38.9772269  18.9127530 105.7318035  39.9089377  18.9315563
 105.9257799  38.6180244  19.6982333 110.3859891  34.5505475  28.3030279
 110.2856618  35.4999832  28.2342370 110.1681433  34.2223714  27.4306349
 101.6040378  39.8812740  17.1651145 100.9103849  39.4666693  16.6521099
 102.3513369  39.9233276  16.5684564 110.2491161  37.9802614  27.1195340
 109.7658243  38.7802974  27.3259229 110.3352100  37.9910559  26.1662784
 103.5177120  39.8130994  15.0417160 103.4947809  39.9118681  14.0899043
 103.8277757  40.6596144  15.3634326 106.1764498  41.8707149  19.1563774
 107.1307752  41.8391091  19.0893706 105.9777022  41.4097772  19.9714000
 106.7663881  40.4408265  21.7234572 107.5856769  40.9352343  21.7469409
 107.0400688  39.5240233  21.6952139 104.5314727  47.4126768  16.1733972
 104.3969195  46.6527169  15.6071970 104.1146789  48.1367668  15.7062761
 107.6883853  48.3096085  16.3852415 107.5716237  49.2541518  16.2831105
 106.8676299  48.0069647  16.7738214 102.0198795  34.7746399  22.4226769
 102.6657658  34.2645353  22.9113994 101.8115946  35.5115080  22.9970194
 114.5452187  41.8427246  27.9218909 115.4143347  42.0167898  27.5605544
 114.0658938  42.6621663  27.7994639 108.7138367  48.9624347  19.6008343
 109.6165614  48.9947957  19.9174838 108.4875737  48.0324798  19.6154679
 110.4691969  47.7155334  16.2618422 109.5187600  47.7157195  16.1482794
 110.7724455  46.9688068  15.7454456 106.3596286  31.9214016  26.5201783
 107.2227747  31.5650820  26.7305108 105.7861696  31.5827910  27.2077187
 126.2044663  53.5515872  17.3264184 126.8423073  53.4322619  16.6227524
 126.0865506  54.4996716  17.3852136 123.0134369  53.5043300  17.2625709
 122.6752880  53.3884365  16.3746244 123.8824137  53.1034465  17.2426715
 118.8721185  55.3578776  13.2522600 118.3086050  55.2668713  12.4838887
 118.7573580  54.5378681  13.7325092 123.4954152  54.6578152  23.2211914
 123.4842793  54.2630950  22.3492418 123.6574791  53.9244224  23.8145686
 116.4185617  56.8529968  16.0906820 117.2106909  56.5120793  15.6753119
 116.6582267  56.9624943  17.0108973 124.4520743  59.0249744   8.5637065
 123.8008723  59.6103825   8.1771078 125.2465106  59.5555939   8.6232102
 118.3776371  56.1138881   8.9624199 119.1507247  55.5667868   8.8237075
 118.7301769  56.9783131   9.1738660 120.2161413  57.4415264  22.1691098
 119.9251279  58.3460894  22.0537764 120.8518397  57.4831791  22.8835168
 121.1417620  54.8192112  18.7592458 121.7381192  54.5948135  18.0449421
 121.1992591  54.0776858  19.3617906 120.4338937  54.1759653   8.7967024
 120.3175195  53.5004557   9.4648108 120.5441197  53.6892027   7.9799177
 122.7770478  53.6369801  12.5013713 122.4128685  53.1100421  13.2126634
 123.6337594  53.2468270  12.3280198 128.6819779  44.9264133  19.7644979
 128.3503103  45.7959544  19.5406194 128.0865392  44.6100417  20.4439010
 125.1751298  57.1276679  19.1640892 124.8752021  58.0301718  19.0556699
 124.8302358  56.8608862  20.0162045 118.6263780  53.5790476  15.1977596
 117.7014276  53.4466690  15.4055288 118.8748193  54.3584695  15.6947539
 128.5748442  49.6459219  16.8438329 127.6665319  49.5774628  16.5497090
 128.5236038  50.1231164  17.6720155 115.9872591  53.2223750  16.0321385
 116.1164972  53.4758228  16.9460797 115.3070042  53.8151458  15.7126040
 120.1572078  63.8920999  12.1311860 120.0796108  64.8428825  12.2100340
 119.5533722  63.5466872  12.7886786 122.6489308  51.0648865  24.7873226
 121.8722642  51.6242785  24.7776091 123.2879871  51.5505648  25.3088097
 120.9035680  53.8734318  24.3491193 121.6450364  54.4119362  24.0726017
 120.1972666  54.5000607  24.5062745 126.3791020  56.0163459  22.9463355
 126.7874376  55.5745869  22.2017987 125.6568281  55.4416086  23.1997548
 122.7322090  50.9536065  20.3196912 123.5783285  51.3775479  20.4631561
 122.6720727  50.2969690  21.0135475 126.7019834  56.5764649  16.7015644
 126.0728697  56.7410363  15.9991712 126.3145496  56.9906259  17.4726608
 130.5809066  57.5119087  14.0560008 129.8960104  57.8917989  13.5057041
 130.6652916  58.1214414  14.7891955 125.8821535  48.6140434  21.9778086
 125.6382467  49.3682494  21.4412361 126.1581466  48.9925781  22.8125333
 127.8359998  55.1579046  20.6555351 128.0476893  55.8010806  19.9789732
 127.7889746  54.3241363  20.1877281 125.4386227  47.7696867  17.5591923
 124.5770706  48.0678120  17.8508661 125.4648661  47.9867266  16.6272956
 122.2547796  56.3139057  13.9665729 122.7186142  56.5926760  13.1770351
 121.9904594  55.4122502  13.7838820 119.1471877  55.8610539  16.9045492
 119.7173234  56.2897807  16.2662977 119.7379989  55.5793124  17.6029678
 121.1916682  52.4362210  10.7755294 121.8940726  52.8883253  11.2429220
 120.8597311  51.7946029  11.4035187 119.6397044  51.0273966  25.1506503
 119.0095704  51.7090247  25.3841900 119.5333132  50.9157048  24.2059642
 114.9342016  50.6945762  16.0772428 114.1441070  50.9503291  15.6012538
 115.4253264  51.5094100  16.1824468 128.9505826  58.0351002  18.8277708
 129.7723270  57.6331189  18.5460390 128.9468229  57.9319236  19.7793824
 116.8856762  51.0590342  13.0355904 116.0887925  51.1709036  13.5539400
 116.6582354  51.3976994  12.1696795 122.7162429  57.5835045  20.9838419
 122.7806862  58.0455452  21.8196591 122.0073353  56.9532410  21.1120729
 113.2179719  50.9476253  18.5087418 113.4687758  51.8323263  18.7744994
 113.7539268  50.7680854  17.7362510 122.4310447  59.2503152  10.8517399
 122.2956122  60.0954688  11.2802247 122.9720259  59.4522430  10.0883333
 118.9177787  45.3294732  27.5131754 118.5244732  44.7760931  28.1879399
 119.7343927  45.6405311  27.9038272 115.8839844  56.7678590  11.4245324
 116.3964365  57.5621841  11.5750889 116.5362557  56.0704881  11.3578926
 117.6934729  59.8844347  13.5068078 117.8701357  60.8062311  13.3189061
 118.4891563  59.5702766  13.9362457 121.8345748  46.7452611  25.1052011
 122.5755461  47.3459765  25.0256474 122.0663670  46.0030249  24.5470054
 116.9787086  51.9308979  23.3830241 116.8640601  51.0294236  23.6837340
 116.1231603  52.1772675  23.0315057 124.0578923  59.8726719  24.9817741
 123.6142777  59.0863097  24.6638646 124.7196137  60.0605869  24.3161632
 118.8166044  61.4022521  19.5078420 119.3673470  61.2739584  18.7355414
 117.9777520  61.7017410  19.1573313 126.1560161  60.1529519  23.0099143
 126.1378637  60.9738400  22.5179412 127.0780081  60.0283594  23.2349284
 122.6133215  57.6673648  23.8522651 123.1461552  56.9061937  23.6221959
 122.0847297  57.3747300  24.5946805 113.8488761  55.0967245  12.2004895
 114.6863983  55.5064253  11.9838603 114.0267029  54.1566687  12.1705089
 124.8599451  45.1438369  17.3465526 124.3564246  45.1068505  16.5333331
 125.1530058  46.0531112  17.4062183 121.1042337  45.2277099  16.3531708
 121.9695334  45.0319908  15.9937597 121.1719846  44.9987451  17.2801064
 123.9785928  56.7959641  11.3641463 123.4507290  56.0612400  11.0514700
 123.4773431  57.5734317  11.1181431 128.9578774  54.9908661  16.4808509
 128.3002449  55.6807923  16.5688638 129.7619173  55.3805093  16.8242496
 118.7104656  47.4579307  13.7248075 119.2848408  47.2354489  12.9921267
 119.2975638  47.5268002  14.4776676 125.0306607  63.3237358   7.2873122
 124.3568306  63.6269055   7.8958080 125.4172429  64.1266439   6.9378579
 124.2465064  50.8202490  16.7770792 123.3287625  51.0417437  16.6192480
 124.6625208  50.8948800  15.9182499 128.5346029  58.3259035  12.6591594
 128.0808356  57.4849945  12.7156784 127.9039996  58.9620434  12.9966374
 126.9778968  60.1635532  13.5941412 127.2701943  60.7240589  12.8753777
 127.4877589  60.4564093  14.3494571 113.8714932  52.4357960  12.8715628
 113.6739332  51.8427321  12.1466695 113.3161596  52.1310170  13.5891567
 121.8511656  52.3281067  14.9910221 121.9060266  51.3754903  14.9152698
 121.0402858  52.4840506  15.4751520 119.7904016  50.9458126  12.7500600
 118.9771881  51.2452297  13.1565792 120.2863010  50.5513815  13.4675083
 121.9412594  60.9415883  14.6834865 121.8988772  61.1676730  13.7543397
 122.8575293  60.7079258  14.8320666 125.3878227  51.4099951  21.5815494
 125.7427615  51.6371424  22.4409960 126.0350359  51.7418328  20.9592750
 119.2818091  48.5176482  18.3661835 119.9217470  48.3765241  17.6684799
 118.4495621  48.2310995  17.9900437 131.1445344  56.5994914  17.2976095
 131.5781851  56.5070203  18.1459149 131.8576925  56.5752414  16.6596111
 120.0578394  57.8178912  14.4796828 120.8518993  57.3229232  14.2779403
 119.3470087  57.2896775  14.1164533 124.8773239  60.1997008  18.8309195
 124.9310261  60.7687944  19.5986911 124.0088020  60.3698893  18.4663233
 116.3661158  51.9621994  10.5556580 115.4358746  51.9006449  10.7726543
 116.4618630  51.4397947   9.7593222 116.2846707  48.4876807  13.1434822
 116.5453524  49.4022140  13.0343983 117.1063879  48.0201249  13.2931435
 117.7571632  49.9014564  20.3133647 118.4294686  49.6931926  19.6646296
 116.9301419  49.7036650  19.8738879 132.0060894  56.6418614  19.8308980
 132.1996784  57.5464425  20.0768255 131.9061512  56.1826033  20.6647565
 123.6597204  46.5276505  22.3299308 123.0125119  47.2266455  22.2363784
 124.4298220  46.9612649  22.6975556 127.0676002  56.7925357  25.4049861
 126.9161509  56.5635909  24.4879944 127.0580682  57.7495958  25.4181206
 123.8361339  54.3657270  20.3896127 124.7653399  54.5168429  20.2165095
 123.4152369  54.4541291  19.5344774 122.6349670  58.3907934  18.1594665
 122.4960756  58.0226719  19.0320603 121.8464267  58.9055574  17.9878623
 123.2297822  63.4917031   9.5020201 123.4049578  63.0205074  10.3165824
 122.5430610  64.1182797   9.7301462 124.1854886  57.7689537  15.5483503
 123.8504718  57.7290307  16.4441153 123.6858831  57.1034253  15.0753913
 118.1599130  53.1757167  21.0736084 118.0218927  52.4437406  21.6747623
 119.0704053  53.0866067  20.7920272 120.7881430  52.8877126  20.5619763
 121.4981049  52.2470318  20.5206382 120.7450738  53.1390021  21.4845944
 128.7768209  59.8244480  23.4826343 128.7180755  59.1403700  22.8156926
 129.1787727  60.5663470  23.0306969 119.5010364  49.8742344  22.3815403
 118.9647721  49.4233083  23.0336999 118.9127073  50.0088253  21.6385867
 117.7958908  66.6406393  16.2760062 118.0355506  67.2724918  16.9539080
 116.9528104  66.2894433  16.5625421 128.7785616  57.7884064  21.7140322
 127.8912395  57.4509985  21.8366721 129.3484167  57.0567095  21.9509088
 110.4314763  54.1208155  15.0383374 111.1185803  53.8069885  14.4504389
 110.2762892  55.0249520  14.7650625 115.2349485  49.0098352  19.4668397
 115.1507674  48.4024021  18.7318807 114.4132192  49.5007370  19.4677894
 122.3086770  62.4485516  18.6801566 122.2356941  63.2540487  19.1920870
 121.8664163  62.6477482  17.8549587 122.0976549  61.6857286  12.1904387
 121.3144071  62.2278966  12.2842612 122.7969294  62.2031266  12.5898628
 124.7685453  62.3472350  20.8359724 125.4813425  62.9819815  20.7635626
 124.2775482  62.4436216  20.0199726 126.4902980  56.2523603  12.4077016
 125.5559259  56.3725065  12.2381720 126.6679648  55.3496069  12.1437026
 121.9908168  49.6369298  14.5610277 121.6205956  49.0840339  15.2491183
 122.4867260  49.0327432  14.0085277 119.8197367  60.0966793  21.6565295
 120.5206826  60.7303276  21.8094689 119.3492482  60.4381525  20.8960934
 127.6198653  52.6511401  19.4817845 126.9670103  52.8987308  18.8270298
 127.9979032  51.8375539  19.1480323 124.5805826  62.6871094  13.5846016
 124.7628221  61.8692750  14.0473768 125.4038812  62.9038786  13.1470906
 124.9147992  61.6139279  10.8461064 125.4435758  61.1031734  10.2331226
 125.1776212  61.2981809  11.7106597 123.6686226  53.3931212  25.9683882
 122.9926863  53.2925341  26.6386258 124.4913859  53.2370426  26.4319880
 115.4165085  59.6303148  18.5896398 116.0018521  58.8846836  18.7224302
 115.2189923  59.9407105  19.4733062 118.2703740  62.6654396  13.6058840
 117.6014115  63.1500523  13.1222880 118.1316610  62.9123616  14.5202219
 110.0082739  52.2008749  17.3100841 110.0466839  51.6672339  18.1037959
 109.5023032  51.6743954  16.6911818 122.4109008  64.6998139  20.2041498
 122.9627317  64.8629761  20.9690584 122.7515202  65.2902577  19.5321523
 117.3873502  47.0473289  20.8063383 117.4514828  47.9088120  20.3940781
 117.3240622  46.4347291  20.0735742 116.8625774  49.1196422  24.4536417
 117.4897813  48.7373499  25.0673942 116.0053693  48.9010624  24.8192110
 127.2619883  59.5259397  26.0590153 127.8059787  60.1389355  25.5645108
 126.6806728  60.0838975  26.5757166 113.6391317  50.9272851  10.3854772
 113.9344758  50.0183529  10.3321826 112.7379353  50.9060590  10.0635775
 125.5477396  62.6480115  17.1905181 125.4228535  61.8469855  16.6816126
 126.2056487  63.1426308  16.7019151 117.1685564  49.0028847  16.3682321
 116.4472150  49.6164815  16.2289794 117.9578820  49.5386612  16.2898967
 127.6112304  60.4489135  18.8184731 126.6642640  60.3294486  18.7463057
 127.9595077  59.5611633  18.9010992 119.9711878  46.3383274  22.6422973
 120.4946279  46.5845570  23.4049282 119.7524211  47.1703309  22.2226110
 115.3679159  48.6086948  10.5094097 115.0391865  47.7284327  10.3269203
 115.7218529  48.5534617  11.3970487 124.6158737  60.2441851  15.0189083
 124.4683700  59.3158559  15.1996653 125.4412231  60.2661942  14.5346158
 118.4820982  48.8959918  10.8769575 118.8217054  49.4245840  10.1548183
 118.9293102  49.2340324  11.6528142 128.2192859  61.0670410  16.1053956
 129.1439407  60.8613271  15.9678407 128.0508163  60.8186811  17.0143297
 121.1764423  47.2796969  20.3272643 120.8361243  46.4804782  20.7293323
 120.4703429  47.5798680  19.7549476 121.8280894  44.3646281  18.7799966
 122.6506964  43.8906760  18.6578856 122.0718958  45.1436765  19.2798652
 119.3519473  51.0565402  16.5891945 119.2064054  51.3705705  17.4816226
 118.8744677  51.6750302  16.0362843 121.2115856  48.0467950  16.6372834
 121.1977425  47.1509043  16.3005132 121.9288284  48.0538614  17.2711120
 123.0641987  48.4805290  18.6825962 122.8059765  49.4022361  18.6810292
 122.5327027  48.0835725  19.3726426 128.0088175  61.5856077  11.4616047
 128.1825053  61.0202500  10.7089900 128.5017067  62.3856972  11.2795537
 113.8265135  53.5970746  19.5279606 113.2818603  54.3730554  19.6599880
 114.7044485  53.9441551  19.3698727 114.6131157  52.7240643  22.4209763
 113.8712893  52.8723278  23.0074393 114.2923901  52.9848908  21.5576512
 122.5574820  62.2656621  22.2190153 122.8661946  62.0205768  23.0912852
 123.3550302  62.4703259  21.7309023 122.5795432  64.4194531  14.4495529
 122.1400422  63.9270909  15.1428386 123.3303549  63.8767498  14.2087605
 115.0587771  60.6106071  14.4520157 115.8845791  60.3109843  14.0718801
 114.7081823  59.8413694  14.9009946 120.0269304  59.9632540  16.5217831
 119.4049313  59.3003245  16.2220059 120.6974171  59.9893672  15.8391479
 113.2596376  58.5292398  15.4109091 112.4228284  58.1014572  15.2293092
 113.2320021  58.7224841  16.3479882 120.0993831  48.4414328  26.1150337
 120.1481987  49.3176451  25.7328107 120.6416346  47.8991721  25.5421980
 130.5848677  58.9855451  25.3951474 129.7944221  58.9679590  24.8555974
 130.3482032  59.5243745  26.1500511 130.7046552  55.8347917  22.7084203
 130.7544557  55.6697925  23.6499725 130.5960476  54.9675176  22.3182083
 119.5882811  58.5136463   9.9976292 119.7370931  59.1971927   9.3442964
 120.3949254  58.4941553  10.5125747 127.9950315  51.8178845  24.0243509
 128.8960177  51.6785310  23.7327507 128.0698289  51.9833300  24.9641687
 122.3293120  49.1945700  22.8696696 121.4596429  49.4879266  22.5979284
 122.5652600  49.7786145  23.5903959 132.2064749  58.2544859  22.9526224
 131.9149557  58.6174839  23.7889685 131.5936880  57.5411867  22.7739556
 130.4551937  53.3777473  21.4206282 130.9306059  53.5705120  20.6125134
 129.5317503  53.4336659  21.1749666 117.3435444  54.5401641  11.0037360
 117.0981486  53.6363971  11.2017571 117.5131358  54.5418791  10.0616838
 125.0332154  45.4125317  20.3862116 125.5514098  46.1486344  20.0608605
 124.6787287  45.7189310  21.2208875 116.6131091  50.2729998   8.5023522
 115.9200336  50.3474353   7.8463558 116.3682843  49.5090342   9.0245039
 123.0878216  61.0084593   7.4688039 122.5152184  61.6274781   7.0158511
 123.6611010  61.5583955   8.0027961 129.1553606  50.2543234  19.6534588
 130.1071029  50.3541331  19.6746812 128.9857057  49.4621502  20.1632672
 127.1767986  47.3398817  19.8393989 126.5817918  47.6203829  19.1440477
 126.8917682  47.8292718  20.6110730 131.6341684  53.4749353  18.7676887
 131.6018004  52.5365354  18.9536571 132.2442308  53.5533390  18.0342712
 123.3563707  56.3963152  26.2704748 124.2766717  56.5741751  26.4644795
 123.3213291  55.4519198  26.1184448 112.5745872  51.5901746  15.1958023
 112.2548657  50.7367054  14.9032397 112.0279301  51.8050324  15.9515990
 116.3525780  54.3064187  18.9127530 116.5711790  55.2381295  18.9315563
 116.7651554  53.9472161  19.6982333 121.2253645  49.8797393  28.3030279
 121.1250372  50.8291750  28.2342370 121.0075187  49.5515632  27.4306349
 112.4434132  55.2104657  17.1651145 111.7497604  54.7958610  16.6521099
 113.1907123  55.2525194  16.5684564 121.0884915  53.3094532  27.1195340
 120.6051997  54.1094892  27.3259229 121.1745854  53.3202476  26.1662784
 114.3570875  55.1422911  15.0417160 114.3341563  55.2410599  14.0899043
 114.6671511  55.9888062  15.3634326 117.0158253  57.1999066  19.1563774
 117.9701506  57.1683009  19.0893706 116.8170776  56.7389690  19.9714000
 117.6057635  55.7700182  21.7234572 118.4250524  56.2644261  21.7469409
 117.8794443  54.8532150  21.6952139 115.3708482  62.7418686  16.1733972
 115.2362950  61.9819087  15.6071970 114.9540544  63.4659586  15.7062761
 118.5277608  63.6388003  16.3852415 118.4109992  64.5833435  16.2831105
 117.7070054  63.3361564  16.7738214 112.8592549  50.1038316  22.4226769
 113.5051413  49.5937270  22.9113994 112.6509700  50.8406998  22.9970194
 125.3845941  57.1719164  27.9218909 126.2537101  57.3459816  27.5605544
 124.9052693  57.9913581  27.7994639 119.5532122  64.2916265  19.6008343
 120.4559368  64.3239875  19.9174838 119.3269492  63.3616716  19.6154679
 121.3085724  63.0447251  16.2618422 120.3581355  63.0449113  16.1482794
 121.6118210  62.2979986  15.7454456 117.1990040  47.2505933  26.5201783
 118.0621502  46.8942738  26.7305108 116.6255451  46.9119828  27.2077187
 133.8528123  68.8335218  17.2625709 133.5146635  68.7176282  16.3746244
 134.7217892  68.4326383  17.2426715 129.7114939  70.6870694  13.2522600
 129.1479804  70.5960631  12.4838887 129.5967334  69.8670599  13.7325092
 134.3347906  69.9870069  23.2211914 134.3236547  69.5922868  22.3492418
 134.4968546  69.2536142  23.8145686 127.2579371  72.1821886  16.0906820
 128.0500663  71.8412710  15.6753119 127.4976021  72.2916861  17.0108973
 131.0555168  72.7707181  22.1691098 130.7645034  73.6752812  22.0537764
 131.6912152  72.8123709  22.8835168 131.9811374  70.1484030  18.7592458
 132.5774947  69.9240052  18.0449421 132.0386346  69.4068775  19.3617906
 133.6164233  68.9661718  12.5013713 133.2522440  68.4392339  13.2126634
 134.4731348  68.5760187  12.3280198 136.0145053  72.4568597  19.1640892
 135.7145776  73.3593636  19.0556699 135.6696112  72.1900780  20.0162045
 129.4657534  68.9082394  15.1977596 128.5408031  68.7758608  15.4055288
 129.7141947  69.6876613  15.6947539 126.8266345  68.5515667  16.0321385
 126.9558726  68.8050146  16.9460797 126.1463796  69.1443375  15.7126040
 133.4883062  66.3940783  24.7873226 132.7116396  66.9534703  24.7776091
 134.1273625  66.8797566  25.3088097 131.7429435  69.2026236  24.3491193
 132.4844119  69.7411280  24.0726017 131.0366420  69.8292525  24.5062745
 137.2184774  71.3455376  22.9463355 137.6268130  70.9037787  22.2017987
 136.4962036  70.7708004  23.1997548 133.5715844  66.2827983  20.3196912
 134.4177039  66.7067397  20.4631561 133.5114482  65.6261607  21.0135475
 137.5413589  71.9056567  16.7015644 136.9122451  72.0702281  15.9991712
 137.1539251  72.3198177  17.4726608 136.7215290  63.9432352  21.9778086
 136.4776221  64.6974412  21.4412361 136.9975220  64.3217699  22.8125333
 136.2779981  63.0988785  17.5591923 135.4164460  63.3970038  17.8508661
 136.3042416  63.3159183  16.6272956 133.0941551  71.6430975  13.9665729
 133.5579896  71.9218678  13.1770351 132.8298349  70.7414420  13.7838820
 129.9865632  71.1902457  16.9045492 130.5566989  71.6189725  16.2662977
 130.5773744  70.9085041  17.6029678 132.0310437  67.7654127  10.7755294
 132.7334480  68.2175171  11.2429220 131.6991065  67.1237946  11.4035187
 130.4790798  66.3565884  25.1506503 129.8489459  67.0382165  25.3841900
 130.3726886  66.2448966  24.2059642 125.7735771  66.0237680  16.0772428
 124.9834825  66.2795209  15.6012538 126.2647018  66.8386018  16.1824468
 127.7250516  66.3882259  13.0355904 126.9281679  66.5000954  13.5539400
 127.4976108  66.7268912  12.1696795 133.5556184  72.9126963  20.9838419
 133.6200616  73.3747370  21.8196591 132.8467108  72.2824328  21.1120729
 124.0573474  66.2768171  18.5087418 124.3081512  67.1615181  18.7744994
 124.5933022  66.0972772  17.7362510 129.7571541  60.6586650  27.5131754
 129.3638487  60.1052849  28.1879399 130.5737681  60.9697228  27.9038272
 126.7233599  72.0970508  11.4245324 127.2358119  72.8913758  11.5750889
 127.3756312  71.3996799  11.3578926 132.6739502  62.0744529  25.1052011
 133.4149215  62.6751682  25.0256474 132.9057425  61.3322167  24.5470054
 127.8180840  67.2600896  23.3830241 127.7034355  66.3586154  23.6837340
 126.9625358  67.5064593  23.0315057 134.8972678  75.2018637  24.9817741
 134.4536532  74.4155015  24.6638646 135.5589891  75.3897787  24.3161632
 129.6559799  76.7314438  19.5078420 130.2067224  76.6031502  18.7355414
 128.8171275  77.0309327  19.1573313 133.4526970  72.9965566  23.8522651
 133.9855307  72.2353854  23.6221959 132.9241051  72.7039218  24.5946805
 124.6882516  70.4259162  12.2004895 125.5257738  70.8356171  11.9838603
 124.8660783  69.4858605  12.1705089 135.6993205  60.4730287  17.3465526
 135.1958001  60.4360422  16.5333331 135.9923812  61.3823030  17.4062183
 131.9436091  60.5569017  16.3531708 132.8089088  60.3611826  15.9937597
 132.0113600  60.3279369  17.2801064 129.5498410  62.7871225  13.7248075
 130.1242162  62.5646406  12.9921267 130.1369393  62.8559919  14.4776676
 135.0858818  66.1494407  16.7770792 134.1681380  66.3709354  16.6192480
 135.5018962  66.2240718  15.9182499 124.7108687  67.7649878  12.8715628
 124.5133087  67.1719238  12.1466695 124.1555351  67.4602088  13.5891567
 132.6905410  67.6572984  14.9910221 132.7454020  66.7046821  14.9152698
 131.8796612  67.8132423  15.4751520 130.6297770  66.2750044  12.7500600
 129.8165636  66.5744215  13.1565792 131.1256764  65.8805733  13.4675083
 136.2271982  66.7391868  21.5815494 136.5821370  66.9663342  22.4409960
 136.8744113  67.0710245  20.9592750 130.1211845  63.8468400  18.3661835
 130.7611224  63.7057159  17.6684799 129.2889376  63.5602913  17.9900437
 130.8972149  73.1470830  14.4796828 131.6912747  72.6521150  14.2779403
 130.1863841  72.6188693  14.1164533 135.7166993  75.5288925  18.8309195
 135.7704016  76.0979862  19.5986911 134.8481775  75.6990810  18.4663233
 127.2054912  67.2913912  10.5556580 126.2752500  67.2298367  10.7726543
 127.3012384  66.7689864   9.7593222 127.1240461  63.8168724  13.1434822
 127.3847279  64.7314058  13.0343983 127.9457634  63.3493167  13.2931435
 128.5965387  65.2306482  20.3133647 129.2688440  65.0223844  19.6646296
 127.7695173  65.0328568  19.8738879 134.4990959  61.8568423  22.3299308
 133.8518874  62.5558372  22.2363784 135.2691974  62.2904567  22.6975556
 134.6755093  69.6949187  20.3896127 135.6047153  69.8460347  20.2165095
 134.2546123  69.7833208  19.5344774 133.4743425  73.7199852  18.1594665
 133.3354511  73.3518636  19.0320603 132.6858021  74.2347491  17.9878623
 135.0248640  73.0981455  15.5483503 134.6898473  73.0582225  16.4441153
 134.5252586  72.4326171  15.0753913 128.9992884  68.5049085  21.0736084
 128.8612682  67.7729323  21.6747623 129.9097808  68.4157985  20.7920272
 131.6275185  68.2169044  20.5619763 132.3374803  67.5762236  20.5206382
 131.5844493  68.4681939  21.4845944 130.3404119  65.2034262  22.3815403
 129.8041476  64.7525000  23.0336999 129.7520827  65.3380171  21.6385867
 121.2708518  69.4500073  15.0383374 121.9579558  69.1361803  14.4504389
 121.1156646  70.3541438  14.7650625 126.0743240  64.3390270  19.4668397
 125.9901429  63.7315939  18.7318807 125.2525946  64.8299288  19.4677894
 133.1480524  77.7777434  18.6801566 133.0750696  78.5832405  19.1920870
 132.7057917  77.9769399  17.8549587 135.6079208  77.6764268  20.8359724
 136.3207180  78.3111732  20.7635626 135.1169236  77.7728134  20.0199726
 132.8301923  64.9661216  14.5610277 132.4599710  64.4132256  15.2491183
 133.3261015  64.3619350  14.0085277 130.6591121  75.4258711  21.6565295
 131.3600581  76.0595194  21.8094689 130.1886236  75.7673443  20.8960934
 134.5079980  68.7223130  25.9683882 133.8320617  68.6217259  26.6386258
 135.3307614  68.5662343  26.4319880 126.2558839  74.9595066  18.5896398
 126.8412276  74.2138754  18.7224302 126.0583678  75.2699023  19.4733062
 120.8476494  67.5300666  17.3100841 120.8860593  66.9964257  18.1037959
 120.3416787  67.0035872  16.6911818 133.2502763  80.0290057  20.2041498
 133.8021071  80.1921679  20.9690584 133.5908956  80.6194495  19.5321523
 128.2267256  62.3765207  20.8063383 128.2908583  63.2380038  20.3940781
 128.1634376  61.7639208  20.0735742 127.7019529  64.4488339  24.4536417
 128.3291568  64.0665417  25.0673942 126.8447448  64.2302541  24.8192110
 124.4785071  66.2564769  10.3854772 124.7738513  65.3475447  10.3321826
 123.5773107  66.2352508  10.0635775 128.0079318  64.3320765  16.3682321
 127.2865904  64.9456733  16.2289794 128.7972574  64.8678530  16.2898967
 130.8105632  61.6675192  22.6422973 131.3340034  61.9137488  23.4049282
 130.5917965  62.4995226  22.2226110 126.2072913  63.9378866  10.5094097
 125.8785619  63.0576245  10.3269203 126.5612284  63.8826535  11.3970487
 129.3214736  64.2251836  10.8769575 129.6610809  64.7537757  10.1548183
 129.7686857  64.5632242  11.6528142 132.0158177  62.6088887  20.3272643
 131.6754997  61.8096700  20.7293323 131.3097183  62.9090598  19.7549476
 132.6674649  59.6938199  18.7799966 133.4900718  59.2198677  18.6578856
 132.9112712  60.4728683  19.2798652 130.1913228  66.3857320  16.5891945
 130.0457808  66.6997623  17.4816226 129.7138431  67.0042220  16.0362843
 132.0509611  63.3759868  16.6372834 132.0371179  62.4800961  16.3005132
 132.7682039  63.3830531  17.2711120 133.9035741  63.8097208  18.6825962
 133.6453519  64.7314279  18.6810292 133.3720782  63.4127642  19.3726426
 124.6658890  68.9262664  19.5279606 124.1212358  69.7022472  19.6599880
 125.5438240  69.2733469  19.3698727 125.4524912  68.0532560  22.4209763
 124.7106648  68.2015196  23.0074393 125.1317656  68.3140826  21.5576512
 133.3968574  77.5948539  22.2190153 133.7055701  77.3497685  23.0912852
 134.1944056  77.7995177  21.7309023 125.8981525  75.9397989  14.4520157
 126.7239545  75.6401761  14.0718801 125.5475577  75.1705612  14.9009946
 130.8663058  75.2924457  16.5217831 130.2443068  74.6295162  16.2220059
 131.5367925  75.3185589  15.8391479 124.0990130  73.8584316  15.4109091
 123.2622039  73.4306490  15.2293092 124.0713776  74.0516759  16.3479882
 130.9387586  63.7706245  26.1150337 130.9875741  64.6468368  25.7328107
 131.4810100  63.2283638  25.5421980 133.1686874  64.5237618  22.8696696
 132.2990184  64.8171184  22.5979284 133.4046355  65.1078063  23.5903959
 128.1829198  69.8693558  11.0037360 127.9375240  68.9655888  11.2017571
 128.3525113  69.8710709  10.0616838 135.8725908  60.7417235  20.3862116
 136.3907852  61.4778262  20.0608605 135.5181041  61.0481228  21.2208875
 127.4524846  65.6021916   8.5023522 126.7594091  65.6766271   7.8463558
 127.2076598  64.8382260   9.0245039 134.1957462  71.7255070  26.2704748
 135.1160471  71.9033669  26.4644795 134.1607045  70.7811115  26.1184448
 123.4139627  66.9193664  15.1958023 123.0942411  66.0658972  14.9032397
 122.8673055  67.1342242  15.9515990 127.1919535  69.6356105  18.9127530
 127.4105544  70.5673212  18.9315563 127.6045308  69.2764079  19.6982333
 132.0647400  65.2089310  28.3030279 131.9644127  66.1583667  28.2342370
 131.8468942  64.8807549  27.4306349 123.2827887  70.5396575  17.1651145
 122.5891358  70.1250528  16.6521099 124.0300878  70.5817112  16.5684564
 131.9278670  68.6386449  27.1195340 131.4445752  69.4386809  27.3259229
 132.0139609  68.6494394  26.1662784 125.1964629  70.4714829  15.0417160
 125.1735318  70.5702516  14.0899043 125.5065266  71.3179980  15.3634326
 127.8552007  72.5290984  19.1563774 128.8095261  72.4974926  19.0893706
 127.6564531  72.0681608  19.9714000 128.4451389  71.0992100  21.7234572
 129.2644278  71.5936179  21.7469409 128.7188197  70.1824068  21.6952139
 126.2102236  78.0710603  16.1733972 126.0756704  77.3111004  15.6071970
 125.7934298  78.7951503  15.7062761 129.3671362  78.9679921  16.3852415
 129.2503746  79.9125353  16.2831105 128.5463808  78.6653482  16.7738214
 123.6986304  65.4330234  22.4226769 124.3445167  64.9229188  22.9113994
 123.4903455  66.1698916  22.9970194 136.2239696  72.5011081  27.9218909
 137.0930856  72.6751734  27.5605544 135.7446447  73.3205498  27.7994639
 130.3925876  79.6208182  19.6008343 131.2953123  79.6531793  19.9174838
 130.1663246  78.6908633  19.6154679 128.0383795  62.5797851  26.5201783
 128.9015256  62.2234656  26.7305108 127.4649205  62.2411746  27.2077187
 136.9136994  79.6682187  19.4668397 136.8295183  79.0607857  18.7318807
 136.0919701  80.1591206  19.4677894 136.2918666  83.3824478  22.4209763
 135.5500402  83.5307113  23.0074393 135.9711410  83.6432744  21.5576512
 134.5380058  80.7622152  22.4226769 135.1838922  80.2521106  22.9113994
 134.3297209  81.4990833  22.9970194   6.9686756  77.3727633 108.1045530
   6.2150465  76.8035031 107.9489535   7.1034297  77.3390297 109.0516165
   1.0450902  77.5256269 105.2147674   0.9068800  77.7157865 104.2868863
   0.6887121  78.2875652 105.6715725   1.0720281  79.5932796 110.2258945
   1.5056788  79.5008086 111.0741999   1.7851862  79.5690297 109.5878961
   1.9335831  79.6356497 112.7591831   2.1271721  80.5402308 113.0051106
   1.8336449  79.1763916 113.5930416   3.1877894  76.1930164 109.4039734
   3.1767770  77.0754879 109.0333668   2.3195273  75.8401715 109.2094271
   3.7902504  77.3430383 106.0089197   4.2333650  76.5937708 105.6108321
   2.9129014  77.3340519 105.6262929   0.8229708  81.3460430 103.0183127
   1.3481032  81.6847703 102.2932447   0.7352061  80.4107445 102.8346261
   0.6321490  78.8285800 115.6367053   0.6819494  78.6635808 116.5782576
   0.5235413  77.9613059 115.2464934   2.1339686  81.2482742 115.8809075
   1.8424495  81.6112722 116.7172536   1.5211818  80.5349750 115.7022407
   3.3335369  78.8135621 108.4011645   4.1682260  79.2525425 108.5649205
   3.4694497  78.3374275 107.5819891   1.5616621  76.4687236 111.6959738
   1.5292941  75.5303237 111.8819422   2.1717245  76.5471273 110.9625563
   1.7111110  73.2598279 111.7418021   1.1950159  72.4756736 111.5547950
   2.5951058  72.9316996 111.9064541   7.3793171  77.5303243 110.8365775
   8.1096560  77.2688531 111.3973478   6.7700117  76.7931965 110.8767843
   5.4608468  75.6711105 111.4340226   4.7341632  75.5367070 110.8256718
   5.0455755  75.9787934 112.2396944   3.0786263  71.8922958 108.7873658
   3.6730754  71.6518694 108.0766966   3.1512847  71.1730088 109.4147194
   1.0744998  72.4593085 105.0545787   0.8181932  72.0589721 105.8853995
   0.4497866  73.1736879 104.9295926   5.3857336  75.1989158 107.5617079
   4.8256894  75.2682348 108.3348641   4.7800839  75.0230143 106.8416575
   6.9713354  91.8745672 110.2547034   7.6091764  91.7552420 109.5510374
   6.8534197  92.8226516 110.3134987   3.7803061  91.8273100 110.1908559
   3.4421572  91.7114165 109.3029094   4.6492829  91.4264266 110.1709565
   5.2189435  97.3479545 101.4919915   4.5677415  97.9333625 101.1053929
   6.0133798  97.8785740 101.5514952   1.9086312  93.1421913 111.6875308
   2.5049884  92.9177935 110.9732271   1.9661283  92.4006658 112.2900756
   1.4811340  90.5961348  99.5225499   1.7336861  90.0742869  98.7608962
   0.5435899  90.4327493  99.6252183   6.5254623  89.5997126 107.3300242
   7.3117712  89.1816549 106.9790659   6.7893327  90.5043218 107.4981891
   6.6964700  95.0369977 102.0288899   6.0610533  95.1104603 102.7409804
   6.3662107  95.6263575 101.3507979  11.9263050  89.5372359 108.2333221
  12.6588222  88.9671576 108.4671050  11.1702406  89.1493960 108.6739727
   1.2007629  92.4989454 101.7249874   1.0843887  91.8234357 102.3930959
   1.3109889  92.0121828 100.9082027   3.5439170  91.9599601 105.4296563
   3.1797377  91.4330222 106.1409485   4.4006286  91.5698070 105.2563049
   9.4488470  83.2493934 112.6927830   9.1171795  84.1189345 112.4689045
   8.8534084  82.9330218 113.3721860   3.1844657  86.9889501 100.4257912
   3.3519059  87.8569737 100.7928383   2.9941826  87.1516782  99.5019201
   5.9419990  95.4506480 112.0923742   5.6420713  96.3531518 111.9839550
   5.5971049  95.1838663 112.9444895   9.3417134  87.9689020 109.7721180
   8.4334011  87.9004428 109.4779941   9.2904730  88.4460965 110.6003005
   3.1633878  89.4447158 101.4104579   3.0433503  89.8904209 102.2490059
   2.4686466  89.7932476 100.8518117  11.2078780  86.1705458 111.5499054
  10.5653160  86.4637991 110.9038848  10.7033709  86.0558378 112.3552250
   8.8618944  89.9168631 102.2384913   9.7736800  90.1496018 102.0632610
   8.3528591  90.5005676 101.6759991   3.4990782  89.2765866 113.2479762
   4.3451977  89.7005279 113.3914411   3.4389419  88.6199490 113.9418325
   7.4688526  94.8994450 109.6298494   6.8397389  95.0640164 108.9274562
   7.0814188  95.3136059 110.4009458  11.3477758  95.8348888 106.9842858
  10.6628796  96.2147789 106.4339891  11.4321607  96.4444214 107.7174806
   6.6490227  86.9370234 114.9060936   6.4051159  87.6912295 114.3695212
   6.9250157  87.3155582 115.7408183   8.6028690  93.4808847 113.5838202
   8.8145585  94.1240607 112.9072583   8.5558438  92.6471163 113.1160132
   6.2054919  86.0926667 110.4874774   5.3439398  86.3907921 110.7791511
   6.2317353  86.3097066 109.5555806   3.0216488  94.6368858 106.8948579
   3.4854834  94.9156561 106.1053202   2.7573286  93.7352302 106.7121670
   1.9585374  90.7592010 103.7038145   2.6609417  91.2113054 104.1712071
   1.6266003  90.1175829 104.3318038   9.7174518  96.3580802 111.7560559
  10.5391961  95.9560989 111.4743241   9.7136920  96.2549036 112.7076675
  17.8080511  92.7019551 108.1045530  17.0544219  92.1326949 107.9489535
  17.9428052  92.6682215 109.0516165   3.1979139  97.5732953 103.7800250
   3.0624813  98.4184489 104.2085098   3.7388951  97.7752230 103.0166184
   6.5471602  81.0963515 112.3099143   6.2035872  81.9865156 112.2338254
   6.9150565  80.9065172 111.4468728   6.5121885  91.0872126 100.8171578
   5.9968508  91.8576730 101.0559966   6.2399193  90.4137262 101.4404640
   4.0968996  85.9321827 105.8756817   3.2410592  85.5428677 105.6962455
   4.5095948  86.0113787 105.0156602   5.6268143  83.4668170 110.2748376
   5.1232938  83.4298305 109.4616182   5.9198750  84.3760913 110.3345033
   1.8711029  83.5506900 109.2814558   2.7364025  83.3549708 108.9220448
   1.9388537  83.3217251 110.2083915  11.4856159  93.8404480 102.7524752
  10.7085602  93.5015640 102.3079914  12.1647640  93.8457104 102.0779717
   6.3008188  88.9599218 102.6431359   5.9958324  89.2745367 103.4941503
   7.2538630  89.0380638 102.6858692   4.7454620  95.1189441 104.2924313
   4.2175982  94.3842201 103.9797551   4.2442123  95.8964118 104.0464282
   9.7247466  93.3138462 109.4091360   9.0671140  94.0037723 109.4971488
  10.5287865  93.7034894 109.7525346   8.5352925  91.6682834 107.4595302
   9.0484807  92.3012826 107.9617011   9.1854149  91.0684030 107.0938662
   1.7796015  82.6550356 105.3805994   1.1260428  82.3399374 104.7562609
   1.7376489  82.0326097 106.1065817   2.8907220  92.9369652  97.2959286
   1.9834282  92.7058905  97.4950435   3.3878252  92.1407271  97.4833268
   5.7975299 101.6467159 100.2155973   5.1236998 101.9498855 100.8240930
   6.1841121 102.4496239  99.8661430   5.0133756  89.1432290 109.7053642
   4.0956317  89.3647237 109.5475330   5.4293899  89.2178600 108.8465349
   5.7968803  90.5423706 104.8356322   6.5440622  91.0545103 104.5263444
   6.0660393  90.2207758 105.6960716   4.0695454  93.0382246 101.8183277
   3.1606673  92.7541279 101.9155746   4.0990537  93.4581325 100.9586583
   9.3014721  96.6488836 105.5874444   8.8477048  95.8079746 105.6439635
   8.6708688  97.2850234 105.9249224   8.2447641  87.5780822 106.8175112
   7.5070397  87.0658208 107.1485354   8.4974414  87.1381204 106.0058388
   7.7447660  98.4865333 106.5224262   8.0370635  99.0470390 105.8036628
   8.2546281  98.7793894 107.2777421   8.3459268  80.3557074 107.4116881
   8.6518145  79.4954437 107.1242796   9.0711873  80.9474694 107.2115875
   2.6180348  90.6510867 107.9193072   2.6728957  89.6984703 107.8435549
   1.8071550  90.8070306 108.4034370   3.7671541  94.5790990  99.1571355
   3.3290971  93.8626849  98.6976993   4.5081982  94.8067105  98.5956447
   2.7081285  99.2645684 107.6117715   2.6657464  99.4906530 106.6826248
   3.6243984  99.0309058 107.7603517   6.1546919  89.7329751 114.5098345
   6.5096307  89.9601224 115.3692810   6.8019050  90.0648128 113.8875600
  11.8844656  92.8548187 105.2147674  11.7462555  93.0449783 104.2868863
  11.5280875  93.6167570 105.6715725  11.9114036  94.9224714 110.2258945
  12.3450542  94.8300003 111.0741999  12.6245617  94.8982215 109.5878961
  12.7729585  94.9648415 112.7591831  12.9665475  95.8694225 113.0051106
  12.6730204  94.5055834 113.5930416   4.4265896  84.8506305 115.2582158
   3.7793811  85.5496255 115.1646634   5.1966912  85.2842449 115.6258406
   4.6030030  92.6887070 113.3178978   5.5322090  92.8398230 113.1447945
   4.1821060  92.7771091 112.4627624   3.9966514 101.8146831 102.4303052
   4.1718270 101.3434874 103.2448675   3.3099302 102.4412597 102.6584313
   4.9523577  96.0919337 108.4766353   4.6173410  96.0520107 109.3724003
   4.4527523  95.4264053 108.0036763   7.8882769  93.4375372  98.7503413
   7.2711940  92.7122200  98.6536465   7.4199257  94.1984732  98.4070487
   9.5454308  96.1113864 114.6423173   8.6581087  95.7739786 114.7649572
  10.1152859  95.3796895 114.8791938   2.8645241 100.0087086 105.1187238
   2.0812763 100.5508767 105.2125462   3.5637986 100.5261066 105.5181479
   6.1741891  85.8181716 107.7621443   6.6710591  85.0651678 107.4422513
   5.4028873  85.8546032 107.1964652  14.0271648  91.5222081 109.4039734
  14.0161525  92.4046797 109.0333668  13.1589028  91.1693632 109.2094271
   7.2571672  94.5753403 105.3359866   6.3227951  94.6954866 105.1664571
   7.4348340  93.6725870 105.0719876   2.7576860  87.9599099 107.4893128
   2.3874647  87.4070139 108.1774033   3.2535952  87.3557232 106.9368128
  10.6444223  90.4170722 105.8709900  11.1104675  91.2498714 105.7970203
  11.0951724  89.9515704 106.5755159   8.7120454  96.7614544 102.8696053
   8.9880298  96.6471138 103.7789927   7.8424953  96.3632028 102.8308226
   8.6160886  82.7851309 109.9100802   7.7023966  83.0155536 110.0783009
   9.0453987  82.8689753 110.7614834   8.3867344  90.9741201 112.4100696
   7.7338795  91.2217109 111.7553149   8.7647724  90.1605339 112.0763173
   5.3474518 101.0100894 106.5128866   5.5296913 100.1922550 106.9756618
   6.1707504 101.2268587 106.0753756   5.6816684  99.9369080 103.7743915
   6.2104450  99.4261534 103.1614077   5.9444903  99.6211610 104.6389448
   6.3146088 100.9709915 110.1188031   6.1897227 100.1699655 109.6098977
   6.9725179 101.4656109 109.6302001   8.3780996  98.7718935 111.7467581
   7.4311331  98.6524287 111.6745908   8.7263769  97.8841433 111.8293843
   0.7380569  84.6613074 115.5705823   1.2614971  84.9075371 116.3332132
   0.5192903  85.4933109 115.1508960   5.3827429  98.5671652 107.9471933
   5.2352392  97.6388359 108.1279503   6.2080923  98.5891742 107.4629009
   8.9861551  99.3900210 109.0336806   9.9108099  99.1843072 108.8961257
   8.8176854  99.1416612 109.9426148   1.9433114  85.6026769 113.2555494
   1.6029935  84.8034582 113.6576173   1.2372121  85.9028480 112.6832327
   2.5949586  82.6876082 111.7082817   3.4175655  82.2136560 111.5861707
   2.8387650  83.4666566 112.2081503   1.2357821  85.7164340 102.0045718
   1.9566183  86.0945593 101.5009435   0.6123125  86.4353217 102.1080696
   5.3788944  86.4209489 102.9404051   5.5952558  87.3034127 102.6392879
   4.8983011  86.0295703 102.2109693   1.9784548  86.3697750 109.5655685
   1.9646117  85.4738844 109.2287983   2.6956976  86.3768414 110.1993971
   3.8310679  86.8035091 111.6108812   3.5728456  87.7252161 111.6093143
   3.2995719  86.4065525 112.3009276   8.7756867  99.9085878 104.3898898
   8.9493745  99.3432300 103.6372750   9.2685759 100.7086773 104.2078388
   1.3821444  85.2512131 104.8343255   1.5037355  84.3228777 105.0334142
   1.0923486  85.2650817 103.9221570   4.2512634  82.9367041 107.9709975
   4.2734331  83.0006374 107.0161954   4.6680693  82.0971550 108.1650481
  14.6296258  92.6722301 106.0089197  15.0727404  91.9229626 105.6108321
  13.7522769  92.6632437 105.6262929   9.7632040  99.2252642 101.4895796
  10.4582944  99.8459335 101.7083111  10.1055190  98.3747993 101.7648174
  11.6623463  96.6752348 103.0183127  12.1874787  97.0139620 102.2932447
  11.5745815  95.7399363 102.8346261  11.4715244  94.1577718 115.6367053
  11.5213249  93.9927725 116.5782576  11.3629167  93.2904977 115.2464934
   8.7619006  90.1408646 116.9526360   9.6628869  90.0015111 116.6610358
   8.8366981  90.3063101 117.8924537  12.9733441  96.5774659 115.8809075
  12.6818249  96.9404640 116.7172536  12.3605572  95.8641668 115.7022407
  14.1729123  94.1427539 108.4011645  15.0076015  94.5817343 108.5649205
  14.3088252  93.6666192 107.5819891  11.2220629  91.7007274 114.3489133
  11.6974751  91.8934920 113.5407984  10.2986194  91.7566460 114.1032516
   5.8000846  83.7355117 113.3144967   6.3182789  84.4716144 112.9891455
   5.4455978  84.0419111 114.1491726   6.0513440  80.1555400 108.8345863
   6.3315194  79.4878589 109.4606290   6.8364047  80.3484496 108.3220527
   3.8546908  99.3314394 100.3970889   3.2820875  99.9504581  99.9441361
   4.4279702  99.8813756 100.9310811   9.9222298  88.5773034 112.5817438
  10.8739721  88.6771132 112.6029662   9.7525748  87.7851303 113.0915523
   7.9436678  85.6628617 112.7676839   7.3486610  85.9433630 112.0723328
   7.6586374  86.1522518 113.5393580   7.0744168  99.6151544 101.5279472
   8.0074841  99.5497106 101.7312347   6.9867381 100.4507811 101.0694004
   9.7032185  98.9317414  98.4883419   9.6245816  98.5977278  99.3819177
  10.5241851  99.4239182  98.4874892  12.4010376  91.7979154 111.6959738
  12.3686696  90.8595154 111.8819422  13.0111000  91.8763190 110.9625563
   4.2393707  90.6675207  97.7386942   5.1852811  90.5381415  97.8075360
   3.8607952  89.9289869  98.2156370  12.5504864  88.5890197 111.7418021
  12.0343913  87.8048654 111.5547950  13.4344813  88.2608914 111.9064541
  10.2115591  82.3331213 107.7013834  10.0140412  82.0246301 108.5857166
  10.8215297  83.0592852 107.8311764  18.2186926  92.8595161 110.8365775
  18.9490314  92.5980449 111.3973478  17.6093871  92.1223882 110.8767843
  16.3002223  91.0003023 111.4340226  15.5735386  90.8658988 110.8256718
  15.8849510  91.3079852 112.2396944   2.4236624  88.5925183  97.6741827
   1.5168079  88.2958296  97.7504541   2.7012605  88.2955001  96.8076113
   4.0398690  83.1362073 103.8286068   3.2299418  82.7909158 104.2041315
   4.7283107  82.8269616 104.4173680   5.9689238  82.2140120 105.4510365
   6.5220277  82.6335573 106.1100388   6.2059324  81.2875868 105.4933321
   1.1935409  85.4512118  97.8153806   2.0554573  85.7767017  98.0749624
   1.3785753  84.6643614  97.3026872   9.3468045  84.3240645 104.9589029
   8.7666714  84.9825449 104.5767082   9.0803978  83.5017989 104.5476447
   7.7971611  83.7245702 107.1610350   8.2971390  83.8362237 106.3524669
   8.4407219  83.4206755 107.8011158   8.1292923  86.4840735 104.0145378
   7.2418778  86.7690386 103.7965572   8.5446912  86.3234498 103.1672655
  11.4807459  86.5087256 107.7299717  12.2567849  86.9983709 108.0024334
  10.7555593  86.9345310 108.1871586  13.9180018  87.2214875 108.7873658
  14.5124509  86.9810611 108.0766966  13.9906601  86.5022006 109.4147194
   7.2736136  96.2485410  98.1093398   7.9771987  96.4535412  98.7251053
   6.5498785  96.8162172  98.3742481   8.1033947  91.9995271 104.2295668
   8.0469148  92.4563822 103.3903300   8.6562289  91.2385956 104.0518511
  11.9138753  87.7885003 105.0545787  11.6575687  87.3881639 105.8853995
  11.2891621  88.5028797 104.9295926  16.2251091  90.5281076 107.5617079
  15.6650648  90.5974265 108.3348641  15.6194594  90.3522061 106.8416575
   9.1822834  96.6867939 100.1591858  10.0168438  96.2549137  99.9769332
   9.0207177  96.5149953 101.0868752   8.8368726  93.1900052 101.5248197
   8.7817530  93.0244324 100.5836641   8.2114781  93.8976085 101.6810387
   2.1464852  82.6908161 101.1033515   2.1343521  83.6350001 101.2601786
   3.0388273  82.5078307 100.8092977   5.9616971  79.2850938 105.3579452
   5.1949367  78.7309425 105.5036135   6.3727676  79.3572807 106.2193604
  17.8107109 107.2037590 110.2547034  18.4485519 107.0844337 109.5510374
  17.6927952 108.1518434 110.3134987  14.6196815 107.1565018 110.1908559
  14.2815327 107.0406083 109.3029094  15.4886583 106.7556183 110.1709565
  10.4783631 109.0100495 106.1805450   9.9148496 108.9190432 105.4121738
  10.3636026 108.1900399 106.6607943  16.0583190 112.6771462 101.4919915
  15.4071169 113.2625543 101.1053929  16.8527552 113.2077657 101.5514952
   9.9838817 109.7660599 101.8907049  10.7569693 109.2189587 101.7519925
  10.3364216 110.6304849 102.1021511  12.7480066 108.4713830 111.6875308
  13.3443638 108.2469853 110.9732271  12.8055038 107.7298576 112.2900756
  12.3205095 105.9253266  99.5225499  12.5730615 105.4034787  98.7608962
  11.3829654 105.7619411  99.6252183  17.3648377 104.9289044 107.3300242
  18.1511467 104.5108467 106.9790659  17.6287082 105.8335136 107.4981891
  17.5358455 110.3661894 102.0288899  16.9004288 110.4396521 102.7409804
  17.2055861 110.9555493 101.3507979  22.7656805 104.8664277 108.2333221
  23.4981977 104.2963494 108.4671050  22.0096160 104.4785878 108.6739727
  12.0401383 107.8281372 101.7249874  11.9237641 107.1526275 102.3930959
  12.1503643 107.3413745 100.9082027  14.3832924 107.2891519 105.4296563
  14.0191132 106.7622140 106.1409485  15.2400040 106.8989988 105.2563049
  20.2882225  98.5785851 112.6927830  19.9565550  99.4481262 112.4689045
  19.6927838  98.2622135 113.3721860  14.0238411 102.3181418 100.4257912
  14.1912814 103.1861655 100.7928383  13.8335580 102.4808700  99.5019201
  16.7813744 110.7798397 112.0923742  16.4814468 111.6823436 111.9839550
  16.4364804 110.5130580 112.9444895  10.2326226 107.2312194 108.1260447
   9.3076722 107.0988408 108.3338139  10.4810639 108.0106413 108.6230389
  20.1810888 103.2980937 109.7721180  19.2727766 103.2296346 109.4779941
  20.1298484 103.7752882 110.6003005  14.0027632 104.7739076 101.4104579
  13.8827257 105.2196127 102.2490059  13.3080221 105.1224393 100.8518117
  11.7634524 117.5442718 105.0594710  11.6858554 118.4950543 105.1383191
  11.1596168 117.1988590 105.7169636  22.0472535 101.4997376 111.5499054
  21.4046915 101.7929909 110.9038848  21.5427463 101.3850296 112.3552250
  19.7012698 105.2460549 102.2384913  20.6130554 105.4787936 102.0632610
  19.1922345 105.8297593 101.6759991  14.3384536 104.6057784 113.2479762
  15.1845731 105.0297197 113.3914411  14.2783174 103.9491408 113.9418325
  18.3082281 110.2286367 109.6298494  17.6791143 110.3932082 108.9274562
  17.9207943 110.6427977 110.4009458  22.1871513 111.1640805 106.9842858
  21.5022551 111.5439707 106.4339891  22.2715362 111.7736132 107.7174806
  17.4883981 102.2662152 114.9060936  17.2444913 103.0204212 114.3695212
  17.7643912 102.6447500 115.7408183  19.4422444 108.8100764 113.5838202
  19.6539339 109.4532524 112.9072583  19.3952192 107.9763081 113.1160132
  17.0448673 101.4218585 110.4874774  16.1833152 101.7199839 110.7791511
  17.0711108 101.6388984 109.5555806  13.8610243 109.9660776 106.8948579
  14.3248588 110.2448479 106.1053202  13.5967041 109.0644220 106.7121670
  10.7534324 109.5132257 109.8328343  11.3235681 109.9419525 109.1945827
  11.3442435 109.2314842 110.5312528  12.7979129 106.0883928 103.7038145
  13.5003172 106.5404972 104.1712071  12.4659757 105.4467747 104.3318038
   6.5404463 104.3467481 109.0055278   5.7503517 104.6025009 108.5295389
   7.0315710 105.1615818 109.1107319  20.5568272 111.6872720 111.7560559
  21.3785716 111.2852907 111.4743241  20.5530675 111.5840954 112.7076675
   8.4919208 104.7112060 105.9638755   7.6950371 104.8230754 106.4822250
   8.2644800 105.0498712 105.0979645  28.6474265 108.0311468 108.1045530
  27.8937974 107.4618866 107.9489535  28.7821806 107.9974133 109.0516165
  14.0372893 112.9024871 103.7800250  13.9018568 113.7476406 104.2085098
  14.5782706 113.1044148 103.0166184   7.4902291 110.4200309 104.3528175
   8.0026811 111.2143559 104.5033740   8.1425003 109.7226599 104.2861776
  17.3865357  96.4255432 112.3099143  17.0429626  97.3157074 112.2338254
  17.7544319  96.2357090 111.4468728   5.4551207 108.7488963 105.1287745
   6.2926429 109.1585971 104.9121453   5.6329475 107.8088405 105.0987939
  17.3515639 106.4164044 100.8171578  16.8362263 107.1868648 101.0559966
  17.0792948 105.7429180 101.4404640  14.9362751 101.2613744 105.8756817
  14.0804347 100.8720595 105.6962455  15.3489702 101.3405705 105.0156602
  16.4661897  98.7960088 110.2748376  15.9626693  98.7590223 109.4616182
  16.7592504  99.7052830 110.3345033  12.7104783  98.8798817 109.2814558
  13.5757780  98.6841626 108.9220448  12.7782292  98.6509169 110.2083915
  22.3249914 109.1696398 102.7524752  21.5479356 108.8307558 102.3079914
  23.0041395 109.1749021 102.0779717  17.1401943 104.2891136 102.6431359
  16.8352078 104.6037285 103.4941503  18.0932385 104.3672555 102.6858692
  15.5848374 110.4481359 104.2924313  15.0569736 109.7134119 103.9797551
  15.0835877 111.2256035 104.0464282  20.5641221 108.6430379 109.4091360
  19.9064895 109.3329641 109.4971488  21.3681620 109.0326811 109.7525346
  10.3167102 101.1101025 106.6530925  10.8910854 100.8876207 105.9204118
  10.9038085 101.1789720 107.4059526  19.3746679 106.9974752 107.4595302
  19.8878561 107.6304744 107.9617011  20.0247903 106.3975948 107.0938662
  10.6436689 103.1405486 100.6726810   9.8074001 103.4780173 100.9936085
  10.5041459 103.0054466  99.7353947  12.6189770  97.9842274 105.3805994
  11.9654182  97.6691291 104.7562609  12.5770244  97.3618015 106.1065817
  13.7300975 108.2661569  97.2959286  12.8228036 108.0350823  97.4950435
  14.2272007 107.4699188  97.4833268  16.6369054 116.9759076 100.2155973
  15.9630752 117.2790773 100.8240930  17.0234876 117.7788157  99.8661430
  15.8527510 104.4724208 109.7053642  14.9350072 104.6939155 109.5475330
  16.2687654 104.5470518 108.8465349  16.6362558 105.8715623 104.8356322
  17.3834377 106.3837021 104.5263444  16.9054147 105.5499676 105.6960716
  14.9089208 108.3674164 101.8183277  14.0000427 108.0833197 101.9155746
  14.9384292 108.7873243 100.9586583  20.1408476 111.9780754 105.5874444
  19.6870803 111.1371663 105.6439635  19.5102442 112.6142152 105.9249224
  19.0841395 102.9072740 106.8175112  18.3464152 102.3950126 107.1485354
  19.3368169 102.4673121 106.0058388  18.5841415 113.8157250 106.5224262
  18.8764389 114.3762307 105.8036628  19.0940035 114.1085811 107.2777421
  19.1853022  95.6848992 107.4116881  19.4911899  94.8246355 107.1242796
  19.9105627  96.2766612 107.2115875   5.4777378 106.0879678 105.7998479
   5.2801778 105.4949039 105.0749545   4.9224042 105.7831888 106.5174418
  13.4574102 105.9802785 107.9193072  13.5122712 105.0276621 107.8435549
  12.6465304 106.1362224 108.4034370  14.6065296 109.9082908  99.1571355
  14.1684726 109.1918767  98.6976993  15.3475737 110.1359023  98.5956447
  11.3966462 104.5979844 105.6783451  10.5834328 104.8974015 106.0848643
  11.8925456 104.2035533 106.3957933  13.5475040 114.5937601 107.6117715
  13.5051219 114.8198448 106.6826248  14.4637739 114.3600976 107.7603517
  16.9940674 105.0621669 114.5098345  17.3490061 105.2893142 115.3692810
  17.6412805 105.3940046 113.8875600  22.7238411 108.1840105 105.2147674
  22.5856309 108.3741701 104.2868863  22.3674630 108.9459488 105.6715725
  10.8880537 102.1698200 111.2944686  11.5279916 102.0286959 110.5967649
  10.0558067 101.8832713 110.9183288  22.7507790 110.2516632 110.2258945
  23.1844297 110.1591921 111.0741999  23.4639371 110.2274132 109.5878961
  11.6640841 111.4700630 107.4079678  12.4581439 110.9750950 107.2062253
  10.9532533 110.9418493 107.0447384   7.9723604 105.6143712 103.4839431
   7.0421192 105.5528168 103.7009393   8.0681076 105.0919665 102.6876072
   7.8909153 102.1398525 106.0717673   8.1515971 103.0543858 105.9626833
   8.7126326 101.6722967 106.2214285  23.6123340 110.2940332 112.7591831
  23.8059230 111.1986143 113.0051106  23.5123958 109.8347751 113.5930416
  15.2659651 100.1798223 115.2582158  14.6187566 100.8788173 115.1646634
  16.0360666 100.6134367 115.6258406  15.4423785 108.0178988 113.3178978
  16.3715845 108.1690148 113.1447945  15.0214815 108.1063009 112.4627624
  14.8360269 117.1438749 102.4303052  15.0112024 116.6726792 103.2448675
  14.1493057 117.7704515 102.6584313  15.7917332 111.4211255 108.4766353
  15.4567164 111.3812025 109.3724003  15.2921278 110.7555971 108.0036763
  18.7276524 108.7667289  98.7503413  18.1105694 108.0414118  98.6536465
  18.2593012 109.5276650  98.4070487  10.5175069 102.9852714  97.8724717
   9.6404536 102.8641514  97.5086964  10.9932822 102.1938792  97.6203606
  20.3848062 111.4405782 114.6423173  19.4974841 111.1031703 114.7649572
  20.9546614 110.7088813 114.8791938  13.7038995 115.3379004 105.1187238
  12.9206517 115.8800684 105.2125462  14.4031741 115.8552984 105.5181479
  17.0135646 101.1473633 107.7621443  17.5104345 100.3943596 107.4422513
  16.2422627 101.1837950 107.1964652  24.8665403 106.8513999 109.4039734
  24.8555279 107.7338714 109.0333668  23.9982782 106.4985550 109.2094271
  18.0965426 109.9045321 105.3359866  17.1621705 110.0246783 105.1664571
  18.2742095 109.0017787 105.0719876  13.5970614 103.2891016 107.4893128
  13.2268402 102.7362057 108.1774033  14.0929707 102.6849150 106.9368128
  21.4837978 105.7462640 105.8709900  21.9498430 106.5790632 105.7970203
  21.9345478 105.2807622 106.5755159  19.5514209 112.0906461 102.8696053
  19.8274053 111.9763056 103.7789927  18.6818707 111.6923946 102.8308226
  19.4554640  98.1143227 109.9100802  18.5417720  98.3447454 110.0783009
  19.8847742  98.1981671 110.7614834  19.2261099 106.3033119 112.4100696
  18.5732549 106.5509026 111.7553149  19.6041479 105.4897257 112.0763173
  16.1868273 116.3392812 106.5128866  16.3690667 115.5214468 106.9756618
  17.0101259 116.5560504 106.0753756  16.5210438 115.2660997 103.7743915
  17.0498205 114.7553452 103.1614077  16.7838658 114.9503527 104.6389448
   8.9935948 100.6995007 113.7346234   9.0577274 101.5609838 113.3223631
   8.9303068 100.0869009 113.0018592   5.2453763 104.5794569 103.3137623
   5.5407204 103.6705247 103.2604676   4.3441799 104.5582308 102.9918625
  17.1539842 116.3001833 110.1188031  17.0290981 115.4991573 109.6098977
  17.8118933 116.7948026 109.6302001   8.7748010 102.6550565 109.2965171
   8.0534596 103.2686533 109.1572645   9.5641266 103.1908330 109.2181817
  19.2174750 114.1010853 111.7467581  18.2705086 113.9816204 111.6745908
  19.5657524 113.2133351 111.8293843  11.5774324  99.9904992 115.5705823
  12.1008726 100.2367289 116.3332132  11.3586657 100.8225027 115.1508960
   6.9741605 102.2608667 103.4376948   6.6454311 101.3806045 103.2552054
   7.3280976 102.2056335 104.3253337  16.2221184 113.8963569 107.9471933
  16.0746146 112.9680277 108.1279503  17.0474677 113.9183660 107.4629009
  10.0883428 102.5481636 103.8052426  10.4279501 103.0767558 103.0831034
  10.5355548 102.8862042 104.5810992  19.8255306 114.7192128 109.0336806
  20.7501853 114.5134989 108.8961257  19.6570609 114.4708529 109.9426148
  12.7826869 100.9318687 113.2555494  12.4423689 100.1326500 113.6576173
  12.0765875 101.2320398 112.6832327  13.4343341  98.0168000 111.7082817
  14.2569410  97.5428478 111.5861707  13.6781404  98.7958483 112.2081503
  12.0751575 101.0456258 102.0045718  12.7959938 101.4237511 101.5009435
  11.4516879 101.7645135 102.1080696  16.2182698 101.7501407 102.9404051
  16.4346312 102.6326045 102.6392879  15.7376765 101.3587620 102.2109693
  10.9581919 104.7087120 109.5174795  10.8126500 105.0227423 110.4099077
  10.4807123 105.3272020 108.9645694  12.8178302 101.6989668 109.5655685
  12.8039871 100.8030761 109.2287983  13.5350730 101.7060332 110.1993971
  14.6704433 102.1327008 111.6108812  14.4122211 103.0544079 111.6093143
  14.1389473 101.7357443 112.3009276  19.6150622 115.2377795 104.3898898
  19.7887499 114.6724218 103.6372750  20.1079513 116.0378690 104.2078388
  12.2215198 100.5804048 104.8343255  12.3431109  99.6520695 105.0334142
  11.9317241 100.5942734 103.9221570  15.0906389  98.2658959 107.9709975
  15.1128085  98.3298292 107.0161954  15.5074448  97.4263468 108.1650481
  25.4690013 108.0014218 106.0089197  25.9121159 107.2521544 105.6108321
  24.5916523 107.9924355 105.6262929  20.6025794 114.5544560 101.4895796
  21.2976699 115.1751253 101.7083111  20.9448944 113.7039911 101.7648174
  22.5017217 112.0044265 103.0183127  23.0268541 112.3431538 102.2932447
  22.4139570 111.0691281 102.8346261  22.3108999 109.4869635 115.6367053
  22.3607003 109.3219643 116.5782576  22.2022922 108.6196894 115.2464934
  11.1945257 112.1658181 102.9259142  11.3433378 112.8493645 102.2725815
  12.0011701 112.1463271 103.4408598  19.6012761 105.4700563 116.9526360
  20.5022624 105.3307028 116.6610358  19.6760735 105.6355018 117.8924537
  23.8127195 111.9066577 115.8809075  23.5212004 112.2696557 116.7172536
  23.1999327 111.1933585 115.7022407  25.0122878 109.4719457 108.4011645
  25.8469769 109.9109261 108.5649205  25.1482006 108.9958110 107.5819891
  22.0614384 107.0299192 114.3489133  22.5368505 107.2226838 113.5407984
  21.1379949 107.0858377 114.1032516   8.9497890 108.1923359 103.9320211
   8.7043932 107.2885689 104.1300421   9.1193805 108.1940509 102.9899689
  16.6394600  99.0647035 113.3144967  17.1576544  99.8008062 112.9891455
  16.2849733  99.3711028 114.1491726   8.2193538 103.9251716 101.4306372
   7.5262783 103.9996071 100.7746408   7.9745290 103.1612060 101.9527889
  16.8907194  95.4847318 108.8345863  17.1708948  94.8170507 109.4606290
  17.6757801  95.6776413 108.3220527  14.6940663 114.6606312 100.3970889
  14.1214630 115.2796499  99.9441361  15.2673456 115.2105673 100.9310811
  20.7616053 103.9064952 112.5817438  21.7133475 104.0063049 112.6029662
  20.5919503 103.1143220 113.0915523  18.7830432 100.9920535 112.7676839
  18.1880364 101.2725548 112.0723328  18.4980129 101.4814436 113.5393580
  17.9137923 114.9443462 101.5279472  18.8468596 114.8789023 101.7312347
  17.8261135 115.7799729 101.0694004  20.5425939 114.2609332  98.4883419
  20.4639571 113.9269196  99.3819177  21.3635606 114.7531100  98.4874892
  23.2404130 107.1271071 111.6959738  23.2080450 106.1887072 111.8819422
  23.8504754 107.2055108 110.9625563  15.0787461 105.9967124  97.7386942
  16.0246566 105.8673332  97.8075360  14.7001706 105.2581786  98.2156370
  23.3898619 103.9182115 111.7418021  22.8737667 103.1340571 111.5547950
  24.2738567 103.5900831 111.9064541  21.0509346  97.6623130 107.7013834
  20.8534167  97.3538219 108.5857166  21.6609051  98.3884769 107.8311764
  29.0580680 108.1887078 110.8365775  29.7884069 107.9272366 111.3973478
  28.4487626 107.4515800 110.8767843  27.1395977 106.3294941 111.4340226
  26.4129141 106.1950906 110.8256718  26.7243264 106.6371769 112.2396944
  13.2630378 103.9217101  97.6741827  12.3561834 103.6250213  97.7504541
  13.5406359 103.6246919  96.8076113  14.8792444  98.4653990 103.8286068
  14.0693172  98.1201075 104.2041315  15.5676861  98.1561534 104.4173680
  16.8082992  97.5432037 105.4510365  17.3614031  97.9627491 106.1100388
  17.0453079  96.6167785 105.4933321  12.0329163 100.7804036  97.8153806
  12.8948327 101.1058934  98.0749624  12.2179507  99.9935532  97.3026872
  20.1861799  99.6532562 104.9589029  19.6060469 100.3117366 104.5767082
  19.9197732  98.8309907 104.5476447  18.6365366  99.0537620 107.1610350
  19.1365144  99.1654155 106.3524669  19.2800974  98.7498673 107.8011158
  18.9686677 101.8132653 104.0145378  18.0812533 102.0982303 103.7965572
  19.3840667 101.6526416 103.1672655  22.3201214 101.8379174 107.7299717
  23.0961604 102.3275626 108.0024334  21.5949348 102.2637228 108.1871586
  24.7573772 102.5506793 108.7873658  25.3518263 102.3102529 108.0766966
  24.8300356 101.8313924 109.4147194  18.1129891 111.5777327  98.1093398
  18.8165741 111.7827330  98.7251053  17.3892540 112.1454089  98.3742481
  18.9427701 107.3287189 104.2295668  18.8862903 107.7855740 103.3903300
  19.4956044 106.5677873 104.0518511  22.7532507 103.1176921 105.0545787
  22.4969441 102.7173556 105.8853995  22.1285375 103.8320714 104.9295926
  27.0644845 105.8572994 107.5617079  26.5044403 105.9266183 108.3348641
  26.4588348 105.6813978 106.8416575  20.0216588 112.0159857 100.1591858
  20.8562192 111.5841055  99.9769332  19.8600931 111.8441870 101.0868752
  19.6762481 108.5191970 101.5248197  19.6211284 108.3536241 100.5836641
  19.0508536 109.2268003 101.6810387  12.9858606  98.0200079 101.1033515
  12.9737276  98.9641919 101.2601786  13.8782028  97.8370224 100.8092977
  16.8010725  94.6142856 105.3579452  16.0343121  94.0601342 105.5036135
  17.2121430  94.6864724 106.2193604  28.6500863 122.5329508 110.2547034
  29.2879273 122.4136255 109.5510374  28.5321706 123.4810352 110.3134987
  25.4590570 122.4856936 110.1908559  25.1209081 122.3698001 109.3029094
  26.3280338 122.0848101 110.1709565  21.3177385 124.3392412 106.1805450
  20.7542251 124.2482349 105.4121738  21.2029780 123.5192317 106.6607943
  23.5873821 123.8005748 111.6875308  24.1837393 123.5761770 110.9732271
  23.6448792 123.0590493 112.2900756  23.1598849 121.2545183  99.5225499
  23.4124370 120.7326705  98.7608962  22.2223408 121.0911329  99.6252183
  28.2042132 120.2580962 107.3300242  28.9905221 119.8400385 106.9790659
  28.4680836 121.1627054 107.4981891  28.3752209 125.6953812 102.0288899
  27.7398042 125.7688438 102.7409804  28.0449616 126.2847411 101.3507979
  33.6050559 120.1956195 108.2333221  34.3375731 119.6255412 108.4671050
  32.8489915 119.8077795 108.6739727  22.8795138 123.1573289 101.7249874
  22.7631396 122.4818193 102.3930959  22.9897398 122.6705663 100.9082027
  25.2226679 122.6183436 105.4296563  24.8584886 122.0914057 106.1409485
  26.0793795 122.2281905 105.2563049  31.1275979 113.9077769 112.6927830
  30.7959304 114.7773180 112.4689045  30.5321593 113.5914053 113.3721860
  24.8632166 117.6473336 100.4257912  25.0306568 118.5153572 100.7928383
  24.6729335 117.8100618  99.5019201  27.6207499 126.1090315 112.0923742
  27.3208222 127.0115354 111.9839550  27.2758558 125.8422498 112.9444895
  21.0719980 122.5604112 108.1260447  20.1470477 122.4280326 108.3338139
  21.3204394 123.3398331 108.6230389  31.0204643 118.6272855 109.7721180
  30.1121520 118.5588264 109.4779941  30.9692239 119.1044800 110.6003005
  24.8421387 120.1030993 101.4104579  24.7221012 120.5488044 102.2490059
  24.1473975 120.4516311 100.8518117  32.8866289 116.8289293 111.5499054
  32.2440669 117.1221827 110.9038848  32.3821218 116.7142214 112.3552250
  30.5406453 120.5752467 102.2384913  31.4524309 120.8079853 102.0632610
  30.0316100 121.1589511 101.6759991  25.1778291 119.9349701 113.2479762
  26.0239486 120.3589115 113.3914411  25.1176928 119.2783326 113.9418325
  29.1476035 125.5578285 109.6298494  28.5184898 125.7223999 108.9274562
  28.7601697 125.9719895 110.4009458  33.0265267 126.4932723 106.9842858
  32.3416305 126.8731624 106.4339891  33.1109116 127.1028050 107.7174806
  28.3277736 117.5954070 114.9060936  28.0838668 118.3496130 114.3695212
  28.6037666 117.9739417 115.7408183  30.2816199 124.1392682 113.5838202
  30.4933094 124.7824442 112.9072583  30.2345947 123.3054999 113.1160132
  27.8842428 116.7510503 110.4874774  27.0226907 117.0491756 110.7791511
  27.9104862 116.9680902 109.5555806  24.7003997 125.2952693 106.8948579
  25.1642343 125.5740396 106.1053202  24.4360795 124.3936138 106.7121670
  23.6372883 121.4175846 103.7038145  24.3396926 121.8696889 104.1712071
  23.3053512 120.7759664 104.3318038  17.3798217 119.6759398 109.0055278
  16.5897271 119.9316927 108.5295389  17.8709464 120.4907736 109.1107319
  31.3962027 127.0164637 111.7560559  32.2179470 126.6144825 111.4743241
  31.3924429 126.9132872 112.7076675  19.3312962 120.0403977 105.9638755
  18.5344126 120.1522672 106.4822250  19.1038555 120.3790630 105.0979645
  39.4868020 123.3603386 108.1045530  38.7331728 122.7910784 107.9489535
  39.6215561 123.3266050 109.0516165  28.2259111 111.7547350 112.3099143
  27.8823381 112.6448992 112.2338254  28.5938074 111.5649008 111.4468728
  28.1909394 121.7455961 100.8171578  27.6756017 122.5160566 101.0559966
  27.9186702 121.0721097 101.4404640  25.7756505 116.5905662 105.8756817
  24.9198101 116.2012512 105.6962455  26.1883457 116.6697623 105.0156602
  27.3055652 114.1252005 110.2748376  26.8020447 114.0882140 109.4616182
  27.5986258 115.0344748 110.3345033  23.5498538 114.2090735 109.2814558
  24.4151534 114.0133544 108.9220448  23.6176046 113.9801087 110.2083915
  33.1643668 124.4988316 102.7524752  32.3873111 124.1599475 102.3079914
  33.8435149 124.5040939 102.0779717  27.9795697 119.6183053 102.6431359
  27.6745833 119.9329202 103.4941503  28.9326139 119.6964473 102.6858692
  31.4034975 123.9722297 109.4091360  30.7458649 124.6621558 109.4971488
  32.2075374 124.3618729 109.7525346  21.1560857 116.4392943 106.6530925
  21.7304608 116.2168124 105.9204118  21.7431839 116.5081637 107.4059526
  30.2140434 122.3266670 107.4595302  30.7272316 122.9596662 107.9617011
  30.8641658 121.7267865 107.0938662  21.4830444 118.4697404 100.6726810
  20.6467756 118.8072090 100.9936085  21.3435213 118.3346384  99.7353947
  23.4583524 113.3134192 105.3805994  22.8047937 112.9983209 104.7562609
  23.4163998 112.6909932 106.1065817  24.5694729 123.5953487  97.2959286
  23.6621791 123.3642740  97.4950435  25.0665761 122.7991106  97.4833268
  26.6921265 119.8016125 109.7053642  25.7743826 120.0231072 109.5475330
  27.1081408 119.8762436 108.8465349  27.4756312 121.2007541 104.8356322
  28.2228131 121.7128938 104.5263444  27.7447902 120.8791594 105.6960716
  25.7482963 123.6966082 101.8183277  24.8394182 123.4125115 101.9155746
  25.7778046 124.1165160 100.9586583  30.9802230 127.3072671 105.5874444
  30.5264557 126.4663581 105.6439635  30.3496197 127.9434070 105.9249224
  29.9235150 118.2364657 106.8175112  29.1857906 117.7242043 107.1485354
  30.1761923 117.7965039 106.0058388  30.0246777 111.0140909 107.4116881
  30.3305654 110.1538273 107.1242796  30.7499382 111.6058529 107.2115875
  16.3171133 121.4171596 105.7998479  16.1195533 120.8240957 105.0749545
  15.7617797 121.1123806 106.5174418  24.2967857 121.3094702 107.9193072
  24.3516466 120.3568539 107.8435549  23.4859059 121.4654141 108.4034370
  25.4459050 125.2374825  99.1571355  25.0078480 124.5210684  98.6976993
  26.1869491 125.4650940  98.5956447  22.2360217 119.9271762 105.6783451
  21.4228082 120.2265933 106.0848643  22.7319211 119.5327451 106.3957933
  27.8334428 120.3913587 114.5098345  28.1883816 120.6185060 115.3692810
  28.4806559 120.7231963 113.8875600  33.5632165 123.5132022 105.2147674
  33.4250064 123.7033618 104.2868863  33.2068384 124.2751405 105.6715725
  21.7274291 117.4990118 111.2944686  22.3673671 117.3578877 110.5967649
  20.8951822 117.2124631 110.9183288  33.5901545 125.5808549 110.2258945
  34.0238051 125.4883839 111.0741999  34.3033125 125.5566050 109.5878961
  18.8117359 120.9435630 103.4839431  17.8814947 120.8820085 103.7009393
  18.9074831 120.4211583 102.6876072  18.7302908 117.4690443 106.0717673
  18.9909725 118.3835776 105.9626833  19.5520080 117.0014885 106.2214285
  34.4517094 125.6232250 112.7591831  34.6452984 126.5278061 113.0051106
  34.3517713 125.1639669 113.5930416  26.1053405 115.5090141 115.2582158
  25.4581320 116.2080090 115.1646634  26.8754420 115.9426285 115.6258406
  26.2817539 123.3470906 113.3178978  27.2109599 123.4982065 113.1447945
  25.8608569 123.4354926 112.4627624  29.5670278 124.0959207  98.7503413
  28.9499449 123.3706035  98.6536465  29.0986766 124.8568567  98.4070487
  21.3568824 118.3144631  97.8724717  20.4798290 118.1933432  97.5086964
  21.8326577 117.5230710  97.6203606  31.2241817 126.7697699 114.6423173
  30.3368596 126.4323621 114.7649572  31.7940368 126.0380731 114.8791938
  27.8529400 116.4765551 107.7621443  28.3498100 115.7235513 107.4422513
  27.0816382 116.5129868 107.1964652  35.7059157 122.1805917 109.4039734
  35.6949034 123.0630632 109.0333668  34.8376537 121.8277468 109.2094271
  28.9359181 125.2337238 105.3359866  28.0015459 125.3538701 105.1664571
  29.1135849 124.3309705 105.0719876  24.4364369 118.6182934 107.4893128
  24.0662156 118.0653975 108.1774033  24.9323461 118.0141068 106.9368128
  32.3231732 121.0754558 105.8709900  32.7892184 121.9082549 105.7970203
  32.7739233 120.6099539 106.5755159  30.3907963 127.4198379 102.8696053
  30.6667807 127.3054974 103.7789927  29.5212462 127.0215864 102.8308226
  30.2948395 113.4435145 109.9100802  29.3811475 113.6739372 110.0783009
  30.7241496 113.5273589 110.7614834  30.0654853 121.6325037 112.4100696
  29.4126304 121.8800944 111.7553149  30.4435233 120.8189175 112.0763173
  19.8329702 116.0286925 113.7346234  19.8971029 116.8901756 113.3223631
  19.7696823 115.4160927 113.0018592  16.0847518 119.9086487 103.3137623
  16.3800959 118.9997165 103.2604676  15.1835554 119.8874226 102.9918625
  19.6141765 117.9842483 109.2965171  18.8928351 118.5978451 109.1572645
  20.4035021 118.5200248 109.2181817  22.4168078 115.3196910 115.5705823
  22.9402480 115.5659206 116.3332132  22.1980412 116.1516944 115.1508960
  17.8135359 117.5900584 103.4376948  17.4848066 116.7097963 103.2552054
  18.1674730 117.5348253 104.3253337  20.9277183 117.8773554 103.8052426
  21.2673255 118.4059475 103.0831034  21.3749303 118.2153960 104.5810992
  23.6220623 116.2610605 113.2555494  23.2817444 115.4618418 113.6576173
  22.9159630 116.5612316 112.6832327  24.2737095 113.3459917 111.7082817
  25.0963164 112.8720395 111.5861707  24.5175159 114.1250401 112.2081503
  22.9145330 116.3748176 102.0045718  23.6353692 116.7529428 101.5009435
  22.2910634 117.0937052 102.1080696  27.0576453 117.0793325 102.9404051
  27.2740067 117.9617962 102.6392879  26.5770520 116.6879538 102.2109693
  21.7975674 120.0379038 109.5174795  21.6520255 120.3519341 110.4099077
  21.3200878 120.6563938 108.9645694  23.6572057 117.0281586 109.5655685
  23.6433626 116.1322679 109.2287983  24.3744485 117.0352250 110.1993971
  25.5098188 117.4618926 111.6108812  25.2515965 118.3835997 111.6093143
  24.9783228 117.0649361 112.3009276  23.0608953 115.9095966 104.8343255
  23.1824864 114.9812612 105.0334142  22.7710995 115.9234652 103.9221570
  25.9300143 113.5950877 107.9709975  25.9521840 113.6590210 107.0161954
  26.3468202 112.7555385 108.1650481  36.3083767 123.3306136 106.0089197
  36.7514913 122.5813461 105.6108321  35.4310278 123.3216272 105.6262929
  33.3410972 127.3336183 103.0183127  33.8662296 127.6723456 102.2932447
  33.2533324 126.3983198 102.8346261  33.1502753 124.8161553 115.6367053
  33.2000758 124.6511561 116.5782576  33.0416676 123.9488812 115.2464934
  30.4406515 120.7992481 116.9526360  31.3416378 120.6598946 116.6610358
  30.5154490 120.9646936 117.8924537  34.6520950 127.2358495 115.8809075
  34.3605758 127.5988475 116.7172536  34.0393081 126.5225503 115.7022407
  35.8516632 124.8011374 108.4011645  36.6863524 125.2401178 108.5649205
  35.9875761 124.3250028 107.5819891  32.9008138 122.3591109 114.3489133
  33.3762260 122.5518756 113.5407984  31.9773703 122.4150295 114.1032516
  19.7891645 123.5215276 103.9320211  19.5437687 122.6177606 104.1300421
  19.9587559 123.5232427 102.9899689  27.4788355 114.3938953 113.3144967
  27.9970298 115.1299980 112.9891455  27.1243487 114.7002946 114.1491726
  19.0587292 119.2543634 101.4306372  18.3656537 119.3287989 100.7746408
  18.8139044 118.4903978 101.9527889  27.7300949 110.8139235 108.8345863
  28.0102702 110.1462424 109.4606290  28.5151556 111.0068331 108.3220527
  31.6009807 119.2356869 112.5817438  32.5527230 119.3354967 112.6029662
  31.4313257 118.4435138 113.0915523  29.6224187 116.3212453 112.7676839
  29.0274119 116.6017465 112.0723328  29.3373883 116.8106353 113.5393580
  34.0797885 122.4562989 111.6959738  34.0474205 121.5178990 111.8819422
  34.6898509 122.5347026 110.9625563  25.9181216 121.3259042  97.7386942
  26.8640320 121.1965250  97.8075360  25.5395461 120.5873704  98.2156370
  34.2292373 119.2474032 111.7418021  33.7131422 118.4632489 111.5547950
  35.1132322 118.9192749 111.9064541  31.8903100 112.9915048 107.7013834
  31.6927921 112.6830136 108.5857166  32.5002806 113.7176687 107.8311764
  39.8974435 123.5178996 110.8365775  40.6277823 123.2564284 111.3973478
  39.2881380 122.7807718 110.8767843  37.9789732 121.6586858 111.4340226
  37.2522895 121.5242823 110.8256718  37.5637019 121.9663687 112.2396944
  24.1024133 119.2509018  97.6741827  23.1955588 118.9542131  97.7504541
  24.3800114 118.9538836  96.8076113  25.7186199 113.7945908 103.8286068
  24.9086927 113.4492993 104.2041315  26.4070616 113.4853452 104.4173680
  27.6476747 112.8723955 105.4510365  28.2007785 113.2919408 106.1100388
  27.8846833 111.9459703 105.4933321  22.8722917 116.1095954  97.8153806
  23.7342081 116.4350852  98.0749624  23.0573262 115.3227449  97.3026872
  31.0255554 114.9824480 104.9589029  30.4454223 115.6409284 104.5767082
  30.7591487 114.1601825 104.5476447  29.4759120 114.3829538 107.1610350
  29.9758899 114.4946072 106.3524669  30.1194728 114.0790591 107.8011158
  29.8080432 117.1424570 104.0145378  28.9206287 117.4274221 103.7965572
  30.2234421 116.9818334 103.1672655  33.1594968 117.1671091 107.7299717
  33.9355358 117.6567544 108.0024334  32.4343102 117.5929146 108.1871586
  35.5967527 117.8798711 108.7873658  36.1912018 117.6394447 108.0766966
  35.6694110 117.1605841 109.4147194  29.7821456 122.6579106 104.2295668
  29.7256657 123.1147658 103.3903300  30.3349798 121.8969791 104.0518511
  33.5926262 118.4468838 105.0545787  33.3363196 118.0465474 105.8853995
  32.9679130 119.1612632 104.9295926  37.9038599 121.1864911 107.5617079
  37.3438157 121.2558101 108.3348641  37.2982103 121.0105896 106.8416575
  30.8610343 127.3451774 100.1591858  31.6955947 126.9132973  99.9769332
  30.6994686 127.1733788 101.0868752  30.5156235 123.8483888 101.5248197
  30.4605039 123.6828159 100.5836641  29.8902290 124.5559921 101.6810387
  23.8252361 113.3491997 101.1033515  23.8131030 114.2933837 101.2601786
  24.7175782 113.1662142 100.8092977  27.6404480 109.9434773 105.3579452
  26.8736876 109.3893260 105.5036135  28.0515185 110.0156642 106.2193604
  41.9669734 129.2369687 112.6927830  41.6353059 130.1065098 112.4689045
  41.3715347 128.9205971 113.3721860  43.7260044 132.1581211 111.5499054
  43.0834424 132.4513744 110.9038848  43.2214972 132.0434131 112.3552250
  39.0652866 127.0839268 112.3099143  38.7217135 127.9740909 112.2338254
  39.4331828 126.8940925 111.4468728  38.1449406 129.4543923 110.2748376
  37.6414202 129.4174058 109.4616182  38.4380013 130.3636666 110.3345033
  34.2977279 128.6426109 105.3805994  33.6441691 128.3275127 104.7562609
  34.2557753 128.0201850 106.1065817  40.8640531 126.3432827 107.4116881
  41.1699408 125.4830190 107.1242796  41.5893136 126.9350447 107.2115875
  41.1342149 128.7727062 109.9100802  40.2205229 129.0031289 110.0783009
  41.5635251 128.8565506 110.7614834  35.1130850 128.6751835 111.7082817
  35.9356919 128.2012313 111.5861707  35.3568913 129.4542319 112.2081503
  36.7693898 128.9242794 107.9709975  36.7915594 128.9882127 107.0161954
  37.1861957 128.0847303 108.1650481  38.3182109 129.7230870 113.3144967
  38.8364053 130.4591897 112.9891455  37.9637242 130.0294864 114.1491726
  38.5694703 126.1431153 108.8345863  38.8496457 125.4754342 109.4606290
  39.3545310 126.3360249 108.3220527  42.7296855 128.3206966 107.7013834
  42.5321676 128.0122054 108.5857166  43.3396560 129.0468605 107.8311764
  36.5579953 129.1237826 103.8286068  35.7480681 128.7784911 104.2041315
  37.2464370 128.8145369 104.4173680  38.4870501 128.2015873 105.4510365
  39.0401540 128.6211326 106.1100388  38.7240588 127.2751621 105.4933321
  41.8649308 130.3116398 104.9589029  41.2847978 130.9701202 104.5767082
  41.5985241 129.4893742 104.5476447  40.3152875 129.7121455 107.1610350
  40.8152653 129.8237990 106.3524669  40.9588483 129.4082508 107.8011158
  46.4361281 133.2090628 108.7873658  47.0305772 132.9686364 108.0766966
  46.5087865 132.4897759 109.4147194  38.4798234 125.2726691 105.3579452
  37.7130630 124.7185178 105.5036135  38.8908939 125.3448560 106.2193604
   6.9686757  54.3789755  94.8290837   6.2150466  53.8097154  94.6734841
   7.1034299  54.3452420  95.7761472   1.0450903  54.5318392  91.9392980
   0.9068802  54.7219988  91.0114170   0.6887122  55.2937775  92.3961032
   1.0720283  56.5994919  96.9504252   1.5056789  56.5070208  97.7987306
   1.7851863  56.5752419  96.3124268   1.9335832  56.6418620  99.4837137
   2.1271722  57.5464430  99.7296412   1.8336450  56.1826039 100.3175722
   3.1877895  53.1992286  96.1285041   3.1767772  54.0817002  95.7578974
   2.3195275  52.8463837  95.9339578   3.7902505  54.3492506  92.7334504
   4.2333651  53.5999831  92.3353627   2.9129016  54.3402642  92.3508236
   0.8229710  58.3522553  89.7428433   1.3481034  58.6909825  89.0177753
   0.7352062  57.4169568  89.5591568   0.6321491  55.8347923 102.3612360
   0.6819496  55.6697930 103.3027883   0.5235414  54.9675182 101.9710241
   2.1339688  58.2544864 102.6054381   1.8424496  58.6174845 103.4417842
   1.5211819  57.5411872 102.4267713   3.3335370  55.8197744  95.1256952
   4.1682261  56.2587548  95.2894512   3.4694499  55.3436397  94.3065197
   1.5616623  53.4749359  98.4205045   1.5292943  52.5365359  98.6064728
   2.1717246  53.5533395  97.6870869   1.7111111  50.2660402  98.4663328
   1.1950160  49.4818859  98.2793257   2.5951060  49.9379119  98.6309847
   7.3793172  54.5365365  97.5611081   8.1096561  54.2750654  98.1218785
   6.7700118  53.7994087  97.6013149   5.4608470  52.6773228  98.1585533
   4.7341633  52.5429193  97.5502024   5.0455756  52.9850057  98.9642251
   3.0786265  48.8985080  95.5118964   3.6730755  48.6580816  94.8012272
   3.1512848  48.1792211  96.1392500   1.0744999  49.4655208  91.7791094
   0.8181934  49.0651843  92.6099302   0.4497867  50.1799002  91.6541233
   5.3857337  52.2051281  94.2862385   4.8256895  52.2744470  95.0593947
   4.7800841  52.0292266  93.5661882   6.9713356  68.8807795  96.9792341
   7.6091766  68.7614542  96.2755681   6.8534199  69.8288639  97.0380293
   3.7803062  68.8335223  96.9153866   3.4421574  68.7176288  96.0274401
   4.6492830  68.4326388  96.8954872   4.2622845  69.9870075 102.8740071
   4.2511486  69.5922873 102.0020575   4.4243484  69.2536147 103.4673843
   5.2189436  74.3541667  88.2165222   4.5677416  74.9395748  87.8299235
   6.0133799  74.8847862  88.2760259   0.9830106  72.7707187 101.8219255
   0.6919972  73.6752817 101.7065922   1.6187091  72.8123714 102.5363325
   1.9086313  70.1484035  98.4120615   2.5049885  69.9240058  97.6977578
   1.9661285  69.4068781  99.0146063   1.4811341  67.6023470  86.2470806
   1.7336862  67.0804992  85.4854269   0.5435900  67.4389616  86.3497489
   6.5254624  66.6059249  94.0545549   7.3117713  66.1878672  93.7035966
   6.7893329  67.5105341  94.2227197   6.6964702  72.0432099  88.7534206
   6.0610535  72.1166726  89.4655111   6.3662108  72.6325698  88.0753285
  11.9263051  66.5434482  94.9578528  12.6588223  65.9733699  95.1916357
  11.1702407  66.1556082  95.3985033   1.2007630  69.5051576  88.4495181
   1.0843888  68.8296480  89.1176265   1.3109890  69.0183950  87.6327334
   3.5439171  68.9661724  92.1541870   3.1797378  68.4392345  92.8654792
   4.4006287  68.5760193  91.9808355   9.4488472  60.2556056  99.4173136
   9.1171796  61.1251467  99.1934351   8.8534085  59.9392340 100.0967167
   3.1844658  63.9951623  87.1503219   3.3519060  64.8631860  87.5173690
   2.9941827  64.1578905  86.2264508   5.9419991  72.4568602  98.8169049
   5.6420714  73.3593641  98.7084856   5.5971051  72.1900785  99.6690202
   9.3417135  64.9751142  96.4966486   8.4334012  64.9066551  96.2025247
   9.2904731  65.4523087  97.3248312   3.1633879  66.4509281  88.1349885
   3.0433504  66.8966331  88.9735366   2.4686467  66.7994598  87.5763424
   3.4158001  66.3940788 104.4401384   2.6391335  66.9534708 104.4304248
   4.0548564  66.8797571 104.9616254  11.2078781  63.1767581  98.2744360
  10.5653162  63.4700114  97.6284155  10.7033710  63.0620501  99.0797557
   8.8618945  66.9230754  88.9630219   9.7736801  67.1558141  88.7877917
   8.3528592  67.5067798  88.4005298   1.6704373  69.2026241 104.0019351
   2.4119057  69.7411285 103.7254174   0.9641359  69.8292530 104.1590902
   7.1459713  71.3455382 102.5991512   7.5543069  70.9037792 101.8546144
   6.4236974  70.7708009 102.8525705   3.4990783  66.2827989  99.9725069
   4.3451978  66.7067402 100.1159718   3.4389420  65.6261613 100.6663632
   7.4688527  71.9056572  96.3543801   6.8397390  72.0702286  95.6519869
   7.0814189  72.3198182  97.1254765  11.3477759  72.8411010  93.7088165
  10.6628797  73.2209912  93.1585198  11.4321609  73.4506337  94.4420112
   6.6490228  63.9432357 101.6306243   6.4051160  64.6974417 101.0940518
   6.9250159  64.3217704 102.4653490   8.6028691  70.4870969 100.3083508
   8.8145586  71.1302729  99.6317889   8.5558439  69.6533286  99.8405438
   6.2054920  63.0988790  97.2120080   5.3439399  63.3970043  97.5036818
   6.2317355  63.3159189  96.2801113   3.0216489  71.6430980  93.6193886
   3.4854835  71.9218683  92.8298509   2.7573287  70.7414425  93.4366977
   1.9585375  67.7654133  90.4283451   2.6609419  68.2175176  90.8957378
   1.6266004  67.1237952  91.0563344   9.7174519  73.3642925  98.4805866
  10.5391963  72.9623112  98.1988547   9.7136922  73.2611159  99.4321981
   3.4831122  72.9126968 100.6366576   3.5475555  73.3747375 101.4724748
   2.7742046  72.2824333 100.7648886  17.8080512  69.7081673  94.8290837
  17.0544220  69.1389071  94.6734841  17.9428053  69.6744338  95.7761472
   3.1979140  74.5795075  90.5045556   3.0624815  75.4246611  90.9330404
   3.7388952  74.7814353  89.7411490   2.6014441  62.0744534 104.7580168
   3.3424154  62.6751688 104.6784631   2.8332363  61.3322172 104.1998211
   4.8247616  75.2018642 104.6345898   4.3811471  74.4155021 104.3166803
   5.4864830  75.3897792 103.9689789   6.9228854  75.4821442 102.6627300
   6.9047330  76.3030323 102.1707569   7.8448774  75.3575517 102.8877441
   3.3801909  72.9965571 103.5050808   3.9130245  72.2353860 103.2750116
   2.8515990  72.7039223 104.2474963   6.5471604  58.1025637  99.0344450
   6.2035873  58.9927279  98.9583560   6.9150566  57.9127295  98.1714035
   6.5121886  68.0934248  87.5416885   5.9968510  68.8638853  87.7805272
   6.2399195  67.4199385  88.1649946   4.0968997  62.9383949  92.6002123
   3.2410594  62.5490800  92.4207762   4.5095949  63.0175910  91.7401909
   5.6268144  60.4730292  96.9993683   5.1232939  60.4360428  96.1861488
   5.9198751  61.3823035  97.0590340   1.8711030  60.5569022  96.0059865
   2.7364027  60.3611831  95.6465754   1.9388539  60.3279374  96.9329222
  11.4856160  70.8466603  89.4770058  10.7085603  70.5077763  89.0325221
  12.1647641  70.8519226  88.8025023   6.3008189  65.9661341  89.3676666
   5.9958325  66.2807490  90.2186809   7.2538632  66.0442760  89.4103999
   4.7454621  72.1251564  91.0169620   4.2175983  71.3904323  90.7042858
   4.2442124  72.9026240  90.7709588   9.7247467  70.3200584  96.1336666
   9.0671142  71.0099846  96.2216795  10.5287866  70.7097016  96.4770653
   8.5352926  68.6744957  94.1840608   9.0484808  69.3074949  94.6862318
   9.1854150  68.0746153  93.8183968   1.7796017  59.6612479  92.1051301
   1.1260429  59.3461496  91.4807916   1.7376491  59.0388219  92.8311124
   2.8907221  69.9431774  84.0204593   1.9834283  69.7121028  84.2195742
   3.3878253  69.1469393  84.2078575   5.7975300  78.6529281  86.9401279
   5.1236999  78.9560978  87.5486237   6.1841122  79.4558362  86.5906736
   5.0133757  66.1494413  96.4298949   4.0956318  66.3709360  96.2720637
   5.4293901  66.2240723  95.5710656   5.7968805  67.5485828  91.5601629
   6.5440624  68.0607225  91.2508751   6.0660394  67.2269881  92.4206023
   4.0695455  70.0444369  88.5428583   3.1606674  69.7603402  88.6401053
   4.0990539  70.4643448  87.6831890   9.3014722  73.6550958  92.3119751
   8.8477049  72.8141868  92.3684941   8.6708689  74.2912357  92.6494531
   8.2447642  64.5842945  93.5420418   7.5070399  64.0720331  93.8730661
   8.4974415  64.1443326  92.7303695   7.7447662  75.4927455  93.2469569
   8.0370636  76.0532512  92.5281935   8.2546282  75.7856016  94.0022728
   8.3459269  57.3619197  94.1362188   8.6518146  56.5016560  93.8488103
   9.0711874  57.9536817  93.9361181   2.6180349  67.6572990  94.6438379
   2.6728959  66.7046826  94.5680855   1.8071551  67.8132429  95.1279677
   3.7671543  71.5853113  85.8816662   3.3290973  70.8688972  85.4222299
   4.5081984  71.8129227  85.3201753   2.7081287  76.2707806  94.3363022
   2.6657466  76.4968653  93.4071554   3.6243986  76.0371181  94.4848823
   6.1546921  66.7391874 101.2343651   6.5096308  66.9663347 102.0938117
   6.8019052  67.0710251 100.6120907  11.8844657  69.8610310  91.9392980
  11.7462556  70.0511906  91.0114170  11.5280876  70.6229692  92.3961032
  11.9114037  71.9286837  96.9504252  12.3450544  71.8362126  97.7987306
  12.6245618  71.9044337  96.3124268   5.6441932  75.5288931  98.4837352
   5.6978954  76.0979867  99.2515068   4.7756713  75.6990816  98.1191390
  12.7729587  71.9710537  99.4837137  12.9665477  72.8756348  99.7296412
  12.6730205  71.5117956 100.3175722   4.4265897  61.8568428 101.9827465
   3.7793812  62.5558378 101.8891941   5.1966913  62.2904572 102.3503713
   7.8344695  72.1217280 105.0578018   7.6830202  71.8927832 104.1408102
   7.8249375  73.0787882 105.0709363   4.6030032  69.6949193 100.0424284
   5.5322092  69.8460352  99.8693252   4.1821062  69.7833214  99.1872931
   3.4018363  73.7199857  97.8122822   3.2629449  73.3518642  98.6848760
   2.6132960  74.2347497  97.6406780   3.9966515  78.8208954  89.1548358
   4.1718271  78.3496997  89.9693981   3.3099303  79.4474720  89.3829619
   4.9523579  73.0981460  95.2011660   4.6173411  73.0582230  96.0969310
   4.4527524  72.4326176  94.7282070   7.8882770  70.4437494  85.4748719
   7.2711941  69.7184322  85.3781772   7.4199259  71.2046855  85.1315794
   1.5550123  68.2169049 100.2147921   2.2649742  67.5762241 100.1734539
   1.5119431  68.4681944 101.1374101   9.5436902  75.1536403 103.1354500
   9.4849448  74.4695623 102.4685083   9.9456420  75.8955393 102.6835126
   9.5454309  73.1175987 101.3668479   8.6581088  72.7801908 101.4894878
  10.1152860  72.3859018 101.6037245   3.0755463  77.7777439  98.3329723
   3.0025634  78.5832410  98.8449027   2.6332856  77.9769405  97.5077744
   2.8645242  77.0149209  91.8432544   2.0812764  77.5570889  91.9370769
   3.5637987  77.5323189  92.2426785   6.1741892  62.8243838  94.4866750
   6.6710592  62.0713801  94.1667820   5.4028874  62.8608155  93.9209959
  14.0271650  68.5284204  96.1285041  14.0161526  69.4108919  95.7578974
  13.1589029  68.1755755  95.9339578   5.5354146  77.6764273 100.4887881
   6.2482118  78.3111738 100.4163783   5.0444175  77.7728139  99.6727883
   7.2571673  71.5815526  92.0605173   6.3227952  71.7016988  91.8909877
   7.4348342  70.6787992  91.7965183   2.7576861  64.9661221  94.2138434
   2.3874649  64.4132262  94.9019340   3.2535954  64.3619355  93.6613434
  10.6444224  67.4232845  92.5955207  11.1104677  68.2560837  92.5215510
  11.0951725  66.9577826  93.3000466   8.7120455  73.7676666  89.5941359
   8.9880299  73.6533261  90.5035233   7.8424954  73.3694151  89.5553532
   8.6160887  59.7913432  96.6346108   7.7023967  60.0217659  96.8028315
   9.0453989  59.8751876  97.4860141   8.3867346  67.9803324  99.1346002
   7.7338796  68.2279231  98.4798455   8.7647726  67.1667462  98.8008480
   5.3474520  78.0163017  93.2374173   5.5296914  77.1984673  93.7001925
   6.1707506  78.2330709  92.7999063   5.6816685  76.9431202  90.4989221
   6.2104451  76.4323657  89.8859383   5.9444905  76.6273732  91.3634754
   4.4354919  68.7223135 105.6212040   3.7595556  68.6217264 106.2914415
   5.2582553  68.5662349 106.0848037   3.1777702  80.0290062  99.8569656
   3.7296010  80.1921684 100.6218741   3.5183895  80.6194500  99.1849680
   8.0288576  74.8551320 105.7118310   8.5728480  75.4681278 105.2173265
   7.4475421  75.4130898 106.2285323   6.3146089  77.9772038  96.8433338
   6.1897228  77.1761778  96.3344283   6.9725180  78.4718231  96.3547308
   8.3780997  75.7781058  98.4712888   7.4311333  75.6586409  98.3991215
   8.7263770  74.8903556  98.5539149   0.7380571  61.6675197 102.2951130
   1.2614972  61.9137493 103.0577439   0.5192904  62.4995232 101.8754267
   5.3827431  75.5733774  94.6717240   5.2352393  74.6450482  94.8524810
   6.2080924  75.5953865  94.1874315   8.9861552  76.3962333  95.7582113
   9.9108100  76.1905194  95.6206564   8.8176856  76.1478734  96.6671454
   1.9433116  62.6088892  99.9800800   1.6029936  61.8096705 100.3821480
   1.2372122  62.9090603  99.4077633   2.5949587  59.6938204  98.4328123
   3.4175657  59.2198683  98.3107014   2.8387651  60.4728688  98.9326810
   1.2357822  62.7226463  88.7291025   1.9566184  63.1007716  88.2254742
   0.6123126  63.4415340  88.8326003   5.3788945  63.4271612  89.6649357
   5.5952559  64.3096250  89.3638185   4.8983012  63.0357825  88.9354999
   1.9784549  63.3759873  96.2900991   1.9646118  62.4800966  95.9533289
   2.6956977  63.3830537  96.9239277   3.8310680  63.8097213  98.3354119
   3.5728458  64.7314284  98.3338449   3.2995720  63.4127648  99.0254583
   8.7756869  76.9148000  91.1144204   8.9493746  76.3494423  90.3618057
   9.2685760  77.7148895  90.9323694   1.3821445  62.2574253  91.5588562
   1.5037356  61.3290900  91.7579449   1.0923487  62.2712939  90.6466877
   4.2512635  59.9429164  94.6955281   4.2734332  60.0068497  93.7407261
   4.6680694  59.1033672  94.8895788  14.6296260  69.6784423  92.7334504
  15.0727406  68.9291749  92.3353627  13.7522770  69.6694560  92.3508236
   9.7632041  76.2314765  88.2141103  10.4582946  76.8521457  88.4328417
  10.1055191  75.3810116  88.4893480  11.6623464  73.6814470  89.7428433
  12.1874788  74.0201743  89.0177753  11.5745817  72.7461486  89.5591568
   3.3243513  77.5948544 101.8718310   3.6330639  77.3497691 102.7441009
   4.1218995  77.7995182 101.3837180   3.3464125  79.7486454  94.1023686
   2.9069115  79.2562832  94.7956543   4.0972242  79.2059421  93.8615762
   0.8662525  63.7706251 105.7678494   0.9150680  64.6468374 105.3856264
   1.4085039  63.2283644 105.1950137  11.3517370  74.3147374 105.0479631
  10.5612914  74.2971513 104.5084131  11.1150725  74.8535668 105.8028668
  11.4715245  71.1639840 102.3612360  11.5213250  70.9989848 103.3027883
  11.3629169  70.2967099 101.9710241   8.7619008  67.1470768 103.6771666
   9.6628870  67.0077233 103.3855664   8.8366982  67.3125223 104.6169844
   3.0961813  64.5237623 102.5224853   2.2265122  64.8171189 102.2507441
   3.3321293  65.1078068 103.2432116  12.9733442  73.5836782 102.6054381
  12.6818250  73.9466762 103.4417842  12.3605573  72.8703790 102.4267713
  14.1729124  71.1489662  95.1256952  15.0076016  71.5879466  95.2894512
  14.3088253  70.6728315  94.3065197  11.2220630  68.7069396 101.0734439
  11.6974752  68.8997043 100.2653291  10.2986196  68.7628582 100.8277823
   5.8000847  60.7417240 100.0390273   6.3182791  61.4778267  99.7136762
   5.4455980  61.0481233 100.8737032   6.0513441  57.1617523  95.5591170
   6.3315195  56.4940712  96.1851596   6.8364048  57.3546618  95.0465834
   3.8546909  76.3376516  87.1216196   3.2820877  76.9566704  86.6686668
   4.4279703  76.8875878  87.6556118   9.9222299  65.5835157  99.3062745
  10.8739722  65.6833254  99.3274969   9.7525750  64.7913425  99.8160829
   7.9436679  62.6690740  99.4922146   7.3486611  62.9495753  98.7968634
   7.6586376  63.1584641 100.2638887   7.0744169  76.6213667  88.2524778
   8.0074842  76.5559228  88.4557654   6.9867382  77.4569933  87.7939311
   9.7032186  75.9379537  85.2128726   9.6245817  75.6039401  86.1064484
  10.5241853  76.4301305  85.2120198  12.4010377  68.8041276  98.4205045
  12.3686697  67.8657277  98.6064728  13.0111001  68.8825313  97.6870869
   4.2393708  67.6737329  84.4632249   5.1852813  67.5443537  84.5320667
   3.8607953  66.9351991  84.9401677  12.5504866  65.5952320  98.4663328
  12.0343914  64.8110776  98.2793257  13.4344814  65.2671036  98.6309847
  10.2115593  59.3393335  94.4259140  10.0140414  59.0308423  95.3102472
  10.8215298  60.0654974  94.5557070  18.2186927  69.8657283  97.5611081
  18.9490315  69.6042571  98.1218785  17.6093872  69.1286005  97.6013149
  16.3002224  68.0065146  98.1585533  15.5735388  67.8721111  97.5502024
  15.8849511  68.3141974  98.9642251   4.1232401  71.7255075 105.9232906
   5.0435410  71.9033674 106.1172952   4.0881984  70.7811121 105.7712605
   2.4236625  65.5987306  84.3987134   1.5168081  65.3020418  84.4749847
   2.7012606  65.3017124  83.5321420   4.0398691  60.1424195  90.5531375
   3.2299419  59.7971280  90.9286621   4.7283108  59.8331739  91.1418987
   5.9689239  59.2202242  92.1755672   6.5220278  59.6397696  92.8345695
   6.2059326  58.2937990  92.2178628   1.9922338  65.2089316 107.9558436
   1.8919065  66.1583673 107.8870527   1.7743880  64.8807555 107.0834506
   1.1935410  62.4574241  84.5399113   2.0554574  62.7829139  84.7994930
   1.3785754  61.6705737  84.0272179   9.3468046  61.3302767  91.6834336
   8.7666715  61.9887571  91.3012388   9.0803979  60.5080112  91.2721754
   7.7971613  60.7307825  93.8855656   8.2971391  60.8424360  93.0769975
   8.4407221  60.4268878  94.5256465   1.8553608  68.6386455 106.7723497
   1.3720690  69.4386815 106.9787386   1.9414547  68.6494399 105.8190941
   8.1292924  63.4902858  90.7390684   7.2418779  63.7752508  90.5210879
   8.5446913  63.3296621  89.8917961  11.4807460  63.5149379  94.4545024
  12.2567851  64.0045831  94.7269640  10.7555595  63.9407433  94.9116893
  13.9180019  64.2276998  95.5118964  14.5124510  63.9872734  94.8012272
  13.9906603  63.5084128  96.1392500   7.2736138  73.2547532  84.8338704
   7.9771988  73.4597535  85.4496360   6.5498786  73.8224294  85.0987788
   8.1033948  69.0057394  90.9540974   8.0469149  69.4625945  90.1148607
   8.6562290  68.2448078  90.7763817  11.9138754  64.7947125  91.7791094
  11.6575688  64.3943761  92.6099302  11.2891622  65.5090919  91.6541233
  16.2251092  67.5343199  94.2862385  15.6650650  67.6036388  95.0593947
  15.6194595  67.3584183  93.5661882   9.1822835  73.6930062  86.8837164
  10.0168439  73.2611260  86.7014639   9.0207178  73.5212075  87.8114059
   8.8368727  70.1962175  88.2493504   8.7817531  70.0306446  87.3081948
   8.2114783  70.9038208  88.4055693   6.1514634  72.5011087 107.5747066
   7.0205794  72.6751739 107.2133701   5.6721386  73.3205504 107.4522796
   2.1464853  59.6970284  87.8278822   2.1343523  60.6412124  87.9847093
   3.0388275  59.5140429  87.5338283   2.0754417  78.3739174  95.9146579
   1.1250048  78.3741036  95.8010951   2.3786903  77.6271909  95.3982613
   5.9616972  56.2913061  92.0824759   5.1949368  55.7371547  92.2281441
   6.3727677  56.3634929  92.9438910  17.8107110  84.2099713  96.9792341
  18.4485520  84.0906460  96.2755681  17.6927953  85.1580557  97.0380293
  14.6196817  84.1627141  96.9153866  14.2815328  84.0468205  96.0274401
  15.4886585  83.7618306  96.8954872  10.4783632  86.0162617  92.9050757
   9.9148497  85.9252554  92.1367044  10.3636027  85.1962522  93.3853249
  15.1016600  85.3161992 102.8740071  15.0905240  84.9214791 102.0020575
  15.2637239  84.5828065 103.4673843   8.0248064  87.5113809  95.7434977
   8.8169356  87.1704633  95.3281276   8.2644714  87.6208784  96.6637130
  16.0583191  89.6833585  88.2165222  15.4071171  90.2687665  87.8299235
  16.8527554  90.2139780  88.2760259   9.9838818  86.7722722  88.6152356
  10.7569694  86.2251709  88.4765232  10.3364217  87.6366971  88.8266817
  11.8223861  88.0999104 101.8219255  11.5313727  89.0044735 101.7065922
  12.4580845  88.1415632 102.5363325  12.7480067  85.4775953  98.4120615
  13.3443640  85.2531975  97.6977578  12.8055039  84.7360698  99.0146063
  12.3205096  82.9315388  86.2470806  12.5730617  82.4096909  85.4854269
  11.3829655  82.7681534  86.3497489  17.3648379  81.9351167  94.0545549
  18.1511468  81.5170590  93.7035966  17.6287083  82.8397259  94.2227197
  17.5358456  87.3724017  88.7534206  16.9004289  87.4458643  89.4655111
  17.2055862  87.9617616  88.0753285  22.7656806  81.8726400  94.9578528
  23.4981978  81.3025617  95.1916357  22.0096162  81.4848000  95.3985033
  12.0401385  84.8343494  88.4495181  11.9237643  84.1588397  89.1176265
  12.1503645  84.3475868  87.6327334  14.3832926  84.2953641  92.1541870
  14.0191133  83.7684262  92.8654792  15.2400041  83.9052110  91.9808355
  20.2882226  75.5847974  99.4173136  19.9565551  76.4543385  99.1934351
  19.6927840  75.2684258 100.0967167  14.0238413  79.3243541  87.1503219
  14.1912815  80.1923777  87.5173690  13.8335582  79.4870823  86.2264508
  16.7813746  87.7860520  98.8169049  16.4814469  88.6885559  98.7084856
  16.4364805  87.5192703  99.6690202  10.2326227  84.2374317  94.8505753
   9.3076724  84.1050531  95.0583445  10.4810640  85.0168536  95.3475696
  20.1810890  80.3043060  96.4966486  19.2727767  80.2358468  96.2025247
  20.1298485  80.7815005  97.3248312  14.0027633  81.7801198  88.1349885
  13.8827259  82.2258249  88.9735366  13.3080222  82.1286516  87.5763424
   7.5935038  83.8807590  95.6849542   7.7227419  84.1342069  96.5988954
   6.9132490  84.4735298  95.3654198  11.7634526  94.5504840  91.7840017
  11.6858555  95.5012665  91.8628497  11.1596169  94.2050713  92.4414943
  14.2551755  81.7232706 104.4401384  13.4785089  82.2826626 104.4304248
  14.8942318  82.2089489 104.9616254  22.0472536  78.5059498  98.2744360
  21.4046916  78.7992032  97.6284155  21.5427464  78.3912419  99.0797557
  19.7012700  82.2522672  88.9630219  20.6130556  82.4850058  88.7877917
  19.1922347  82.8359716  88.4005298  12.5098128  84.5318159 104.0019351
  13.2512812  85.0703203 103.7254174  11.8035113  85.1584448 104.1590902
  17.9853467  86.6747299 102.5991512  18.3936823  86.2329710 101.8546144
  17.2630729  86.0999927 102.8525705  14.3384537  81.6119906  99.9725069
  15.1845732  82.0359320 100.1159718  14.2783175  80.9553530 100.6663632
  18.3082282  87.2348490  96.3543801  17.6791144  87.3994204  95.6519869
  17.9207944  87.6490100  97.1254765  22.1871514  88.1702928  93.7088165
  21.5022552  88.5501829  93.1585198  22.2715363  88.7798255  94.4420112
  17.4883983  79.2724275 101.6306243  17.2444914  80.0266335 101.0940518
  17.7643913  79.6509622 102.4653490  19.4422445  85.8162887 100.3083508
  19.6539341  86.4594647  99.6317889  19.3952194  84.9825203  99.8405438
  17.0448674  78.4280708  97.2120080  16.1833153  78.7261961  97.5036818
  17.0711109  78.6451106  96.2801113  13.8610244  86.9722898  93.6193886
  14.3248589  87.2510601  92.8298509  13.5967042  86.0706343  93.4366977
  10.7534325  86.5194380  96.5573649  11.3235682  86.9481648  95.9191134
  11.3442437  86.2376964  97.2557835  12.7979130  83.0946050  90.4283451
  13.5003173  83.5467094  90.8957378  12.4659758  82.4529869  91.0563344
  11.2459491  81.6857807 104.8034661  10.6158152  82.3674088 105.0370057
  11.1395579  81.5740889 103.8587799   6.5404464  81.3529603  95.7300585
   5.7503518  81.6087132  95.2540695   7.0315711  82.1677941  95.8352625
  20.5568273  88.6934842  98.4805866  21.3785717  88.2915030  98.1988547
  20.5530676  88.5903076  99.4321981   8.4919209  81.7174182  92.6884061
   7.6950372  81.8292877  93.2067557   8.2644801  82.0560835  91.8224952
  14.3224877  88.2418886 100.6366576  14.3869309  88.7039293 101.4724748
  13.6135801  87.6116251 100.7648886   4.8242167  81.6060094  98.1615576
   5.0750205  82.4907104  98.4273151   5.3601715  81.4264695  97.3890667
  28.6474266  85.0373591  94.8290837  27.8937975  84.4680989  94.6734841
  28.7821808  85.0036255  95.7761472  14.0372894  89.9086993  90.5045556
  13.9018569  90.7538529  90.9330404  14.5782707  90.1106271  89.7411490
  10.5240234  75.9878573 107.1659912  10.1307180  75.4344772 107.8407556
  11.3406374  76.2989151 107.5566429   7.4902292  87.4262431  91.0773481
   8.0026812  88.2205681  91.2279046   8.1425005  86.7288722  91.0107083
   9.2997177  90.5428187  93.1596235   9.4763805  91.4646152  92.9717219
  10.0954010  90.2286607  93.5890614  13.4408195  77.4036452 104.7580168
  14.1817908  78.0043605 104.6784631  13.6726118  76.6614090 104.1998211
   8.5849533  82.5892819 103.0358398   8.4703048  81.6878077 103.3365497
   7.7294051  82.8356516 102.6843214  15.6641371  90.5310560 104.6345898
  15.2205225  89.7446938 104.3166803  16.3258584  90.7189710 103.9689789
  10.4228492  92.0606361  99.1606577  10.9735917  91.9323425  98.3883571
   9.5839968  92.3601250  98.8101470  17.7622609  90.8113360 102.6627300
  17.7441084  91.6322241 102.1707569  18.6842529  90.6867435 102.8877441
  14.2195663  88.3257489 103.5050808  14.7524000  87.5645777 103.2750116
  13.6909744  88.0331141 104.2474963  17.3865358  73.4317555  99.0344450
  17.0429627  74.3219197  98.9583560  17.7544321  73.2419213  98.1714035
   5.4551209  85.7551085  91.8533052   6.2926431  86.1648094  91.6366760
   5.6329476  84.8150528  91.8233246  17.3515641  83.4226166  87.5416885
  16.8362264  84.1930771  87.7805272  17.0792949  82.7491302  88.1649946
  14.9362752  78.2675867  92.6002123  14.0804348  77.8782717  92.4207762
  15.3489704  78.3467828  91.7401909  16.4661898  75.8022210  96.9993683
  15.9626694  75.7652345  96.1861488  16.7592505  76.7114953  97.0590340
  12.7104784  75.8860940  96.0059865  13.5757781  75.6903749  95.6465754
  12.7782293  75.6571292  96.9329222  22.3249915  86.1758521  89.4770058
  21.5479358  85.8369680  89.0325221  23.0041396  86.1811144  88.8025023
  17.1401944  81.2953258  89.3676666  16.8352079  81.6099407  90.2186809
  18.0932386  81.3734678  89.4103999  15.5848376  87.4543482  91.0169620
  15.0569737  86.7196241  90.7042858  15.0835878  88.2318158  90.7709588
  20.5641222  85.6492502  96.1336666  19.9064896  86.3391763  96.2216795
  21.3681621  86.0388934  96.4770653  10.3167103  78.1163148  93.3776232
  10.8910855  77.8938329  92.6449425  10.9038086  78.1851842  94.1304833
  19.3746681  84.0036875  94.1840608  19.8878562  84.6366867  94.6862318
  20.0247904  83.4038070  93.8183968  10.6436690  80.1467609  87.3972117
   9.8074003  80.4842295  87.7181392  10.5041460  80.0116589  86.4599254
  12.6189771  74.9904397  92.1051301  11.9654183  74.6753414  91.4807916
  12.5770245  74.3680137  92.8311124  13.7300976  85.2723692  84.0204593
  12.8228038  85.0412945  84.2195742  14.2272008  84.4761311  84.2078575
  16.6369055  93.9821199  86.9401279  15.9630754  94.2852896  87.5486237
  17.0234877  94.7850279  86.5906736  15.8527511  81.4786330  96.4298949
  14.9350073  81.7001277  96.2720637  16.2687655  81.5532641  95.5710656
  16.6362559  82.8777746  91.5601629  17.3834378  83.3899143  91.2508751
  16.9054149  82.5561799  92.4206023  14.9089209  85.3736287  88.5428583
  14.0000429  85.0895319  88.6401053  14.9384293  85.7935365  87.6831890
  20.1408477  88.9842876  92.3119751  19.6870804  88.1433786  92.3684941
  19.5102443  89.6204275  92.6494531  19.0841396  79.9134862  93.5420418
  18.3464153  79.4012248  93.8730661  19.3368170  79.4735244  92.7303695
  18.5841416  90.8219373  93.2469569  18.8764390  91.3824430  92.5281935
  19.0940037  91.1147934  94.0022728  19.1853024  72.6911114  94.1362188
  19.4911900  71.8308478  93.8488103  19.9105628  73.2828734  93.9361181
   5.4777380  83.0941801  92.5243785   5.2801780  82.5011161  91.7994852
   4.9224044  82.7894011  93.2419724  13.4574103  82.9864907  94.6438379
  13.5122713  82.0338744  94.5680855  12.6465305  83.1424346  95.1279677
  14.6065297  86.9145030  85.8816662  14.1684727  86.1980889  85.4222299
  15.3475738  87.1421145  85.3201753  11.3966463  81.6041967  92.4028757
  10.5834329  81.9036138  92.8093950  11.8925458  81.2097656  93.1203240
  13.5475041  91.5999724  94.3363022  13.5051220  91.8260570  93.4071554
  14.4637740  91.3663099  94.4848823  16.9940675  82.0683791 101.2343651
  17.3490063  82.2955265 102.0938117  17.6412806  82.4002168 100.6120907
  22.7238412  85.1902227  91.9392980  22.5856311  85.3803823  91.0114170
  22.3674631  85.9521610  92.3961032  10.8880538  79.1760323  98.0189992
  11.5279917  79.0349082  97.3212956  10.0558069  78.8894836  97.6428594
  22.7507792  87.2578754  96.9504252  23.1844298  87.1654043  97.7987306
  23.4639372  87.2336255  96.3124268  11.6640842  88.4762753  94.1324985
  12.4581440  87.9813073  93.9307560  10.9532534  87.9480616  93.7692690
  16.4835686  90.8580848  98.4837352  16.5372709  91.4271785  99.2515068
  15.6150468  91.0282734  98.1191390   7.9723605  82.6205835  90.2084738
   7.0421194  82.5590290  90.4254700   8.0681077  82.0981787  89.4121379
   7.8909155  79.1460648  92.7962979   8.1515972  80.0605981  92.6872140
   8.7126327  78.6785090  92.9459592   9.3634080  80.5598405  99.9661804
  10.0357133  80.3515767  99.3174453   8.5363866  80.3620491  99.5267036
  23.6123341  87.3002455  99.4837137  23.8059231  88.2048266  99.7296412
  23.5123959  86.8409874 100.3175722  15.2659652  77.1860346 101.9827465
  14.6187567  77.8850295 101.8891941  16.0360667  77.6196490 102.3503713
  18.6738450  87.4509198 105.0578018  18.5223956  87.2219749 104.1408102
  18.6643129  88.4079799 105.0709363  15.4423786  85.0241111 100.0424284
  16.3715846  85.1752270  99.8693252  15.0214816  85.1125131  99.1872931
  14.2412118  89.0491775  97.8122822  14.1023204  88.6810559  98.6848760
  13.4526714  89.5639414  97.6406780  14.8360270  94.1500871  89.1548358
  15.0112026  93.6788915  89.9693981  14.1493058  94.7766638  89.3829619
  15.7917333  88.4273378  95.2011660  15.4567166  88.3874148  96.0969310
  15.2921279  87.7618094  94.7282070   9.7661577  83.8341008 100.7264241
   9.6281375  83.1021246 101.3275780  10.6766501  83.7449908 100.4448429
  18.7276525  85.7729412  85.4748719  18.1105695  85.0476240  85.3781772
  18.2593013  86.5338772  85.1315794  12.3943878  83.5460967 100.2147921
  13.1043496  82.9054159 100.1734539  12.3513186  83.7973862 101.1374101
  20.3830656  90.4828320 103.1354500  20.3243203  89.7987540 102.4685083
  20.7850175  91.2247310 102.6835126  11.1072812  80.5326185 102.0343560
  10.5710169  80.0816923 102.6865156  10.5189520  80.6672094 101.2914024
   9.4021355  97.2990234  95.9288219   9.6417953  97.9308758  96.6067237
   8.5590552  96.9478274  96.2153578  10.5175071  79.9914836  84.5970024
   9.6404537  79.8703637  84.2332270  10.9932824  79.2000915  84.3448912
  20.3848064  88.4467904 101.3668479  19.4974842  88.1093826 101.4894878
  20.9546615  87.7150935 101.6037245   2.0377211  84.7791996  94.6911531
   2.7248251  84.4653726  94.1032546   1.8825340  85.6833361  94.4178782
   6.8411933  79.6682193  99.1196555   6.7570122  79.0607862  98.3846964
   6.0194639  80.1591211  99.1206051  13.9149217  93.1069357  98.3329723
  13.8419389  93.9124328  98.8449027  13.4726610  93.3061322  97.5077744
  13.7038997  92.3441127  91.8432544  12.9206519  92.8862807  91.9370769
  14.4031742  92.8615106  92.2426785  17.0135647  78.1535756  94.4866750
  17.5104346  77.4005718  94.1667820  16.2422628  78.1900073  93.9209959
  24.8665404  83.8576122  96.1285041  24.8555280  84.7400837  95.7578974
  23.9982784  83.5047672  95.9339578  16.3747901  93.0056191 100.4887881
  17.0875873  93.6403655 100.4163783  15.8837929  93.1020057  99.6727883
  18.0965428  86.9107443  92.0605173  17.1621706  87.0308906  91.8909877
  18.2742096  86.0079910  91.7965183  13.5970616  80.2953139  94.2138434
  13.2268403  79.7424179  94.9019340  14.0929708  79.6911273  93.6613434
  21.4837979  82.7524763  92.5955207  21.9498431  83.5852754  92.5215510
  21.9345479  82.2869744  93.3000466  11.4259814  90.7550634 101.3093452
  12.1269274  91.3887117 101.4622846  10.9554929  91.0965366 100.5489091
  19.5514210  89.0968584  89.5941359  19.8274054  88.9825178  90.5035233
  18.6818709  88.6986069  89.5553532  19.4554642  75.1205350  96.6346108
  18.5417721  75.3509576  96.8028315  19.8847743  75.2043794  97.4860141
  19.2261100  83.3095242  99.1346002  18.5732550  83.5571149  98.4798455
  19.6041480  82.4959380  98.8008480  16.1868274  93.3454935  93.2374173
  16.3690669  92.5276591  93.7001925  17.0101260  93.5622627  92.7999063
  16.5210439  92.2723120  90.4989221  17.0498206  91.7615574  89.8859383
  16.7838659  91.9565650  91.3634754  15.2748673  84.0515053 105.6212040
  14.5989310  83.9509182 106.2914415  16.0976307  83.8954266 106.0848037
   7.0227532  90.2886989  98.2424555   7.6080969  89.5430677  98.3752459
   6.8252371  90.5990946  99.1261219   9.8766187  93.3238237  93.2586997
   9.2076563  93.8084364  92.7751037   9.7379057  93.5707457  94.1730376
   1.6145187  82.8592589  96.9628998   1.6529286  82.3256180  97.7566116
   1.1085480  82.3327795  96.3439975  14.0171456  95.3581980  99.8569656
  14.5689764  95.5213602 100.6218741  14.3577649  95.9486418  99.1849680
   8.9935949  77.7057130 100.4591540   9.0577276  78.5671961 100.0468938
   8.9303069  77.0931132  99.7263899   8.4688222  79.7780262 104.1064575
   9.0960261  79.3957340 104.7202099   7.6116141  79.5594464 104.4720267
  18.8682330  90.1843238 105.7118310  19.4122234  90.7973196 105.2173265
  18.2869175  90.7422816 106.2285323   5.2453765  81.5856692  90.0382929
   5.5407206  80.6767370  89.9849983   4.3441800  81.5644431  89.7163932
  17.1539843  93.3063956  96.8433338  17.0290983  92.5053695  96.3344283
  17.8118934  93.8010149  96.3547308   8.7748012  79.6612688  96.0210478
   8.0534597  80.2748656  95.8817951   9.5641267  80.1970453  95.9427124
  19.2174752  91.1072976  98.4712888  18.2705087  90.9878327  98.3991215
  19.5657525  90.2195474  98.5539149  11.5774325  76.9967115 102.2951130
  12.1008727  77.2429411 103.0577439  11.3586658  77.8287149 101.8754267
   6.9741606  79.2670789  90.1622254   6.6454312  78.3868168  89.9797360
   7.3280977  79.2118458  91.0498644  16.2221185  90.9025692  94.6717240
  16.0746147  89.9742399  94.8524810  17.0474678  90.9245783  94.1874315
  10.0883429  79.5543759  90.5297732  10.4279502  80.0829680  89.8076341
  10.5355550  79.8924165  91.3056299  19.8255307  91.7254251  95.7582113
  20.7501854  91.5197112  95.6206564  19.6570610  91.4770652  96.6671454
  12.7826870  77.9380810  99.9800800  12.4423690  77.1388623 100.3821480
  12.0765876  78.2382521  99.4077633  13.4343342  75.0230122  98.4328123
  14.2569411  74.5490600  98.3107014  13.6781405  75.8020606  98.9326810
  12.0751576  78.0518381  88.7291025  12.7959939  78.4299633  88.2254742
  11.4516881  78.7707257  88.8326003  16.2182699  78.7563530  89.6649357
  16.4346314  79.6388167  89.3638185  15.7376766  78.3649743  88.9354999
  10.9581921  81.7149243  96.2420102  10.8126501  82.0289546  97.1344383
  10.4807124  82.3334143  95.6891000  12.8178304  78.7051791  96.2900991
  12.8039872  77.8092884  95.9533289  13.5350732  78.7122454  96.9239277
  14.6704434  79.1389131  98.3354119  14.4122212  80.0606202  98.3338449
  14.1389475  78.7419565  99.0254583  19.6150623  92.2439918  91.1144204
  19.7887501  91.6786341  90.3618057  20.1079514  93.0440813  90.9323694
   5.4327583  84.2554587  99.1807763   4.8881051  85.0314395  99.3128037
   6.3106933  84.6025392  99.0226884  12.2215199  77.5866171  91.5588562
  12.3431111  76.6582817  91.7579449  11.9317242  77.6004857  90.6466877
  15.0906390  75.2721081  94.6955281  15.1128087  75.3360415  93.7407261
  15.5074449  74.4325590  94.8895788  25.4690014  85.0076341  92.7334504
  25.9121160  84.2583666  92.3353627  24.5916524  84.9986477  92.3508236
  20.6025796  91.5606682  88.2141103  21.2976700  92.1813375  88.4328417
  20.9448946  90.7102034  88.4893480   6.2193605  83.3824483 102.0737920
   5.4775341  83.5307119 102.6602550   5.8986349  83.6432749 101.2104669
  22.5017219  89.0106388  89.7428433  23.0268543  89.3493661  89.0177753
  22.4139571  88.0753403  89.5591568  14.1637267  92.9240462 101.8718310
  14.4724394  92.6789608 102.7441009  14.9612749  93.1287100 101.3837180
  14.1857879  95.0778371  94.1023686  13.7462870  94.5854750  94.7956543
  14.9365996  94.5351339  93.8615762   6.6650218  91.2689912  94.1048315
   7.4908238  90.9693684  93.7246958   6.3144270  90.4997535  94.5538103
  11.6331752  90.6216380  96.1745988  11.0111761  89.9587085  95.8748216
  12.3036618  90.6477512  95.4919636   4.8658823  89.1876239  95.0637248
   4.0290732  88.7598413  94.8821249   4.8382469  89.3808682  96.0008039
  11.7056279  79.0998168 105.7678494  11.7544435  79.9760291 105.3856264
  12.2478793  78.5575561 105.1950137  22.1911125  89.6439292 105.0479631
  21.4006668  89.6263430 104.5084131  21.9544479  90.1827585 105.8028668
  22.3109000  86.4931758 102.3612360  22.3607005  86.3281765 103.3027883
  22.2022923  85.6259017 101.9710241  11.1945258  89.1720304  89.6504449
  11.3433379  89.8555768  88.9971121  12.0011702  89.1525394  90.1653904
  19.6012762  82.4762686 103.6771666  20.5022625  82.3369151 103.3855664
  19.6760737  82.6417141 104.6169844  13.9355567  79.8529541 102.5224853
  13.0658877  80.1463107 102.2507441  14.1715048  80.4369986 103.2432116
  23.8127197  88.9128700 102.6054381  23.5212005  89.2758680 103.4417842
  23.1999328  88.1995708 102.4267713  25.0122879  86.4781579  95.1256952
  25.8469770  86.9171383  95.2894512  25.1482008  86.0020233  94.3065197
  22.0614385  84.0361314 101.0734439  22.5368506  84.2288960 100.2653291
  21.1379950  84.0920500 100.8277823   8.9497891  85.1985481  90.6565518
   8.7043933  84.2947811  90.8545728   9.1193806  85.2002632  89.7144996
  16.6394601  76.0709158 100.0390273  17.1576545  76.8070185  99.7136762
  16.2849734  76.3773151 100.8737032   8.2193539  80.9313839  88.1551679
   7.5262784  81.0058194  87.4991715   7.9745291  80.1674183  88.6773196
  16.8907195  72.4909440  95.5591170  17.1708949  71.8232629  96.1851596
  17.6757802  72.6838536  95.0465834  14.6940664  91.6668434  87.1216196
  14.1214631  92.2858621  86.6686668  15.2673458  92.2167796  87.6556118
  20.7616054  80.9127074  99.3062745  21.7133477  81.0125172  99.3274969
  20.5919504  80.1205343  99.8160829  18.7830433  77.9982657  99.4922146
  18.1880365  78.2787670  98.7968634  18.4980130  78.4876558 100.2638887
  17.9137924  91.9505584  88.2524778  18.8468597  91.8851146  88.4557654
  17.8261137  92.7861851  87.7939311  20.5425940  91.2671455  85.2128726
  20.4639572  90.9331318  86.1064484  21.3635607  91.7593223  85.2120198
  23.2404132  84.1333194  98.4205045  23.2080452  83.1949195  98.6064728
  23.8504755  84.2117231  97.6870869  15.0787462  83.0029247  84.4632249
  16.0246567  82.8735455  84.5320667  14.7001707  82.2643909  84.9401677
  23.3898620  80.9244237  98.4663328  22.8737669  80.1402694  98.2793257
  24.2738569  80.5962954  98.6309847  21.0509347  74.6685253  94.4259140
  20.8534168  74.3600341  95.3102472  21.6609053  75.3946892  94.5557070
  29.0580681  85.1949201  97.5611081  29.7884070  84.9334489  98.1218785
  28.4487627  84.4577923  97.6013149  27.1395979  83.3357063  98.1585533
  26.4129142  83.2013028  97.5502024  26.7243265  83.6433892  98.9642251
  14.9626155  87.0546993 105.9232906  15.8829164  87.2325592 106.1172952
  14.9275738  86.1103038 105.7712605  13.2630380  80.9279223  84.3987134
  12.3561835  80.6312336  84.4749847  13.5406361  80.6309041  83.5321420
   4.1808320  82.2485587  94.8486180   3.8611104  81.3950895  94.5560554
   3.6341748  82.4634165  95.6044148   7.9588228  84.9648028  98.5655687
   8.1774237  85.8965136  98.5843721   8.3714001  84.6056002  99.3510491
  14.8792445  75.4716113  90.5531375  14.0693174  75.1263198  90.9286621
  15.5676862  75.1623657  91.1418987  16.8082994  74.5494160  92.1755672
  17.3614032  74.9689613  92.8345695  17.0453080  73.6229908  92.2178628
  12.8316093  80.5381233 107.9558436  12.7312820  81.4875590 107.8870527
  12.6137635  80.2099472 107.0834506  12.0329164  77.7866159  84.5399113
  12.8948328  78.1121057  84.7994930  12.2179508  76.9997654  84.0272179
   4.0496580  85.8688498  96.8179302   3.3560051  85.4542451  96.3049256
   4.7969571  85.9109035  96.2212721  20.1861801  76.6594685  91.6834336
  19.6060470  77.3179489  91.3012388  19.9197733  75.8372030  91.2721754
  18.6365367  76.0599743  93.8855656  19.1365145  76.1716277  93.0769975
  19.2800975  75.7560796  94.5256465  12.6947363  83.9678372 106.7723497
  12.2114445  84.7678732 106.9787386  12.7808302  83.9786317 105.8190941
   5.9633323  85.8006752  94.6945317   5.9404011  85.8994439  93.7427200
   6.2733959  86.6471903  95.0162483   8.6220700  87.8582907  98.8091931
   9.5763954  87.8266849  98.7421863   8.4233224  87.3973531  99.6242157
   9.2120083  86.4284023 101.3762729  10.0312972  86.9228102 101.3997566
   9.4856890  85.5115991 101.3480296  18.9686679  78.8194775  90.7390684
  18.0812534  79.1044426  90.5210879  19.3840668  78.6588539  89.8917961
  22.3201215  78.8441296  94.4545024  23.0961605  79.3337749  94.7269640
  21.5949349  79.2699351  94.9116893  24.7573774  79.5568916  95.5118964
  25.3518264  79.3164652  94.8012272  24.8300357  78.8376046  96.1392500
   6.9770929  93.4002526  95.8262129   6.8425397  92.6402927  95.2600127
   6.5602991  94.1243426  95.3590918  18.1129892  88.5839450  84.8338704
  18.8165742  88.7889453  85.4496360  17.3892541  89.1516212  85.0987788
  18.9427702  84.3349311  90.9540974  18.8862904  84.7917863  90.1148607
  19.4956045  83.5739996  90.7763817  22.7532508  80.1239043  91.7791094
  22.4969443  79.7235679  92.6099302  22.1285376  80.8382837  91.6541233
  27.0644846  82.8635116  94.2862385  26.5044404  82.9328306  95.0593947
  26.4588350  82.6876101  93.5661882  10.1340055  94.2971844  96.0380572
  10.0172439  95.2417276  95.9359262   9.3132501  93.9945405  96.4266371
  20.0216590  89.0221979  86.8837164  20.8562194  88.5903178  86.7014639
  19.8600933  88.8503993  87.8114059  19.6762482  85.5254093  88.2493504
  19.6211286  85.3598364  87.3081948  19.0508537  86.2330125  88.4055693
   4.4654997  80.7622157 102.0754926   5.1113860  80.2521111 102.5642151
   4.2572148  81.4990839 102.6498351  16.9908389  87.8303004 107.5747066
  17.8599549  88.0043657 107.2133701  16.5115140  88.6497421 107.4522796
  12.9858607  75.0262202  87.8278822  12.9737277  75.9704041  87.9847093
  13.8782029  74.8432347  87.5338283  11.1594569  94.9500105  99.2536500
  12.0621816  94.9823716  99.5702995  10.9331939  94.0200556  99.2682836
  12.9148171  93.7031092  95.9146579  11.9643802  93.7032954  95.8010951
  13.2180657  92.9563827  95.3982613  16.8010727  71.6204978  92.0824759
  16.0343123  71.0663465  92.2281441  17.2121432  71.6926847  92.9438910
   8.8052488  77.9089774 106.1729940   9.6683949  77.5526579 106.3833265
   8.2317898  77.5703669 106.8605344  28.6500865  99.5391630  96.9792341
  29.2879275  99.4198378  96.2755681  28.5321708 100.4872474  97.0380293
  25.4590571  99.4919058  96.9153866  25.1209083  99.3760123  96.0274401
  26.3280339  99.0910224  96.8954872  21.3177387 101.3454535  92.9050757
  20.7542252 101.2544472  92.1367044  21.2029782 100.5254439  93.3853249
  25.9410354 100.6453910 102.8740071  25.9298995 100.2506708 102.0020575
  26.1030993  99.9119983 103.4673843  18.8641819 102.8405726  95.7434977
  19.6563111 102.4996551  95.3281276  19.1038469 102.9500702  96.6637130
  26.8976945 105.0125503  88.2165222  26.2464925 105.5979583  87.8299235
  27.6921308 105.5431697  88.2760259  20.8232573 102.1014640  88.6152356
  21.5963449 101.5543627  88.4765232  21.1757971 102.9658889  88.8266817
  22.6617615 103.4291022 101.8219255  22.3707481 104.3336653 101.7065922
  23.2974599 103.4707550 102.5363325  23.5873822 100.8067870  98.4120615
  24.1837394 100.5823893  97.6977578  23.6448794 100.0652616  99.0146063
  23.1598850  98.2607306  86.2470806  23.4124371  97.7388827  85.4854269
  22.2223409  98.0973451  86.3497489  28.2042133  97.2643084  94.0545549
  28.9905222  96.8462507  93.7035966  28.4680838  98.1689176  94.2227197
  28.3752211 102.7015934  88.7534206  27.7398044 102.7750561  89.4655111
  28.0449617 103.2909533  88.0753285  33.6050560  97.2018317  94.9578528
  34.3375732  96.6317534  95.1916357  32.8489916  96.8139918  95.3985033
  22.8795139 100.1635412  88.4495181  22.7631397  99.4880315  89.1176265
  22.9897399  99.6767786  87.6327334  25.2226680  99.6245559  92.1541870
  24.8584887  99.0976180  92.8654792  26.0793796  99.2344028  91.9808355
  31.1275981  90.9139891  99.4173136  30.7959305  91.7835302  99.1934351
  30.5321594  90.5976175 100.0967167  24.8632167  94.6535459  87.1503219
  25.0306569  95.5215695  87.5173690  24.6729336  94.8162740  86.2264508
  27.6207500 103.1152437  98.8169049  27.3208223 104.0177476  98.7084856
  27.2758560 102.8484621  99.6690202  21.0719982  99.5666234  94.8505753
  20.1470478  99.4342448  95.0583445  21.3204395 100.3460454  95.3475696
  31.0204644  95.6334978  96.4966486  30.1121521  95.5650386  96.2025247
  30.9692240  96.1106923  97.3248312  24.8421388  97.1093116  88.1349885
  24.7221013  97.5550167  88.9735366  24.1473976  97.4578434  87.5763424
  18.4328793  99.2099508  95.6849542  18.5621174  99.4633987  96.5988954
  17.7526244  99.8027216  95.3654198  22.6028280 109.8796758  91.7840017
  22.5252310 110.8304583  91.8628497  21.9989924 109.5342630  92.4414943
  25.0945510  97.0524623 104.4401384  24.3178844  97.6118543 104.4304248
  25.7336073  97.5381406 104.9616254  32.8866290  93.8351416  98.2744360
  32.2440671  94.1283949  97.6284155  32.3821219  93.7204336  99.0797557
  30.5406454  97.5814589  88.9630219  31.4524310  97.8141976  88.7877917
  30.0316101  98.1651633  88.4005298  23.3491882  99.8610077 104.0019351
  24.0906566 100.3995121 103.7254174  22.6428868 100.4876365 104.1590902
  28.8247222 102.0039217 102.5991512  29.2330578 101.5621628 101.8546144
  28.1024483 101.4291845 102.8525705  25.1778292  96.9411824  99.9725069
  26.0239487  97.3651237 100.1159718  25.1176929  96.2845448 100.6663632
  29.1476036 102.5640408  96.3543801  28.5184899 102.7286122  95.6519869
  28.7601698 102.9782017  97.1254765  33.0265268 103.4994846  93.7088165
  32.3416306 103.8793747  93.1585198  33.1109118 104.1090172  94.4420112
  28.3277737  94.6016192 101.6306243  28.0838669  95.3558253 101.0940518
  28.6037668  94.9801540 102.4653490  30.2816200 101.1454805 100.3083508
  30.4933095 101.7886564  99.6317889  30.2345948 100.3117121  99.8405438
  27.8842429  93.7572625  97.2120080  27.0226908  94.0553879  97.5036818
  27.9104863  93.9743024  96.2801113  24.7003998 102.3014816  93.6193886
  25.1642344 102.5802519  92.8298509  24.4360796 101.3998260  93.4366977
  21.5928079 101.8486297  96.5573649  22.1629436 102.2773566  95.9191134
  22.1836191 101.5668882  97.2557835  23.6372884  98.4237968  90.4283451
  24.3396928  98.8759012  90.8957378  23.3053513  97.7821787  91.0563344
  22.0853246  97.0149725 104.8034661  21.4551906  97.6966006 105.0370057
  21.9789334  96.9032806 103.8587799  17.3798218  96.6821521  95.7300585
  16.5897272  96.9379049  95.2540695  17.8709466  97.4969859  95.8352625
  31.3962028 104.0226760  98.4805866  32.2179472 103.6206947  98.1988547
  31.3924431 103.9194994  99.4321981  19.3312964  97.0466100  92.6884061
  18.5344127  97.1584794  93.2067557  19.1038556  97.3852752  91.8224952
  25.1618631 103.5710803 100.6366576  25.2263064 104.0331211 101.4724748
  24.4529555 102.9408168 100.7648886  15.6635921  96.9352011  98.1615576
  15.9143960  97.8199021  98.4273151  16.1995470  96.7556613  97.3890667
  39.4868021 100.3665508  94.8290837  38.7331729  99.7972907  94.6734841
  39.6215562 100.3328173  95.7761472  24.8766649 105.2378911  90.5045556
  24.7412324 106.0830447  90.9330404  25.4176461 105.4398188  89.7411490
  21.3633989  91.3170491 107.1659912  20.9700934  90.7636689 107.8407556
  22.1800129  91.6281069 107.5566429  18.3296046 102.7554349  91.0773481
  18.8420567 103.5497599  91.2279046  18.9818759 102.0580639  91.0107083
  20.1390931 105.8720105  93.1596235  20.3157559 106.7938070  92.9717219
  20.9347765 105.5578524  93.5890614  24.2801950  92.7328370 104.7580168
  25.0211663  93.3335523 104.6784631  24.5119872  91.9906008 104.1998211
  19.4243288  97.9184737 103.0358398  19.3096803  97.0169994 103.3365497
  18.5687805  98.1648434 102.6843214  26.5035125 105.8602477 104.6345898
  26.0598979 105.0738856 104.3166803  27.1652339 106.0481628 103.9689789
  21.2622246 107.3898279  99.1606577  21.8129672 107.2615342  98.3883571
  20.4233722 107.6893168  98.8101470  28.6016363 106.1405277 102.6627300
  28.5834839 106.9614158 102.1707569  29.5236283 106.0159352 102.8877441
  25.0589418 103.6549407 103.5050808  25.5917754 102.8937695 103.2750116
  24.5303499 103.3623059 104.2474963  28.2259113  88.7609473  99.0344450
  27.8823382  89.6511114  98.9583560  28.5938075  88.5711130  98.1714035
  16.2944963 101.0843003  91.8533052  17.1320185 101.4940011  91.6366760
  16.4723231 100.1442445  91.8233246  28.1909395  98.7518084  87.5416885
  27.6756019  99.5222688  87.7805272  27.9186704  98.0783220  88.1649946
  25.7756506  93.5967785  92.6002123  24.9198103  93.2074635  92.4207762
  26.1883458  93.6759745  91.7401909  27.3055653  91.1314128  96.9993683
  26.8020448  91.0944263  96.1861488  27.5986260  92.0406871  97.0590340
  23.5498539  91.2152858  96.0059865  24.4151536  91.0195666  95.6465754
  23.6176048  90.9863209  96.9329222  33.1643669 101.5050438  89.4770058
  32.3873112 101.1661598  89.0325221  33.8435150 101.5103062  88.8025023
  27.9795698  96.6245176  89.3676666  27.6745834  96.9391325  90.2186809
  28.9326141  96.7026596  89.4103999  26.4242130 102.7835399  91.0169620
  25.8963492 102.0488159  90.7042858  25.9229633 103.5610076  90.7709588
  31.4034976 100.9784420  96.1336666  30.7458651 101.6683681  96.2216795
  32.2075375 101.3680852  96.4770653  21.1560858  93.4455065  93.3776232
  21.7304610  93.2230247  92.6449425  21.7431840  93.5143760  94.1304833
  30.2140435  99.3328792  94.1840608  30.7272317  99.9658784  94.6862318
  30.8641659  98.7329988  93.8183968  21.4830445  95.4759527  87.3972117
  20.6467757  95.8134213  87.7181392  21.3435215  95.3408506  86.4599254
  23.4583526  90.3196314  92.1051301  22.8047938  90.0045332  91.4807916
  23.4164000  89.6972055  92.8311124  24.5694730 100.6015609  84.0204593
  23.6621792 100.3704863  84.2195742  25.0665762  99.8053229  84.2078575
  27.4762809 109.3113117  86.9401279  26.8024508 109.6144813  87.5486237
  27.8628631 110.1142197  86.5906736  26.6921266  96.8078248  96.4298949
  25.7743827  97.0293195  96.2720637  27.1081410  96.8824558  95.5710656
  27.4756314  98.2069664  91.5601629  28.2228133  98.7191061  91.2508751
  27.7447903  97.8853716  92.4206023  25.7482964 100.7028204  88.5428583
  24.8394183 100.4187237  88.6401053  25.7778048 101.1227283  87.6831890
  30.9802231 104.3134794  92.3119751  30.5264558 103.4725704  92.3684941
  30.3496198 104.9496192  92.6494531  29.9235151  95.2426780  93.5420418
  29.1857908  94.7304166  93.8730661  30.1761924  94.8027161  92.7303695
  29.4235171 106.1511291  93.2469569  29.7158145 106.7116348  92.5281935
  29.9333791 106.4439852  94.0022728  30.0246778  88.0203032  94.1362188
  30.3305655  87.1600395  93.8488103  30.7499383  88.6120652  93.9361181
  16.3171134  98.4233718  92.5243785  16.1195534  97.8303079  91.7994852
  15.7617798  98.1185929  93.2419724  24.2967858  98.3156825  94.6438379
  24.3516468  97.3630661  94.5680855  23.4859060  98.4716264  95.1279677
  25.4459052 102.2436948  85.8816662  25.0078482 101.5272807  85.4222299
  26.1869493 102.4713063  85.3201753  22.2360218  96.9333885  92.4028757
  21.4228083  97.2328055  92.8093950  22.7319212  96.5389573  93.1203240
  24.3868796 106.9291642  94.3363022  24.3444974 107.1552488  93.4071554
  25.3031495 106.6955016  94.4848823  27.8334430  97.3975709 101.2343651
  28.1883817  97.6247182 102.0938117  28.4806561  97.7294086 100.6120907
  33.5632166 100.5194145  91.9392980  33.4250065 100.7095741  91.0114170
  33.2068385 101.2813528  92.3961032  21.7274293  94.5052240  98.0189992
  22.3673672  94.3640999  97.3212956  20.8951823  94.2186754  97.6428594
  33.5901546 102.5870672  96.9504252  34.0238053 102.4945961  97.7987306
  34.3033127 102.5628173  96.3124268  22.5034596 103.8054671  94.1324985
  23.2975195 103.3104991  93.9307560  21.7926289 103.2772534  93.7692690
  27.3229441 106.1872766  98.4837352  27.3766463 106.7563702  99.2515068
  26.4544222 106.3574651  98.1191390  18.8117360  97.9497752  90.2084738
  17.8814948  97.8882208  90.4254700  18.9074832  97.4273705  89.4121379
  18.7302909  94.4752565  92.7962979  18.9909726  95.3897898  92.6872140
  19.5520081  94.0077008  92.9459592  20.2027834  95.8890322  99.9661804
  20.8750888  95.6807684  99.3174453  19.3757621  95.6912408  99.5267036
  34.4517096 102.6294373  99.4837137  34.6452986 103.5340183  99.7296412
  34.3517714 102.1701792 100.3175722  26.1053406  92.5152263 101.9827465
  25.4581321  93.2142213 101.8891941  26.8754422  92.9488407 102.3503713
  29.5132204 102.7801115 105.0578018  29.3617711 102.5511667 104.1408102
  29.5036884 103.7371717 105.0709363  26.2817541 100.3533028 100.0424284
  27.2109601 100.5044188  99.8693252  25.8608571 100.4417049  99.1872931
  25.0805872 104.3783693  97.8122822  24.9416958 104.0102477  98.6848760
  24.2920469 104.8931332  97.6406780  25.6754024 109.4792789  89.1548358
  25.8505780 109.0080832  89.9693981  24.9886812 110.1058555  89.3829619
  26.6311088 103.7565295  95.2011660  26.2960920 103.7166065  96.0969310
  26.1315033 103.0910011  94.7282070  20.6055332  99.1632925 100.7264241
  20.4675130  98.4313164 101.3275780  21.5160255  99.0741825 100.4448429
  29.5670279 101.1021330  85.4748719  28.9499450 100.3768158  85.3781772
  29.0986768 101.8630690  85.1315794  23.2337632  98.8752885 100.2147921
  23.9437251  98.2346077 100.1734539  23.1906940  99.1265780 101.1374101
  31.2224411 105.8120238 103.1354500  31.1636957 105.1279458 102.4685083
  31.6243929 106.5539228 102.6835126  21.9466566  95.8618103 102.0343560
  21.4103923  95.4108841 102.6865156  21.3583275  95.9964011 101.2914024
  20.2415110 112.6282152  95.9288219  20.4811708 113.2600676  96.6067237
  19.3984306 112.2770192  96.2153578  21.3568825  95.3206754  84.5970024
  20.4798292  95.1995555  84.2332270  21.8326578  94.5292832  84.3448912
  31.2241818 103.7759822 101.3668479  30.3368597 103.4385744 101.4894878
  31.7940369 103.0442853 101.6037245  12.8770965 100.1083914  94.6911531
  13.5642005  99.7945644  94.1032546  12.7219094 101.0125278  94.4178782
  17.6805687  94.9974110  99.1196555  17.5963876  94.3899780  98.3846964
  16.8588394  95.4883129  99.1206051  24.7542972 108.4361274  98.3329723
  24.6813143 109.2416246  98.8449027  24.3120365 108.6353240  97.5077744
  24.5432751 107.6733044  91.8432544  23.7600273 108.2154724  91.9370769
  25.2425496 108.1907024  92.2426785  27.8529401  93.4827674  94.4866750
  28.3498101  92.7297636  94.1667820  27.0816383  93.5191990  93.9209959
  35.7059159  99.1868039  96.1285041  35.6949035 100.0692755  95.7578974
  34.8376538  98.8339590  95.9339578  27.2141655 108.3348108 100.4887881
  27.9269627 108.9695573 100.4163783  26.7231684 108.4311974  99.6727883
  28.9359182 102.2399361  92.0605173  28.0015461 102.3600823  91.8909877
  29.1135850 101.3371828  91.7965183  24.4364370  95.6245057  94.2138434
  24.0662158  95.0716097  94.9019340  24.9323463  95.0203190  93.6613434
  32.3231733  98.0816680  92.5955207  32.7892186  98.9144672  92.5215510
  32.7739234  97.6161662  93.3000466  22.2653569 106.0842552 101.3093452
  22.9663028 106.7179035 101.4622846  21.7948684 106.4257283 100.5489091
  30.3907964 104.4260502  89.5941359  30.6667808 104.3117096  90.5035233
  29.5212463 104.0277986  89.5553532  30.2948396  90.4497267  96.6346108
  29.3811476  90.6801494  96.8028315  30.7241498  90.5335711  97.4860141
  30.0654855  98.6387159  99.1346002  29.4126305  98.8863067  98.4798455
  30.4435235  97.8251297  98.8008480  27.0262028 108.6746852  93.2374173
  27.2084423 107.8568508  93.7001925  27.8495015 108.8914545  92.7999063
  27.3604194 107.6015038  90.4989221  27.8891960 107.0907492  89.8859383
  27.6232414 107.2857568  91.3634754  26.1142428  99.3806970 105.6212040
  25.4383065  99.2801100 106.2914415  26.9370062  99.2246184 106.0848037
  17.8621287 105.6178907  98.2424555  18.4474724 104.8722595  98.3752459
  17.6646125 105.9282864  99.1261219  20.7159942 108.6530154  93.2586997
  20.0470317 109.1376282  92.7751037  20.5772812 108.8999375  94.1730376
  12.4538941  98.1884507  96.9628998  12.4923041  97.6548098  97.7566116
  11.9479234  97.6619713  96.3439975  24.8565211 110.6873898  99.8569656
  25.4083519 110.8505519 100.6218741  25.1971404 111.2778336  99.1849680
  19.8329704  93.0349048 100.4591540  19.8971030  93.8963878 100.0468938
  19.7696824  92.4223049  99.7263899  19.3081976  95.1072180 104.1064575
  19.9354015  94.7249257 104.7202099  18.4509895  94.8886382 104.4720267
  29.7076085 105.5135155 105.7118310  30.2515989 106.1265114 105.2173265
  29.1262930 106.0714734 106.2285323  16.0847519  96.9148609  90.0382929
  16.3800960  96.0059288  89.9849983  15.1835555  96.8936349  89.7163932
  27.9933598 108.6355873  96.8433338  27.8684737 107.8345613  96.3344283
  28.6512689 109.1302067  96.3547308  19.6141766  94.9904606  96.0210478
  18.8928352  95.6040573  95.8817951  20.4035022  95.5262371  95.9427124
  30.0568506 106.4364893  98.4712888  29.1098842 106.3170245  98.3991215
  30.4051279 105.5487391  98.5539149  22.4168080  92.3259032 102.2951130
  22.9402481  92.5721329 103.0577439  22.1980413  93.1579067 101.8754267
  17.8135361  94.5962707  90.1622254  17.4848067  93.7160086  89.9797360
  18.1674731  94.5410376  91.0498644  27.0614939 106.2317610  94.6717240
  26.9139902 105.3034317  94.8524810  27.8868433 106.2537700  94.1874315
  20.9277184  94.8835677  90.5297732  21.2673256  95.4121598  89.8076341
  21.3749304  95.2216083  91.3056299  30.6649061 107.0546168  95.7582113
  31.5895609 106.8489030  95.6206564  30.4964365 106.8062569  96.6671454
  23.6220625  93.2672727  99.9800800  23.2817445  92.4680540 100.3821480
  22.9159631  93.5674438  99.4077633  24.2737096  90.3522040  98.4328123
  25.0963166  89.8782518  98.3107014  24.5175160  91.1312524  98.9326810
  22.9145331  93.3810298  88.7291025  23.6353693  93.7591551  88.2254742
  22.2910635  94.0999175  88.8326003  27.0576454  94.0855447  89.6649357
  27.2740068  94.9680085  89.3638185  26.5770521  93.6941661  88.9354999
  21.7975675  97.0441160  96.2420102  21.6520256  97.3581463  97.1344383
  21.3200879  97.6626061  95.6891000  23.6572058  94.0343708  96.2900991
  23.6433627  93.1384802  95.9533289  24.3744486  94.0414372  96.9239277
  25.5098189  94.4681049  98.3354119  25.2515967  95.3898119  98.3338449
  24.9783229  94.0711483  99.0254583  30.4544378 107.5731836  91.1144204
  30.6281255 107.0078258  90.3618057  30.9473269 108.3732731  90.9323694
  16.2721337  99.5846505  99.1807763  15.7274805 100.3606313  99.3128037
  17.1500687  99.9317309  99.0226884  23.0608954  92.9158089  91.5588562
  23.1824865  91.9874735  91.7579449  22.7710996  92.9296775  90.6466877
  25.9300144  90.6012999  94.6955281  25.9521841  90.6652332  93.7407261
  26.3468203  89.7617508  94.8895788  36.3083769 100.3368259  92.7334504
  36.7514915  99.5875584  92.3353627  35.4310279 100.3278395  92.3508236
  31.4419550 106.8898600  88.2141103  32.1370455 107.5105293  88.4328417
  31.7842700 106.0393951  88.4893480  17.0587359  98.7116401 102.0737920
  16.3169095  98.8599036 102.6602550  16.7380103  98.9724667 101.2104669
  33.3410973 104.3398306  89.7428433  33.8662297 104.6785578  89.0177753
  33.2533326 103.4045321  89.5591568  25.0031022 108.2532379 101.8718310
  25.3118148 108.0081526 102.7441009  25.8006504 108.4579018 101.3837180
  25.0251634 110.4070289  94.1023686  24.5856624 109.9146668  94.7956543
  25.7759751 109.8643257  93.8615762  17.5043973 106.5981830  94.1048315
  18.3301993 106.2985602  93.7246958  17.1538025 105.8289452  94.5538103
  22.4725506 105.9508298  96.1745988  21.8505515 105.2879003  95.8748216
  23.1430373 105.9769430  95.4919636  15.7052578 104.5168156  95.0637248
  14.8684486 104.0890331  94.8821249  15.6776223 104.7100600  96.0008039
  22.5450034  94.4290086 105.7678494  22.5938189  95.3052209 105.3856264
  23.0872548  93.8867479 105.1950137  33.0304879 104.9731209 105.0479631
  32.2400423 104.9555348 104.5084131  32.7938234 105.5119503 105.8028668
  33.1502754 101.8223676 102.3612360  33.2000759 101.6573683 103.3027883
  33.0416678 100.9550935 101.9710241  22.0339013 104.5012221  89.6504449
  22.1827133 105.1847686  88.9971121  22.8405456 104.4817311  90.1653904
  30.4406517  97.8054604 103.6771666  31.3416379  97.6661069 103.3855664
  30.5154491  97.9709059 104.6169844  24.7749322  95.1821458 102.5224853
  23.9052631  95.4755025 102.2507441  25.0108802  95.7661903 103.2432116
  34.6520951 104.2420617 102.6054381  34.3605759 104.6050598 103.4417842
  34.0393082 103.5287625 102.4267713  35.8516633 101.8073497  95.1256952
  36.6863525 102.2463301  95.2894512  35.9875762 101.3312150  94.3065197
  32.9008139  99.3653232 101.0734439  33.3762261  99.5580878 100.2653291
  31.9773705  99.4212418 100.8277823  19.7891646 100.5277399  90.6565518
  19.5437688  99.6239729  90.8545728  19.9587560 100.5294549  89.7144996
  27.4788356  91.4001075 100.0390273  27.9970300  92.1362102  99.7136762
  27.1243489  91.7065069 100.8737032  19.0587293  96.2605757  88.1551679
  18.3656538  96.3350112  87.4991715  18.8139045  95.4966100  88.6773196
  27.7300950  87.8201358  95.5591170  28.0102704  87.1524547  96.1851596
  28.5151557  88.0130454  95.0465834  25.5334418 106.9960352  87.1216196
  24.9608386 107.6150539  86.6686668  26.1067212 107.5459714  87.6556118
  31.6009808  96.2418992  99.3062745  32.5527231  96.3417090  99.3274969
  31.4313259  95.4497260  99.8160829  29.6224188  93.3274575  99.4922146
  29.0274120  93.6079588  98.7968634  29.3373884  93.8168476 100.2638887
  28.7531678 107.2797502  88.2524778  29.6862351 107.2143064  88.4557654
  28.6654891 108.1153769  87.7939311  31.3819695 106.5963372  85.2128726
  31.3033326 106.2623236  86.1064484  32.2029362 107.0885140  85.2120198
  34.0797886  99.4625112  98.4205045  34.0474206  98.5241112  98.6064728
  34.6898510  99.5409148  97.6870869  25.9181217  98.3321165  84.4632249
  26.8640322  98.2027373  84.5320667  25.5395462  97.5935826  84.9401677
  34.2292375  96.2536155  98.4663328  33.7131423  95.4694612  98.2793257
  35.1132323  95.9254872  98.6309847  31.8903102  89.9977171  94.4259140
  31.6927923  89.6892259  95.3102472  32.5002807  90.7238810  94.5557070
  39.8974436 100.5241118  97.5611081  40.6277824 100.2626407  98.1218785
  39.2881381  99.7869840  97.6013149  37.9789733  98.6648981  98.1585533
  37.2522897  98.5304946  97.5502024  37.5637020  98.9725810  98.9642251
  25.8019910 102.3838911 105.9232906  26.7222919 102.5617510 106.1172952
  25.7669493 101.4394956 105.7712605  24.1024134  96.2571141  84.3987134
  23.1955590  95.9604254  84.4749847  24.3800115  95.9600959  83.5321420
  15.0202075  97.5777504  94.8486180  14.7004859  96.7242813  94.5560554
  14.4735503  97.7926083  95.6044148  18.7981982 100.2939945  98.5655687
  19.0167992 101.2257053  98.5843721  19.2107756  99.9347920  99.3510491
  25.7186200  90.8008031  90.5531375  24.9086928  90.4555116  90.9286621
  26.4070617  90.4915574  91.1418987  27.6476748  89.8786077  92.1755672
  28.2007787  90.2981531  92.8345695  27.8846834  88.9521826  92.2178628
  23.6709847  95.8673151 107.9558436  23.5706574  96.8167508 107.8870527
  23.4531389  95.5391390 107.0834506  22.8722919  93.1158076  84.5399113
  23.7342083  93.4412975  84.7994930  23.0573263  92.3289572  84.0272179
  14.8890335 101.1980416  96.8179302  14.1953806 100.7834369  96.3049256
  15.6363326 101.2400952  96.2212721  31.0255555  91.9886603  91.6834336
  30.4454224  92.6471407  91.3012388  30.7591488  91.1663947  91.2721754
  29.4759122  91.3891660  93.8855656  29.9758900  91.5008195  93.0769975
  30.1194730  91.0852713  94.5256465  23.5341117  99.2970290 106.7723497
  23.0508199 100.0970650 106.9787386  23.6202056  99.3078235 105.8190941
  16.8027077 101.1298670  94.6945317  16.7797765 101.2286357  93.7427200
  17.1127714 101.9763820  95.0162483  19.4614455 103.1874825  98.8091931
  20.4157708 103.1558767  98.7421863  19.2626978 102.7265448  99.6242157
  20.0513837 101.7575941 101.3762729  20.8706726 102.2520019 101.3997566
  20.3250645 100.8407909 101.3480296  29.8080433  94.1486693  90.7390684
  28.9206288  94.4336344  90.5210879  30.2234422  93.9880456  89.8917961
  33.1594969  94.1733214  94.4545024  33.9355359  94.6629666  94.7269640
  32.4343104  94.5991268  94.9116893  35.5967528  94.8860833  95.5118964
  36.1912019  94.6456569  94.8012272  35.6694112  94.1667964  96.1392500
  17.8164684 108.7294444  95.8262129  17.6819152 107.9694845  95.2600127
  17.3996746 109.4535344  95.3590918  28.9523647 103.9131368  84.8338704
  29.6559497 104.1181370  85.4496360  28.2286295 104.4808130  85.0987788
  29.7821457  99.6641229  90.9540974  29.7256658 100.1209780  90.1148607
  30.3349799  98.9031914  90.7763817  33.5926263  95.4530961  91.7791094
  33.3363197  95.0527597  92.6099302  32.9679131  96.1674755  91.6541233
  37.9038601  98.1927034  94.2862385  37.3438159  98.2620223  95.0593947
  37.2982104  98.0168019  93.5661882  20.9733810 109.6263761  96.0380572
  20.8566194 110.5709194  95.9359262  20.1526256 109.3237323  96.4266371
  30.8610344 104.3513897  86.8837164  31.6955948 103.9195095  86.7014639
  30.6994687 104.1795911  87.8114059  30.5156236 100.8546010  88.2493504
  30.4605040 100.6890282  87.3081948  29.8902292 101.5622043  88.4055693
  15.3048751  96.0914075 102.0754926  15.9507615  95.5813029 102.5642151
  15.0965902  96.8282756 102.6498351  27.8302143 103.1594922 107.5747066
  28.6993303 103.3335574 107.2133701  27.3508895 103.9789339 107.4522796
  23.8252362  90.3554119  87.8278822  23.8131032  91.2995959  87.9847093
  24.7175784  90.1724265  87.5338283  21.9988324 110.2792023  99.2536500
  22.9015570 110.3115633  99.5702995  21.7725694 109.3492474  99.2682836
  23.7541926 109.0323010  95.9146579  22.8037557 109.0324871  95.8010951
  24.0574412 108.2855744  95.3982613  27.6404481  86.9496896  92.0824759
  26.8736877  86.3955383  92.2281441  28.0515186  87.0218765  92.9438910
  19.6446242  93.2381692 106.1729940  20.5077704  92.8818497 106.3833265
  19.0711653  92.8995586 106.8605344  39.4894619 114.8683548  96.9792341
  40.1273029 114.7490295  96.2755681  39.3715462 115.8164392  97.0380293
  36.2984325 114.8210976  96.9153866  35.9602837 114.7052041  96.0274401
  37.1674094 114.4202141  96.8954872  32.1571141 116.6746453  92.9050757
  31.5936006 116.5836389  92.1367044  32.0423536 115.8546357  93.3853249
  36.7804108 115.9745828 102.8740071  36.7692749 115.5798626 102.0020575
  36.9424748 115.2411900 103.4673843  29.7035573 118.1697644  95.7434977
  30.4956865 117.8288469  95.3281276  29.9432223 118.2792619  96.6637130
  37.7370700 120.3417420  88.2165222  37.0858680 120.9271501  87.8299235
  38.5315063 120.8723615  88.2760259  31.6626327 117.4306557  88.6152356
  32.4357203 116.8835544  88.4765232  32.0151726 118.2950807  88.8266817
  33.5011370 118.7582940 101.8219255  33.2101236 119.6628570 101.7065922
  34.1368354 118.7999467 102.5363325  34.4267576 116.1359788  98.4120615
  35.0231149 115.9115811  97.6977578  34.4842548 115.3944534  99.0146063
  33.9992605 113.5899224  86.2470806  34.2518126 113.0680745  85.4854269
  33.0617164 113.4265369  86.3497489  39.0435888 112.5935002  94.0545549
  39.8298977 112.1754425  93.7035966  39.3074592 113.4981094  94.2227197
  39.2145965 118.0307852  88.7534206  38.5791798 118.1042479  89.4655111
  38.8843371 118.6201451  88.0753285  44.4444315 112.5310235  94.9578528
  45.1769487 111.9609452  95.1916357  43.6883671 112.1431836  95.3985033
  33.7188894 115.4927329  88.4495181  33.6025152 114.8172233  89.1176265
  33.8291154 115.0059703  87.6327334  36.0620435 114.9537477  92.1541870
  35.6978642 114.4268098  92.8654792  36.9187550 114.5635946  91.9808355
  41.9669735 106.2431809  99.4173136  41.6353060 107.1127220  99.1934351
  41.3715349 105.9268093 100.0967167  35.7025922 109.9827376  87.1503219
  35.8700324 110.8507613  87.5173690  35.5123091 110.1454658  86.2264508
  38.4601255 118.4444355  98.8169049  38.1601978 119.3469394  98.7084856
  38.1152314 118.1776538  99.6690202  31.9113736 114.8958152  94.8505753
  30.9864233 114.7634366  95.0583445  32.1598149 115.6752371  95.3475696
  41.8598399 110.9626895  96.4966486  40.9515276 110.8942304  96.2025247
  41.8085994 111.4398840  97.3248312  35.6815142 112.4385034  88.1349885
  35.5614768 112.8842085  88.9735366  34.9867731 112.7870351  87.5763424
  29.2722547 114.5391426  95.6849542  29.4014928 114.7925904  96.5988954
  28.5919999 115.1319134  95.3654198  33.4422035 125.2088676  91.7840017
  33.3646064 126.1596501  91.8628497  32.8383678 124.8634548  92.4414943
  35.9339264 112.3816541 104.4401384  35.1572598 112.9410461 104.4304248
  36.5729827 112.8673324 104.9616254  43.7260045 109.1643334  98.2744360
  43.0834425 109.4575867  97.6284155  43.2214973 109.0496254  99.0797557
  41.3800209 112.9106507  88.9630219  42.2918065 113.1433894  88.7877917
  40.8709856 113.4943551  88.4005298  34.1885637 115.1901994 104.0019351
  34.9300321 115.7287038 103.7254174  33.4822622 115.8168283 104.1590902
  39.6640976 117.3331135 102.5991512  40.0724332 116.8913545 101.8546144
  38.9418238 116.7583762 102.8525705  36.0172046 112.2703742  99.9725069
  36.8633241 112.6943155 100.1159718  35.9570684 111.6137366 100.6663632
  39.9869791 117.8932325  96.3543801  39.3578653 118.0578040  95.6519869
  39.5995453 118.3073935  97.1254765  43.8659023 118.8286763  93.7088165
  43.1810061 119.2085665  93.1585198  43.9502872 119.4382090  94.4420112
  39.1671492 109.9308110 101.6306243  38.9232423 110.6850170 101.0940518
  39.4431422 110.3093458 102.4653490  41.1209954 116.4746722 100.3083508
  41.3326850 117.1178482  99.6317889  41.0739703 115.6409039  99.8405438
  38.7236183 109.0864543  97.2120080  37.8620662 109.3845796  97.5036818
  38.7498618 109.3034942  96.2801113  35.5397753 117.6306733  93.6193886
  36.0036098 117.9094436  92.8298509  35.2754551 116.7290178  93.4366977
  32.4321834 117.1778215  96.5573649  33.0023191 117.6065483  95.9191134
  33.0229946 116.8960800  97.2557835  34.4766639 113.7529886  90.4283451
  35.1790682 114.2050930  90.8957378  34.1447267 113.1113705  91.0563344
  32.9247000 112.3441642 104.8034661  32.2945661 113.0257923 105.0370057
  32.8183088 112.2324724 103.8587799  28.2191973 112.0113439  95.7300585
  27.4291027 112.2670967  95.2540695  28.7103220 112.8261776  95.8352625
  42.2355782 119.3518678  98.4805866  43.0573226 118.9498865  98.1988547
  42.2318185 119.2486912  99.4321981  30.1706718 112.3758018  92.6884061
  29.3737881 112.4876712  93.2067557  29.9432310 112.7144670  91.8224952
  36.0012386 118.9002721 100.6366576  36.0656818 119.3623128 101.4724748
  35.2923310 118.2700086 100.7648886  26.5029676 112.2643929  98.1615576
  26.7537714 113.1490939  98.4273151  27.0389224 112.0848530  97.3890667
  50.3261775 115.6957426  94.8290837  49.5725484 115.1264824  94.6734841
  50.4609317 115.6620091  95.7761472  35.7160403 120.5670828  90.5045556
  35.5806078 121.4122364  90.9330404  36.2570216 120.7690106  89.7411490
  32.2027743 106.6462408 107.1659912  31.8094689 106.0928607 107.8407556
  33.0193883 106.9572987 107.5566429  29.1689801 118.0846267  91.0773481
  29.6814321 118.8789517  91.2279046  29.8212514 117.3872557  91.0107083
  30.9784686 121.2012023  93.1596235  31.1551314 122.1229987  92.9717219
  31.7741519 120.8870442  93.5890614  35.1195704 108.0620287 104.7580168
  35.8605417 108.6627441 104.6784631  35.3513627 107.3197925 104.1998211
  30.2637042 113.2476655 103.0358398  30.1490557 112.3461912 103.3365497
  29.4081560 113.4940351 102.6843214  37.3428880 121.1894395 104.6345898
  36.8992734 120.4030774 104.3166803  38.0046093 121.3773545 103.9689789
  32.1016001 122.7190197  99.1606577  32.6523426 122.5907260  98.3883571
  31.2627477 123.0185086  98.8101470  39.4410118 121.4697195 102.6627300
  39.4228593 122.2906076 102.1707569  40.3630038 121.3451270 102.8877441
  35.8983172 118.9841324 103.5050808  36.4311509 118.2229613 103.2750116
  35.3697253 118.6914976 104.2474963  39.0652867 104.0901390  99.0344450
  38.7217136 104.9803032  98.9583560  39.4331830 103.9003048  98.1714035
  27.1338718 116.4134921  91.8533052  27.9713940 116.8231929  91.6366760
  27.3116985 115.4734363  91.8233246  39.0303150 114.0810001  87.5416885
  38.5149773 114.8514606  87.7805272  38.7580458 113.4075138  88.1649946
  36.6150261 108.9259702  92.6002123  35.7591857 108.5366553  92.4207762
  37.0277213 109.0051663  91.7401909  38.1449407 106.4606046  96.9993683
  37.6414203 106.4236181  96.1861488  38.4380014 107.3698788  97.0590340
  34.3892293 106.5444775  96.0059865  35.2545290 106.3487584  95.6465754
  34.4569802 106.3155127  96.9329222  44.0037424 116.8342356  89.4770058
  43.2266867 116.4953516  89.0325221  44.6828905 116.8394979  88.8025023
  38.8189453 111.9537094  89.3676666  38.5139588 112.2683243  90.2186809
  39.7719895 112.0318513  89.4103999  37.2635885 118.1127317  91.0169620
  36.7357246 117.3780076  90.7042858  36.7623387 118.8901993  90.7709588
  42.2428731 116.3076337  96.1336666  41.5852405 116.9975599  96.2216795
  43.0469130 116.6972769  96.4770653  31.9954612 108.7746983  93.3776232
  32.5698364 108.5522165  92.6449425  32.5825595 108.8435678  94.1304833
  41.0534190 114.6620710  94.1840608  41.5666071 115.2950702  94.6862318
  41.7035413 114.0621906  93.8183968  32.3224199 110.8051444  87.3972117
  31.4861512 111.1426131  87.7181392  32.1828969 110.6700424  86.4599254
  34.2977280 105.6488232  92.1051301  33.6441692 105.3337249  91.4807916
  34.2557754 105.0263973  92.8311124  35.4088485 115.9307527  84.0204593
  34.5015547 115.6996781  84.2195742  35.9059517 115.1345146  84.2078575
  38.3156564 124.6405034  86.9401279  37.6418263 124.9436731  87.5486237
  38.7022386 125.4434115  86.5906736  37.5315020 112.1370166  96.4298949
  36.6137582 112.3585113  96.2720637  37.9475164 112.2116476  95.5710656
  38.3150068 113.5361581  91.5601629  39.0621887 114.0482978  91.2508751
  38.5841658 113.2145634  92.4206023  36.5876718 116.0320122  88.5428583
  35.6787938 115.7479155  88.6401053  36.6171802 116.4519201  87.6831890
  41.8195986 119.6426712  92.3119751  41.3658313 118.8017621  92.3684941
  41.1889952 120.2788110  92.6494531  40.7628905 110.5718698  93.5420418
  40.0251662 110.0596084  93.8730661  41.0155679 110.1319079  92.7303695
  40.2628925 121.4803208  93.2469569  40.5551899 122.0408265  92.5281935
  40.7727546 121.7731769  94.0022728  40.8640533 103.3494950  94.1362188
  41.1699409 102.4892313  93.8488103  41.5893137 103.9412570  93.9361181
  27.1564889 113.7525636  92.5243785  26.9589289 113.1594997  91.7994852
  26.6011553 113.4477846  93.2419724  35.1361612 113.6448743  94.6438379
  35.1910222 112.6922579  94.5680855  34.3252814 113.8008182  95.1279677
  36.2852806 117.5728866  85.8816662  35.8472236 116.8564725  85.4222299
  37.0263247 117.8004980  85.3201753  33.0753972 112.2625802  92.4028757
  32.2621838 112.5619973  92.8093950  33.5712966 111.8681491  93.1203240
  35.2262550 122.2583559  94.3363022  35.1838729 122.4844406  93.4071554
  36.1425249 122.0246934  94.4848823  38.6728184 112.7267627 101.2343651
  39.0277572 112.9539100 102.0938117  39.3200315 113.0586004 100.6120907
  44.4025921 115.8486063  91.9392980  44.2643820 116.0387659  91.0114170
  44.0462140 116.6105446  92.3961032  32.5668047 109.8344158  98.0189992
  33.2067426 109.6932917  97.3212956  31.7345578 109.5478671  97.6428594
  44.4295301 117.9162590  96.9504252  44.8631807 117.8237879  97.7987306
  45.1426881 117.8920090  96.3124268  33.3428351 119.1346588  94.1324985
  34.1368949 118.6396908  93.9307560  32.6320043 118.6064451  93.7692690
  38.1623195 121.5164684  98.4837352  38.2160218 122.0855620  99.2515068
  37.2937977 121.6866569  98.1191390  29.6511114 113.2789670  90.2084738
  28.7208703 113.2174126  90.4254700  29.7468586 112.7565623  89.4121379
  29.5696663 109.8044483  92.7962979  29.8303481 110.7189816  92.6872140
  30.3913836 109.3368925  92.9459592  31.0421589 111.2182240  99.9661804
  31.7144642 111.0099602  99.3174453  30.2151375 111.0204326  99.5267036
  45.2910850 117.9586290  99.4837137  45.4846740 118.8632101  99.7296412
  45.1911468 117.4993709 100.3175722  36.9447161 107.8444181 101.9827465
  36.2975076 108.5434131 101.8891941  37.7148176 108.2780325 102.3503713
  40.3525959 118.1093033 105.0578018  40.2011465 117.8803585 104.1408102
  40.3430638 119.0663635 105.0709363  37.1211295 115.6824946 100.0424284
  38.0503355 115.8336105  99.8693252  36.7002325 115.7708967  99.1872931
  35.9199627 119.7075610  97.8122822  35.7810713 119.3394395  98.6848760
  35.1314223 120.2223250  97.6406780  36.5147779 124.8084707  89.1548358
  36.6899535 124.3372750  89.9693981  35.8280567 125.4350473  89.3829619
  37.4704842 119.0857213  95.2011660  37.1354675 119.0457983  96.0969310
  36.9708788 118.4201929  94.7282070  31.4449086 114.4924843 100.7264241
  31.3068884 113.7605082 101.3275780  32.3554010 114.4033743 100.4448429
  40.4064034 116.4313247  85.4748719  39.7893204 115.7060075  85.3781772
  39.9380522 117.1922608  85.1315794  34.0731387 114.2044802 100.2147921
  34.7831005 113.5637995 100.1734539  34.0300695 114.4557697 101.1374101
  42.0618165 121.1412156 103.1354500  42.0030712 120.4571376 102.4685083
  42.4637684 121.8831146 102.6835126  32.7860321 111.1910020 102.0343560
  32.2497678 110.7400759 102.6865156  32.1977029 111.3255929 101.2914024
  32.1962580 110.6498672  84.5970024  31.3192046 110.5287472  84.2332270
  32.6720333 109.8584750  84.3448912  42.0635573 119.1051740 101.3668479
  41.1762351 118.7677661 101.4894878  42.6334124 118.3734771 101.6037245
  23.7164720 115.4375831  94.6911531  24.4035760 115.1237561  94.1032546
  23.5612848 116.3417196  94.4178782  28.5199442 110.3266028  99.1196555
  28.4357631 109.7191697  98.3846964  27.6982148 110.8175046  99.1206051
  35.5936726 123.7653192  98.3329723  35.5206898 124.5708163  98.8449027
  35.1514119 123.9645158  97.5077744  35.3826506 123.0024962  91.8432544
  34.5994028 123.5446642  91.9370769  36.0819251 123.5198942  92.2426785
  38.6923156 108.8119591  94.4866750  39.1891855 108.0589554  94.1667820
  37.9210137 108.8483908  93.9209959  46.5452913 114.5159957  96.1285041
  46.5342789 115.3984672  95.7578974  45.6770293 114.1631508  95.9339578
  38.0535410 123.6640026 100.4887881  38.7663382 124.2987491 100.4163783
  37.5625438 123.7603892  99.6727883  39.7752937 117.5691279  92.0605173
  38.8409215 117.6892741  91.8909877  39.9529605 116.6663745  91.7965183
  35.2758125 110.9536974  94.2138434  34.9055912 110.4008015  94.9019340
  35.7717217 110.3495108  93.6613434  43.1625488 113.4108598  92.5955207
  43.6285940 114.2436590  92.5215510  43.6132988 112.9453580  93.3000466
  33.1047323 121.4134469 101.3093452  33.8056783 122.0470952 101.4622846
  32.6342438 121.7549201 100.5489091  41.2301719 119.7552419  89.5941359
  41.5061563 119.6409014  90.5035233  40.3606218 119.3569904  89.5553532
  41.1342151 105.7789185  96.6346108  40.2205230 106.0093412  96.8028315
  41.5635252 105.8627629  97.4860141  40.9048609 113.9679077  99.1346002
  40.2520059 114.2154984  98.4798455  41.2828989 113.1543215  98.8008480
  37.8655783 124.0038770  93.2374173  38.0478178 123.1860426  93.7001925
  38.6888769 124.2206462  92.7999063  38.1997948 122.9306955  90.4989221
  38.7285715 122.4199410  89.8859383  38.4626168 122.6149485  91.3634754
  36.9536182 114.7098888 105.6212040  36.2776819 114.6093017 106.2914415
  37.7763816 114.5538102 106.0848037  28.7015041 120.9470824  98.2424555
  29.2868478 120.2014512  98.3752459  28.5039880 121.2574781  99.1261219
  31.5553696 123.9822072  93.2586997  30.8864072 124.4668200  92.7751037
  31.4166566 124.2291292  94.1730376  23.2932696 113.5176425  96.9628998
  23.3316795 112.9840015  97.7566116  22.7872989 112.9911630  96.3439975
  35.6958965 126.0165815  99.8569656  36.2477273 126.1797437 100.6218741
  36.0365158 126.6070253  99.1849680  30.6723458 108.3640965 100.4591540
  30.7364785 109.2255796 100.0468938  30.6090578 107.7514967  99.7263899
  30.1475731 110.4364098 104.1064575  30.7747770 110.0541175 104.7202099
  29.2903650 110.2178300 104.4720267  40.5469839 120.8427073 105.7118310
  41.0909743 121.4557031 105.2173265  39.9656684 121.4006651 106.2285323
  26.9241274 112.2440527  90.0382929  27.2194715 111.3351205  89.9849983
  26.0229309 112.2228266  89.7163932  38.8327352 123.9647791  96.8433338
  38.7078492 123.1637531  96.3344283  39.4906443 124.4593984  96.3547308
  30.4535521 110.3196523  96.0210478  29.7322106 110.9332491  95.8817951
  31.2428776 110.8554288  95.9427124  40.8962261 121.7656811  98.4712888
  39.9492596 121.6462162  98.3991215  41.2445034 120.8779309  98.5539149
  33.2561834 107.6550950 102.2951130  33.7796236 107.9013246 103.0577439
  33.0374167 108.4870985 101.8754267  28.6529115 109.9254625  90.1622254
  28.3241821 109.0452003  89.9797360  29.0068486 109.8702293  91.0498644
  37.9008694 121.5609527  94.6717240  37.7533656 120.6326235  94.8524810
  38.7262187 121.5829618  94.1874315  31.7670938 110.2127594  90.5297732
  32.1067011 110.7413516  89.8076341  32.2143059 110.5508000  91.3056299
  41.5042816 122.3838086  95.7582113  42.4289363 122.1780947  95.6206564
  41.3358119 122.1354487  96.6671454  34.4614379 108.5964645  99.9800800
  34.1211199 107.7972458 100.3821480  33.7553385 108.8966356  99.4077633
  35.1130851 105.6813957  98.4328123  35.9356920 105.2074436  98.3107014
  35.3568914 106.4604441  98.9326810  33.7539085 108.7102216  88.7291025
  34.4747448 109.0883469  88.2254742  33.1304390 109.4291093  88.8326003
  37.8970208 109.4147365  89.6649357  38.1133823 110.2972003  89.3638185
  37.4164275 109.0233578  88.9354999  32.6369430 112.3733078  96.2420102
  32.4914010 112.6873381  97.1344383  32.1594633 112.9917978  95.6891000
  34.4965813 109.3635626  96.2900991  34.4827381 108.4676719  95.9533289
  35.2138241 109.3706290  96.9239277  36.3491943 109.7972966  98.3354119
  36.0909721 110.7190037  98.3338449  35.8176984 109.4003401  99.0254583
  41.2938132 122.9023753  91.1144204  41.4675010 122.3370176  90.3618057
  41.7867023 123.7024648  90.9323694  27.1115092 114.9138422  99.1807763
  26.5668560 115.6898230  99.3128037  27.9894442 115.2609227  99.0226884
  33.9002708 108.2450006  91.5588562  34.0218620 107.3166653  91.7579449
  33.6104751 108.2588692  90.6466877  36.7693899 105.9304917  94.6955281
  36.7915596 105.9944250  93.7407261  37.1861958 105.0909425  94.8895788
  47.1477523 115.6660176  92.7334504  47.5908669 114.9167502  92.3353627
  46.2704033 115.6570313  92.3508236  42.2813305 122.2190518  88.2141103
  42.9764209 122.8397210  88.4328417  42.6236455 121.3685869  88.4893480
  27.8981114 114.0408319 102.0737920  27.1562850 114.1890954 102.6602550
  27.5773858 114.3016584 101.2104669  44.1804728 119.6690223  89.7428433
  44.7056052 120.0077496  89.0177753  44.0927080 118.7337239  89.5591568
  35.8424776 123.5824297 101.8718310  36.1511903 123.3373444 102.7441009
  36.6400258 123.7870935 101.3837180  35.8645388 125.7362207  94.1023686
  35.4250379 125.2438585  94.7956543  36.6153505 125.1935174  93.8615762
  28.3437727 121.9273747  94.1048315  29.1695747 121.6277519  93.7246958
  27.9931779 121.1581370  94.5538103  33.3119261 121.2800216  96.1745988
  32.6899270 120.6170921  95.8748216  33.9824127 121.3061348  95.4919636
  26.5446332 119.8460074  95.0637248  25.7078241 119.4182248  94.8821249
  26.5169978 120.0392517  96.0008039  33.3843788 109.7582004 105.7678494
  33.4331943 110.6344127 105.3856264  33.9266302 109.2159397 105.1950137
  43.8698634 120.3023127 105.0479631  43.0794177 120.2847266 104.5084131
  43.6331988 120.8411421 105.8028668  43.9896509 117.1515593 102.3612360
  44.0394514 116.9865601 103.3027883  43.8810432 116.2842852 101.9710241
  32.8732767 119.8304139  89.6504449  33.0220888 120.5139603  88.9971121
  33.6799211 119.8109229  90.1653904  41.2800271 113.1346521 103.6771666
  42.1810134 112.9952986 103.3855664  41.3548246 113.3000976 104.6169844
  35.6143076 110.5113376 102.5224853  34.7446386 110.8046942 102.2507441
  35.8502557 111.0953821 103.2432116  45.4914706 119.5712535 102.6054381
  45.1999514 119.9342515 103.4417842  44.8786837 118.8579543 102.4267713
  46.6910388 117.1365415  95.1256952  47.5257279 117.5755219  95.2894512
  46.8269517 116.6604068  94.3065197  43.7401894 114.6945150 101.0734439
  44.2156015 114.8872796 100.2653291  42.8167459 114.7504335 100.8277823
  30.6285400 115.8569317  90.6565518  30.3831442 114.9531647  90.8545728
  30.7981315 115.8586467  89.7144996  38.3182110 106.7292993 100.0390273
  38.8364054 107.4654020  99.7136762  37.9637243 107.0356986 100.8737032
  29.8981048 111.5897674  88.1551679  29.2050293 111.6642029  87.4991715
  29.6532800 110.8258018  88.6773196  38.5694704 103.1493276  95.5591170
  38.8496458 102.4816465  96.1851596  39.3545311 103.3422371  95.0465834
  36.3728173 122.3252269  87.1216196  35.8002140 122.9442457  86.6686668
  36.9460967 122.8751631  87.6556118  42.4403563 111.5710910  99.3062745
  43.3920986 111.6709007  99.3274969  42.2707013 110.7789178  99.8160829
  40.4617942 108.6566493  99.4922146  39.8667874 108.9371506  98.7968634
  40.1767639 109.1460394 100.2638887  39.5925433 122.6089420  88.2524778
  40.5256106 122.5434981  88.4557654  39.5048646 123.4445686  87.7939311
  42.2213449 121.9255290  85.2128726  42.1427081 121.5915154  86.1064484
  43.0423116 122.4177058  85.2120198  44.9191641 114.7917029  98.4205045
  44.8867961 113.8533030  98.6064728  45.5292264 114.8701066  97.6870869
  36.7574971 113.6613082  84.4632249  37.7034076 113.5319290  84.5320667
  36.3789216 112.9227744  84.9401677  45.0686129 111.5828073  98.4663328
  44.5525178 110.7986529  98.2793257  45.9526078 111.2546789  98.6309847
  42.7296856 105.3269088  94.4259140  42.5321677 105.0184176  95.3102472
  43.3396562 106.0530727  94.5557070  50.7368190 115.8533036  97.5611081
  51.4671579 115.5918324  98.1218785  50.1275136 115.1161758  97.6013149
  48.8183488 113.9940899  98.1585533  48.0916651 113.8596864  97.5502024
  48.4030774 114.3017727  98.9642251  36.6413664 117.7130828 105.9232906
  37.5616673 117.8909427 106.1172952  36.6063247 116.7686874 105.7712605
  34.9417889 111.5863059  84.3987134  34.0349344 111.2896171  84.4749847
  35.2193870 111.2892877  83.5321420  25.8595829 112.9069422  94.8486180
  25.5398613 112.0534730  94.5560554  25.3129257 113.1218000  95.6044148
  29.6375737 115.6231863  98.5655687  29.8561746 116.5548971  98.5843721
  30.0501510 115.2639837  99.3510491  36.5579954 106.1299948  90.5531375
  35.7480683 105.7847033  90.9286621  37.2464371 105.8207492  91.1418987
  38.4870503 105.2077995  92.1755672  39.0401541 105.6273449  92.8345695
  38.7240589 104.2813743  92.2178628  34.5103602 111.1965069 107.9558436
  34.4100329 112.1459426 107.8870527  34.2925144 110.8683308 107.0834506
  33.7116673 108.4449994  84.5399113  34.5735837 108.7704892  84.7994930
  33.8967017 107.6581490  84.0272179  25.7284089 116.5272334  96.8179302
  25.0347560 116.1126286  96.3049256  26.4757080 116.5692870  96.2212721
  41.8649310 107.3178520  91.6834336  41.2847979 107.9763324  91.3012388
  41.5985242 106.4955865  91.2721754  40.3152876 106.7183578  93.8855656
  40.8152654 106.8300113  93.0769975  40.9588484 106.4144631  94.5256465
  34.3734872 114.6262208 106.7723497  33.8901954 115.4262568 106.9787386
  34.4595811 114.6370153 105.8190941  27.6420832 116.4590587  94.6945317
  27.6191520 116.5578275  93.7427200  27.9521468 117.3055738  95.0162483
  30.3008209 118.5166742  98.8091931  31.2551463 118.4850685  98.7421863
  30.1020733 118.0557366  99.6242157  30.8907592 117.0867858 101.3762729
  31.7100481 117.5811937 101.3997566  31.1644399 116.1699827 101.3480296
  40.6474188 109.4778611  90.7390684  39.7600043 109.7628261  90.5210879
  41.0628177 109.3172374  89.8917961  43.9988724 109.5025132  94.4545024
  44.7749114 109.9921584  94.7269640  43.2736858 109.9283186  94.9116893
  46.4361282 110.2152751  95.5118964  47.0305773 109.9748487  94.8012272
  46.5087866 109.4959881  96.1392500  28.6558438 124.0586362  95.8262129
  28.5212906 123.2986763  95.2600127  28.2390500 124.7827262  95.3590918
  39.7917401 119.2423285  84.8338704  40.4953251 119.4473288  85.4496360
  39.0680050 119.8100047  85.0987788  40.6215211 114.9933147  90.9540974
  40.5650413 115.4501698  90.1148607  41.1743554 114.2323831  90.7763817
  44.4320017 110.7822879  91.7791094  44.1756952 110.3819514  92.6099302
  43.8072885 111.4966672  91.6541233  48.7432355 113.5218952  94.2862385
  48.1831913 113.5912141  95.0593947  48.1375859 113.3459936  93.5661882
  31.8127564 124.9555679  96.0380572  31.6959948 125.9001111  95.9359262
  30.9920010 124.6529240  96.4266371  41.7004099 119.6805815  86.8837164
  42.5349703 119.2487013  86.7014639  41.5388442 119.5087828  87.8114059
  41.3549991 116.1837928  88.2493504  41.2998795 116.0182199  87.3081948
  40.7296046 116.8913961  88.4055693  26.1442506 111.4205992 102.0754926
  26.7901369 110.9104946 102.5642151  25.9359657 112.1574674 102.6498351
  38.6695898 118.4886840 107.5747066  39.5387058 118.6627492 107.2133701
  38.1902649 119.3081257 107.4522796  34.6646116 105.6846037  87.8278822
  34.6524786 106.6287877  87.9847093  35.5569538 105.5016182  87.5338283
  32.8382078 125.6083941  99.2536500  33.7409325 125.6407551  99.5702995
  32.6119448 124.6784392  99.2682836  34.5935680 124.3614927  95.9146579
  33.6431311 124.3616789  95.8010951  34.8968166 123.6147662  95.3982613
  38.4798236 102.2788814  92.0824759  37.7130632 101.7247300  92.2281441
  38.8908941 102.3510682  92.9438910  30.4839997 108.5673609 106.1729940
  31.3471458 108.2110414 106.3833265  29.9105407 108.2287504 106.8605344
  50.3288374 130.1975466  96.9792341  50.9666784 130.0782213  96.2755681
  50.2109217 131.1456310  97.0380293  47.1378080 130.1502894  96.9153866
  46.7996591 130.0343958  96.0274401  48.0067848 129.7494059  96.8954872
  42.9964896 132.0038370  92.9050757  42.4329761 131.9128307  92.1367044
  42.8817291 131.1838275  93.3853249  47.6197863 131.3037746 102.8740071
  47.6086504 130.9090544 102.0020575  47.7818502 130.5703818 103.4673843
  45.2661331 131.4651706  98.4120615  45.8624903 131.2407728  97.6977578
  45.3236302 130.7236451  99.0146063  44.8386359 128.9191141  86.2470806
  45.0911880 128.3972662  85.4854269  43.9010918 128.7557287  86.3497489
  49.8829642 127.9226920  94.0545549  50.6692731 127.5046343  93.7035966
  50.1468347 128.8273012  94.2227197  50.0539720 133.3599770  88.7534206
  49.4185553 133.4334396  89.4655111  49.7237126 133.9493369  88.0753285
  55.2838069 127.8602153  94.9578528  56.0163241 127.2901370  95.1916357
  54.5277425 127.4723753  95.3985033  44.5582648 130.8219247  88.4495181
  44.4418906 130.1464151  89.1176265  44.6684908 130.3351621  87.6327334
  46.9014189 130.2829394  92.1541870  46.5372396 129.7560015  92.8654792
  47.7581305 129.8927863  91.9808355  52.8063490 121.5723727  99.4173136
  52.4746814 122.4419138  99.1934351  52.2109103 121.2560011 100.0967167
  46.5419676 125.3119294  87.1503219  46.7094078 126.1799530  87.5173690
  46.3516845 125.4746576  86.2264508  49.2995009 133.7736273  98.8169049
  48.9995732 134.6761312  98.7084856  48.9546069 133.5068456  99.6690202
  42.7507491 130.2250070  94.8505753  41.8257987 130.0926284  95.0583445
  42.9991904 131.0044289  95.3475696  52.6992153 126.2918813  96.4966486
  51.7909030 126.2234221  96.2025247  52.6479749 126.7690758  97.3248312
  46.5208897 127.7676951  88.1349885  46.4008522 128.2134002  88.9735366
  45.8261485 128.1162269  87.5763424  40.1116302 129.8683343  95.6849542
  40.2408683 130.1217822  96.5988954  39.4313753 130.4611051  95.3654198
  46.7733019 127.7108459 104.4401384  45.9966353 128.2702379 104.4304248
  47.4123582 128.1965242 104.9616254  54.5653799 124.4935251  98.2744360
  53.9228180 124.7867785  97.6284155  54.0608728 124.3788172  99.0797557
  52.2193963 128.2398425  88.9630219  53.1311819 128.4725811  88.7877917
  51.7103610 128.8235469  88.4005298  45.0279391 130.5193912 104.0019351
  45.7694075 131.0578956 103.7254174  44.3216377 131.1460201 104.1590902
  50.5034731 132.6623052 102.5991512  50.9118087 132.2205463 101.8546144
  49.7811992 132.0875680 102.8525705  46.8565801 127.5995659  99.9725069
  47.7026996 128.0235073 100.1159718  46.7964438 126.9429284 100.6663632
  50.8263545 133.2224243  96.3543801  50.1972408 133.3869957  95.6519869
  50.4389207 133.6365853  97.1254765  54.7052777 134.1578681  93.7088165
  54.0203815 134.5377582  93.1585198  54.7896627 134.7674008  94.4420112
  50.0065246 125.2600028 101.6306243  49.7626178 126.0142088 101.0940518
  50.2825177 125.6385375 102.4653490  51.9603709 131.8038640 100.3083508
  52.1720604 132.4470400  99.6317889  51.9133457 130.9700956  99.8405438
  49.5629938 124.4156461  97.2120080  48.7014417 124.7137714  97.5036818
  49.5892372 124.6326859  96.2801113  46.3791507 132.9598651  93.6193886
  46.8429853 133.2386354  92.8298509  46.1148305 132.0582096  93.4366977
  45.3160393 129.0821804  90.4283451  46.0184437 129.5342847  90.8957378
  44.9841022 128.4405622  91.0563344  43.7640755 127.6733560 104.8034661
  43.1339415 128.3549841 105.0370057  43.6576843 127.5616642 103.8587799
  39.0585727 127.3405356  95.7300585  38.2684781 127.5962885  95.2540695
  39.5496975 128.1553694  95.8352625  53.0749537 134.6810595  98.4805866
  53.8966981 134.2790783  98.1988547  53.0711940 134.5778830  99.4321981
  41.0100473 127.7049935  92.6884061  40.2131636 127.8168630  93.2067557
  40.7826065 128.0436588  91.8224952  37.3423430 127.5935847  98.1615576
  37.5931469 128.4782857  98.4273151  37.8782979 127.4140448  97.3890667
  61.1655530 131.0249344  94.8290837  60.4119238 130.4556742  94.6734841
  61.3003071 130.9912008  95.7761472  43.0421498 121.9754326 107.1659912
  42.6488443 121.4220525 107.8407556  43.8587638 122.2864904 107.5566429
  45.9589459 123.3912205 104.7580168  46.6999172 123.9919358 104.6784631
  46.1907381 122.6489843 104.1998211  41.1030797 128.5768572 103.0358398
  40.9884312 127.6753830 103.3365497  40.2475314 128.8232269 102.6843214
  49.9046621 119.4193308  99.0344450  49.5610891 120.3094950  98.9583560
  50.2725584 119.2294966  98.1714035  49.8696904 129.4101919  87.5416885
  49.3543528 130.1806524  87.7805272  49.5974213 128.7367055  88.1649946
  47.4544015 124.2551620  92.6002123  46.5985612 123.8658470  92.4207762
  47.8670967 124.3343581  91.7401909  48.9843162 121.7897963  96.9993683
  48.4807957 121.7528098  96.1861488  49.2773769 122.6990706  97.0590340
  45.2286048 121.8736693  96.0059865  46.0939045 121.6779502  95.6465754
  45.2963557 121.6447045  96.9329222  54.8431178 132.1634274  89.4770058
  54.0660621 131.8245433  89.0325221  55.5222659 132.1686897  88.8025023
  49.6583207 127.2829011  89.3676666  49.3533343 127.5975160  90.2186809
  50.6113649 127.3610431  89.4103999  53.0822485 131.6368255  96.1336666
  52.4246160 132.3267516  96.2216795  53.8862884 132.0264687  96.4770653
  42.8348367 124.1038901  93.3776232  43.4092119 123.8814082  92.6449425
  43.4219349 124.1727595  94.1304833  51.8927944 129.9912628  94.1840608
  52.4059826 130.6242620  94.6862318  52.5429168 129.3913823  93.8183968
  43.1617954 126.1343362  87.3972117  42.3255266 126.4718048  87.7181392
  43.0222724 125.9992342  86.4599254  45.1371035 120.9780150  92.1051301
  44.4835447 120.6629167  91.4807916  45.0951509 120.3555890  92.8311124
  46.2482239 131.2599445  84.0204593  45.3409301 131.0288698  84.2195742
  46.7453271 130.4637064  84.2078575  48.3708775 127.4662083  96.4298949
  47.4531336 127.6877030  96.2720637  48.7868919 127.5408394  95.5710656
  49.1543823 128.8653499  91.5601629  49.9015642 129.3774896  91.2508751
  49.4235412 128.5437552  92.4206023  47.4270473 131.3612040  88.5428583
  46.5181692 131.0771072  88.6401053  47.4565557 131.7811118  87.6831890
  52.6589740 134.9718629  92.3119751  52.2052067 134.1309539  92.3684941
  52.0283707 135.6080028  92.6494531  51.6022660 125.9010615  93.5420418
  50.8645417 125.3888001  93.8730661  51.8549433 125.4610997  92.7303695
  51.7034287 118.6786867  94.1362188  52.0093164 117.8184231  93.8488103
  52.4286892 119.2704487  93.9361181  37.9958643 129.0817554  92.5243785
  37.7983043 128.4886915  91.7994852  37.4405307 128.7769764  93.2419724
  45.9755367 128.9740660  94.6438379  46.0303977 128.0214497  94.5680855
  45.1646569 129.1300099  95.1279677  47.1246561 132.9020783  85.8816662
  46.6865991 132.1856642  85.4222299  47.8657002 133.1296898  85.3201753
  43.9147727 127.5917720  92.4028757  43.1015592 127.8911891  92.8093950
  44.4106721 127.1973409  93.1203240  49.5121938 128.0559545 101.2343651
  49.8671326 128.2831018 102.0938117  50.1594070 128.3877921 100.6120907
  55.2419675 131.1777980  91.9392980  55.1037574 131.3679576  91.0114170
  54.8855894 131.9397363  92.3961032  43.4061802 125.1636076  98.0189992
  44.0461181 125.0224835  97.3212956  42.5739332 124.8770589  97.6428594
  55.2689055 133.2454507  96.9504252  55.7025562 133.1529796  97.7987306
  55.9820636 133.2212008  96.3124268  40.4904869 128.6081588  90.2084738
  39.5602457 128.5466043  90.4254700  40.5862341 128.0857540  89.4121379
  40.4090418 125.1336401  92.7962979  40.6697235 126.0481734  92.6872140
  41.2307590 124.6660843  92.9459592  41.8815343 126.5474158  99.9661804
  42.5538397 126.3391520  99.3174453  41.0545130 126.3496244  99.5267036
  56.1304605 133.2878208  99.4837137  56.3240495 134.1924019  99.7296412
  56.0305223 132.8285627 100.3175722  47.7840915 123.1736099 101.9827465
  47.1368830 123.8726048 101.8891941  48.5541931 123.6072243 102.3503713
  51.1919713 133.4384951 105.0578018  51.0405220 133.2095502 104.1408102
  51.1824393 134.3955552 105.0709363  47.9605050 131.0116864 100.0424284
  48.8897110 131.1628023  99.8693252  47.5396080 131.1000884  99.1872931
  42.2842841 129.8216761 100.7264241  42.1462639 129.0897000 101.3275780
  43.1947764 129.7325661 100.4448429  51.2457788 131.7605165  85.4748719
  50.6286959 131.0351993  85.3781772  50.7774277 132.5214525  85.1315794
  44.9125141 129.5336720 100.2147921  45.6224760 128.8929912 100.1734539
  44.8694449 129.7849615 101.1374101  43.6254075 126.5201938 102.0343560
  43.0891432 126.0692676 102.6865156  43.0370784 126.6547847 101.2914024
  43.0356334 125.9790589  84.5970024  42.1585800 125.8579390  84.2332270
  43.5114087 125.1876668  84.3448912  52.9029327 134.4343657 101.3668479
  52.0156106 134.0969579 101.4894878  53.4727878 133.7026689 101.6037245
  39.3593196 125.6557946  99.1196555  39.2751385 125.0483615  98.3846964
  38.5375903 126.1466964  99.1206051  49.5316910 124.1411509  94.4866750
  50.0285610 123.3881471  94.1667820  48.7603892 124.1775826  93.9209959
  57.3846668 129.8451875  96.1285041  57.3736544 130.7276590  95.7578974
  56.5164047 129.4923425  95.9339578  50.6146691 132.8983196  92.0605173
  49.6802970 133.0184659  91.8909877  50.7923359 131.9955663  91.7965183
  46.1151879 126.2828892  94.2138434  45.7449667 125.7299932  94.9019340
  46.6110972 125.6787026  93.6613434  54.0019242 128.7400516  92.5955207
  54.4679695 129.5728507  92.5215510  54.4526743 128.2745497  93.3000466
  52.0695473 135.0844337  89.5941359  52.3455317 134.9700931  90.5035233
  51.1999972 134.6861822  89.5553532  51.9735905 121.1081103  96.6346108
  51.0598985 121.3385329  96.8028315  52.4029007 121.1919547  97.4860141
  51.7442364 129.2970995  99.1346002  51.0913814 129.5446902  98.4798455
  52.1222743 128.4835133  98.8008480  47.7929937 130.0390806 105.6212040
  47.1170574 129.9384935 106.2914415  48.6157571 129.8830019 106.0848037
  34.1326450 128.8468342  96.9628998  34.1710550 128.3131933  97.7566116
  33.6266743 128.3203548  96.3439975  41.5117213 123.6932883 100.4591540
  41.5758539 124.5547714 100.0468938  41.4484333 123.0806885  99.7263899
  40.9869485 125.7656015 104.1064575  41.6141524 125.3833093 104.7202099
  40.1297404 125.5470217 104.4720267  37.7635028 127.5732445  90.0382929
  38.0588469 126.6643123  89.9849983  36.8623064 127.5520184  89.7163932
  41.2929275 125.6488441  96.0210478  40.5715861 126.2624409  95.8817951
  42.0822531 126.1846206  95.9427124  44.0955589 122.9842868 102.2951130
  44.6189990 123.2305164 103.0577439  43.8767922 123.8162902 101.8754267
  39.4922870 125.2546542  90.1622254  39.1635576 124.3743921  89.9797360
  39.8462240 125.1994211  91.0498644  42.6064693 125.5419512  90.5297732
  42.9460765 126.0705433  89.8076341  43.0536813 125.8799918  91.3056299
  45.3008134 123.9256563  99.9800800  44.9604954 123.1264376 100.3821480
  44.5947140 124.2258274  99.4077633  45.9524605 121.0105875  98.4328123
  46.7750675 120.5366353  98.3107014  46.1962669 121.7896359  98.9326810
  44.5932840 124.0394134  88.7291025  45.3141202 124.4175386  88.2254742
  43.9698144 124.7583010  88.8326003  48.7363963 124.7439283  89.6649357
  48.9527577 125.6263920  89.3638185  48.2558030 124.3525496  88.9354999
  43.4763184 127.7024996  96.2420102  43.3307765 128.0165299  97.1344383
  42.9988388 128.3209896  95.6891000  45.3359567 124.6927544  96.2900991
  45.3221136 123.7968637  95.9533289  46.0531995 124.6998208  96.9239277
  47.1885698 125.1264884  98.3354119  46.9303476 126.0481955  98.3338449
  46.6570738 124.7295319  99.0254583  44.7396463 123.5741924  91.5588562
  44.8612374 122.6458570  91.7579449  44.4498505 123.5880610  90.6466877
  47.6087653 121.2596834  94.6955281  47.6309350 121.3236168  93.7407261
  48.0255712 120.4201343  94.8895788  57.9871278 130.9952094  92.7334504
  58.4302424 130.2459419  92.3353627  57.1097788 130.9862230  92.3508236
  38.7374868 129.3700236 102.0737920  37.9956604 129.5182872 102.6602550
  38.4167612 129.6308502 101.2104669  55.0198482 134.9982141  89.7428433
  55.5449806 135.3369414  89.0177753  54.9320835 134.0629156  89.5591568
  44.2237543 125.0873921 105.7678494  44.2725698 125.9636044 105.3856264
  44.7660057 124.5451314 105.1950137  54.7092388 135.6315045 105.0479631
  53.9187932 135.6139184 104.5084131  54.4725743 136.1703338 105.8028668
  54.8290263 132.4807511 102.3612360  54.8788268 132.3157518 103.3027883
  54.7204187 131.6134770 101.9710241  52.1194026 128.4638439 103.6771666
  53.0203888 128.3244904 103.3855664  52.1942000 128.6292894 104.6169844
  46.4536831 125.8405294 102.5224853  45.5840140 126.1338860 102.2507441
  46.6896311 126.4245739 103.2432116  56.3308460 134.9004453 102.6054381
  56.0393268 135.2634433 103.4417842  55.7180591 134.1871461 102.4267713
  57.5304142 132.4657332  95.1256952  58.3651034 132.9047136  95.2894512
  57.6663271 131.9895986  94.3065197  54.5795648 130.0237067 101.0734439
  55.0549770 130.2164713 100.2653291  53.6561214 130.0796253 100.8277823
  41.4679155 131.1861234  90.6565518  41.2225197 130.2823564  90.8545728
  41.6375069 131.1878385  89.7144996  49.1575865 122.0584911 100.0390273
  49.6757809 122.7945938  99.7136762  48.8030998 122.3648904 100.8737032
  40.7374802 126.9189592  88.1551679  40.0444047 126.9933947  87.4991715
  40.4926554 126.1549936  88.6773196  49.4088459 118.4785193  95.5591170
  49.6890213 117.8108382  96.1851596  50.1939066 118.6714289  95.0465834
  53.2797317 126.9002827  99.3062745  54.2314740 127.0000925  99.3274969
  53.1100768 126.1081096  99.8160829  51.3011697 123.9858410  99.4922146
  50.7061629 124.2663423  98.7968634  51.0161393 124.4752311 100.2638887
  55.7585395 130.1208947  98.4205045  55.7261715 129.1824948  98.6064728
  56.3686019 130.1992984  97.6870869  47.5968726 128.9905000  84.4632249
  48.5427831 128.8611208  84.5320667  47.2182971 128.2519662  84.9401677
  55.9079884 126.9119990  98.4663328  55.3918932 126.1278447  98.2793257
  56.7919832 126.5838707  98.6309847  53.5690610 120.6561006  94.4259140
  53.3715432 120.3476094  95.3102472  54.1790316 121.3822645  94.5557070
  61.5761945 131.1824954  97.5611081  62.3065333 130.9210242  98.1218785
  60.9668890 130.4453676  97.6013149  59.6577242 129.3232816  98.1585533
  58.9310406 129.1888781  97.5502024  59.2424529 129.6309645  98.9642251
  47.4807418 133.0422746 105.9232906  48.4010428 133.2201345 106.1172952
  47.4457002 132.0978791 105.7712605  45.7811643 126.9154976  84.3987134
  44.8743098 126.6188089  84.4749847  46.0587624 126.6184794  83.5321420
  36.6989583 128.2361340  94.8486180  36.3792368 127.3826648  94.5560554
  36.1523012 128.4509918  95.6044148  47.3973709 121.4591866  90.5531375
  46.5874437 121.1138951  90.9286621  48.0858126 121.1499410  91.1418987
  49.3264257 120.5369913  92.1755672  49.8795296 120.9565366  92.8345695
  49.5634343 119.6105661  92.2178628  45.3497356 126.5256986 107.9558436
  45.2494083 127.4751343 107.8870527  45.1318898 126.1975225 107.0834506
  44.5510428 123.7741912  84.5399113  45.4129592 124.0996810  84.7994930
  44.7360772 122.9873407  84.0272179  52.7043064 122.6470438  91.6834336
  52.1241733 123.3055242  91.3012388  52.4378997 121.8247783  91.2721754
  51.1546631 122.0475496  93.8855656  51.6546409 122.1592030  93.0769975
  51.7982238 121.7436549  94.5256465  45.2128626 129.9554125 106.7723497
  44.7295708 130.7554485 106.9787386  45.2989565 129.9662070 105.8190941
  51.4867942 124.8070528  90.7390684  50.5993797 125.0920179  90.5210879
  51.9021931 124.6464292  89.8917961  54.8382478 124.8317049  94.4545024
  55.6142868 125.3213502  94.7269640  54.1130613 125.2575104  94.9116893
  57.2755037 125.5444669  95.5118964  57.8699528 125.3040405  94.8012272
  57.3481621 124.8251799  96.1392500  51.4608966 130.3225064  90.9540974
  51.4044167 130.7793616  90.1148607  52.0137308 129.5615749  90.7763817
  55.2713772 126.1114796  91.7791094  55.0150706 125.7111432  92.6099302
  54.6466640 126.8258590  91.6541233  59.5826110 128.8510869  94.2862385
  59.0225668 128.9204059  95.0593947  58.9769613 128.6751854  93.5661882
  52.5397853 135.0097732  86.8837164  53.3743457 134.5778931  86.7014639
  52.3782196 134.8379746  87.8114059  52.1943745 131.5129846  88.2493504
  52.1392549 131.3474117  87.3081948  51.5689801 132.2205878  88.4055693
  36.9836260 126.7497910 102.0754926  37.6295124 126.2396864 102.5642151
  36.7753411 127.4866592 102.6498351  49.5089652 133.8178757 107.5747066
  50.3780812 133.9919410 107.2133701  49.0296404 134.6373174 107.4522796
  45.5039871 121.0137955  87.8278822  45.4918541 121.9579794  87.9847093
  46.3963293 120.8308100  87.5338283  49.3191990 117.6080731  92.0824759
  48.5524386 117.0539218  92.2281441  49.7302695 117.6802600  92.9438910
  41.3233751 123.8965527 106.1729940  42.1865213 123.5402332 106.3833265
  40.7499162 123.5579422 106.8605344  63.6457244 136.9015645  99.4173136
  63.3140569 137.7711055  99.1934351  63.0502858 136.5851929 100.0967167
  65.4047554 139.8227169  98.2744360  64.7621934 140.1159702  97.6284155
  64.9002482 139.7080089  99.0797557  60.7440376 134.7485226  99.0344450
  60.4004645 135.6386867  98.9583560  61.1119339 134.5586883  98.1714035
  59.8236916 137.1189881  96.9993683  59.3201712 137.0820016  96.1861488
  60.1167523 138.0282624  97.0590340  55.9764789 136.3072067  92.1051301
  55.3229201 135.9921085  91.4807916  55.9345263 135.6847808  92.8311124
  62.5428042 134.0078785  94.1362188  62.8486918 133.1476148  93.8488103
  63.2680646 134.5996405  93.9361181  62.8129660 136.4373020  96.6346108
  61.8992739 136.6677247  96.8028315  63.2422761 136.5211464  97.4860141
  56.7918360 136.3397793  98.4328123  57.6144429 135.8658271  98.3107014
  57.0356423 137.1188277  98.9326810  58.4481408 136.5888752  94.6955281
  58.4703105 136.6528085  93.7407261  58.8649467 135.7493261  94.8895788
  59.9969619 137.3876828 100.0390273  60.5151563 138.1237855  99.7136762
  59.6424752 137.6940822 100.8737032  60.2482213 133.8077111  95.5591170
  60.5283967 133.1400300  96.1851596  61.0332820 134.0006207  95.0465834
  64.4084365 135.9852924  94.4259140  64.2109186 135.6768012  95.3102472
  65.0184071 136.7114563  94.5557070  58.2367463 136.7883784  90.5531375
  57.4268192 136.4430869  90.9286621  58.9251880 136.4791327  91.1418987
  60.1658012 135.8661831  92.1755672  60.7189050 136.2857284  92.8345695
  60.4028098 134.9397579  92.2178628  63.5436819 137.9762356  91.6834336
  62.9635488 138.6347160  91.3012388  63.2772751 137.1539700  91.2721754
  61.9940385 137.3767413  93.8855656  62.4940163 137.4883948  93.0769975
  62.6375993 137.0728466  94.5256465  68.1148791 140.8736586  95.5118964
  68.7093282 140.6332322  94.8012272  68.1875375 140.1543717  96.1392500
  60.1585745 132.9372649  92.0824759  59.3918140 132.3831136  92.2281441
  60.5696450 133.0094518  92.9438910   6.9686759  31.3851878  81.5536144
   6.2150467  30.8159276  81.3980148   7.1034300  31.3514543  82.5006778
   1.0450904  31.5380515  78.6638287   0.9068803  31.7282111  77.7359476
   0.6887123  32.2999897  79.1206338   1.0720284  33.6057042  83.6749559
   1.5056790  33.5132331  84.5232613   1.7851865  33.5814542  83.0369575
   1.9335833  33.6480742  86.2082444   2.1271723  34.5526553  86.4541719
   1.8336452  33.1888161  87.0421029   3.1877897  30.2054409  82.8530348
   3.1767773  31.0879124  82.4824281   2.3195276  29.8525960  82.6584885
   3.7902506  31.3554628  79.4579811   4.2333653  30.6061953  79.0598934
   2.9129017  31.3464765  79.0753543   0.8229711  35.3584675  76.4673740
   1.3481035  35.6971948  75.7423060   0.7352063  34.4231691  76.2836875
   0.6321492  32.8410045  89.0857666   0.6819497  32.6760053  90.0273189
   0.5235415  31.9737304  88.6955547   2.1339689  35.2606987  89.3299688
   1.8424497  35.6236967  90.1663149   1.5211820  34.5473995  89.1513020
   3.3335371  32.8259867  81.8502258   4.1682263  33.2649671  82.0139819
   3.4694500  32.3498520  81.0310504   1.5616624  30.4811481  85.1450351
   1.5292944  29.5427482  85.3310035   2.1717248  30.5595518  84.4116176
   1.7111112  27.2722525  85.1908634   1.1950161  26.4880981  85.0038563
   2.5951061  26.9441241  85.3555154   7.3793174  31.5427488  84.2856388
   8.1096562  31.2812776  84.8464091   6.7700119  30.8056210  84.3258456
   5.4608471  29.6835351  84.8830839   4.7341634  29.5491316  84.2747331
   5.0455758  29.9912179  85.6887557   3.0786266  25.9047203  82.2364271
   3.6730757  25.6642939  81.5257579   3.1512849  25.1854333  82.8637807
   1.0745001  26.4717330  78.5036401   0.8181935  26.0713966  79.3344608
   0.4497869  27.1861124  78.3786540   5.3857339  29.2113404  81.0107692
   4.8256897  29.2806593  81.7839254   4.7800842  29.0354388  80.2907188
   6.9713357  45.8869918  83.7037648   7.6091767  45.7676665  83.0000988
   6.8534200  46.8350762  83.7625600   3.7803063  45.8397346  83.6399172
   3.4421575  45.7238410  82.7519707   4.6492831  45.4388511  83.6200179
   4.2622846  46.9932197  89.5985378   4.2511487  46.5984996  88.7265882
   4.4243486  46.2598270  90.1919149   5.2189438  51.3603790  74.9410528
   4.5677417  51.9457870  74.5544542   6.0133800  51.8909985  75.0005566
   0.9830107  49.7769309  88.5464562   0.6919973  50.6814940  88.4311228
   1.6187092  49.8185837  89.2608631   1.9086314  47.1546158  85.1365922
   2.5049887  46.9302180  84.4222884   1.9661286  46.4130903  85.7391369
   1.4811343  44.6085593  72.9716113   1.7336863  44.0867114  72.2099576
   0.5435902  44.4451739  73.0742796   6.5254625  43.6121371  80.7790856
   7.3117715  43.1940795  80.4281273   6.7893330  44.5167464  80.9472504
   6.6964703  49.0494222  75.4779513   6.0610536  49.1228848  76.1900417
   6.3662109  49.6387821  74.7998592  11.9263053  43.5496605  81.6823834
  12.6588225  42.9795821  81.9161664  11.1702408  43.1618205  82.1230340
   1.2007631  46.5113699  75.1740487   1.0843889  45.8358602  75.8421572
   1.3109891  46.0246073  74.3572641   3.5439172  45.9723846  78.8787177
   3.1797380  45.4454467  79.5900098   4.4006288  45.5822315  78.7053662
   9.4488473  37.2618179  86.1418443   9.1171798  38.1313590  85.9179658
   8.8534086  36.9454463  86.8212473   3.1844659  41.0013746  73.8748525
   3.3519062  41.8693982  74.2418996   2.9941828  41.1641028  72.9509814
   5.9419992  49.4630725  85.5414356   5.6420716  50.3655764  85.4330163
   5.5971052  49.1962908  86.3935508   9.3417136  41.9813265  83.2211793
   8.4334014  41.9128673  82.9270554   9.2904732  42.4585210  84.0493618
   3.1633880  43.4571403  74.8595192   3.0433505  43.9028454  75.6980672
   2.4686469  43.8056721  74.3008730   3.4158002  43.4002911  91.1646690
   2.6391336  43.9596831  91.1549555   4.0548565  43.8859693  91.6861560
  11.2078783  40.1829703  84.9989667  10.5653163  40.4762236  84.3529461
  10.7033711  40.0682624  85.8042863   8.8618946  43.9292877  75.6875526
   9.7736802  44.1620263  75.5123224   8.3528593  44.5129921  75.1250605
   1.6704374  46.2088364  90.7264657   2.4119059  46.7473408  90.4499481
   0.9641360  46.8354653  90.8836209   7.1459714  48.3517504  89.3236819
   7.5543070  47.9099915  88.5791451   6.4236976  47.7770132  89.5771012
   3.4990784  43.2890111  86.6970376   4.3451979  43.7129525  86.8405025
   3.4389422  42.6323735  87.3908939   7.4688529  48.9118695  83.0789108
   6.8397391  49.0764409  82.3765175   7.0814191  49.3260305  83.8500072
  11.3477761  49.8473133  80.4333471  10.6628799  50.2272034  79.8830505
  11.4321610  50.4568459  81.1665419   6.6490229  40.9494479  88.3551549
   6.4051161  41.7036540  87.8185825   6.9250160  41.3279827  89.1898796
   8.6028692  47.4933092  87.0328815   8.8145587  48.1364852  86.3563196
   8.5558440  46.6595408  86.5650745   6.2054921  40.1050912  83.9365387
   5.3439400  40.4032166  84.2282125   6.2317356  40.3221311  83.0046420
   3.0216491  48.6493103  80.3439193   3.4854836  48.9280806  79.5543815
   2.7573289  47.7476548  80.1612283   1.9585377  44.7716255  77.1528758
   2.6609420  45.2237299  77.6202684   1.6266005  44.1300074  77.7808651
   9.7174520  50.3705047  85.2051172  10.5391964  49.9685235  84.9233854
   9.7136923  50.2673281  86.1567288   3.4831124  49.9189091  87.3611883
   3.5475556  50.3809498  88.1970055   2.7742047  49.2886455  87.4894193
  17.8080513  46.7143796  81.5536144  17.0544222  46.1451194  81.3980148
  17.9428054  46.6806460  82.5006778   3.1979141  51.5857198  77.2290863
   3.0624816  52.4308734  77.6575711   3.7388954  51.7876476  76.4656797
   2.6014442  39.0806657  91.4825475   3.3424155  39.6813810  91.4029937
   2.8332365  38.3384295  90.9243517   4.8247618  52.2080765  91.3591205
   4.3811472  51.4217143  91.0412110   5.4864831  52.3959915  90.6935096
   6.9228856  52.4883564  89.3872606   6.9047331  53.3092446  88.8952876
   7.8448776  52.3637640  89.6122748   3.3801910  50.0027694  90.2296115
   3.9130247  49.2415982  89.9995423   2.8515991  49.7101346  90.9720269
   6.5471605  35.1087760  85.7589756   6.2035874  35.9989402  85.6828867
   6.9150567  34.9189418  84.8959341   6.5121887  45.0996371  74.2662192
   5.9968511  45.8700976  74.5050579   6.2399196  44.4261507  74.8895253
   4.0968999  39.9446072  79.3247430   3.2410595  39.5552922  79.1453069
   4.5095950  40.0238033  78.4647215   5.6268145  37.4792415  83.7238990
   5.1232941  37.4422550  82.9106795   5.9198752  38.3885158  83.7835646
   1.8711031  37.5631145  82.7305171   2.7364028  37.3673953  82.3711061
   1.9388540  37.3341497  83.6574528  11.4856162  47.8528726  76.2015365
  10.7085604  47.5139885  75.7570527  12.1647643  47.8581349  75.5270330
   6.3008191  42.9723463  76.0921973   5.9958326  43.2869612  76.9432116
   7.2538633  43.0504883  76.1349306   4.7454623  49.1313686  77.7414927
   4.2175984  48.3966446  77.4288164   4.2442125  49.9088363  77.4954895
   9.7247469  47.3262707  82.8581973   9.0671143  48.0161968  82.9462102
  10.5287868  47.7159139  83.2015959   8.5352927  45.6807080  80.9085915
   9.0484809  46.3137071  81.4107625   9.1854151  45.0808275  80.5429275
   1.7796018  36.6674602  78.8296608   1.1260430  36.3523619  78.2053222
   1.7376492  36.0450342  79.5556431   2.8907223  46.9493897  70.7449900
   1.9834284  46.7183150  70.9441049   3.3878255  46.1531516  70.9323881
   5.7975302  55.6591404  73.6646586   5.1237000  55.9623101  74.2731544
   6.1841124  56.4620484  73.3152043   5.0133758  43.1556535  83.1544255
   4.0956320  43.3771482  82.9965943   5.4293902  43.2302846  82.2955963
   5.7968806  44.5547951  78.2846936   6.5440625  45.0669348  77.9754058
   6.0660396  44.2332004  79.1451329   4.0695456  47.0506492  75.2673890
   3.1606675  46.7665524  75.3646360   4.0990540  47.4705570  74.4077197
   9.3014724  50.6613081  79.0365057   8.8477051  49.8203991  79.0930248
   8.6708690  51.2974479  79.3739838   8.2447643  41.5905067  80.2665725
   7.5070400  41.0782453  80.5975967   8.4974417  41.1505449  79.4549002
   7.7447663  52.4989578  79.9714876   8.0370637  53.0594635  79.2527241
   8.2546283  52.7918139  80.7268035   8.3459270  34.3681319  80.8607494
   8.6518147  33.5078683  80.5733409   9.0711875  34.9598939  80.6606488
   2.6180350  44.6635112  81.3683685   2.6728960  43.7108949  81.2926162
   1.8071552  44.8194551  81.8524984   3.7671544  48.5915235  72.6061968
   3.3290974  47.8751094  72.1467606   4.5081985  48.8191350  72.0447060
   2.7081288  53.2769929  81.0608329   2.6657467  53.5030775  80.1316861
   3.6243987  53.0433303  81.2094130   6.1546922  43.7453996  87.9588958
   6.5096309  43.9725470  88.8183424   6.8019053  44.0772373  87.3366213
  11.8844659  46.8672432  78.6638287  11.7462557  47.0574028  77.7359476
  11.5280878  47.6291815  79.1206338  11.9114038  48.9348959  83.6749559
  12.3450545  48.8424248  84.5232613  12.6245619  48.9106460  83.0369575
   5.6441933  52.5351053  85.2082659   5.6978956  53.1041990  85.9760375
   4.7756715  52.7052938  84.8436696  12.7729588  48.9772660  86.2082444
  12.9665478  49.8818470  86.4541719  12.6730206  48.5180079  87.0421029
   4.4265899  38.8630551  88.7072771   3.7793814  39.5620500  88.6137248
   5.1966914  39.2966694  89.0749019   7.8344697  49.1279403  91.7823325
   7.6830203  48.8989954  90.8653408   7.8249376  50.0850004  91.7954670
   4.6030033  46.7011315  86.7669591   5.5322093  46.8522475  86.5938558
   4.1821063  46.7895336  85.9118237   3.4018365  50.7261980  84.5368129
   3.2629450  50.3580764  85.4094067   2.6132961  51.2409619  84.3652086
   3.9966517  55.8271076  75.8793665   4.1718272  55.3559120  76.6939288
   3.3099305  56.4536843  76.1074926   4.9523580  50.1043583  81.9256966
   4.6173413  50.0644353  82.8214616   4.4527526  49.4388298  81.4527377
   7.8882772  47.4499617  72.1994026   7.2711942  46.7246445  72.1027079
   7.4199260  48.2108977  71.8561100   1.5550125  45.2231172  86.9393227
   2.2649743  44.5824364  86.8979846   1.5119433  45.4744067  87.8619408
   9.5436903  52.1598525  89.8599806   9.4849449  51.4757745  89.1930389
   9.9456422  52.9017515  89.4080432   9.5454310  50.1238109  88.0913786
   8.6581089  49.7864031  88.2140185  10.1152862  49.3921140  88.3282551
   3.0755464  54.7839562  85.0575029   3.0025635  55.5894533  85.5694334
   2.6332857  54.9831527  84.2323051   2.8645243  54.0211332  78.5677851
   2.0812765  54.5633012  78.6616075   3.5637989  54.5385311  78.9672092
   6.1741894  39.8305961  81.2112056   6.6710593  39.0775923  80.8913126
   5.4028875  39.8670278  80.6455266  14.0271651  45.5346327  82.8530348
  14.0161527  46.4171042  82.4824281  13.1589030  45.1817877  82.6584885
   5.5354147  54.6826396  87.2133188   6.2482120  55.3173860  87.1409089
   5.0444176  54.7790262  86.3973190   7.2571674  48.5877648  78.7850480
   6.3227953  48.7079111  78.6155184   7.4348343  47.6850115  78.5210489
   2.7576862  41.9723344  80.9383741   2.3874650  41.4194384  81.6264646
   3.2535955  41.3681477  80.3858741  10.6444226  44.4294968  79.3200514
  11.1104678  45.2622959  79.2460816  11.0951726  43.9639949  80.0245772
   8.7120457  50.7738789  76.3186666   8.9880301  50.6595383  77.2280540
   7.8424955  50.3756274  76.2798839   8.6160888  36.7975555  83.3591415
   7.7023968  37.0279781  83.5273622   9.0453990  36.8813999  84.2105447
   8.3867347  44.9865446  85.8591309   7.7338797  45.2341354  85.2043762
   8.7647727  44.1729585  85.5253786   5.3474521  55.0225140  79.9619479
   5.5296915  54.2046796  80.4247232   6.1707507  55.2392832  79.5244369
   5.6816686  53.9493325  77.2234528   6.2104453  53.4385779  76.6104690
   5.9444906  53.6335855  78.0880061   4.4354920  45.7285258  92.3457346
   3.7595557  45.6279387  93.0159721   5.2582554  45.5724471  92.8093343
   3.1777703  57.0352185  86.5814962   3.7296011  57.1983806  87.3464047
   3.5183896  57.6256623  85.9094987   8.0288577  51.8613442  92.4363617
   8.5728481  52.4743401  91.9418571   7.4475422  52.4193021  92.9530630
   6.3146090  54.9834161  83.5678644   6.1897230  54.1823900  83.0589590
   6.9725181  55.4780354  83.0792614   8.3780998  52.7843181  85.1958194
   7.4311334  52.6648532  85.1236521   8.7263772  51.8965679  85.2784456
   0.7380572  38.6737320  89.0196436   1.2614974  38.9199616  89.7822746
   0.5192905  39.5057354  88.5999574   5.3827432  52.5795897  81.3962547
   5.2352394  51.6512604  81.5770117   6.2080925  52.6015988  80.9119622
   8.9861554  53.4024456  82.4827419   9.9108101  53.1967317  82.3451871
   8.8176857  53.1540857  83.3916761   1.9433117  39.6151015  86.7046107
   1.6029937  38.8158828  87.1066787   1.2372123  39.9152725  86.1322940
   2.5949589  36.7000327  85.1573430   3.4175658  36.2260805  85.0352320
   2.8387652  37.4790811  85.6572116   1.2357823  39.7288585  75.4536332
   1.9566186  40.1069838  74.9500048   0.6123127  40.4477462  75.5571310
   5.3788946  40.4333734  76.3894664   5.5952560  41.3158372  76.0883492
   4.8983013  40.0419948  75.6600306   1.9784550  40.3821996  83.0146298
   1.9646119  39.4863089  82.6778596   2.6956978  40.3892659  83.6484584
   3.8310681  40.8159336  85.0599425   3.5728459  41.7376407  85.0583756
   3.2995721  40.4189770  85.7499890   8.7756870  53.9210123  77.8389511
   8.9493747  53.3556545  77.0863363   9.2685761  54.7211018  77.6569001
   1.3821446  39.2636376  78.2833868   1.5037357  38.3353022  78.4824756
   1.0923489  39.2775062  77.3712184   4.2512637  36.9491286  81.4200588
   4.2734333  37.0130619  80.4652568   4.6680696  36.1095795  81.6141094
  14.6296261  46.6846546  79.4579811  15.0727407  45.9353871  79.0598934
  13.7522771  46.6756682  79.0753543   9.7632042  53.2376887  74.9386409
  10.4582947  53.8583580  75.1573724  10.1055192  52.3872239  75.2138787
  11.6623465  50.6876593  76.4673740  12.1874789  51.0263866  75.7423060
  11.5745818  49.7523608  76.2836875   3.3243514  54.6010667  88.5963617
   3.6330641  54.3559813  89.4686316   4.1218996  54.8057305  88.1082487
   3.3464126  56.7548576  80.8268993   2.9069116  56.2624955  81.5201850
   4.0972243  56.2121544  80.5861068   0.8662526  40.7768373  92.4923801
   0.9150681  41.6530496  92.1101570   1.4085040  40.2345766  91.9195444
  11.3517371  51.3209497  91.7724938  10.5612915  51.3033635  91.2329437
  11.1150726  51.8597790  92.5273974  11.4715247  48.1701963  89.0857666
  11.5213251  48.0051970  90.0273189  11.3629170  47.3029222  88.6955547
   8.7619009  44.1532891  90.4016973   9.6628872  44.0139356  90.1100971
   8.8366983  44.3187346  91.3415151   3.0961814  41.5299746  89.2470159
   2.2265124  41.8233312  88.9752748   3.3321295  42.1140191  89.9677423
  12.9733443  50.5898904  89.3299688  12.6818252  50.9528885  90.1663149
  12.3605575  49.8765913  89.1513020  14.1729126  48.1551784  81.8502258
  15.0076017  48.5941588  82.0139819  14.3088254  47.6790437  81.0310504
  11.2220632  45.7131519  87.7979746  11.6974753  45.9059165  86.9898597
  10.2986197  45.7690705  87.5523130   5.8000848  37.7479363  86.7635580
   6.3182792  38.4840390  86.4382068   5.4455981  38.0543356  87.5982339
   6.0513442  34.1679645  82.2836476   6.3315196  33.5002834  82.9096903
   6.8364049  34.3608741  81.7711140   3.8546911  53.3438639  73.8461503
   3.2820878  53.9628826  73.3931975   4.4279704  53.8938001  74.3801425
   9.9222301  42.5897279  86.0308052  10.8739723  42.6895377  86.0520276
   9.7525751  41.7975548  86.5406136   7.9436680  39.6752862  86.2167452
   7.3486612  39.9557875  85.5213941   7.6586377  40.1646763  86.9884194
   7.0744171  53.6275789  74.9770085   8.0074844  53.5621351  75.1802961
   6.9867383  54.4632056  74.5184618   9.7032187  52.9441660  71.9374033
   9.6245819  52.6101523  72.8309790  10.5241854  53.4363427  71.9365505
  12.4010378  45.8103399  85.1450351  12.3686698  44.8719400  85.3310035
  13.0111002  45.8887436  84.4116176   4.2393709  44.6799452  71.1877555
   5.1852814  44.5505660  71.2565973   3.8607954  43.9414114  71.6646983
  12.5504867  42.6014442  85.1908634  12.0343916  41.8172899  85.0038563
  13.4344815  42.2733159  85.3555154  10.2115594  36.3455458  81.1504447
  10.0140415  36.0370546  82.0347779  10.8215299  37.0717097  81.2802377
  18.2186928  46.8719406  84.2856388  18.9490317  46.6104694  84.8464091
  17.6093874  46.1348128  84.3258456  16.3002225  45.0127268  84.8830839
  15.5735389  44.8783233  84.2747331  15.8849512  45.3204097  85.6887557
   4.1232402  48.7317198  92.6478212   5.0435411  48.9095797  92.8418259
   4.0881985  47.7873243  92.4957911   2.4236626  42.6049428  71.1232440
   1.5168082  42.3082541  71.1995154   2.7012607  42.3079246  70.2566727
   4.0398692  37.1486318  77.2776682   3.2299420  36.8033403  77.6531928
   4.7283109  36.8393862  77.8664293   5.9689240  36.2264365  78.9000978
   6.5220279  36.6459818  79.5591001   6.2059327  35.3000113  78.9423934
   1.9922340  42.2151438  94.6803742   1.8919067  43.1645795  94.6115833
   1.7743882  41.8869677  93.8079812   1.1935411  39.4636363  71.2644420
   2.0554575  39.7891262  71.5240237   1.3785755  38.6767859  70.7517485
   9.3468047  38.3364890  78.4079643   8.7666717  38.9949694  78.0257695
   9.0803980  37.5142234  77.9967060   7.7971614  37.7369948  80.6100963
   8.2971392  37.8486482  79.8015282   8.4407222  37.4331000  81.2501771
   1.8553610  45.6448577  93.4968804   1.3720691  46.4448937  93.7032693
   1.9414549  45.6556522  92.5436248   8.1292926  40.4964980  77.4635991
   7.2418781  40.7814631  77.2456186   8.5446915  40.3358744  76.6163268
  11.4807462  40.5211501  81.1790330  12.2567852  41.0107954  81.4514947
  10.7555596  40.9469555  81.6362200  13.9180020  41.2339120  82.2364271
  14.5124511  40.9934856  81.5257579  13.9906604  40.5146251  82.8637807
   7.2736139  50.2609655  71.5584011   7.9771989  50.4659657  72.1741667
   6.5498788  50.8286417  71.8233094   8.1033949  46.0119516  77.6786281
   8.0469151  46.4688068  76.8393913   8.6562292  45.2510201  77.5009124
  11.9138755  41.8009248  78.5036401  11.6575689  41.4005884  79.3344608
  11.2891623  42.5153042  78.3786540  16.2251093  44.5405321  81.0107692
  15.6650651  44.6098511  81.7839254  15.6194596  44.3646306  80.2907188
   9.1822836  50.6992184  73.6082471  10.0168440  50.2673383  73.4259946
   9.0207179  50.5274198  74.5359365   8.8368729  47.2024297  74.9738810
   8.7817532  47.0368569  74.0327254   8.2114784  47.9100330  75.1301000
   6.1514636  49.5073209  94.2992373   7.0205795  49.6813862  93.9379008
   5.6721387  50.3267626  94.1768102   2.1464854  36.7032406  74.5524129
   2.1343524  37.6474246  74.7092400   3.0388276  36.5202552  74.2583590
   2.0754418  55.3801297  82.6391885   1.1250049  55.3803158  82.5256258
   2.3786904  54.6334031  82.1227920   5.9616973  33.2975183  78.8070065
   5.1949369  32.7433670  78.9526748   6.3727678  33.3697052  79.6684217
  17.8107111  61.2161835  83.7037648  18.4485521  61.0968583  83.0000988
  17.6927954  62.1642679  83.7625600  14.6196818  61.1689263  83.6399172
  14.2815329  61.0530328  82.7519707  15.4886586  60.7680428  83.6200179
  10.4783633  63.0224740  79.6296063   9.9148499  62.9314677  78.8612351
  10.3636029  62.2024644  80.1098556  15.1016601  62.3224115  89.5985378
  15.0905242  61.9276913  88.7265882  15.2637240  61.5890188  90.1919149
   8.0248065  64.5175931  82.4680284   8.8169357  64.1766756  82.0526583
   8.2644716  64.6270906  83.3882437  16.0583192  66.6895707  74.9410528
  15.4071172  67.2749788  74.5544542  16.8527555  67.2201902  75.0005566
   9.9838819  63.7784845  75.3397663  10.7569695  63.2313832  75.2010538
  10.3364218  64.6429094  75.5512124  11.8223862  65.1061227  88.5464562
  11.5313728  66.0106858  88.4311228  12.4580846  65.1477755  89.2608631
  12.7480069  62.4838075  85.1365922  13.3443641  62.2594098  84.4222884
  12.8055040  61.7422821  85.7391369  12.3205097  59.9377511  72.9716113
  12.5730618  59.4159032  72.2099576  11.3829656  59.7743656  73.0742796
  17.3648380  58.9413289  80.7790856  18.1511469  58.5232712  80.4281273
  17.6287084  59.8459381  80.9472504  17.5358457  64.3786139  75.4779513
  16.9004290  64.4520766  76.1900417  17.2055864  64.9679738  74.7998592
  12.0401386  61.8405617  75.1740487  11.9237644  61.1650520  75.8421572
  12.1503646  61.3537991  74.3572641  14.3832927  61.3015764  78.8787177
  14.0191134  60.7746385  79.5900098  15.2400043  60.9114233  78.7053662
  14.0238414  56.3305663  73.8748525  14.1912816  57.1985900  74.2418996
  13.8335583  56.4932945  72.9509814  16.7813747  64.7922642  85.5414356
  16.4814470  65.6947681  85.4330163  16.4364806  64.5254826  86.3935508
  10.2326228  61.2436439  81.5751060   9.3076725  61.1112653  81.7828752
  10.4810642  62.0230658  82.0721002  14.0027635  58.7863321  74.8595192
  13.8827260  59.2320372  75.6980672  13.3080223  59.1348639  74.3008730
   7.5935039  60.8869713  82.4094849   7.7227421  61.1404192  83.3234261
   6.9132491  61.4797421  82.0899504  11.7634527  71.5566963  78.5085323
  11.6858556  72.5074788  78.5873804  11.1596170  71.2112835  79.1660250
  14.2551757  58.7294828  91.1646690  13.4785091  59.2888748  91.1549555
  14.8942320  59.2151611  91.6861560  19.7012701  59.2584794  75.6875526
  20.6130557  59.4912181  75.5123224  19.1922348  59.8421838  75.1250605
  12.5098129  61.5380282  90.7264657  13.2512813  62.0765326  90.4499481
  11.8035114  62.1646570  90.8836209  17.9853468  63.6809422  89.3236819
  18.3936825  63.2391833  88.5791451  17.2630730  63.1062050  89.5771012
  14.3384539  58.6182029  86.6970376  15.1845734  59.0421442  86.8405025
  14.2783176  57.9615653  87.3908939  18.3082283  64.2410613  83.0789108
  17.6791146  64.4056327  82.3765175  17.9207945  64.6552222  83.8500072
  22.1871515  65.1765050  80.4333471  21.5022553  65.5563952  79.8830505
  22.2715364  65.7860377  81.1665419  17.4883984  56.2786397  88.3551549
  17.2444916  57.0328458  87.8185825  17.7643914  56.6571745  89.1898796
  19.4422447  62.8225010  87.0328815  19.6539342  63.4656769  86.3563196
  19.3952195  61.9887326  86.5650745  13.8610245  63.9785021  80.3439193
  14.3248591  64.2572724  79.5543815  13.5967043  63.0768465  80.1612283
  10.7534326  63.5256502  83.2818956  11.3235683  63.9543771  82.6436440
  11.3442438  63.2439087  83.9803142  12.7979131  60.1008173  77.1528758
  13.5003174  60.5529217  77.6202684  12.4659760  59.4591992  77.7808651
  11.2459493  58.6919930  91.5279967  10.6158153  59.3736211  91.7615364
  11.1395580  58.5803011  90.5833105   6.5404465  58.3591726  82.4545891
   5.7503519  58.6149254  81.9786002   7.0315712  59.1740064  82.5597932
  20.5568275  65.6996965  85.2051172  21.3785718  65.2977152  84.9233854
  20.5530677  65.5965199  86.1567288   8.4919210  58.7236305  79.4129368
   7.6950374  58.8354999  79.9312864   8.2644803  59.0622957  78.5470259
  14.3224878  65.2481008  87.3611883  14.3869311  65.7101415  88.1970055
  13.6135802  64.6178373  87.4894193   4.8242168  58.6122216  84.8860882
   5.0750206  59.4969226  85.1518458   5.3601716  58.4326818  84.1135974
  14.0372896  66.9149116  77.2290863  13.9018570  67.7600651  77.6575711
  14.5782708  67.1168393  76.4656797  10.5240235  52.9940696  93.8905218
  10.1307181  52.4406894  94.5652862  11.3406376  53.3051274  94.2811736
   7.4902293  64.4324554  77.8018788   8.0026814  65.2267804  77.9524353
   8.1425006  63.7350844  77.7352390   9.2997178  67.5490310  79.8841541
   9.4763806  68.4708275  79.6962525  10.0954011  67.2348729  80.3135921
  13.4408196  54.4098575  91.4825475  14.1817910  55.0105728  91.4029937
  13.6726119  53.6676212  90.9243517   8.5849534  59.5954942  89.7603704
   8.4703049  58.6940199  90.0610803   7.7294052  59.8418639  89.4088521
  15.6641372  67.5372682  91.3591205  15.2205226  66.7509061  91.0412110
  16.3258586  67.7251833  90.6935096  10.4228493  69.0668484  85.8851884
  10.9735918  68.9385547  85.1128878   9.5839969  69.3663373  85.5346776
  17.7622610  67.8175482  89.3872606  17.7441085  68.6384363  88.8952876
  18.6842530  67.6929557  89.6122748  14.2195664  65.3319612  90.2296115
  14.7524001  64.5707900  89.9995423  13.6909745  65.0393263  90.9720269
   5.4551210  62.7613208  78.5778359   6.2926432  63.1710216  78.3612066
   5.6329478  61.8212650  78.5478553  17.3515642  60.4288289  74.2662192
  16.8362265  61.1992893  74.5050579  17.0792950  59.7553425  74.8895253
  12.7104786  52.8923062  82.7305171  13.5757782  52.6965871  82.3711061
  12.7782294  52.6633414  83.6574528  22.3249916  63.1820643  76.2015365
  21.5479359  62.8431803  75.7570527  23.0041397  63.1873267  75.5270330
  17.1401945  58.3015381  76.0921973  16.8352081  58.6161530  76.9432116
  18.0932387  58.3796801  76.1349306  15.5848377  64.4605604  77.7414927
  15.0569739  63.7258364  77.4288164  15.0835880  65.2380280  77.4954895
  20.5641223  62.6554625  82.8581973  19.9064897  63.3453886  82.9462102
  21.3681622  63.0451057  83.2015959  10.3167105  55.1225270  80.1021538
  10.8910857  54.9000452  79.3694731  10.9038087  55.1913965  80.8550140
  19.3746682  61.0098997  80.9085915  19.8878564  61.6428989  81.4107625
  20.0247906  60.4100193  80.5429275  10.6436692  57.1529731  74.1217424
   9.8074004  57.4904418  74.4426698  10.5041461  57.0178711  73.1844561
  12.6189772  51.9966519  78.8296608  11.9654185  51.6815536  78.2053222
  12.5770246  51.3742260  79.5556431  13.7300977  62.2785814  70.7449900
  12.8228039  62.0475068  70.9441049  14.2272009  61.4823434  70.9323881
  16.6369056  70.9883322  73.6646586  15.9630755  71.2915018  74.2731544
  17.0234878  71.7912402  73.3152043  15.8527513  58.4848453  83.1544255
  14.9350074  58.7063400  82.9965943  16.2687656  58.5594763  82.2955963
  16.6362560  59.8839869  78.2846936  17.3834379  60.3961266  77.9754058
  16.9054150  59.5623921  79.1451329  14.9089211  62.3798409  75.2673890
  14.0000430  62.0957442  75.3646360  14.9384294  62.7997488  74.4077197
  20.1408478  65.9904999  79.0365057  19.6870805  65.1495909  79.0930248
  19.5102445  66.6266397  79.3739838  18.5841417  67.8281495  79.9714876
  18.8764392  68.3886553  79.2527241  19.0940038  68.1210056  80.7268035
  19.1853025  49.6973237  80.8607494  19.4911902  48.8370600  80.5733409
  19.9105630  50.2890857  80.6606488   5.4777381  60.1003923  79.2489092
   5.2801781  59.5073284  78.5240159   4.9224045  59.7956134  79.9665031
  13.4574105  59.9927030  81.3683685  13.5122714  59.0400866  81.2926162
  12.6465307  60.1486469  81.8524984  14.6065298  63.9207153  72.6061968
  14.1684728  63.2043012  72.1467606  15.3475739  64.1483268  72.0447060
  11.3966465  58.6104090  79.1274064  10.5834330  58.9098260  79.5339256
  11.8925459  58.2159778  79.8448546  13.5475042  68.6061847  81.0608329
  13.5051221  68.8322693  80.1316861  14.4637741  68.3725221  81.2094130
  16.9940676  59.0745914  87.9588958  17.3490064  59.3017387  88.8183424
  17.6412807  59.4064291  87.3366213  22.7238413  62.1964350  78.6638287
  22.5856312  62.3865946  77.7359476  22.3674632  62.9583733  79.1206338
  10.8880539  56.1822445  84.7435299  11.5279919  56.0411204  84.0458262
  10.0558070  55.8956959  84.3673901  22.7507793  64.2640877  83.6749559
  23.1844299  64.1716166  84.5232613  23.4639374  64.2398377  83.0369575
  11.6640843  65.4824876  80.8570291  12.4581442  64.9875196  80.6552866
  10.9532536  64.9542739  80.4937997  16.4835688  67.8642971  85.2082659
  16.5372710  68.4333907  85.9760375  15.6150469  68.0344856  84.8436696
   7.9723607  59.6267957  76.9330044   7.0421195  59.5652413  77.1500006
   8.0681079  59.1043910  76.1366685   7.8909156  56.1522770  79.5208286
   8.1515973  57.0668103  79.4117446   8.7126328  55.6847213  79.6704899
   9.3634081  57.5660527  86.6907110  10.0357135  57.3577889  86.0419759
   8.5363868  57.3682613  86.2512343  23.6123342  64.3064578  86.2082444
  23.8059232  65.2110388  86.4541719  23.5123961  63.8471997  87.0421029
  15.2659653  54.1922468  88.7072771  14.6187568  54.8912418  88.6137248
  16.0360669  54.6258612  89.0749019  18.6738451  64.4571320  91.7823325
  18.5223957  64.2281872  90.8653408  18.6643131  65.4141922  91.7954670
  15.4423787  62.0303233  86.7669591  16.3715847  62.1814393  86.5938558
  15.0214817  62.1187254  85.9118237  14.2412119  66.0553898  84.5368129
  14.1023205  65.6872682  85.4094067  13.4526715  66.5701537  84.3652086
  14.8360271  71.1562994  75.8793665  15.0112027  70.6851037  76.6939288
  14.1493059  71.7828760  76.1074926  15.7917334  65.4335500  81.9256966
  15.4567167  65.3936270  82.8214616  15.2921280  64.7680216  81.4527377
   9.7661578  60.8403130  87.4509548   9.6281376  60.1083369  88.0521087
  10.6766502  60.7512030  87.1693735  18.7276526  62.7791535  72.1994026
  18.1105697  62.0538363  72.1027079  18.2593014  63.5400895  71.8561100
  12.3943879  60.5523090  86.9393227  13.1043498  59.9116282  86.8979846
  12.3513187  60.8035984  87.8619408  20.3830658  67.4890443  89.8599806
  20.3243204  66.8049663  89.1930389  20.7850176  68.2309433  89.4080432
  11.1072813  57.5388307  88.7588867  10.5710170  57.0879046  89.4110463
  10.5189521  57.6734216  88.0159331   9.4021356  74.3052357  82.6533525
   9.6417955  74.9370881  83.3312544   8.5590553  73.9540397  82.9398885
  10.5175072  56.9976959  71.3215330   9.6404538  56.8765760  70.9577577
  10.9932825  56.2063037  71.0694219  20.3848065  65.4530027  88.0913786
  19.4974844  65.1155949  88.2140185  20.9546616  64.7213058  88.3282551
   2.0377212  61.7854119  81.4156837   2.7248252  61.4715849  80.8277853
   1.8825341  62.6895483  81.1424089   6.8411934  56.6744315  85.8441861
   6.7570123  56.0669985  85.1092271   6.0194641  57.1653333  85.8451357
  13.9149218  70.1131479  85.0575029  13.8419390  70.9186451  85.5694334
  13.4726611  70.3123445  84.2323051  13.7038998  69.3503249  78.5677851
  12.9206520  69.8924929  78.6616075  14.4031743  69.8677229  78.9672092
  24.8665405  60.8638244  82.8530348  24.8555282  61.7462960  82.4824281
  23.9982785  60.5109795  82.6584885  16.3747902  70.0118313  87.2133188
  17.0875874  70.6465778  87.1409089  15.8837931  70.1082179  86.3973190
  18.0965429  63.9169566  78.7850480  17.1621708  64.0371028  78.6155184
  18.2742097  63.0142033  78.5210489  13.5970617  57.3015262  80.9383741
  13.2268404  56.7486302  81.6264646  14.0929709  56.6973395  80.3858741
  11.4259815  67.7612757  88.0338759  12.1269275  68.3949240  88.1868153
  10.9554930  68.1027488  87.2734398  19.5514211  66.1030706  76.3186666
  19.8274055  65.9887301  77.2280540  18.6818710  65.7048191  76.2798839
  19.2261101  60.3157364  85.8591309  18.5732552  60.5633272  85.2043762
  19.6041481  59.5021502  85.5253786  16.1868275  70.3517057  79.9619479
  16.3690670  69.5338713  80.4247232  17.0101261  70.5684750  79.5244369
  16.5210441  69.2785242  77.2234528  17.0498207  68.7677697  76.6104690
  16.7838660  68.9627773  78.0880061  15.2748674  61.0577175  92.3457346
  14.5989311  60.9571305  93.0159721  16.0976308  60.9016389  92.8093343
   7.0227533  67.2949112  84.9669861   7.6080970  66.5492800  85.0997766
   6.8252372  67.6053068  85.8506525   9.8766189  70.3300359  79.9832304
   9.2076564  70.8146487  79.4996344   9.7379058  70.5769580  80.8975682
   1.6145188  59.8654712  83.6874305   1.6529288  59.3318303  84.4811423
   1.1085481  59.3389917  83.0685282  14.0171457  72.3644103  86.5814962
  14.5689765  72.5275724  87.3464047  14.3577651  72.9548540  85.9094987
   8.9935951  54.7119252  87.1836847   9.0577277  55.5734083  86.7714245
   8.9303071  54.0993254  86.4509205   8.4688223  56.7842385  90.8309881
   9.0960262  56.4019462  91.4447405   7.6116142  56.5656587  91.1965574
  18.8682332  67.1905360  92.4363617  19.4122236  67.8035318  91.9418571
  18.2869176  67.7484939  92.9530630   5.2453766  58.5918814  76.7628236
   5.5407207  57.6829493  76.7095290   4.3441802  58.5706554  76.4409238
  17.1539845  70.3126078  83.5678644  17.0290984  69.5115818  83.0589590
  17.8118936  70.8072272  83.0792614   8.7748013  56.6674811  82.7455785
   8.0534599  57.2810778  82.6063258   9.5641269  57.2032576  82.6672431
  19.2174753  68.1135098  85.1958194  18.2705088  67.9940449  85.1236521
  19.5657526  67.2257596  85.2784456  11.5774326  54.0029237  89.0196436
  12.1008728  54.2491534  89.7822746  11.3586660  54.8349272  88.5999574
   6.9741607  56.2732912  76.8867561   6.6454314  55.3930291  76.7042667
   7.3280978  56.2180580  77.7743950  16.2221186  67.9087814  81.3962547
  16.0746149  66.9804522  81.5770117  17.0474680  67.9307905  80.9119622
  10.0883431  56.5605882  77.2543039  10.4279503  57.0891803  76.5321647
  10.5355551  56.8986288  78.0301605  19.8255308  68.7316373  82.4827419
  20.7501856  68.5259235  82.3451871  19.6570611  68.4832774  83.3916761
  12.7826871  54.9442932  86.7046107  12.4423692  54.1450745  87.1066787
  12.0765878  55.2444643  86.1322940  13.4343343  52.0292245  85.1573430
  14.2569412  51.5552723  85.0352320  13.6781407  52.8082728  85.6572116
  12.0751578  55.0580503  75.4536332  12.7959940  55.4361756  74.9500048
  11.4516882  55.7769380  75.5571310  16.2182701  55.7625652  76.3894664
  16.4346315  56.6450290  76.0883492  15.7376768  55.3711866  75.6600306
  10.9581922  58.7211365  82.9665408  10.8126503  59.0351668  83.8589690
  10.4807126  59.3396266  82.4136307  12.8178305  55.7113913  83.0146298
  12.8039874  54.8155007  82.6778596  13.5350733  55.7184577  83.6484584
  14.6704436  56.1451254  85.0599425  14.4122213  57.0668324  85.0583756
  14.1389476  55.7481688  85.7499890  19.6150624  69.2502041  77.8389511
  19.7887502  68.6848463  77.0863363  20.1079516  70.0502936  77.6569001
   5.4327584  61.2616710  85.9053070   4.8881052  62.0376518  86.0373344
   6.3106934  61.6087514  85.7472191  12.2215201  54.5928294  78.2833868
  12.3431112  53.6644940  78.4824756  11.9317243  54.6066980  77.3712184
  20.6025797  68.5668805  74.9386409  21.2976701  69.1875498  75.1573724
  20.9448947  67.7164156  75.2138787   6.2193606  60.3886606  88.7983227
   5.4775342  60.5369241  89.3847857   5.8986350  60.6494872  87.9349976
  22.5017220  66.0168511  76.4673740  23.0268544  66.3555783  75.7423060
  22.4139572  65.0815526  76.2836875  14.1637269  69.9302584  88.5963617
  14.4724395  69.6851731  89.4686316  14.9612751  70.1349223  88.1082487
  14.1857881  72.0840494  80.8268993  13.7462871  71.5916873  81.5201850
  14.9365998  71.5413462  80.5861068   6.6650220  68.2752035  80.8293621
   7.4908240  67.9755807  80.4492265   6.3144272  67.5059657  81.2783410
  11.6331753  67.6278503  82.8991295  11.0111762  66.9649208  82.5993523
  12.3036620  67.6539635  82.2164943   4.8658825  66.1938361  81.7882555
   4.0290733  65.7660536  81.6066556   4.8382470  66.3870805  82.7253346
  11.7056280  56.1060291  92.4923801  11.7544436  56.9822414  92.1101570
  12.2478794  55.5637684  91.9195444  22.1911126  66.6501414  91.7724938
  21.4006670  66.6325553  91.2329437  21.9544481  67.1889708  92.5273974
  22.3109001  63.4993881  89.0857666  22.3607006  63.3343888  90.0273189
  22.2022924  62.6321140  88.6955547  11.1945260  66.1782426  76.3749755
  11.3433380  66.8617891  75.7216428  12.0011703  66.1587516  76.8899211
  19.6012763  59.4824809  90.4016973  20.5022626  59.3431273  90.1100971
  19.6760738  59.6479263  91.3415151  13.9355569  56.8591663  89.2470159
  13.0658878  57.1525229  88.9752748  14.1715049  57.4432108  89.9677423
  23.8127198  65.9190822  89.3299688  23.5212006  66.2820803  90.1663149
  23.1999329  65.2057830  89.1513020  25.0122880  63.4843702  81.8502258
  25.8469772  63.9233506  82.0139819  25.1482009  63.0082355  81.0310504
  22.0614386  61.0423437  87.7979746  22.5368508  61.2351083  86.9898597
  21.1379951  61.0982623  87.5523130   8.9497893  62.2047604  77.3810824
   8.7043935  61.3009934  77.5791034   9.1193807  62.2064754  76.4390302
  16.6394603  53.0771280  86.7635580  17.1576546  53.8132307  86.4382068
  16.2849735  53.3835274  87.5982339   8.2193540  57.9375962  74.8796986
   7.5262785  58.0120316  74.2237022   7.9745292  57.1736305  75.4018503
  14.6940665  68.6730557  73.8461503  14.1214632  69.2920744  73.3931975
  15.2673459  69.2229918  74.3801425  20.7616055  57.9189197  86.0308052
  21.7133478  58.0187295  86.0520276  20.5919506  57.1267465  86.5406136
  18.7830435  55.0044780  86.2167452  18.1880367  55.2849793  85.5213941
  18.4980131  55.4938681  86.9884194  17.9137925  68.9567707  74.9770085
  18.8468598  68.8913269  75.1802961  17.8261138  69.7923974  74.5184618
  20.5425942  68.2733577  71.9374033  20.4639573  67.9393441  72.8309790
  21.3635608  68.7655345  71.9365505  23.2404133  61.1395317  85.1450351
  23.2080453  60.2011317  85.3310035  23.8504757  61.2179353  84.4116176
  15.0787464  60.0091370  71.1877555  16.0246568  59.8797578  71.2565973
  14.7001709  59.2706031  71.6646983  23.3898621  57.9306360  85.1908634
  22.8737670  57.1464817  85.0038563  24.2738570  57.6025077  85.3555154
  27.1395980  60.3419186  84.8830839  26.4129143  60.2075151  84.2747331
  26.7243267  60.6496015  85.6887557  14.9626156  64.0609116  92.6478212
  15.8829166  64.2387715  92.8418259  14.9275739  63.1165161  92.4957911
  13.2630381  57.9341346  71.1232440  12.3561836  57.6374459  71.1995154
  13.5406362  57.6371164  70.2566727   4.1808321  59.2547709  81.5731487
   3.8611106  58.4013017  81.2805861   3.6341749  59.4696287  82.3289454
   7.9588229  61.9710150  85.2900993   8.1774239  62.9027258  85.3089027
   8.3714003  61.6118125  86.0755797  14.8792447  52.4778236  77.2776682
  14.0693175  52.1325321  77.6531928  15.5676864  52.1685779  77.8664293
  12.8316094  57.5443356  94.6803742  12.7312821  58.4937713  94.6115833
  12.6137636  57.2161595  93.8079812  12.0329166  54.7928281  71.2644420
  12.8948330  55.1183179  71.5240237  12.2179510  54.0059777  70.7517485
   4.0496581  62.8750621  83.5424608   3.3560053  62.4604574  83.0294563
   4.7969572  62.9171157  82.9458027  12.6947364  60.9740495  93.4968804
  12.2114446  61.7740855  93.7032693  12.7808303  60.9848440  92.5436248
   5.9633324  62.8068875  81.4190623   5.9404012  62.9056562  80.4672506
   6.2733960  63.6534025  81.7407789   8.6220702  64.8645030  85.5337238
   9.5763955  64.8328972  85.4667169   8.4233225  64.4035653  86.3487464
   9.2120084  63.4346146  88.1008035  10.0312973  63.9290224  88.1242873
   9.4856892  62.5178114  88.0725603   6.9770930  70.4064649  82.5507436
   6.8425398  69.6465050  81.9845434   6.5602993  71.1305549  82.0836224
  18.1129893  65.5901573  71.5584011  18.8165744  65.7951575  72.1741667
  17.3892542  66.1578335  71.8233094  18.9427704  61.3411434  77.6786281
  18.8862905  61.7979985  76.8393913  19.4956046  60.5802118  77.5009124
  10.1340056  71.3033966  82.7625878  10.0172440  72.2479399  82.6604569
   9.3132503  71.0007528  83.1511677  20.0216591  66.0284102  73.6082471
  20.8562195  65.5965300  73.4259946  19.8600934  65.8566116  74.5359365
  19.6762483  62.5316215  74.9738810  19.6211287  62.3660487  74.0327254
  19.0508538  63.2392248  75.1301000   4.4654998  57.7684280  88.8000232
   5.1113862  57.2583233  89.2887458   4.2572149  58.5052961  89.3743658
  16.9908390  64.8365127  94.2992373  17.8599550  65.0105779  93.9379008
  16.5115142  65.6559544  94.1768102  12.9858609  52.0324324  74.5524129
  12.9737278  52.9766164  74.7092400  13.8782030  51.8494470  74.2583590
  11.1594570  71.9562228  85.9781807  12.0621817  71.9885838  86.2948302
  10.9331941  71.0262679  85.9928142  12.9148172  70.7093215  82.6391885
  11.9643803  70.7095076  82.5256258  13.2180659  69.9625949  82.1227920
  16.8010728  48.6267101  78.8070065  16.0343124  48.0725587  78.9526748
  17.2121433  48.6988970  79.6684217   8.8052489  54.9151897  92.8975247
   9.6683951  54.5588701  93.1078571   8.2317900  54.5765791  93.5850651
  28.6500866  76.5453753  83.7037648  29.2879276  76.4260500  83.0000988
  28.5321709  77.4934597  83.7625600  25.4590572  76.4981181  83.6399172
  25.1209084  76.3822246  82.7519707  26.3280340  76.0972346  83.6200179
  21.3177388  78.3516657  79.6296063  20.7542253  78.2606594  78.8612351
  21.2029783  77.5316562  80.1098556  25.9410355  77.6516033  89.5985378
  25.9298996  77.2568831  88.7265882  26.1030995  76.9182105  90.1919149
  18.8641820  79.8467849  82.4680284  19.6563112  79.5058674  82.0526583
  19.1038470  79.9562824  83.3882437  26.8976947  82.0187625  74.9410528
  26.2464926  82.6041706  74.5544542  27.6921309  82.5493820  75.0005566
  20.8232574  79.1076762  75.3397663  21.5963450  78.5605749  75.2010538
  21.1757973  79.9721012  75.5512124  22.6617616  80.4353145  88.5464562
  22.3707482  81.3398775  88.4311228  23.2974601  80.4769672  89.2608631
  23.5873823  77.8129993  85.1365922  24.1837395  77.5886015  84.4222884
  23.6448795  77.0714739  85.7391369  23.1598852  75.2669428  72.9716113
  23.4124372  74.7450950  72.2099576  22.2223411  75.1035574  73.0742796
  28.2042134  74.2705207  80.7790856  28.9905224  73.8524630  80.4281273
  28.4680839  75.1751299  80.9472504  28.3752212  79.7078057  75.4779513
  27.7398045  79.7812684  76.1900417  28.0449618  80.2971656  74.7998592
  33.6050562  74.2080440  81.6823834  34.3375734  73.6379657  81.9161664
  32.8489917  73.8202040  82.1230340  22.8795140  77.1697534  75.1740487
  22.7631398  76.4942438  75.8421572  22.9897400  76.6829908  74.3572641
  25.2226681  76.6307681  78.8787177  24.8584889  76.1038302  79.5900098
  26.0793797  76.2406151  78.7053662  31.1275982  67.9202014  86.1418443
  30.7959307  68.7897425  85.9179658  30.5321595  67.6038298  86.8212473
  24.8632168  71.6597581  73.8748525  25.0306571  72.5277818  74.2418996
  24.6729337  71.8224863  72.9509814  27.6207501  80.1214560  85.5414356
  27.3208225  81.0239599  85.4330163  27.2758561  79.8546743  86.3935508
  21.0719983  76.5728357  81.5751060  20.1470479  76.4404571  81.7828752
  21.3204396  77.3522576  82.0721002  31.0204645  72.6397100  83.2211793
  30.1121523  72.5712509  82.9270554  30.9692241  73.1169045  84.0493618
  24.8421389  74.1155239  74.8595192  24.7221014  74.5612289  75.6980672
  24.1473978  74.4640556  74.3008730  18.4328794  76.2161630  82.4094849
  18.5621175  76.4696109  83.3234261  17.7526245  76.8089338  82.0899504
  22.6028281  86.8858880  78.5085323  22.5252311  87.8366706  78.5873804
  21.9989925  86.5404753  79.1660250  25.0945511  74.0586746  91.1646690
  24.3178845  74.6180666  91.1549555  25.7336074  74.5443529  91.6861560
  32.8866292  70.8413539  84.9989667  32.2440672  71.1346072  84.3529461
  32.3821220  70.7266459  85.8042863  30.5406455  74.5876712  75.6875526
  31.4524311  74.8204099  75.5123224  30.0316102  75.1713756  75.1250605
  23.3491883  76.8672199  90.7264657  24.0906568  77.4057243  90.4499481
  22.6428869  77.4938488  90.8836209  28.8247223  79.0101340  89.3236819
  29.2330579  78.5683750  88.5791451  28.1024484  78.4353967  89.5771012
  25.1778293  73.9473946  86.6970376  26.0239488  74.3713360  86.8405025
  25.1176931  73.2907571  87.3908939  29.1476038  79.5702530  83.0789108
  28.5184900  79.7348244  82.3765175  28.7601700  79.9844140  83.8500072
  33.0265270  80.5056968  80.4333471  32.3416308  80.8855870  79.8830505
  33.1109119  81.1152295  81.1665419  28.3277738  71.6078315  88.3551549
  28.0838670  72.3620375  87.8185825  28.6037669  71.9863662  89.1898796
  30.2816201  78.1516927  87.0328815  30.4933096  78.7948687  86.3563196
  30.2345949  77.3179244  86.5650745  27.8842430  70.7634748  83.9365387
  27.0226909  71.0616001  84.2282125  27.9104865  70.9805147  83.0046420
  24.7004000  79.3076938  80.3439193  25.1642345  79.5864641  79.5543815
  24.4360798  78.4060383  80.1612283  21.5928081  78.8548420  83.2818956
  22.1629438  79.2835688  82.6436440  22.1836192  78.5731005  83.9803142
  23.6372886  75.4300091  77.1528758  24.3396929  75.8821134  77.6202684
  23.3053514  74.7883910  77.7808651  22.0853247  74.0211847  91.5279967
  21.4551908  74.7028128  91.7615364  21.9789335  73.9094929  90.5833105
  17.3798220  73.6883643  82.4545891  16.5897274  73.9441172  81.9786002
  17.8709467  74.5031981  82.5597932  31.3962029  81.0288883  85.2051172
  32.2179473  80.6269070  84.9233854  31.3924432  80.9257117  86.1567288
  19.3312965  74.0528223  79.4129368  18.5344128  74.1646917  79.9312864
  19.1038557  74.3914875  78.5470259  25.1618633  80.5772926  87.3611883
  25.2263065  81.0393333  88.1970055  24.4529556  79.9470291  87.4894193
  15.6635923  73.9414134  84.8860882  15.9143961  74.8261144  85.1518458
  16.1995471  73.7618735  84.1135974  39.4868022  77.3727631  81.5536144
  38.7331731  76.8035029  81.3980148  39.6215563  77.3390296  82.5006778
  24.8766650  82.2441033  77.2290863  24.7412325  83.0892569  77.6575711
  25.4176463  82.4460311  76.4656797  21.3633990  68.3232613  93.8905218
  20.9700935  67.7698812  94.5652862  22.1800130  68.6343192  94.2811736
  18.3296048  79.7616471  77.8018788  18.8420568  80.5559722  77.9524353
  18.9818760  79.0642762  77.7352390  20.1390932  82.8782228  79.8841541
  20.3157561  83.8000192  79.6962525  20.9347766  82.5640647  80.3135921
  24.2801951  69.7390492  91.4825475  25.0211664  70.3397645  91.4029937
  24.5119874  68.9968130  90.9243517  19.4243289  74.9246860  89.7603704
  19.3096804  74.0232117  90.0610803  18.5687807  75.1710556  89.4088521
  26.5035127  82.8664600  91.3591205  26.0598981  82.0800978  91.0412110
  27.1652340  83.0543750  90.6935096  21.2622248  84.3960401  85.8851884
  21.8129673  84.2677465  85.1128878  20.4233724  84.6955291  85.5346776
  28.6016365  83.1467400  89.3872606  28.5834840  83.9676281  88.8952876
  29.5236285  83.0221475  89.6122748  25.0589419  80.6611529  90.2296115
  25.5917756  79.8999817  89.9995423  24.5303500  80.3685181  90.9720269
  28.2259114  65.7671595  85.7589756  27.8823383  66.6573237  85.6828867
  28.5938076  65.5773253  84.8959341  16.2944964  78.0905126  78.5778359
  17.1320186  78.5002134  78.3612066  16.4723232  77.1504568  78.5478553
  28.1909396  75.7580206  74.2662192  27.6756020  76.5284811  74.5050579
  27.9186705  75.0845343  74.8895253  25.7756508  70.6029907  79.3247430
  24.9198104  70.2136758  79.1453069  26.1883459  70.6821868  78.4647215
  27.3055654  68.1376250  83.7238990  26.8020450  68.1006386  82.9106795
  27.5986261  69.0468993  83.7835646  23.5498540  68.2214980  82.7305171
  24.4151537  68.0257789  82.3711061  23.6176049  67.9925332  83.6574528
  33.1643671  78.5112561  76.2015365  32.3873113  78.1723721  75.7570527
  33.8435152  78.5165184  75.5270330  27.9795700  73.6307298  76.0921973
  27.6745835  73.9453448  76.9432116  28.9326142  73.7088718  76.1349306
  26.4242131  79.7897522  77.7414927  25.8963493  79.0550281  77.4288164
  25.9229634  80.5672198  77.4954895  31.4034978  77.9846542  82.8581973
  30.7458652  78.6745804  82.9462102  32.2075377  78.3742974  83.2015959
  21.1560859  70.4517188  80.1021538  21.7304611  70.2292370  79.3694731
  21.7431842  70.5205883  80.8550140  30.2140436  76.3390915  80.9085915
  30.7272318  76.9720907  81.4107625  30.8641660  75.7392110  80.5429275
  21.4830446  72.4821649  74.1217424  20.6467758  72.8196336  74.4426698
  21.3435216  72.3470629  73.1844561  23.4583527  67.3258437  78.8296608
  22.8047939  67.0107454  78.2053222  23.4164001  66.7034177  79.5556431
  24.5694732  77.6077732  70.7449900  23.6621793  77.3766986  70.9441049
  25.0665764  76.8115351  70.9323881  27.4762811  86.3175239  73.6646586
  26.8024509  86.6206936  74.2731544  27.8628633  87.1204320  73.3152043
  26.6921267  73.8140371  83.1544255  25.7743829  74.0355318  82.9965943
  27.1081411  73.8886681  82.2955963  27.4756315  75.2131786  78.2846936
  28.2228134  75.7253183  77.9754058  27.7447904  74.8915839  79.1451329
  25.7482965  77.7090327  75.2673890  24.8394184  77.4249360  75.3646360
  25.7778049  78.1289405  74.4077197  30.9802233  81.3196916  79.0365057
  30.5264560  80.4787826  79.0930248  30.3496199  81.9558315  79.3739838
  29.9235152  72.2488902  80.2665725  29.1857909  71.7366289  80.5975967
  30.1761926  71.8089284  79.4549002  29.4235172  83.1573413  79.9714876
  29.7158146  83.7178470  79.2527241  29.9333792  83.4501974  80.7268035
  30.0246779  65.0265154  80.8607494  30.3305656  64.1662518  80.5733409
  30.7499384  65.6182775  80.6606488  16.3171135  75.4295841  79.2489092
  16.1195535  74.8365202  78.5240159  15.7617799  75.1248051  79.9665031
  24.2967859  75.3218948  81.3683685  24.3516469  74.3692784  81.2926162
  23.4859061  75.4778387  81.8524984  25.4459053  79.2499071  72.6061968
  25.0078483  78.5334930  72.1467606  26.1869494  79.4775185  72.0447060
  22.2360219  73.9396007  79.1274064  21.4228085  74.2390178  79.5339256
  22.7319213  73.5451696  79.8448546  24.3868797  83.9353764  81.0608329
  24.3444976  84.1614611  80.1316861  25.3031496  83.7017139  81.2094130
  27.8334431  74.4037832  87.9588958  28.1883818  74.6309305  88.8183424
  28.4806562  74.7356209  87.3366213  33.5632168  77.5256268  78.6638287
  33.4250066  77.7157864  77.7359476  33.2068387  78.2875650  79.1206338
  21.7274294  71.5114363  84.7435299  22.3673673  71.3703122  84.0458262
  20.8951824  71.2248876  84.3673901  33.5901547  79.5932795  83.6749559
  34.0238054  79.5008084  84.5232613  34.3033128  79.5690295  83.0369575
  22.5034598  80.8116793  80.8570291  23.2975196  80.3167113  80.6552866
  21.7926290  80.2834656  80.4937997  27.3229442  83.1934889  85.2082659
  27.3766464  83.7625825  85.9760375  26.4544224  83.3636774  84.8436696
  18.8117361  74.9559875  76.9330044  17.8814949  74.8944330  77.1500006
  18.9074833  74.4335828  76.1366685  18.7302910  71.4814688  79.5208286
  18.9909728  72.3960021  79.4117446  19.5520083  71.0139130  79.6704899
  20.2027836  72.8952445  86.6907110  20.8750889  72.6869807  86.0419759
  19.3757622  72.6974531  86.2512343  34.4517097  79.6356495  86.2082444
  34.6452987  80.5402306  86.4541719  34.3517715  79.1763914  87.0421029
  26.1053408  69.5214386  88.7072771  25.4581323  70.2204336  88.6137248
  26.8754423  69.9550530  89.0749019  29.5132206  79.7863238  91.7823325
  29.3617712  79.5573790  90.8653408  29.5036885  80.7433839  91.7954670
  26.2817542  77.3595151  86.7669591  27.2109602  77.5106310  86.5938558
  25.8608572  77.4479172  85.9118237  25.0805874  81.3845815  84.5368129
  24.9416959  81.0164600  85.4094067  24.2920470  81.8993455  84.3652086
  25.6754026  86.4854912  75.8793665  25.8505781  86.0142955  76.6939288
  24.9886814  87.1120678  76.1074926  26.6311089  80.7627418  81.9256966
  26.2960921  80.7228188  82.8214616  26.1315035  80.0972134  81.4527377
  20.6055333  76.1695048  87.4509548  20.4675131  75.4375287  88.0521087
  21.5160256  76.0803948  87.1693735  29.5670281  78.1083452  72.1994026
  28.9499451  77.3830280  72.1027079  29.0986769  78.8692813  71.8561100
  23.2337634  75.8815007  86.9393227  23.9437252  75.2408199  86.8979846
  23.1906942  76.1327902  87.8619408  31.2224412  82.8182361  89.8599806
  31.1636958  82.1341581  89.1930389  31.6243931  83.5601351  89.4080432
  21.9466567  72.8680225  88.7588867  21.4103924  72.4170964  89.4110463
  21.3583276  73.0026134  88.0159331  20.2415111  89.6344274  82.6533525
  20.4811709  90.2662799  83.3312544  19.3984307  89.2832314  82.9398885
  21.3568826  72.3268877  71.3215330  20.4798293  72.2057677  70.9577577
  21.8326580  71.5354955  71.0694219  31.2241819  80.7821945  88.0913786
  30.3368598  80.4447866  88.2140185  31.7940371  80.0504976  88.3282551
  12.8770967  77.1146036  81.4156837  13.5642006  76.8007766  80.8277853
  12.7219095  78.0187401  81.1424089  17.6805689  72.0036233  85.8441861
  17.5963877  71.3961902  85.1092271  16.8588395  72.4945251  85.8451357
  24.7542973  85.4423397  85.0575029  24.6813144  86.2478368  85.5694334
  24.3120366  85.6415363  84.2323051  24.5432752  84.6795167  78.5677851
  23.7600274  85.2216847  78.6616075  25.2425498  85.1969147  78.9672092
  27.8529403  70.4889796  81.2112056  28.3498102  69.7359759  80.8913126
  27.0816384  70.5254113  80.6455266  35.7059160  76.1930162  82.8530348
  35.6949036  77.0754877  82.4824281  34.8376539  75.8401713  82.6584885
  27.2141656  85.3410231  87.2133188  27.9269629  85.9757696  87.1409089
  26.7231685  85.4374097  86.3973190  28.9359183  79.2461484  78.7850480
  28.0015462  79.3662946  78.6155184  29.1135852  78.3433950  78.5210489
  24.4364371  72.6307179  80.9383741  24.0662159  72.0778220  81.6264646
  24.9323464  72.0265313  80.3858741  32.3231735  75.0878803  79.3200514
  32.7892187  75.9206794  79.2460816  32.7739235  74.6223784  80.0245772
  22.2653570  83.0904674  88.0338759  22.9663029  83.7241157  88.1868153
  21.7948685  83.4319406  87.2734398  30.3907966  81.4322624  76.3186666
  30.6667810  81.3179219  77.2280540  29.5212464  81.0340109  76.2798839
  30.2948397  67.4559390  83.3591415  29.3811477  67.6863617  83.5273622
  30.7241499  67.5397834  84.2105447  30.0654856  75.6449282  85.8591309
  29.4126306  75.8925189  85.2043762  30.4435236  74.8313420  85.5253786
  27.0262030  85.6808975  79.9619479  27.2084424  84.8630631  80.4247232
  27.8495016  85.8976667  79.5244369  27.3604195  84.6077160  77.2234528
  27.8891962  84.0969615  76.6104690  27.6232415  84.2919690  78.0880061
  26.1142429  76.3869093  92.3457346  25.4383066  76.2863222  93.0159721
  26.9370063  76.2308307  92.8093343  17.8621288  82.6241029  84.9669861
  18.4474725  81.8784717  85.0997766  17.6646126  82.9344986  85.8506525
  20.7159943  85.6592277  79.9832304  20.0470318  86.1438404  79.4996344
  20.5772813  85.9061497  80.8975682  12.4538943  75.1946630  83.6874305
  12.4923042  74.6610220  84.4811423  11.9479236  74.6681835  83.0685282
  24.8565212  87.6936020  86.5814962  25.4083520  87.8567642  87.3464047
  25.1971405  88.2840458  85.9094987  19.8329705  70.0411170  87.1836847
  19.8971031  70.9026001  86.7714245  19.7696825  69.4285172  86.4509205
  19.3081978  72.1134303  90.8309881  19.9354016  71.7311380  91.4447405
  18.4509896  71.8948505  91.1965574  29.7076086  82.5197278  92.4363617
  30.2515990  83.1327236  91.9418571  29.1262931  83.0776856  92.9530630
  16.0847520  73.9210732  76.7628236  16.3800961  73.0121410  76.7095290
  15.1835556  73.8998471  76.4409238  27.9933599  85.6417996  83.5678644
  27.8684738  84.8407736  83.0589590  28.6512690  86.1364189  83.0792614
  19.6141767  71.9966728  82.7455785  18.8928353  72.6102696  82.6063258
  20.4035023  72.5324493  82.6672431  30.0568507  83.4427016  85.1958194
  29.1098843  83.3232367  85.1236521  30.4051281  82.5549514  85.2784456
  22.4168081  69.3321155  89.0196436  22.9402483  69.5783451  89.7822746
  22.1980414  70.1641190  88.5999574  17.8135362  71.6024829  76.8867561
  17.4848068  70.7222208  76.7042667  18.1674733  71.5472498  77.7743950
  27.0614941  83.2379732  81.3962547  26.9139903  82.3096440  81.5770117
  27.8868434  83.2599823  80.9119622  20.9277185  71.8897799  77.2543039
  21.2673258  72.4183720  76.5321647  21.3749305  72.2278205  78.0301605
  30.6649063  84.0608291  82.4827419  31.5895610  83.8551152  82.3451871
  30.4964366  83.8124692  83.3916761  23.6220626  70.2734850  86.7046107
  23.2817446  69.4742663  87.1066787  22.9159632  70.5736561  86.1322940
  24.2737098  67.3584162  85.1573430  25.0963167  66.8844641  85.0352320
  24.5175161  68.1374646  85.6572116  22.9145332  70.3872421  75.4536332
  23.6353695  70.7653674  74.9500048  22.2910636  71.1061298  75.5571310
  27.0576455  71.0917570  76.3894664  27.2740069  71.9742208  76.0883492
  26.5770522  70.7003783  75.6600306  21.7975676  74.0503283  82.9665408
  21.6520257  74.3643586  83.8589690  21.3200880  74.6688183  82.4136307
  23.6572059  71.0405831  83.0146298  23.6433628  70.1446924  82.6778596
  24.3744487  71.0476495  83.6484584  25.5098190  71.4743171  85.0599425
  25.2515968  72.3960242  85.0583756  24.9783230  71.0773606  85.7499890
  30.4544379  84.5793958  77.8389511  30.6281256  84.0140381  77.0863363
  30.9473270  85.3794853  77.6569001  16.2721339  76.5908627  85.9053070
  15.7274807  77.3668435  86.0373344  17.1500688  76.9379432  85.7472191
  23.0608955  69.9220211  78.2833868  23.1824866  68.9936857  78.4824756
  22.7710998  69.9358897  77.3712184  25.9300146  67.6075122  81.4200588
  25.9521842  67.6714455  80.4652568  26.3468205  66.7679630  81.6141094
  36.3083770  77.3430381  79.4579811  36.7514916  76.5937706  79.0598934
  35.4310280  77.3340518  79.0753543  31.4419551  83.8960723  74.9386409
  32.1370456  84.5167415  75.1573724  31.7842701  83.0456074  75.2138787
  17.0587360  75.7178524  88.7983227  16.3169096  75.8661159  89.3847857
  16.7380105  75.9786789  87.9349976  33.3410974  81.3460428  76.4673740
  33.8662298  81.6847701  75.7423060  33.2533327  80.4107444  76.2836875
  25.0031023  85.2594502  88.5963617  25.3118150  85.0143649  89.4686316
  25.8006505  85.4641140  88.1082487  25.0251635  87.4132412  80.8268993
  24.5856625  86.9208790  81.5201850  25.7759752  86.8705379  80.5861068
  17.5043974  83.6043952  80.8293621  18.3301994  83.3047724  80.4492265
  17.1538026  82.8351575  81.2783410  22.4725507  82.9570421  82.8991295
  21.8505517  82.2941126  82.5993523  23.1430374  82.9831553  82.2164943
  15.7052579  81.5230279  81.7882555  14.8684487  81.0952453  81.6066556
  15.6776225  81.7162722  82.7253346  22.5450035  71.4352209  92.4923801
  22.5938190  72.3114331  92.1101570  23.0872549  70.8929602  91.9195444
  33.0304880  81.9793332  91.7724938  32.2400424  81.9617471  91.2329437
  32.7938235  82.5181626  92.5273974  33.1502756  78.8285798  89.0857666
  33.2000760  78.6635806  90.0273189  33.0416679  77.9613057  88.6955547
  22.0339014  81.5074344  76.3749755  22.1827135  82.1909808  75.7216428
  22.8405458  81.4879434  76.8899211  30.4406518  74.8116726  90.4016973
  31.3416381  74.6723191  90.1100971  30.5154492  74.9771181  91.3415151
  24.7749323  72.1883581  89.2470159  23.9052633  72.4817147  88.9752748
  25.0108804  72.7724026  89.9677423  34.6520952  81.2482740  89.3299688
  34.3605761  81.6112720  90.1663149  34.0393084  80.5349748  89.1513020
  35.8516635  78.8135620  81.8502258  36.6863526  79.2525424  82.0139819
  35.9875763  78.3374273  81.0310504  32.9008141  76.3715354  87.7979746
  33.3762262  76.5643001  86.9898597  31.9773706  76.4274540  87.5523130
  19.7891647  77.5339522  77.3810824  19.5437689  76.6301852  77.5791034
  19.9587562  77.5356672  76.4390302  27.4788357  68.4063198  86.7635580
  27.9970301  69.1424225  86.4382068  27.1243490  68.7127191  87.5982339
  19.0587295  73.2667879  74.8796986  18.3656540  73.3412234  74.2237022
  18.8139047  72.5028223  75.4018503  27.7300951  64.8263481  82.2836476
  28.0102705  64.1586670  82.9096903  28.5151558  65.0192576  81.7711140
  25.5334420  84.0022474  73.8461503  24.9608387  84.6212662  73.3931975
  26.1067213  84.5521836  74.3801425  31.6009810  73.2481115  86.0308052
  32.5527232  73.3479212  86.0520276  31.4313260  72.4559383  86.5406136
  29.6224189  70.3336698  86.2167452  29.0274121  70.6141710  85.5213941
  29.3373886  70.8230599  86.9884194  28.7531680  84.2859625  74.9770085
  29.6862353  84.2205186  75.1802961  28.6654892  85.1215891  74.5184618
  31.3819696  83.6025495  71.9374033  31.3033328  83.2685359  72.8309790
  32.2029363  84.0947263  71.9365505  34.0797887  76.4687234  85.1450351
  34.0474207  75.5303235  85.3310035  34.6898511  76.5471271  84.4116176
  25.9181218  75.3383287  71.1877555  26.8640323  75.2089495  71.2565973
  25.5395463  74.5997949  71.6646983  34.2292376  73.2598278  85.1908634
  33.7131424  72.4756734  85.0038563  35.1132324  72.9316994  85.3555154
  31.8903103  67.0039293  81.1504447  31.6927924  66.6954381  82.0347779
  32.5002808  67.7300932  81.2802377  39.8974437  77.5303241  84.2856388
  40.6277826  77.2688529  84.8464091  39.2881383  76.7931963  84.3258456
  37.9789734  75.6711104  84.8830839  37.2522898  75.5367069  84.2747331
  37.5637021  75.9787932  85.6887557  25.8019911  79.3901033  92.6478212
  26.7222920  79.5679632  92.8418259  25.7669494  78.4457079  92.4957911
  24.1024135  73.2633264  71.1232440  23.1955591  72.9666376  71.1995154
  24.3800116  72.9663082  70.2566727  15.0202076  74.5839627  81.5731487
  14.7004860  73.7304935  81.2805861  14.4735504  74.7988205  82.3289454
  18.7981983  77.3002068  85.2900993  19.0167993  78.2319176  85.3089027
  19.2107757  76.9410042  86.0755797  25.7186201  67.8070153  77.2776682
  24.9086929  67.4617238  77.6531928  26.4070618  67.4977697  77.8664293
  27.6476749  66.8848200  78.9000978  28.2007788  67.3043654  79.5591001
  27.8846836  65.9583948  78.9423934  23.6709849  72.8735274  94.6803742
  23.5706576  73.8229631  94.6115833  23.4531391  72.5453513  93.8079812
  14.8890336  78.2042538  83.5424608  14.1953807  77.7896491  83.0294563
  15.6363327  78.2463075  82.9458027  31.0255556  68.9948725  78.4079643
  30.4454226  69.6533529  78.0257695  30.7591489  68.1726070  77.9967060
  29.4759123  68.3953783  80.6100963  29.9758901  68.5070317  79.8015282
  30.1194731  68.0914836  81.2501771  23.5341119  76.3032413  93.4968804
  23.0508200  77.1032773  93.7032693  23.6202058  76.3140357  92.5436248
  16.8027078  78.1360792  81.4190623  16.7797766  78.2348480  80.4672506
  17.1127715  78.9825943  81.7407789  19.4614456  80.1936947  85.5337238
  20.4157710  80.1620890  85.4667169  19.2626980  79.7327571  86.3487464
  20.0513838  78.7638063  88.1008035  20.8706727  79.2582142  88.1242873
  20.3250646  77.8470031  88.0725603  29.8080434  71.1548816  77.4635991
  28.9206290  71.4398466  77.2456186  30.2234424  70.9942579  76.6163268
  33.1594971  71.1795337  81.1790330  33.9355361  71.6691789  81.4514947
  32.4343105  71.6053391  81.6362200  35.5967529  71.8922956  82.2364271
  36.1912020  71.6518692  81.5257579  35.6694113  71.1730086  82.8637807
  17.8164685  85.7356567  82.5507436  17.6819153  84.9756968  81.9845434
  17.3996747  86.4597467  82.0836224  28.9523648  80.9193490  71.5584011
  29.6559498  81.1243493  72.1741667  28.2286297  81.4870252  71.8233094
  29.7821458  76.6703352  77.6786281  29.7256660  77.1271903  76.8393913
  30.3349801  75.9094036  77.5009124  33.5926264  72.4593083  78.5036401
  33.3363198  72.0589719  79.3344608  32.9679132  73.1736877  78.3786540
  37.9038602  75.1989157  81.0107692  37.3438160  75.2682346  81.7839254
  37.2982105  75.0230141  80.2907188  20.9733811  86.6325884  82.7625878
  20.8566195  87.5771316  82.6604569  20.1526257  86.3299445  83.1511677
  30.8610345  81.3576020  73.6082471  31.6955949  80.9257218  73.4259946
  30.6994688  81.1858033  74.5359365  30.5156238  77.8608133  74.9738810
  30.4605041  77.6952404  74.0327254  29.8902293  78.5684166  75.1301000
  15.3048753  73.0976197  88.8000232  15.9507616  72.5875151  89.2887458
  15.0965904  73.8344879  89.3743658  27.8302145  80.1657045  94.2992373
  28.6993304  80.3397697  93.9379008  27.3508896  80.9851461  94.1768102
  23.8252363  67.3616242  74.5524129  23.8131033  68.3058082  74.7092400
  24.7175785  67.1786387  74.2583590  21.9988325  87.2854146  85.9781807
  22.9015572  87.3177756  86.2948302  21.7725695  86.3554597  85.9928142
  23.7541927  86.0385132  82.6391885  22.8037558  86.0386994  82.5256258
  24.0574413  85.2917867  82.1227920  19.6446244  70.2443814  92.8975247
  20.5077705  69.8880619  93.1078571  19.0711654  69.9057709  93.5850651
  39.4894620  91.8745671  83.7037648  40.1273030  91.7552418  83.0000988
  39.3715463  92.8226515  83.7625600  36.2984327  91.8273099  83.6399172
  35.9602838  91.7114163  82.7519707  37.1674095  91.4264264  83.6200179
  32.1571142  93.6808575  79.6296063  31.5936008  93.5898512  78.8612351
  32.0423537  92.8608480  80.1098556  36.7804110  92.9807950  89.5985378
  36.7692751  92.5860749  88.7265882  36.9424749  92.2474023  90.1919149
  29.7035574  95.1759767  82.4680284  30.4956866  94.8350591  82.0526583
  29.9432225  95.2854742  83.3882437  37.7370701  97.3479543  74.9410528
  37.0858681  97.9333623  74.5544542  38.5315064  97.8785738  75.0005566
  31.6626328  94.4368680  75.3397663  32.4357204  93.8897667  75.2010538
  32.0151727  95.3012929  75.5512124  33.5011371  95.7645062  88.5464562
  33.2101237  96.6690693  88.4311228  34.1368355  95.8061590  89.2608631
  34.4267578  93.1421911  85.1365922  35.0231150  92.9177933  84.4222884
  34.4842549  92.4006656  85.7391369  33.9992606  90.5961346  72.9716113
  34.2518127  90.0742867  72.2099576  33.0617165  90.4327492  73.0742796
  39.0435889  89.5997124  80.7790856  39.8298978  89.1816548  80.4281273
  39.3074593  90.5043217  80.9472504  39.2145966  95.0369975  75.4779513
  38.5791799  95.1104601  76.1900417  38.8843373  95.6263574  74.7998592
  44.4444316  89.5372358  81.6823834  45.1769488  88.9671574  81.9161664
  43.6883672  89.1493958  82.1230340  33.7188895  92.4989452  75.1740487
  33.6025153  91.8234355  75.8421572  33.8291155  92.0121826  74.3572641
  36.0620436  91.9599599  78.8787177  35.6978643  91.4330220  79.5900098
  36.9187552  91.5698068  78.7053662  41.9669736  83.2493932  86.1418443
  41.6353061  84.1189343  85.9179658  41.3715350  82.9330216  86.8212473
  35.7025923  86.9889499  73.8748525  35.8700325  87.8569735  74.2418996
  35.5123092  87.1516781  72.9509814  38.4601256  95.4506478  85.5414356
  38.1601979  96.3531517  85.4330163  38.1152315  95.1838661  86.3935508
  31.9113737  91.9020275  81.5751060  30.9864234  91.7696489  81.7828752
  32.1598151  92.6814494  82.0721002  41.8598400  87.9689018  83.2211793
  40.9515277  87.9004426  82.9270554  41.8085996  88.4460963  84.0493618
  35.6815144  89.4447156  74.8595192  35.5614769  89.8904207  75.6980672
  34.9867732  89.7932474  74.3008730  29.2722548  91.5453548  82.4094849
  29.4014930  91.7988027  83.3234261  28.5920000  92.1381256  82.0899504
  33.4422036 102.2150798  78.5085323  33.3646065 103.1658623  78.5873804
  32.8383679 101.8696671  79.1660250  35.9339266  89.3878664  91.1646690
  35.1572600  89.9472584  91.1549555  36.5729829  89.8735447  91.6861560
  43.7260046  86.1705456  84.9989667  43.0834426  86.4637990  84.3529461
  43.2214975  86.0558377  85.8042863  41.3800210  89.9168630  75.6875526
  42.2918066  90.1496016  75.5123224  40.8709857  90.5005674  75.1250605
  34.1885638  92.1964117  90.7264657  34.9300322  92.7349161  90.4499481
  33.4822623  92.8230406  90.8836209  39.6640977  94.3393257  89.3236819
  40.0724334  93.8975668  88.5791451  38.9418239  93.7645885  89.5771012
  36.0172048  89.2765864  86.6970376  36.8633243  89.7005278  86.8405025
  35.9570685  88.6199488  87.3908939  39.9869792  94.8994448  83.0789108
  39.3578655  95.0640162  82.3765175  39.5995454  95.3136058  83.8500072
  43.8659024  95.8348886  80.4333471  43.1810062  96.2147787  79.8830505
  43.9502873  96.4444212  81.1665419  39.1671493  86.9370232  88.3551549
  38.9232425  87.6912293  87.8185825  39.4431423  87.3155580  89.1898796
  41.1209956  93.4808845  87.0328815  41.3326851  94.1240605  86.3563196
  41.0739704  92.6471161  86.5650745  38.7236185  86.0926666  83.9365387
  37.8620664  86.3907919  84.2282125  38.7498619  86.3097064  83.0046420
  35.5397754  94.6368856  80.3439193  36.0036100  94.9156559  79.5543815
  35.2754552  93.7352301  80.1612283  32.4321835  94.1840338  83.2818956
  33.0023192  94.6127606  82.6436440  33.0229947  93.9022922  83.9803142
  34.4766640  90.7592008  77.1528758  35.1790683  91.2113052  77.6202684
  34.1447269  90.1175827  77.7808651  32.9247002  89.3503765  91.5279967
  32.2945662  90.0320046  91.7615364  32.8183089  89.2386847  90.5833105
  28.2191974  89.0175561  82.4545891  27.4291028  89.2733090  81.9786002
  28.7103221  89.8323899  82.5597932  42.2355784  96.3580800  85.2051172
  43.0573227  95.9560988  84.9233854  42.2318186  96.2549034  86.1567288
  30.1706719  89.3820140  79.4129368  29.3737883  89.4938835  79.9312864
  29.9432312  89.7206793  78.5470259  36.0012387  95.9064844  87.3611883
  36.0656820  96.3685251  88.1970055  35.2923311  95.2762208  87.4894193
  26.5029677  89.2706052  84.8860882  26.7537715  90.1553061  85.1518458
  27.0389225  89.0910653  84.1135974  50.3261777  92.7019549  81.5536144
  49.5725485  92.1326947  81.3980148  50.4609318  92.6682213  82.5006778
  35.7160405  97.5732951  77.2290863  35.5806079  98.4184487  77.6575711
  36.2570217  97.7752229  76.4656797  32.2027744  83.6524531  93.8905218
  31.8094690  83.0990729  94.5652862  33.0193885  83.9635109  94.2811736
  29.1689802  95.0908389  77.8018788  29.6814323  95.8851639  77.9524353
  29.8212515  94.3934680  77.7352390  30.9784687  98.2074145  79.8841541
  31.1551315  99.1292110  79.6962525  31.7741520  97.8932565  80.3135921
  35.1195705  85.0682410  91.4825475  35.8605419  85.6689563  91.4029937
  35.3513628  84.3260048  90.9243517  30.2637043  90.2538777  89.7603704
  30.1490558  89.3524035  90.0610803  29.4081561  90.5002474  89.4088521
  37.3428881  98.1956518  91.3591205  36.8992735  97.4092896  91.0412110
  38.0046095  98.3835668  90.6935096  32.1016002  99.7252319  85.8851884
  32.6523427  99.5969383  85.1128878  31.2627478 100.0247208  85.5346776
  39.4410119  98.4759318  89.3872606  39.4228594  99.2968199  88.8952876
  40.3630039  98.3513393  89.6122748  35.8983173  95.9903447  90.2296115
  36.4311510  95.2291735  89.9995423  35.3697254  95.6977099  90.9720269
  39.0652868  81.0963513  85.7589756  38.7217138  81.9865155  85.6828867
  39.4331831  80.9065171  84.8959341  27.1338719  93.4197043  78.5778359
  27.9713941  93.8294052  78.3612066  27.3116987  92.4796486  78.5478553
  39.0303151  91.0872124  74.2662192  38.5149774  91.8576729  74.5050579
  38.7580459  90.4137260  74.8895253  36.6150262  85.9321825  79.3247430
  35.7591858  85.5428675  79.1453069  37.0277214  86.0113786  78.4647215
  38.1449409  83.4668168  83.7238990  37.6414204  83.4298303  82.9106795
  38.4380015  84.3760911  83.7835646  34.3892295  83.5506898  82.7305171
  35.2545291  83.3549707  82.3711061  34.4569803  83.3217250  83.6574528
  44.0037425  93.8404479  76.2015365  43.2266868  93.5015638  75.7570527
  44.6828906  93.8457102  75.5270330  38.8189454  88.9599216  76.0921973
  38.5139590  89.2745365  76.9432116  39.7719896  89.0380636  76.1349306
  37.2635886  95.1189439  77.7414927  36.7357248  94.3842199  77.4288164
  36.7623389  95.8964116  77.4954895  42.2428732  93.3138460  82.8581973
  41.5852406  94.0037721  82.9462102  43.0469131  93.7034892  83.2015959
  31.9954614  85.7809106  80.1021538  32.5698365  85.5584287  79.3694731
  32.5825596  85.8497800  80.8550140  41.0534191  91.6682833  80.9085915
  41.5666073  92.3012824  81.4107625  41.7035415  91.0684028  80.5429275
  32.3224201  87.8113567  74.1217424  31.4861513  88.1488253  74.4426698
  32.1828970  87.6762547  73.1844561  34.2977281  82.6550355  78.8296608
  33.6441694  82.3399372  78.2053222  34.2557755  82.0326095  79.5556431
  35.4088486  92.9369650  70.7449900  34.5015548  92.7058903  70.9441049
  35.9059518  92.1407269  70.9323881  38.3156565 101.6467157  73.6646586
  37.6418264 101.9498854  74.2731544  38.7022387 102.4496237  73.3152043
  37.5315022  89.1432288  83.1544255  36.6137583  89.3647235  82.9965943
  37.9475165  89.2178599  82.2955963  38.3150069  90.5423704  78.2846936
  39.0621888  91.0545101  77.9754058  38.5841659  90.2207757  79.1451329
  36.5876720  93.0382245  75.2673890  35.6787939  92.7541277  75.3646360
  36.6171803  93.4581323  74.4077197  41.8195987  96.6488834  79.0365057
  41.3658314  95.8079744  79.0930248  41.1889954  97.2850232  79.3739838
  40.7628907  87.5780820  80.2665725  40.0251663  87.0658206  80.5975967
  41.0155680  87.1381202  79.4549002  40.2628926  98.4865331  79.9714876
  40.5551901  99.0470388  79.2527241  40.7727547  98.7793892  80.7268035
  40.8640534  80.3557072  80.8607494  41.1699411  79.4954436  80.5733409
  41.5893139  80.9474692  80.6606488  27.1564890  90.7587759  79.2489092
  26.9589290  90.1657119  78.5240159  26.6011554  90.4539969  79.9665031
  35.1361614  90.6510865  81.3683685  35.1910223  89.6984702  81.2926162
  34.3252816  90.8070304  81.8524984  36.2852807  94.5790988  72.6061968
  35.8472237  93.8626847  72.1467606  37.0263248  94.8067103  72.0447060
  33.0753974  89.2687925  79.1274064  32.2621839  89.5682095  79.5339256
  33.5712968  88.8743614  79.8448546  35.2262551  99.2645682  81.0608329
  35.1838730  99.4906528  80.1316861  36.1425250  99.0309056  81.2094130
  38.6728185  89.7329749  87.9588958  39.0277573  89.9601223  88.8183424
  39.3200316  90.0648126  87.3366213  44.4025922  92.8548185  78.6638287
  44.2643821  93.0449781  77.7359476  44.0462141  93.6167568  79.1206338
  32.5668048  86.8406280  84.7435299  33.2067428  86.6995040  84.0458262
  31.7345579  86.5540794  84.3673901  44.4295302  94.9224712  83.6749559
  44.8631808  94.8300001  84.5232613  45.1426882  94.8982213  83.0369575
  33.3428352  96.1408711  80.8570291  34.1368951  95.6459031  80.6552866
  32.6320045  95.6126574  80.4937997  38.1623197  98.5226806  85.2082659
  38.2160219  99.0917743  85.9760375  37.2937978  98.6928691  84.8436696
  29.6511116  90.2851793  76.9330044  28.7208704  90.2236248  77.1500006
  29.7468588  89.7627745  76.1366685  29.5696665  86.8106605  79.5208286
  29.8303482  87.7251939  79.4117446  30.3913837  86.3431048  79.6704899
  31.0421590  88.2244363  86.6907110  31.7144643  88.0161725  86.0419759
  30.2151377  88.0266449  86.2512343  45.2910851  94.9648413  86.2082444
  45.4846741  95.8694223  86.4541719  45.1911470  94.5055832  87.0421029
  36.9447162  84.8506304  88.7072771  36.2975077  85.5496253  88.6137248
  37.7148177  85.2842447  89.0749019  40.3525960  95.1155156  91.7823325
  40.2011466  94.8865707  90.8653408  40.3430639  96.0725757  91.7954670
  37.1211296  92.6887068  86.7669591  38.0503356  92.8398228  86.5938558
  36.7002326  92.7771089  85.9118237  35.9199628  96.7137733  84.5368129
  35.7810714  96.3456517  85.4094067  35.1314224  97.2285372  84.3652086
  36.5147780 101.8146829  75.8793665  36.6899536 101.3434873  76.6939288
  35.8280568 102.4412596  76.1074926  37.4704843  96.0919336  81.9256966
  37.1354676  96.0520106  82.8214616  36.9708789  95.4264051  81.4527377
  31.4449087  91.4986966  87.4509548  31.3068885  90.7667204  88.0521087
  32.3554011  91.4095866  87.1693735  40.4064035  93.4375370  72.1994026
  39.7893206  92.7122198  72.1027079  39.9380523  94.1984730  71.8561100
  34.0731388  91.2106925  86.9393227  34.7831007  90.5700117  86.8979846
  34.0300696  91.4619820  87.8619408  42.0618167  98.1474278  89.8599806
  42.0030713  97.4633498  89.1930389  42.4637685  98.8893268  89.4080432
  32.7860322  88.1972143  88.7588867  32.2497679  87.7462881  89.4110463
  32.1977030  88.3318052  88.0159331  31.0808865 104.9636192  82.6533525
  31.3205464 105.5954716  83.3312544  30.2378062 104.6124232  82.9398885
  32.1962581  87.6560794  71.3215330  31.3192047  87.5349595  70.9577577
  32.6720334  86.8646873  71.0694219  42.0635574  96.1113862  88.0913786
  41.1762353  95.7739784  88.2140185  42.6334125  95.3796893  88.3282551
  23.7164721  92.4437954  81.4156837  24.4035761  92.1299684  80.8277853
  23.5612850  93.3479319  81.1424089  28.5199443  87.3328151  85.8441861
  28.4357632  86.7253820  85.1092271  27.6982150  87.8237169  85.8451357
  35.5936727 100.7715315  85.0575029  35.5206899 101.5770286  85.5694334
  35.1514120 100.9707280  84.2323051  35.3826507 100.0087085  78.5677851
  34.5994029 100.5508765  78.6616075  36.0819252 100.5261064  78.9672092
  38.6923157  85.8181714  81.2112056  39.1891857  85.0651676  80.8913126
  37.9210139  85.8546031  80.6455266  46.5452914  91.5222080  82.8530348
  46.5342791  92.4046795  82.4824281  45.6770294  91.1693630  82.6584885
  38.0535411 100.6702149  87.2133188  38.7663383 101.3049613  87.1409089
  37.5625439 100.7666015  86.3973190  39.7752938  94.5753401  78.7850480
  38.8409216  94.6954864  78.6155184  39.9529606  93.6725868  78.5210489
  35.2758126  87.9599097  80.9383741  34.9055913  87.4070137  81.6264646
  35.7717218  87.3557231  80.3858741  43.1625489  90.4170721  79.3200514
  43.6285941  91.2498712  79.2460816  43.6132990  89.9515702  80.0245772
  33.1047324  98.4196592  88.0338759  33.8056784  99.0533075  88.1868153
  32.6342439  98.7611324  87.2734398  41.2301720  96.7614542  76.3186666
  41.5061564  96.6471136  77.2280540  40.3606219  96.3632027  76.2798839
  41.1342152  82.7851308  83.3591415  40.2205232  83.0155534  83.5273622
  41.5635253  82.8689752  84.2105447  40.9048610  90.9741199  85.8591309
  40.2520061  91.2217107  85.2043762  41.2828990  90.1605338  85.5253786
  37.8655784 101.0100893  79.9619479  38.0478179 100.1922549  80.4247232
  38.6888770 101.2268585  79.5244369  38.1997950  99.9369078  77.2234528
  38.7285716  99.4261532  76.6104690  38.4626169  99.6211608  78.0880061
  36.9536183  91.7161011  92.3457346  36.2776820  91.6155140  93.0159721
  37.7763817  91.5600224  92.8093343  28.7015042  97.9532947  84.9669861
  29.2868479  97.2076635  85.0997766  28.5039881  98.2636904  85.8506525
  31.5553698 100.9884194  79.9832304  30.8864073 101.4730322  79.4996344
  31.4166567 101.2353415  80.8975682  23.2932697  90.5238547  83.6874305
  23.3316797  89.9902138  84.4811423  22.7872990  89.9973753  83.0685282
  35.6958966 103.0227938  86.5814962  36.2477274 103.1859560  87.3464047
  36.0365160 103.6132376  85.9094987  30.6723459  85.3703088  87.1836847
  30.7364786  86.2317919  86.7714245  30.6090580  84.7577089  86.4509205
  30.1475732  87.4426220  90.8309881  30.7747771  87.0603298  91.4447405
  29.2903651  87.2240422  91.1965574  40.5469841  97.8489196  92.4363617
  41.0909745  98.4619154  91.9418571  39.9656685  98.4068774  92.9530630
  26.9241275  89.2502649  76.7628236  27.2194716  88.3413328  76.7095290
  26.0229311  89.2290389  76.4409238  38.8327354 100.9709914  83.5678644
  38.7078493 100.1699653  83.0589590  39.4906445 101.4656107  83.0792614
  30.4535522  87.3258646  82.7455785  29.7322108  87.9394614  82.6063258
  31.2428778  87.8616411  82.6672431  40.8962262  98.7718934  85.1958194
  39.9492597  98.6524285  85.1236521  41.2445035  97.8841432  85.2784456
  33.2561835  84.6613073  89.0196436  33.7796237  84.9075369  89.7822746
  33.0374169  85.4933107  88.5999574  28.6529116  86.9316747  76.8867561
  28.3241823  86.0514126  76.7042667  29.0068487  86.8764416  77.7743950
  37.9008695  98.5671650  81.3962547  37.7533658  97.6388357  81.5770117
  38.7262189  98.5891741  80.9119622  31.7670940  87.2189717  77.2543039
  32.1067012  87.7475638  76.5321647  32.2143060  87.5570123  78.0301605
  41.5042817  99.3900209  82.4827419  42.4289365  99.1843070  82.3451871
  41.3358120  99.1416610  83.3916761  34.4614380  85.6026768  86.7046107
  34.1211201  84.8034581  87.1066787  33.7553387  85.9028478  86.1322940
  35.1130852  82.6876080  85.1573430  35.9356921  82.2136558  85.0352320
  35.3568916  83.4666564  85.6572116  33.7539087  85.7164339  75.4536332
  34.4747449  86.0945591  74.9500048  33.1304391  86.4353215  75.5571310
  37.8970210  86.4209487  76.3894664  38.1133824  87.3034125  76.0883492
  37.4164277  86.0295701  75.6600306  32.6369431  89.3795201  82.9665408
  32.4914012  89.6935504  83.8589690  32.1594635  89.9980101  82.4136307
  34.4965814  86.3697749  83.0146298  34.4827383  85.4738842  82.6778596
  35.2138242  86.3768412  83.6484584  36.3491945  86.8035089  85.0599425
  36.0909722  87.7252160  85.0583756  35.8176985  86.4065523  85.7499890
  41.2938133  99.9085876  77.8389511  41.4675011  99.3432298  77.0863363
  41.7867025 100.7086771  77.6569001  27.1115093  91.9200545  85.9053070
  26.5668561  92.6960353  86.0373344  27.9894443  92.2671350  85.7472191
  33.9002710  85.2512129  78.2833868  34.0218621  84.3228775  78.4824756
  33.6104752  85.2650815  77.3712184  36.7693900  82.9367039  81.4200588
  36.7915597  83.0006372  80.4652568  37.1861959  82.0971548  81.6141094
  47.1477524  92.6722299  79.4579811  47.5908670  91.9229624  79.0598934
  46.2704035  92.6632435  79.0753543  42.2813306  99.2252640  74.9386409
  42.9764210  99.8459333  75.1573724  42.6236456  98.3747992  75.2138787
  27.8981115  91.0470441  88.7983227  27.1562851  91.1953077  89.3847857
  27.5773859  91.3078707  87.9349976  44.1804729  96.6752346  76.4673740
  44.7056053  97.0139619  75.7423060  44.0927081  95.7399361  76.2836875
  35.8424778 100.5886420  88.5963617  36.1511904 100.3435566  89.4686316
  36.6400260 100.7933058  88.1082487  35.8645390 102.7424329  80.8268993
  35.4250380 102.2500708  81.5201850  36.6153507 102.1997297  80.5861068
  28.3437729  98.9335870  80.8293621  29.1695749  98.6339642  80.4492265
  27.9931781  98.1643493  81.2783410  33.3119262  98.2862338  82.8991295
  32.6899271  97.6233043  82.5993523  33.9824129  98.3123470  82.2164943
  26.5446334  96.8522197  81.7882555  25.7078242  96.4244371  81.6066556
  26.5169979  97.0454640  82.7253346  33.3843789  86.7644126  92.4923801
  33.4331945  87.6406249  92.1101570  33.9266303  86.2221519  91.9195444
  43.8698635  97.3085250  91.7724938  43.0794179  97.2909388  91.2329437
  43.6331990  97.8473543  92.5273974  43.9896510  94.1577716  89.0857666
  44.0394515  93.9927723  90.0273189  43.8810433  93.2904975  88.6955547
  32.8732769  96.8366262  76.3749755  33.0220889  97.5201726  75.7216428
  33.6799212  96.8171352  76.8899211  41.2800272  90.1408644  90.4016973
  42.1810135  90.0015109  90.1100971  41.3548247  90.3063099  91.3415151
  35.6143078  87.5175499  89.2470159  34.7446387  87.8109065  88.9752748
  35.8502558  88.1015944  89.9677423  45.4914707  96.5774657  89.3299688
  45.1999515  96.9404638  90.1663149  44.8786838  95.8641666  89.1513020
  46.6910389  94.1427537  81.8502258  47.5257281  94.5817341  82.0139819
  46.8269518  93.6666190  81.0310504  43.7401895  91.7007272  87.7979746
  44.2156017  91.8934918  86.9898597  42.8167460  91.7566458  87.5523130
  30.6285402  92.8631439  77.3810824  30.3831444  91.9593769  77.5791034
  30.7981316  92.8648590  76.4390302  38.3182112  83.7355116  86.7635580
  38.8364055  84.4716143  86.4382068  37.9637244  84.0419109  87.5982339
  29.8981049  88.5959797  74.8796986  29.2050294  88.6704152  74.2237022
  29.6532801  87.8320141  75.4018503  38.5694706  80.1555398  82.2836476
  38.8496459  79.4878587  82.9096903  39.3545313  80.3484494  81.7711140
  36.3728174  99.3314392  73.8461503  35.8002141  99.9504579  73.3931975
  36.9460968  99.8813754  74.3801425  42.4403564  88.5773032  86.0308052
  43.3920987  88.6771130  86.0520276  42.2707014  87.7851301  86.5406136
  40.4617944  85.6628615  86.2167452  39.8667876  85.9433628  85.5213941
  40.1767640  86.1522516  86.9884194  39.5925434  99.6151542  74.9770085
  40.5256107  99.5497104  75.1802961  39.5048647 100.4507809  74.5184618
  42.2213451  98.9317413  71.9374033  42.1427082  98.5977276  72.8309790
  43.0423117  99.4239180  71.9365505  44.9191642  91.7979152  85.1450351
  44.8867962  90.8595153  85.3310035  45.5292266  91.8763189  84.4116176
  36.7574973  90.6675205  71.1877555  37.7034077  90.5381413  71.2565973
  36.3789218  89.9289867  71.6646983  45.0686130  88.5890195  85.1908634
  44.5525179  87.8048652  85.0038563  45.9526079  88.2608912  85.3555154
  42.7296857  82.3331211  81.1504447  42.5321678  82.0246299  82.0347779
  43.3396563  83.0592850  81.2802377  50.7368192  92.8595159  84.2856388
  51.4671580  92.5980447  84.8464091  50.1275137  92.1223881  84.3258456
  48.8183489  91.0003021  84.8830839  48.0916652  90.8658986  84.2747331
  48.4030776  91.3079850  85.6887557  36.6413665  94.7192951  92.6478212
  37.5616675  94.8971550  92.8418259  36.6063248  93.7748996  92.4957911
  34.9417890  88.5925181  71.1232440  34.0349345  88.2958294  71.1995154
  35.2193871  88.2954999  70.2566727  25.8595830  89.9131545  81.5731487
  25.5398615  89.0596853  81.2805861  25.3129258  90.1280123  82.3289454
  29.6375738  92.6293986  85.2900993  29.8561748  93.5611093  85.3089027
  30.0501512  92.2701960  86.0755797  36.5579956  83.1362071  77.2776682
  35.7480684  82.7909156  77.6531928  37.2464373  82.8269615  77.8664293
  38.4870504  82.2140118  78.9000978  39.0401542  82.6335571  79.5591001
  38.7240590  81.2875866  78.9423934  34.5103603  88.2027191  94.6803742
  34.4100330  89.1521548  94.6115833  34.2925145  87.8745430  93.8079812
  33.7116674  85.4512116  71.2644420  34.5735838  85.7767015  71.5240237
  33.8967019  84.6643612  70.7517485  25.7284090  93.5334456  83.5424608
  25.0347562  93.1188409  83.0294563  26.4757081  93.5754993  82.9458027
  41.8649311  84.3240643  78.4079643  41.2847980  84.9825447  78.0257695
  41.5985244  83.5017988  77.9967060  40.3152877  83.7245701  80.6100963
  40.8152656  83.8362235  79.8015282  40.9588485  83.4206753  81.2501771
  34.3734873  91.6324330  93.4968804  33.8901955  92.4324690  93.7032693
  34.4595812  91.6432275  92.5436248  27.6420833  93.4652710  81.4190623
  27.6191521  93.5640397  80.4672506  27.9521469  94.3117861  81.7407789
  30.3008211  95.5228865  85.5337238  31.2551464  95.4912807  85.4667169
  30.1020734  95.0619489  86.3487464  30.8907593  94.0929981  88.1008035
  31.7100482  94.5874060  88.1242873  31.1644400  93.1761949  88.0725603
  40.6474189  86.4840733  77.4635991  39.7600044  86.7690384  77.2456186
  41.0628178  86.3234497  76.6163268  43.9988725  86.5087254  81.1790330
  44.7749115  86.9983707  81.4514947  43.2736859  86.9345308  81.6362200
  46.4361284  87.2214874  82.2364271  47.0305775  86.9810609  81.5257579
  46.5087867  86.5022004  82.8637807  28.6558439 101.0648484  82.5507436
  28.5212907 100.3048885  81.9845434  28.2390502 101.7889384  82.0836224
  39.7917402  96.2485408  71.5584011  40.4953253  96.4535410  72.1741667
  39.0680051  96.8162170  71.8233094  40.6215213  91.9995269  77.6786281
  40.5650414  92.4563821  76.8393913  41.1743555  91.2385954  77.5009124
  44.4320019  87.7885001  78.5036401  44.1756953  87.3881637  79.3344608
  43.8072887  88.5028795  78.3786540  48.7432356  90.5281074  81.0107692
  48.1831914  90.5974264  81.7839254  48.1375860  90.3522059  80.2907188
  31.8127565 101.9617801  82.7625878  31.6959949 102.9063234  82.6604569
  30.9920012 101.6591363  83.1511677  41.7004100  96.6867937  73.6082471
  42.5349704  96.2549136  73.4259946  41.5388443  96.5149951  74.5359365
  41.3549992  93.1900050  74.9738810  41.2998796  93.0244322  74.0327254
  40.7296047  93.8976083  75.1301000  26.1442507  88.4268115  88.8000232
  26.7901371  87.9167069  89.2887458  25.9359658  89.1636797  89.3743658
  38.6695899  95.4948962  94.2992373  39.5387059  95.6689615  93.9379008
  38.1902651  96.3143379  94.1768102  34.6646118  82.6908159  74.5524129
  34.6524787  83.6349999  74.7092400  35.5569539  82.5078305  74.2583590
  32.8382079 102.6146063  85.9781807  33.7409326 102.6469674  86.2948302
  32.6119450 101.6846514  85.9928142  34.5935681 101.3677050  82.6391885
  33.6431312 101.3678912  82.5256258  34.8968168 100.6209784  82.1227920
  38.4798237  79.2850936  78.8070065  37.7130633  78.7309423  78.9526748
  38.8908942  79.3572805  79.6684217  30.4839998  85.5735732  92.8975247
  31.3471460  85.2172537  93.1078571  29.9105409  85.2349627  93.5850651
  50.3288375 107.2037588  83.7037648  50.9666785 107.0844336  83.0000988
  50.2109218 108.1518432  83.7625600  47.1378081 107.1565016  83.6399172
  46.7996593 107.0406081  82.7519707  48.0067849 106.7556181  83.6200179
  42.9964897 109.0100493  79.6296063  42.4329762 108.9190430  78.8612351
  42.8817292 108.1900397  80.1098556  47.6197864 108.3099868  89.5985378
  47.6086505 107.9152666  88.7265882  47.7818504 107.5765941  90.1919149
  40.5429329 110.5051684  82.4680284  41.3350621 110.1642509  82.0526583
  40.7825979 110.6146659  83.3882437  48.5764456 112.6771461  74.9410528
  47.9252435 113.2625541  74.5544542  49.3708818 113.2077655  75.0005566
  42.5020083 109.7660598  75.3397663  43.2750959 109.2189585  75.2010538
  42.8545482 110.6304847  75.5512124  44.3405125 111.0936980  88.5464562
  44.0494991 111.9982611  88.4311228  44.9762110 111.1353508  89.2608631
  45.2661332 108.4713828  85.1365922  45.8624904 108.2469851  84.4222884
  45.3236304 107.7298574  85.7391369  44.8386361 105.9253264  72.9716113
  45.0911881 105.4034785  72.2099576  43.9010920 105.7619409  73.0742796
  49.8829643 104.9289042  80.7790856  50.6692733 104.5108465  80.4281273
  50.1468348 105.8335134  80.9472504  50.0539721 110.3661892  75.4779513
  49.4185554 110.4396519  76.1900417  49.7237127 110.9555491  74.7998592
  55.2838071 104.8664275  81.6823834  56.0163243 104.2963492  81.9161664
  54.5277426 104.4785876  82.1230340  44.5582649 107.8281370  75.1740487
  44.4418907 107.1526273  75.8421572  44.6684909 107.3413744  74.3572641
  46.9014190 107.2891517  78.8787177  46.5372398 106.7622138  79.5900098
  47.7581306 106.8989986  78.7053662  52.8063491  98.5785849  86.1418443
  52.4746816  99.4481260  85.9179658  52.2109104  98.2622133  86.8212473
  46.5419677 102.3181417  73.8748525  46.7094080 103.1861653  74.2418996
  46.3516846 102.4808698  72.9509814  49.2995010 110.7798395  85.5414356
  48.9995734 111.6823434  85.4330163  48.9546070 110.5130579  86.3935508
  42.7507492 107.2312192  81.5751060  41.8257988 107.0988406  81.7828752
  42.9991905 108.0106412  82.0721002  52.6992154 103.2980936  83.2211793
  51.7909032 103.2296344  82.9270554  52.6479750 103.7752881  84.0493618
  46.5208898 104.7739074  74.8595192  46.4008523 105.2196125  75.6980672
  45.8261487 105.1224392  74.3008730  40.1116303 106.8745466  82.4094849
  40.2408684 107.1279945  83.3234261  39.4313754 107.4673174  82.0899504
  44.2815790 117.5442716  78.5085323  44.2039820 118.4950541  78.5873804
  43.6777434 117.1988588  79.1660250  46.7733020 104.7170581  91.1646690
  45.9966354 105.2764501  91.1549555  47.4123583 105.2027364  91.6861560
  54.5653801 101.4997374  84.9989667  53.9228181 101.7929907  84.3529461
  54.0608729 101.3850294  85.8042863  52.2193964 105.2460547  75.6875526
  53.1311820 105.4787934  75.5123224  51.7103611 105.8297591  75.1250605
  45.0279392 107.5256035  90.7264657  45.7694077 108.0641079  90.4499481
  44.3216378 108.1522323  90.8836209  50.5034732 109.6685175  89.3236819
  50.9118088 109.2267586  88.5791451  49.7811993 109.0937803  89.5771012
  46.8565802 104.6057782  86.6970376  47.7026997 105.0297195  86.8405025
  46.7964440 103.9491406  87.3908939  50.8263547 110.2286366  83.0789108
  50.1972409 110.3932080  82.3765175  50.4389209 110.6427975  83.8500072
  54.7052779 111.1640804  80.4333471  54.0203817 111.5439705  79.8830505
  54.7896628 111.7736130  81.1665419  50.0065247 102.2662150  88.3551549
  49.7626179 103.0204211  87.8185825  50.2825178 102.6447498  89.1898796
  51.9603710 108.8100763  87.0328815  52.1720605 109.4532522  86.3563196
  51.9133458 107.9763079  86.5650745  49.5629939 101.4218583  83.9365387
  48.7014418 101.7199837  84.2282125  49.5892374 101.6388982  83.0046420
  46.3791508 109.9660774  80.3439193  46.8429854 110.2448477  79.5543815
  46.1148307 109.0644218  80.1612283  43.2715590 109.5132255  83.2818956
  43.8416947 109.9419524  82.6436440  43.8623701 109.2314840  83.9803142
  45.3160395 106.0883926  77.1528758  46.0184438 106.5404970  77.6202684
  44.9841023 105.4467745  77.7808651  43.7640756 104.6795683  91.5279967
  43.1339417 105.3611964  91.7615364  43.6576844 104.5678764  90.5833105
  39.0585729 104.3467479  82.4545891  38.2684782 104.6025007  81.9786002
  39.5496976 105.1615817  82.5597932  53.0749538 111.6872718  85.2051172
  53.8966982 111.2852905  84.9233854  53.0711941 111.5840952  86.1567288
  41.0100474 104.7112058  79.4129368  40.2131637 104.8230752  79.9312864
  40.7826066 105.0498710  78.5470259  46.8406142 111.2356761  87.3611883
  46.9050574 111.6977168  88.1970055  46.1317065 110.6054126  87.4894193
  37.3423431 104.5997969  84.8860882  37.5931470 105.4844979  85.1518458
  37.8782980 104.4202571  84.1135974  46.5554159 112.9024869  77.2290863
  46.4199834 113.7476404  77.6575711  47.0963972 113.1044146  76.4656797
  43.0421499  98.9816449  93.8905218  42.6488444  98.4282647  94.5652862
  43.8587639  99.2927027  94.2811736  40.0083557 110.4200307  77.8018788
  40.5208077 111.2143557  77.9524353  40.6606269 109.7226597  77.7352390
  41.8178441 113.5366063  79.8841541  41.9945070 114.4584028  79.6962525
  42.6135275 113.2224482  80.3135921  45.9589460 100.3974328  91.4825475
  46.6999173 100.9981481  91.4029937  46.1907383  99.6551965  90.9243517
  41.1030798 105.5830695  89.7603704  40.9884313 104.6815952  90.0610803
  40.2475316 105.8294392  89.4088521  48.1822636 113.5248435  91.3591205
  47.7386490 112.7384814  91.0412110  48.8439849 113.7127586  90.6935096
  42.9409757 115.0544237  85.8851884  43.4917182 114.9261300  85.1128878
  42.1021233 115.3539126  85.5346776  50.2803874 113.8051235  89.3872606
  50.2622349 114.6260116  88.8952876  51.2023794 113.6805310  89.6122748
  46.7376928 111.3195365  90.2296115  47.2705265 110.5583653  89.9995423
  46.2091009 111.0269016  90.9720269  49.9046623  96.4255431  85.7589756
  49.5610892  97.3157072  85.6828867  50.2725585  96.2357088  84.8959341
  37.9732473 108.7488961  78.5778359  38.8107695 109.1585969  78.3612066
  38.1510741 107.8088403  78.5478553  49.8696905 106.4164042  74.2662192
  49.3543529 107.1868646  74.5050579  49.5974214 105.7429178  74.8895253
  47.4544016 101.2613743  79.3247430  46.5985613 100.8720593  79.1453069
  47.8670968 101.3405703  78.4647215  48.9843163  98.7960086  83.7238990
  48.4807959  98.7590221  82.9106795  49.2773770  99.7052828  83.7835646
  45.2286049  98.8798815  82.7305171  46.0939046  98.6841624  82.3711061
  45.2963558  98.6509167  83.6574528  54.8431180 109.1696396  76.2015365
  54.0660622 108.8307556  75.7570527  55.5222661 109.1749020  75.5270330
  49.6583209 104.2891134  76.0921973  49.3533344 104.6037283  76.9432116
  50.6113651 104.3672554  76.1349306  48.1029640 110.4481357  77.7414927
  47.5751002 109.7134117  77.4288164  47.6017143 111.2256033  77.4954895
  53.0822486 108.6430378  82.8581973  52.4246161 109.3329639  82.9462102
  53.8862886 109.0326810  83.2015959  42.8348368 101.1101023  80.1021538
  43.4092120 100.8876205  79.3694731  43.4219351 101.1789718  80.8550140
  51.8927945 106.9974750  80.9085915  52.4059827 107.6304742  81.4107625
  52.5429169 106.3975946  80.5429275  43.1617955 103.1405484  74.1217424
  42.3255267 103.4780171  74.4426698  43.0222725 103.0054464  73.1844561
  45.1371036  97.9842272  78.8296608  44.4835448  97.6691290  78.2053222
  45.0951510  97.3618013  79.5556431  46.2482241 108.2661567  70.7449900
  45.3409302 108.0350821  70.9441049  46.7453273 107.4699187  70.9323881
  49.1550320 116.9759075  73.6646586  48.4812018 117.2790771  74.2731544
  49.5416142 117.7788155  73.3152043  48.3708776 104.4724206  83.1544255
  47.4531338 104.6939153  82.9965943  48.7868920 104.5470516  82.2955963
  49.1543824 105.8715622  78.2846936  49.9015643 106.3837019  77.9754058
  49.4235413 105.5499674  79.1451329  47.4270474 108.3674162  75.2673890
  46.5181693 108.0833195  75.3646360  47.4565558 108.7873241  74.4077197
  52.6589742 111.9780752  79.0365057  52.2052069 111.1371662  79.0930248
  52.0283708 112.6142150  79.3739838  51.6022661 102.9072738  80.2665725
  50.8645418 102.3950124  80.5975967  51.8549435 102.4673119  79.4549002
  51.1022681 113.8157248  79.9714876  51.3945655 114.3762306  79.2527241
  51.6121301 114.1085809  80.7268035  51.7034288  95.6848990  80.8607494
  52.0093165  94.8246353  80.5733409  52.4286893  96.2766610  80.6606488
  37.9958644 106.0879676  79.2489092  37.7983044 105.4949037  78.5240159
  37.4405308 105.7831887  79.9665031  45.9755368 105.9802783  81.3683685
  46.0303978 105.0276619  81.2926162  45.1646570 106.1362222  81.8524984
  47.1246562 109.9082906  72.6061968  46.6865992 109.1918765  72.1467606
  47.8657003 110.1359021  72.0447060  43.9147728 104.5979843  79.1274064
  43.1015594 104.8974013  79.5339256  44.4106722 104.2035531  79.8448546
  46.0656306 114.5937600  81.0608329  46.0232485 114.8198446  80.1316861
  46.9819005 114.3600974  81.2094130  49.5121940 105.0621667  87.9588958
  49.8671327 105.2893140  88.8183424  50.1594071 105.3940044  87.3366213
  55.2419677 108.1840103  78.6638287  55.1037575 108.3741699  77.7359476
  54.8855895 108.9459486  79.1206338  43.4061803 102.1698198  84.7435299
  44.0461182 102.0286957  84.0458262  42.5739333 101.8832712  84.3673901
  55.2689056 110.2516630  83.6749559  55.7025563 110.1591919  84.5232613
  55.9820637 110.2274130  83.0369575  44.1822107 111.4700629  80.8570291
  44.9762705 110.9750949  80.6552866  43.4713799 110.9418492  80.4937997
  49.0016951 113.8518724  85.2082659  49.0553973 114.4209660  85.9760375
  48.1331733 114.0220609  84.8436696  40.4904870 105.6143710  76.9330044
  39.5602458 105.5528166  77.1500006  40.5862342 105.0919663  76.1366685
  40.4090419 102.1398523  79.5208286  40.6697237 103.0543856  79.4117446
  41.2307592 101.6722966  79.6704899  41.8815345 103.5536280  86.6907110
  42.5538398 103.3453642  86.0419759  41.0545131 103.3558366  86.2512343
  56.1304606 110.2940331  86.2082444  56.3240496 111.1986141  86.4541719
  56.0305224 109.8347750  87.0421029  47.7840917 100.1798221  88.7072771
  47.1368832 100.8788171  88.6137248  48.5541932 100.6134365  89.0749019
  51.1919715 110.4447073  91.7823325  51.0405221 110.2157625  90.8653408
  51.1824394 111.4017675  91.7954670  47.9605051 108.0178986  86.7669591
  48.8897111 108.1690146  86.5938558  47.5396081 108.1063007  85.9118237
  46.7593383 112.0429651  84.5368129  46.6204468 111.6748435  85.4094067
  45.9707979 112.5577290  84.3652086  47.3541535 117.1438747  75.8793665
  47.5293290 116.6726790  76.6939288  46.6674323 117.7704513  76.1074926
  48.3098598 111.4211253  81.9256966  47.9748430 111.3812023  82.8214616
  47.8102544 110.7555969  81.4527377  42.2842842 106.8278883  87.4509548
  42.1462640 106.0959122  88.0521087  43.1947765 106.7387783  87.1693735
  51.2457790 108.7667288  72.1994026  50.6286960 108.0414116  72.1027079
  50.7774278 109.5276648  71.8561100  44.9125142 106.5398843  86.9393227
  45.6224761 105.8992035  86.8979846  44.8694451 106.7911737  87.8619408
  52.9011921 113.4766196  89.8599806  52.8424467 112.7925416  89.1930389
  53.3031440 114.2185186  89.4080432  43.6254076 103.5264060  88.7588867
  43.0891433 103.0754799  89.4110463  43.0370785 103.6609969  88.0159331
  41.9202620 120.2928110  82.6533525  42.1599218 120.9246634  83.3312544
  41.0771816 119.9416150  82.9398885  43.0356335 102.9852712  71.3215330
  42.1585802 102.8641513  70.9577577  43.5114088 102.1938790  71.0694219
  52.9029328 111.4405780  88.0913786  52.0156107 111.1031702  88.2140185
  53.4727879 110.7088811  88.3282551  34.5558476 107.7729872  81.4156837
  35.2429515 107.4591602  80.8277853  34.4006604 108.6771236  81.1424089
  39.3593198 102.6620068  85.8441861  39.2751386 102.0545738  85.1092271
  38.5375904 103.1529086  85.8451357  46.4330482 116.1007232  85.0575029
  46.3600653 116.9062204  85.5694334  45.9907875 116.2999198  84.2323051
  46.2220261 115.3379002  78.5677851  45.4387783 115.8800682  78.6616075
  46.9213007 115.8552982  78.9672092  49.5316912 101.1473632  81.2112056
  50.0285611 100.3943594  80.8913126  48.7603893 101.1837948  80.6455266
  57.3846669 106.8513997  82.8530348  57.3736545 107.7338713  82.4824281
  56.5164048 106.4985548  82.6584885  48.8929165 115.9994066  87.2133188
  49.6057138 116.6341531  87.1409089  48.4019194 116.0957932  86.3973190
  50.6146692 109.9045319  78.7850480  49.6802971 110.0246781  78.6155184
  50.7923361 109.0017786  78.5210489  46.1151880 103.2891015  80.9383741
  45.7449668 102.7362055  81.6264646  46.6110973 102.6849148  80.3858741
  54.0019244 105.7462638  79.3200514  54.4679696 106.5790630  79.2460816
  54.4526744 105.2807620  80.0245772  43.9441079 113.7488510  88.0338759
  44.6450538 114.3824993  88.1868153  43.4736194 114.0903241  87.2734398
  52.0695475 112.0906460  76.3186666  52.3455319 111.9763054  77.2280540
  51.1999973 111.6923944  76.2798839  51.9735906  98.1143225  83.3591415
  51.0598986  98.3447452  83.5273622  52.4029008  98.1981669  84.2105447
  51.7442365 106.3033117  85.8591309  51.0913815 106.5509025  85.2043762
  52.1222745 105.4897255  85.5253786  48.7049539 116.3392810  79.9619479
  48.8871933 115.5214466  80.4247232  49.5282525 116.5560503  79.5244369
  49.0391704 115.2660995  77.2234528  49.5679471 114.7553450  76.6104690
  49.3019924 114.9503526  78.0880061  47.7929938 107.0452928  92.3457346
  47.1170575 106.9447058  93.0159721  48.6157572 106.8892142  92.8093343
  39.5408797 113.2824865  84.9669861  40.1262234 112.5368553  85.0997766
  39.3433635 113.5928821  85.8506525  42.3947452 116.3176112  79.9832304
  41.7257827 116.8022240  79.4996344  42.2560322 116.5645333  80.8975682
  34.1326452 105.8530465  83.6874305  34.1710551 105.3194056  84.4811423
  33.6266745 105.3265670  83.0685282  46.5352721 118.3519856  86.5814962
  47.0871029 118.5151477  87.3464047  46.8758914 118.9424294  85.9094987
  41.5117214 100.6995005  87.1836847  41.5758540 101.5609836  86.7714245
  41.4484334 100.0869007  86.4509205  40.9869487 102.7718138  90.8309881
  41.6141525 102.3895215  91.4447405  40.1297405 102.5532340  91.1965574
  51.3863595 113.1781113  92.4363617  51.9303499 113.7911071  91.9418571
  50.8050440 113.7360692  92.9530630  37.7635029 104.5794567  76.7628236
  38.0588470 103.6705246  76.7095290  36.8623065 104.5582307  76.4409238
  49.6721108 116.3001831  83.5678644  49.5472247 115.4991571  83.0589590
  50.3300199 116.7948025  83.0792614  41.2929276 102.6550564  82.7455785
  40.5715862 103.2686531  82.6063258  42.0822532 103.1908329  82.6672431
  51.7356016 114.1010851  85.1958194  50.7886352 113.9816202  85.1236521
  52.0838790 113.2133349  85.2784456  44.0955590  99.9904990  89.0196436
  44.6189992 100.2367287  89.7822746  43.8767923 100.8225025  88.5999574
  39.4922871 102.2608665  76.8867561  39.1635577 101.3806044  76.7042667
  39.8462242 102.2056333  77.7743950  48.7402450 113.8963568  81.3962547
  48.5927412 112.9680275  81.5770117  49.5655943 113.9183658  80.9119622
  42.6064694 102.5481635  77.2543039  42.9460767 103.0767556  76.5321647
  43.0536814 102.8862041  78.0301605  52.3436572 114.7192126  82.4827419
  53.2683119 114.5134988  82.3451871  52.1751875 114.4708527  83.3916761
  45.3008135 100.9318685  86.7046107  44.9604955 100.1326498  87.1066787
  44.5947141 101.2320396  86.1322940  45.9524607  98.0167998  85.1573430
  46.7750676  97.5428476  85.0352320  46.1962670  98.7958481  85.6572116
  44.5932841 101.0456256  75.4536332  45.3141204 101.4237509  74.9500048
  43.9698145 101.7645133  75.5571310  48.7363964 101.7501405  76.3894664
  48.9527578 102.6326043  76.0883492  48.2558031 101.3587619  75.6600306
  43.4763185 104.7087118  82.9665408  43.3307766 105.0227421  83.8589690
  42.9988389 105.3272019  82.4136307  45.3359568 101.6989666  83.0146298
  45.3221137 100.8030760  82.6778596  46.0531996 101.7060330  83.6484584
  47.1885699 102.1327007  85.0599425  46.9303477 103.0544077  85.0583756
  46.6570739 101.7357441  85.7499890  52.1331888 115.2377794  77.8389511
  52.3068765 114.6724216  77.0863363  52.6260779 116.0378689  77.6569001
  37.9508848 107.2492463  85.9053070  37.4062316 108.0252271  86.0373344
  38.8288197 107.5963267  85.7472191  44.7396464 100.5804047  78.2833868
  44.8612375  99.6520693  78.4824756  44.4498507 100.5942733  77.3712184
  47.6087655  98.2658957  81.4200588  47.6309351  98.3298290  80.4652568
  48.0255714  97.4263466  81.6141094  57.9871279 108.0014217  79.4579811
  58.4302425 107.2521542  79.0598934  57.1097789 107.9924353  79.0753543
  53.1207060 114.5544558  74.9386409  53.8157965 115.1751251  75.1573724
  53.4630210 113.7039909  75.2138787  38.7374869 106.3762359  88.7983227
  37.9956605 106.5244994  89.3847857  38.4167614 106.6370625  87.9349976
  55.0198483 112.0044264  76.4673740  55.5449807 112.3431536  75.7423060
  54.9320836 111.0691279  76.2836875  46.6818532 115.9178337  88.5963617
  46.9905659 115.6727484  89.4686316  47.4794014 116.1224976  88.1082487
  46.7039144 118.0716247  80.8268993  46.2644134 117.5792626  81.5201850
  47.4547261 117.5289215  80.5861068  39.1831483 114.2627788  80.8293621
  40.0089503 113.9631560  80.4492265  38.8325535 113.4935410  81.2783410
  44.1513016 113.6154256  82.8991295  43.5293026 112.9524961  82.5993523
  44.8217883 113.6415388  82.2164943  37.3840088 112.1814114  81.7882555
  36.5471996 111.7536289  81.6066556  37.3563734 112.3746558  82.7253346
  44.2237544 102.0936044  92.4923801  44.2725699 102.9698167  92.1101570
  44.7660058 101.5513437  91.9195444  54.7092389 112.6377167  91.7724938
  53.9187933 112.6201306  91.2329437  54.4725744 113.1765461  92.5273974
  54.8290264 109.4869634  89.0857666  54.8788269 109.3219641  90.0273189
  54.7204188 108.6196893  88.6955547  43.7126523 112.1658179  76.3749755
  43.8614644 112.8493644  75.7216428  44.5192967 112.1463269  76.8899211
  52.1194027 105.4700562  90.4016973  53.0203890 105.3307027  90.1100971
  52.1942001 105.6355016  91.3415151  46.4536832 102.8467416  89.2470159
  45.5840142 103.1400982  88.9752748  46.6896313 103.4307861  89.9677423
  56.3308461 111.9066575  89.3299688  56.0393270 112.2696556  90.1663149
  55.7180593 111.1933583  89.1513020  57.5304144 109.4719455  81.8502258
  58.3651035 109.9109259  82.0139819  57.6663272 108.9958108  81.0310504
  54.5795650 107.0299190  87.7979746  55.0549771 107.2226836  86.9898597
  53.6561215 107.0858376  87.5523130  41.4679156 108.1923357  77.3810824
  41.2225198 107.2885687  77.5791034  41.6375071 108.1940507  76.4390302
  49.1575866  99.0647033  86.7635580  49.6757810  99.8008060  86.4382068
  48.8030999  99.3711027  87.5982339  40.7374804 103.9251715  74.8796986
  40.0444049 103.9996070  74.2237022  40.4926556 103.1612058  75.4018503
  49.4088460  95.4847316  82.2836476  49.6890214  94.8170505  82.9096903
  50.1939067  95.6776411  81.7711140  47.2121929 114.6606310  73.8461503
  46.6395896 115.2796497  73.3931975  47.7854722 115.2105671  74.3801425
  53.2797319 103.9064950  86.0308052  54.2314741 104.0063048  86.0520276
  53.1100769 103.1143218  86.5406136  51.3011698 100.9920533  86.2167452
  50.7061630 101.2725546  85.5213941  51.0161395 101.4814434  86.9884194
  50.4319188 114.9443460  74.9770085  51.3649862 114.8789022  75.1802961
  50.3442401 115.7799727  74.5184618  53.0607205 114.2609330  71.9374033
  52.9820837 113.9269194  72.8309790  53.8816872 114.7531098  71.9365505
  55.7585396 107.1271070  85.1450351  55.7261716 106.1887070  85.3310035
  56.3686020 107.2055106  84.4116176  47.5968727 105.9967123  71.1877555
  48.5427832 105.8673331  71.2565973  47.2182972 105.2581784  71.6646983
  55.9079885 103.9182113  85.1908634  55.3918933 103.1340570  85.0038563
  56.7919833 103.5900830  85.3555154  53.5690612  97.6623129  81.1504447
  53.3715433  97.3538217  82.0347779  54.1790317  98.3884767  81.2802377
  47.4807420 110.0484869  92.6478212  48.4010429 110.2263468  92.8418259
  47.4457003 109.1040914  92.4957911  45.7811644 103.9217099  71.1232440
  44.8743100 103.6250212  71.1995154  46.0587625 103.6246917  70.2566727
  36.6989585 105.2423462  81.5731487  36.3792369 104.3888771  81.2805861
  36.1523013 105.4572040  82.3289454  40.4769492 107.9585903  85.2900993
  40.6955502 108.8903011  85.3089027  40.8895266 107.5993878  86.0755797
  47.3973710  98.4653989  77.2776682  46.5874438  98.1201074  77.6531928
  48.0858127  98.1561532  77.8664293  49.3264258  97.5432035  78.9000978
  49.8795297  97.9627489  79.5591001  49.5634345  96.6167784  78.9423934
  45.3497358 103.5319109  94.6803742  45.2494085 104.4813466  94.6115833
  45.1318900 103.2037348  93.8079812  44.5510429 100.7804034  71.2644420
  45.4129593 101.1058932  71.5240237  44.7360773  99.9935530  70.7517485
  36.5677845 108.8626374  83.5424608  35.8741316 108.4480327  83.0294563
  37.3150836 108.9046910  82.9458027  52.7043065  99.6532561  78.4079643
  52.1241735 100.3117365  78.0257695  52.4378998  98.8309905  77.9967060
  51.1546632  99.0537618  80.6100963  51.6546410  99.1654153  79.8015282
  51.7982240  98.7498671  81.2501771  45.2128628 106.9616248  93.4968804
  44.7295709 107.7616608  93.7032693  45.2989567 106.9724193  92.5436248
  38.4814587 108.7944628  81.4190623  38.4585275 108.8932315  80.4672506
  38.7915224 109.6409778  81.7407789  41.1401965 110.8520783  85.5337238
  42.0945219 110.8204725  85.4667169  40.9414489 110.3911406  86.3487464
  41.7301347 109.4221899  88.1008035  42.5494236 109.9165977  88.1242873
  42.0038155 108.5053867  88.0725603  51.4867943 101.8132651  77.4635991
  50.5993799 102.0982302  77.2456186  51.9021933 101.6526414  76.6163268
  54.8382480 101.8379172  81.1790330  55.6142870 102.3275624  81.4514947
  54.1130614 102.2637226  81.6362200  57.2755038 102.5506791  82.2364271
  57.8699529 102.3102527  81.5257579  57.3481622 101.8313922  82.8637807
  39.4952194 116.3940402  82.5507436  39.3606662 115.6340803  81.9845434
  39.0784256 117.1181302  82.0836224  50.6311157 111.5777326  71.5584011
  51.3347007 111.7827328  72.1741667  49.9073806 112.1454088  71.8233094
  51.4608967 107.3287187  77.6786281  51.4044169 107.7855738  76.8393913
  52.0137310 106.5677872  77.5009124  55.2713773 103.1176919  78.5036401
  55.0150707 102.7173554  79.3344608  54.6466641 103.8320713  78.3786540
  42.6521320 117.2909719  82.7625878  42.5353704 118.2355152  82.6604569
  41.8313766 116.9883281  83.1511677  52.5397854 112.0159855  73.6082471
  53.3743458 111.5841053  73.4259946  52.3782197 111.8441869  74.5359365
  52.1943747 108.5191968  74.9738810  52.1392550 108.3536240  74.0327254
  51.5689802 109.2268001  75.1301000  36.9836262 103.7560033  88.8000232
  37.6295125 103.2458987  89.2887458  36.7753413 104.4928714  89.3743658
  49.5089654 110.8240880  94.2992373  50.3780813 110.9981532  93.9379008
  49.0296405 111.6435297  94.1768102  45.5039872  98.0200077  74.5524129
  45.4918542  98.9641917  74.7092400  46.3963294  97.8370223  74.2583590
  43.6775834 117.9437981  85.9781807  44.5803081 117.9761591  86.2948302
  43.4513204 117.0138432  85.9928142  45.4329436 116.6968968  82.6391885
  44.4825067 116.6970829  82.5256258  45.7361922 115.9501702  82.1227920
  49.3191991  94.6142854  78.8070065  48.5524387  94.0601341  78.9526748
  49.7302696  94.6864723  79.6684217  41.3233753 100.9027650  92.8975247
  42.1865214 100.5464454  93.1078571  40.7499163 100.5641544  93.5850651
  61.1682129 122.5329506  83.7037648  61.8060539 122.4136253  83.0000988
  61.0502972 123.4810350  83.7625600  57.9771836 122.4856934  83.6399172
  57.6390347 122.3697999  82.7519707  58.8461604 122.0848099  83.6200179
  53.8358651 124.3392410  79.6296063  53.2723517 124.2482347  78.8612351
  53.7211046 123.5192315  80.1098556  58.4591619 123.6391786  89.5985378
  58.4480259 123.2444584  88.7265882  58.6212258 122.9057858  90.1919149
  51.3823083 125.8343602  82.4680284  52.1744375 125.4934427  82.0526583
  51.6219734 125.9438577  83.3882437  59.4158210 128.0063378  74.9410528
  58.7646190 128.5917459  74.5544542  60.2102573 128.5369573  75.0005566
  53.3413837 125.0952515  75.3397663  54.1144713 124.5481502  75.2010538
  53.6939236 125.9596765  75.5512124  55.1798880 126.4228898  88.5464562
  54.8888746 127.3274528  88.4311228  55.8155864 126.4645425  89.2608631
  56.1055087 123.8005746  85.1365922  56.7018659 123.5761769  84.4222884
  56.1630058 123.0590492  85.7391369  55.6780115 121.2545181  72.9716113
  55.9305636 120.7326703  72.2099576  54.7404674 121.0911327  73.0742796
  60.7223398 120.2580960  80.7790856  61.5086487 119.8400383  80.4281273
  60.9862102 121.1627052  80.9472504  60.8933475 125.6953810  75.4779513
  60.2579308 125.7688437  76.1900417  60.5630882 126.2847409  74.7998592
  66.1231825 120.1956193  81.6823834  66.8556997 119.6255410  81.9161664
  65.3671181 119.8077793  82.1230340  55.3976404 123.1573287  75.1740487
  55.2812662 122.4818191  75.8421572  55.5078664 122.6705661  74.3572641
  57.7407945 122.6183435  78.8787177  57.3766152 122.0914055  79.5900098
  58.5975061 122.2281904  78.7053662  57.3813432 117.6473334  73.8748525
  57.5487834 118.5153571  74.2418996  57.1910601 117.8100616  72.9509814
  60.1388765 126.1090313  85.5414356  59.8389488 127.0115352  85.4330163
  59.7939824 125.8422496  86.3935508  53.5901246 122.5604110  81.5751060
  52.6651743 122.4280324  81.7828752  53.8385660 123.3398329  82.0721002
  63.5385909 118.6272853  83.2211793  62.6302786 118.5588262  82.9270554
  63.4873505 119.1044798  84.0493618  57.3602653 120.1030992  74.8595192
  57.2402278 120.5488042  75.6980672  56.6655241 120.4516309  74.3008730
  50.9510057 122.2037384  82.4094849  51.0802439 122.4571862  83.3234261
  50.2707509 122.7965092  82.0899504  55.1209545 132.8734633  78.5085323
  55.0433574 133.8242459  78.5873804  54.5171188 132.5280506  79.1660250
  57.6126775 120.0462499  91.1646690  56.8360109 120.6056419  91.1549555
  58.2517338 120.5319282  91.6861560  65.4047555 116.8289292  84.9989667
  64.7621935 117.1221825  84.3529461  64.9002484 116.7142212  85.8042863
  63.0587719 120.5752465  75.6875526  63.9705575 120.8079852  75.5123224
  62.5497366 121.1589509  75.1250605  55.8673147 122.8547952  90.7264657
  56.6087831 123.3932996  90.4499481  55.1610132 123.4814241  90.8836209
  61.3428486 124.9977093  89.3236819  61.7511842 124.5559503  88.5791451
  60.6205748 124.4229720  89.5771012  57.6959557 119.9349699  86.6970376
  58.5420752 120.3589113  86.8405025  57.6358194 119.2783324  87.3908939
  61.6657301 125.5578283  83.0789108  61.0366164 125.7223997  82.3765175
  61.2782963 125.9719893  83.8500072  65.5446533 126.4932721  80.4333471
  64.8597571 126.8731623  79.8830505  65.6290382 127.1028048  81.1665419
  60.8459002 117.5954068  88.3551549  60.6019934 118.3496128  87.8185825
  61.1218932 117.9739415  89.1898796  62.7997465 124.1392680  87.0328815
  63.0114360 124.7824440  86.3563196  62.7527213 123.3054997  86.5650745
  60.4023694 116.7510501  83.9365387  59.5408173 117.0491754  84.2282125
  60.4286128 116.9680900  83.0046420  57.2185263 125.2952691  80.3439193
  57.6823609 125.5740394  79.5543815  56.9542061 124.3936136  80.1612283
  54.1109344 124.8424173  83.2818956  54.6810701 125.2711441  82.6436440
  54.7017456 124.5606758  83.9803142  56.1554149 121.4175844  77.1528758
  56.8578192 121.8696887  77.6202684  55.8234778 120.7759663  77.7808651
  54.6034511 120.0087600  91.5279967  53.9733171 120.6903881  91.7615364
  54.4970598 119.8970682  90.5833105  49.8979483 119.6759396  82.4545891
  49.1078537 119.9316925  81.9786002  50.3890730 120.4907734  82.5597932
  63.9143293 127.0164636  85.2051172  64.7360736 126.6144823  84.9233854
  63.9105695 126.9132870  86.1567288  51.8494228 120.0403976  79.4129368
  51.0525392 120.1522670  79.9312864  51.6219821 120.3790628  78.5470259
  57.6799896 126.5648679  87.3611883  57.7444329 127.0269086  88.1970055
  56.9710820 125.9346044  87.4894193  48.1817186 119.9289887  84.8860882
  48.4325224 120.8136897  85.1518458  48.7176734 119.7494488  84.1135974
  72.0049286 123.3603384  81.5536144  71.2512994 122.7910782  81.3980148
  72.1396827 123.3266049  82.5006778  57.3947914 128.2316786  77.2290863
  57.2593588 129.0768322  77.6575711  57.9357726 128.4336064  76.4656797
  53.8815253 114.3108366  93.8905218  53.4882199 113.7574565  94.5652862
  54.6981394 114.6218945  94.2811736  50.8477311 125.7492224  77.8018788
  51.3601832 126.5435475  77.9524353  51.5000024 125.0518515  77.7352390
  52.6572196 128.8657981  79.8841541  52.8338824 129.7875945  79.6962525
  53.4529029 128.5516400  80.3135921  56.7983214 115.7266245  91.4825475
  57.5392928 116.3273398  91.4029937  57.0301137 114.9843883  90.9243517
  51.9424552 120.9122613  89.7603704  51.8278067 120.0107870  90.0610803
  51.0869070 121.1586309  89.4088521  59.0216390 128.8540353  91.3591205
  58.5780244 128.0676731  91.0412110  59.6833604 129.0419503  90.6935096
  53.7803511 130.3836155  85.8851884  54.3310936 130.2553218  85.1128878
  52.9414987 130.6831044  85.5346776  61.1197628 129.1343153  89.3872606
  61.1016103 129.9552034  88.8952876  62.0417548 129.0097228  89.6122748
  57.5770682 126.6487282  90.2296115  58.1099019 125.8875571  89.9995423
  57.0484763 126.3560934  90.9720269  48.8126228 124.0780879  78.5778359
  49.6501450 124.4877887  78.3612066  48.9904496 123.1380321  78.5478553
  60.7090660 121.7455959  74.2662192  60.1937283 122.5160564  74.5050579
  60.4367968 121.0721096  74.8895253  58.2937771 116.5905660  79.3247430
  57.4379367 116.2012511  79.1453069  58.7064723 116.6697621  78.4647215
  59.8236918 114.1252003  83.7238990  59.3201713 114.0882139  82.9106795
  60.1167524 115.0344746  83.7835646  56.0679803 114.2090733  82.7305171
  56.9332800 114.0133542  82.3711061  56.1357312 113.9801085  83.6574528
  65.6824934 124.4988314  76.2015365  64.9054377 124.1599474  75.7570527
  66.3616415 124.5040937  75.5270330  60.4976963 119.6183052  76.0921973
  60.1927099 119.9329201  76.9432116  61.4507405 119.6964471  76.1349306
  58.9423395 125.7773275  77.7414927  58.4144757 125.0426034  77.4288164
  58.4410898 126.5547951  77.4954895  63.9216241 123.9722295  82.8581973
  63.2639915 124.6621557  82.9462102  64.7256640 124.3618727  83.2015959
  53.6742123 116.4392941  80.1021538  54.2485874 116.2168123  79.3694731
  54.2613105 116.5081636  80.8550140  62.7321700 122.3266668  80.9085915
  63.2453582 122.9596660  81.4107625  63.3822924 121.7267864  80.5429275
  54.0011710 118.4697402  74.1217424  53.1649022 118.8072089  74.4426698
  53.8616479 118.3346382  73.1844561  55.9764790 113.3134190  78.8296608
  55.3229203 112.9983207  78.2053222  55.9345264 112.6909930  79.5556431
  57.0875995 123.5953485  70.7449900  56.1803057 123.3642739  70.9441049
  57.5847027 122.7991104  70.9323881  59.9944074 132.3050992  73.6646586
  59.3205773 132.6082689  74.2731544  60.3809896 133.1080073  73.3152043
  59.2102531 119.8016124  83.1544255  58.2925092 120.0231071  82.9965943
  59.6262674 119.8762434  82.2955963  59.9937578 121.2007539  78.2846936
  60.7409397 121.7128936  77.9754058  60.2629168 120.8791592  79.1451329
  58.2664229 123.6966080  75.2673890  57.3575448 123.4125113  75.3646360
  58.2959312 124.1165159  74.4077197  63.4983496 127.3072669  79.0365057
  63.0445823 126.4663579  79.0930248  62.8677463 127.9434068  79.3739838
  62.4416416 118.2364655  80.2665725  61.7039172 117.7242042  80.5975967
  62.6943189 117.7965037  79.4549002  61.9416435 129.1449166  79.9714876
  62.2339410 129.7054223  79.2527241  62.4515056 129.4377727  80.7268035
  48.8352399 121.4171594  79.2489092  48.6376799 120.8240955  78.5240159
  48.2799063 121.1123804  79.9665031  56.8149123 121.3094701  81.3683685
  56.8697732 120.3568537  81.2926162  56.0040325 121.4654140  81.8524984
  57.9640316 125.2374824  72.6061968  57.5259746 124.5210683  72.1467606
  58.7050757 125.4650938  72.0447060  54.7541483 119.9271760  79.1274064
  53.9409348 120.2265931  79.5339256  55.2500477 119.5327449  79.8448546
  56.9050060 129.9229517  81.0608329  56.8626239 130.1490364  80.1316861
  57.8212759 129.6892892  81.2094130  60.3515694 120.3913585  87.9588958
  60.7065082 120.6185058  88.8183424  60.9987825 120.7231962  87.3366213
  66.0813431 123.5132021  78.6638287  65.9431330 123.7033617  77.7359476
  65.7249650 124.2751403  79.1206338  54.2455557 117.4990116  84.7435299
  54.8854937 117.3578875  84.0458262  53.4133088 117.2124629  84.3673901
  66.1082811 125.5808548  83.6749559  66.5419317 125.4883837  84.5232613
  66.8214391 125.5566048  83.0369575  55.0215861 126.7992546  80.8570291
  55.8156460 126.3042866  80.6552866  54.3107554 126.2710409  80.4937997
  59.8410706 129.1810642  85.2082659  59.8947728 129.7501578  85.9760375
  58.9725487 129.3512527  84.8436696  51.3298625 120.9435628  76.9330044
  50.3996213 120.8820083  77.1500006  51.4256097 120.4211581  76.1366685
  51.2484174 117.4690441  79.5208286  51.5090991 118.3835774  79.4117446
  52.0701346 117.0014883  79.6704899  52.7209099 118.8828198  86.6907110
  53.3932152 118.6745560  86.0419759  51.8938886 118.6850284  86.2512343
  66.9698360 125.6232248  86.2082444  67.1634250 126.5278059  86.4541719
  66.8698978 125.1639667  87.0421029  58.6234671 115.5090139  88.7072771
  57.9762586 116.2080089  88.6137248  59.3935686 115.9426283  89.0749019
  62.0313469 125.7738991  91.7823325  61.8798975 125.5449543  90.8653408
  62.0218148 126.7309592  91.7954670  58.7998805 123.3470904  86.7669591
  59.7290865 123.4982063  86.5938558  58.3789835 123.4354925  85.9118237
  57.5987137 127.3721568  84.5368129  57.4598223 127.0040353  85.4094067
  56.8101733 127.8869208  84.3652086  58.1935289 132.4730665  75.8793665
  58.3687045 132.0018708  76.6939288  57.5068077 133.0996431  76.1074926
  59.1492352 126.7503171  81.9256966  58.8142185 126.7103941  82.8214616
  58.6496298 126.0847887  81.4527377  53.1236596 122.1570801  87.4509548
  52.9856394 121.4251040  88.0521087  54.0341520 122.0679701  87.1693735
  62.0851544 124.0959205  72.1994026  61.4680715 123.3706033  72.1027079
  61.6168032 124.8568566  71.8561100  55.7518897 121.8690760  86.9393227
  56.4618516 121.2283952  86.8979846  55.7088205 122.1203655  87.8619408
  63.7405676 128.8058114  89.8599806  63.6818222 128.1217334  89.1930389
  64.1425194 129.5477104  89.4080432  54.4647831 118.8555978  88.7588867
  53.9285188 118.4046717  89.4110463  53.8764539 118.9901887  88.0159331
  53.8750090 118.3144630  71.3215330  52.9979556 118.1933430  70.9577577
  54.3507843 117.5230708  71.0694219  63.7423083 126.7697698  88.0913786
  62.8549862 126.4323619  88.2140185  64.3121634 126.0380729  88.3282551
  45.3952230 123.1021789  81.4156837  46.0823270 122.7883519  80.8277853
  45.2400359 124.0063154  81.1424089  50.1986952 117.9911986  85.8441861
  50.1145141 117.3837655  85.1092271  49.3769659 118.4821004  85.8451357
  57.2724236 131.4299150  85.0575029  57.1994408 132.2354121  85.5694334
  56.8301629 131.6291116  84.2323051  57.0614016 130.6670920  78.5677851
  56.2781538 131.2092600  78.6616075  57.7606761 131.1844900  78.9672092
  60.3710666 116.4765549  81.2112056  60.8679366 115.7235512  80.8913126
  59.5997648 116.5129866  80.6455266  68.2240423 122.1805915  82.8530348
  68.2130300 123.0630630  82.4824281  67.3557803 121.8277466  82.6584885
  59.7322920 131.3285984  87.2133188  60.4450892 131.9633449  87.1409089
  59.2412948 131.4249850  86.3973190  61.4540447 125.2337237  78.7850480
  60.5196725 125.3538699  78.6155184  61.6317115 124.3309703  78.5210489
  56.9545635 118.6182932  80.9383741  56.5843422 118.0653973  81.6264646
  57.4504727 118.0141066  80.3858741  64.8412998 121.0754556  79.3200514
  65.3073450 121.9082547  79.2460816  65.2920499 120.6099537  80.0245772
  54.7834833 129.0780427  88.0338759  55.4844293 129.7116910  88.1868153
  54.3129948 129.4195159  87.2734398  62.9089229 127.4198377  76.3186666
  63.1849073 127.3054972  77.2280540  62.0393728 127.0215862  76.2798839
  62.5836119 121.6325035  85.8591309  61.9307570 121.8800942  85.2043762
  62.9616499 120.8189173  85.5253786  59.5443293 131.6684728  79.9619479
  59.7265688 130.8506384  80.4247232  60.3676279 131.8852420  79.5244369
  59.8785459 130.5952913  77.2234528  60.4073225 130.0845368  76.6104690
  60.1413678 130.2795443  78.0880061  58.6323692 122.3744846  92.3457346
  57.9564329 122.2738975  93.0159721  59.4551326 122.2184060  92.8093343
  50.3802551 128.6116782  84.9669861  50.9655988 127.8660470  85.0997766
  50.1827390 128.9220739  85.8506525  53.2341207 131.6468030  79.9832304
  52.5651582 132.1314157  79.4996344  53.0954076 131.8937250  80.8975682
  44.9720206 121.1822383  83.6874305  45.0104306 120.6485973  84.4811423
  44.4660499 120.6557588  83.0685282  57.3746475 133.6811773  86.5814962
  57.9264783 133.8443395  87.3464047  57.7152669 134.2716211  85.9094987
  52.3510968 116.0286923  87.1836847  52.4152295 116.8901754  86.7714245
  52.2878089 115.4160925  86.4509205  51.8263241 118.1010056  90.8309881
  52.4535280 117.7187133  91.4447405  50.9691160 117.8824258  91.1965574
  62.2257350 128.5073031  92.4363617  62.7697254 129.1202989  91.9418571
  61.6444194 129.0652609  92.9530630  48.6028784 119.9086485  76.7628236
  48.8982225 118.9997163  76.7095290  47.7016820 119.8874224  76.4409238
  60.5114863 131.6293749  83.5678644  60.3866002 130.8283489  83.0589590
  61.1693954 132.1239942  83.0792614  52.1323031 117.9842481  82.7455785
  51.4109617 118.5978449  82.6063258  52.9216287 118.5200246  82.6672431
  62.5749771 129.4302769  85.1958194  61.6280106 129.3108120  85.1236521
  62.9232544 128.5425267  85.2784456  54.9349344 115.3196908  89.0196436
  55.4583746 115.5659204  89.7822746  54.7161678 116.1516943  88.5999574
  50.3316625 117.5900582  76.8867561  50.0029331 116.7097961  76.7042667
  50.6855996 117.5348251  77.7743950  59.5796204 129.2255485  81.3962547
  59.4321167 128.2972193  81.5770117  60.4049698 129.2475576  80.9119622
  53.4458448 117.8773552  77.2543039  53.7854521 118.4059474  76.5321647
  53.8930569 118.2153958  78.0301605  63.1830326 130.0484044  82.4827419
  64.1076874 129.8426905  82.3451871  63.0145629 129.8000445  83.3916761
  56.1401889 116.2610603  86.7046107  55.7998710 115.4618416  87.1066787
  55.4340896 116.5612314  86.1322940  56.7918361 113.3459915  85.1573430
  57.6144430 112.8720394  85.0352320  57.0356425 114.1250399  85.6572116
  55.4326596 116.3748174  75.4536332  56.1534958 116.7529427  74.9500048
  54.8091900 117.0937051  75.5571310  59.5757719 117.0793323  76.3894664
  59.7921333 117.9617961  76.0883492  59.0951786 116.6879536  75.6600306
  54.3156940 120.0379036  82.9665408  54.1701521 120.3519339  83.8589690
  53.8382144 120.6563936  82.4136307  56.1753323 117.0281584  83.0146298
  56.1614892 116.1322677  82.6778596  56.8925751 117.0352248  83.6484584
  58.0279453 117.4618924  85.0599425  57.7697231 118.3835995  85.0583756
  57.4964494 117.0649359  85.7499890  62.9725642 130.5669711  77.8389511
  63.1462520 130.0016134  77.0863363  63.4654533 131.3670606  77.6569001
  48.7902602 122.5784380  85.9053070  48.2456070 123.3544188  86.0373344
  49.6681952 122.9255185  85.7472191  55.5790219 115.9095964  78.2833868
  55.7006130 114.9812611  78.4824756  55.2892261 115.9234650  77.3712184
  68.8265033 123.3306134  79.4579811  69.2696179 122.5813460  79.0598934
  67.9491544 123.3216271  79.0753543  63.9600815 129.8836476  74.9386409
  64.6551719 130.5043168  75.1573724  64.3023965 129.0331827  75.2138787
  49.5768624 121.7054277  88.7983227  48.8350360 121.8536912  89.3847857
  49.2561368 121.9662542  87.9349976  65.8592238 127.3336181  76.4673740
  66.3843562 127.6723454  75.7423060  65.7714590 126.3983197  76.2836875
  57.5212287 131.2470255  88.5963617  57.8299413 131.0019402  89.4686316
  58.3187769 131.4516893  88.1082487  57.5432899 133.4008165  80.8268993
  57.1037889 132.9084543  81.5201850  58.2941016 132.8581132  80.5861068
  50.0225238 129.5919705  80.8293621  50.8483258 129.2923477  80.4492265
  49.6719290 128.8227328  81.2783410  54.9906771 128.9446174  82.8991295
  54.3686780 128.2816879  82.5993523  55.6611638 128.9707306  82.2164943
  48.2233843 127.5106032  81.7882555  47.3865751 127.0828206  81.6066556
  48.1957488 127.7038475  82.7253346  55.0631298 117.4227962  92.4923801
  55.1119454 118.2990084  92.1101570  55.6053812 116.8805355  91.9195444
  65.5486144 127.9669085  91.7724938  64.7581688 127.9493224  91.2329437
  65.3119499 128.5057379  92.5273974  65.6684019 124.8161551  89.0857666
  65.7182024 124.6511559  90.0273189  65.5597942 123.9488810  88.6955547
  54.5520278 127.4950097  76.3749755  54.7008398 128.1785561  75.7216428
  55.3586721 127.4755187  76.8899211  62.9587781 120.7992479  90.4016973
  63.8597644 120.6598944  90.1100971  63.0335756 120.9646934  91.3415151
  57.2930587 118.1759334  89.2470159  56.4233896 118.4692900  88.9752748
  57.5290067 118.7599779  89.9677423  67.1702216 127.2358493  89.3299688
  66.8787024 127.5988473  90.1663149  66.5574347 126.5225501  89.1513020
  68.3697898 124.8011373  81.8502258  69.2044790 125.2401177  82.0139819
  68.5057027 124.3250026  81.0310504  65.4189404 122.3591107  87.7979746
  65.8943526 122.5518754  86.9898597  64.4954969 122.4150293  87.5523130
  52.3072911 123.5215275  77.3810824  52.0618953 122.6177605  77.5791034
  52.4768825 123.5232425  76.4390302  59.9969621 114.3938951  86.7635580
  60.5151564 115.1299978  86.4382068  59.6424753 114.7002944  87.5982339
  51.5768558 119.2543632  74.8796986  50.8837803 119.3287987  74.2237022
  51.3320310 118.4903976  75.4018503  58.0515683 129.9898227  73.8461503
  57.4789650 130.6088415  73.3931975  58.6248477 130.5397589  74.3801425
  64.1191073 119.2356868  86.0308052  65.0708496 119.3354965  86.0520276
  63.9494523 118.4435136  86.5406136  62.1405453 116.3212451  86.2167452
  61.5455385 116.6017463  85.5213941  61.8555149 116.8106352  86.9884194
  61.2712943 130.2735378  74.9770085  62.2043616 130.2080939  75.1802961
  61.1836156 131.1091644  74.5184618  63.9000960 129.5901248  71.9374033
  63.8214591 129.2561112  72.8309790  64.7210626 130.0823016  71.9365505
  66.5979151 122.4562987  85.1450351  66.5655471 121.5178988  85.3310035
  67.2079774 122.5347024  84.4116176  58.4362482 121.3259040  71.1877555
  59.3821586 121.1965248  71.2565973  58.0576727 120.5873702  71.6646983
  66.7473639 119.2474031  85.1908634  66.2312688 118.4632487  85.0038563
  67.6313588 118.9192747  85.3555154  72.4155701 123.5178994  84.2856388
  73.1459089 123.2564282  84.8464091  71.8062646 122.7807716  84.3258456
  70.4970998 121.6586857  84.8830839  69.7704161 121.5242822  84.2747331
  70.0818285 121.9663685  85.6887557  58.3201174 125.3776786  92.6478212
  59.2404184 125.5555385  92.8418259  58.2850757 124.4332832  92.4957911
  56.6205399 119.2509017  71.1232440  55.7136854 118.9542129  71.1995154
  56.8981380 118.9538835  70.2566727  47.5383339 120.5715380  81.5731487
  47.2186124 119.7180688  81.2805861  46.9916767 120.7863958  82.3289454
  51.3163247 123.2877821  85.2900993  51.5349257 124.2194929  85.3089027
  51.7289021 122.9285795  86.0755797  58.2367465 113.7945906  77.2776682
  57.4268193 113.4492991  77.6531928  58.9251882 113.4853450  77.8664293
  56.1891112 118.8611027  94.6803742  56.0887839 119.8105384  94.6115833
  55.9712654 118.5329266  93.8079812  55.3904183 116.1095952  71.2644420
  56.2523347 116.4350850  71.5240237  55.5754528 115.3227448  70.7517485
  47.4071599 124.1918291  83.5424608  46.7135071 123.7772244  83.0294563
  48.1544590 124.2338828  82.9458027  63.5436820 114.9824478  78.4079643
  62.9635489 115.6409282  78.0257695  63.2772753 114.1601823  77.9967060
  56.0522382 122.2908166  93.4968804  55.5689464 123.0908526  93.7032693
  56.1383321 122.3016110  92.5436248  49.3208342 124.1236545  81.4190623
  49.2979030 124.2224233  80.4672506  49.6308978 124.9701696  81.7407789
  51.9795720 126.1812700  85.5337238  52.9338973 126.1496643  85.4667169
  51.7808243 125.7203324  86.3487464  52.5695102 124.7513816  88.1008035
  53.3887991 125.2457895  88.1242873  52.8431909 123.8345784  88.0725603
  62.3261698 117.1424569  77.4635991  61.4387553 117.4274219  77.2456186
  62.7415687 116.9818332  76.6163268  65.6776234 117.1671090  81.1790330
  66.4536624 117.6567542  81.4514947  64.9524368 117.5929144  81.6362200
  50.3345948 131.7232320  82.5507436  50.2000416 130.9632721  81.9845434
  49.9178011 132.4473220  82.0836224  61.4704911 126.9069243  71.5584011
  62.1740762 127.1119246  72.1741667  60.7467560 127.4746005  71.8233094
  62.3002722 122.6579105  77.6786281  62.2437923 123.1147656  76.8393913
  62.8531064 121.8969789  77.5009124  66.1107528 118.4468836  78.5036401
  65.8544462 118.0465472  79.3344608  65.4860396 119.1612630  78.3786540
  70.4219865 121.1864910  81.0107692  69.8619423 121.2558099  81.7839254
  69.8163369 121.0105894  80.2907188  53.4915074 132.6201637  82.7625878
  53.3747458 133.5647069  82.6604569  52.6707521 132.3175198  83.1511677
  63.3791609 127.3451773  73.6082471  64.2137213 126.9132971  73.4259946
  63.2175952 127.1733786  74.5359365  63.0337501 123.8483886  74.9738810
  62.9786305 123.6828157  74.0327254  62.4083556 124.5559919  75.1301000
  47.8230016 119.0851950  88.8000232  48.4688880 118.5750904  89.2887458
  47.6147167 119.8220632  89.3743658  60.3483408 126.1532798  94.2992373
  61.2174568 126.3273450  93.9379008  59.8690160 126.9727215  94.1768102
  56.3433626 113.3491995  74.5524129  56.3312296 114.2933835  74.7092400
  57.2357048 113.1662140  74.2583590  54.5169588 133.2729899  85.9781807
  55.4196835 133.3053509  86.2948302  54.2906958 132.3430350  85.9928142
  56.2723190 132.0260885  82.6391885  55.3218821 132.0262747  82.5256258
  56.5755677 131.2793620  82.1227920  52.1627507 116.2319567  92.8975247
  53.0258969 115.8756372  93.1078571  51.5892918 115.8933462  93.5850651
  72.0075884 137.8621424  83.7037648  72.6454294 137.7428171  83.0000988
  71.8896727 138.8102268  83.7625600  68.8165590 137.8148852  83.6399172
  68.4784102 137.6989916  82.7519707  69.6855358 137.4140017  83.6200179
  64.6752406 139.6684328  79.6296063  64.1117271 139.5774265  78.8612351
  64.5604801 138.8484233  80.1098556  69.2985373 138.9683703  89.5985378
  69.2874014 138.5736502  88.7265882  69.4606013 138.2349776  90.1919149
  66.9448841 139.1297664  85.1365922  67.5412413 138.9053686  84.4222884
  67.0023813 138.3882409  85.7391369  66.5173870 136.5837099  72.9716113
  66.7699390 136.0618620  72.2099576  65.5798429 136.4203245  73.0742796
  71.5617152 135.5872877  80.7790856  72.3480242 135.1692301  80.4281273
  71.8255857 136.4918970  80.9472504  71.7327230 141.0245728  75.4779513
  71.0973063 141.0980354  76.1900417  71.4024636 141.6139327  74.7998592
  76.9625580 135.5248111  81.6823834  77.6950751 134.9547327  81.9161664
  76.2064935 135.1369711  82.1230340  66.2370158 138.4865205  75.1740487
  66.1206416 137.8110108  75.8421572  66.3472418 137.9997579  74.3572641
  68.5801699 137.9475352  78.8787177  68.2159906 137.4205973  79.5900098
  69.4368815 137.5573821  78.7053662  74.4851000 129.2369685  86.1418443
  74.1534325 130.1065096  85.9179658  73.8896613 128.9205969  86.8212473
  68.2207186 132.9765252  73.8748525  68.3881589 133.8445488  74.2418996
  68.0304355 133.1392534  72.9509814  70.9782519 141.4382231  85.5414356
  70.6783243 142.3407270  85.4330163  70.6333579 141.1714414  86.3935508
  64.4295001 137.8896028  81.5751060  63.5045497 137.7572242  81.7828752
  64.6779414 138.6690247  82.0721002  74.3779663 133.9564771  83.2211793
  73.4696541 133.8880179  82.9270554  74.3267259 134.4336716  84.0493618
  68.1996407 135.4322909  74.8595192  68.0796032 135.8779960  75.6980672
  67.5048996 135.7808227  74.3008730  61.7903812 137.5329301  82.4094849
  61.9196193 137.7863780  83.3234261  61.1101263 138.1257009  82.0899504
  68.4520529 135.3754417  91.1646690  67.6753863 135.9348337  91.1549555
  69.0911092 135.8611200  91.6861560  76.2441310 132.1581209  84.9989667
  75.6015690 132.4513743  84.3529461  75.7396238 132.0434130  85.8042863
  73.8981473 135.9044383  75.6875526  74.8099329 136.1371769  75.5123224
  73.3891120 136.4881427  75.1250605  66.7066901 138.1839870  90.7264657
  67.4481586 138.7224914  90.4499481  66.0003887 138.8106159  90.8836209
  72.1822241 140.3269010  89.3236819  72.5905597 139.8851421  88.5791451
  71.4599502 139.7521638  89.5771012  68.5353311 135.2641617  86.6970376
  69.3814506 135.6881031  86.8405025  68.4751949 134.6075241  87.3908939
  72.5051056 140.8870201  83.0789108  71.8759918 141.0515915  82.3765175
  72.1176718 141.3011811  83.8500072  76.3840287 141.8224639  80.4333471
  75.6991326 142.2023540  79.8830505  76.4684137 142.4319966  81.1665419
  71.6852756 132.9245986  88.3551549  71.4413688 133.6788046  87.8185825
  71.9612687 133.3031333  89.1898796  73.6391219 139.4684598  87.0328815
  73.8508114 140.1116358  86.3563196  73.5920967 138.6346914  86.5650745
  71.2417448 132.0802419  83.9365387  70.3801927 132.3783672  84.2282125
  71.2679883 132.2972817  83.0046420  68.0579017 140.6244609  80.3439193
  68.5217363 140.9032312  79.5543815  67.7935816 139.7228054  80.1612283
  66.9947904 136.7467761  77.1528758  67.6971947 137.1988805  77.6202684
  66.6628532 136.1051580  77.7808651  65.4428265 135.3379518  91.5279967
  64.8126926 136.0195799  91.7615364  65.3364353 135.2262600  90.5833105
  60.7373237 135.0051314  82.4545891  59.9472291 135.2608843  81.9786002
  61.2284485 135.8199652  82.5597932  74.7537047 142.3456553  85.2051172
  75.5754491 141.9436741  84.9233854  74.7499450 142.2424787  86.1567288
  62.6887983 135.3695893  79.4129368  61.8919146 135.4814588  79.9312864
  62.4613575 135.7082546  78.5470259  59.0210940 135.2581805  84.8860882
  59.2718979 136.1428814  85.1518458  59.5570489 135.0786406  84.1135974
  82.8443040 138.6895302  81.5536144  82.0906748 138.1202700  81.3980148
  82.9790581 138.6557966  82.5006778  64.7209008 129.6400284  93.8905218
  64.3275953 129.0866482  94.5652862  65.5375148 129.9510862  94.2811736
  67.6376969 131.0558163  91.4825475  68.3786682 131.6565316  91.4029937
  67.8694892 130.3135801  90.9243517  62.7818307 136.2414530  89.7603704
  62.6671822 135.3399788  90.0610803  61.9262825 136.4878227  89.4088521
  71.5834132 127.0839266  85.7589756  71.2398401 127.9740908  85.6828867
  71.9513094 126.8940924  84.8959341  71.5484414 137.0747877  74.2662192
  71.0331038 137.8452482  74.5050579  71.2761723 136.4013013  74.8895253
  69.1331525 131.9197578  79.3247430  68.2773122 131.5304428  79.1453069
  69.5458477 131.9989539  78.4647215  70.6630672 129.4543921  83.7238990
  70.1595468 129.4174056  82.9106795  70.9561279 130.3636664  83.7835646
  66.9073558 129.5382651  82.7305171  67.7726555 129.3425460  82.3711061
  66.9751067 129.3093003  83.6574528  76.5218689 139.8280232  76.2015365
  75.7448131 139.4891391  75.7570527  77.2010170 139.8332855  75.5270330
  71.3370718 134.9474969  76.0921973  71.0320853 135.2621118  76.9432116
  72.2901160 135.0256389  76.1349306  74.7609995 139.3014213  82.8581973
  74.1033670 139.9913474  82.9462102  75.5650395 139.6910645  83.2015959
  64.5135877 131.7684859  80.1021538  65.0879629 131.5460040  79.3694731
  65.1006860 131.8373553  80.8550140  73.5715454 137.6558586  80.9085915
  74.0847336 138.2888578  81.4107625  74.2216678 137.0559781  80.5429275
  64.8405464 133.7989320  74.1217424  64.0042776 134.1364006  74.4426698
  64.7010234 133.6638300  73.1844561  66.8158545 128.6426108  78.8296608
  66.1622957 128.3275125  78.2053222  66.7739019 128.0201848  79.5556431
  67.9269750 138.9245403  70.7449900  67.0196811 138.6934656  70.9441049
  68.4240782 138.1283022  70.9323881  70.0496285 135.1308041  83.1544255
  69.1318847 135.3522988  82.9965943  70.4656429 135.2054352  82.2955963
  70.8331333 136.5299457  78.2846936  71.5803152 137.0420854  77.9754058
  71.1022922 136.2083510  79.1451329  69.1057983 139.0257998  75.2673890
  68.1969202 138.7417030  75.3646360  69.1353067 139.4457076  74.4077197
  74.3377250 142.6364587  79.0365057  73.8839578 141.7955497  79.0930248
  73.7071217 143.2725985  79.3739838  73.2810170 133.5656573  80.2665725
  72.5432927 133.0533959  80.5975967  73.5336944 133.1256955  79.4549002
  73.3821797 126.3432825  80.8607494  73.6880674 125.4830189  80.5733409
  74.1074402 126.9350445  80.6606488  59.6746153 136.7463512  79.2489092
  59.4770553 136.1532872  78.5240159  59.1192817 136.4415722  79.9665031
  67.6542877 136.6386618  81.3683685  67.7091487 135.6860455  81.2926162
  66.8434079 136.7946057  81.8524984  68.8034071 140.5666741  72.6061968
  68.3653501 139.8502600  72.1467606  69.5444512 140.7942856  72.0447060
  65.5935237 135.2563678  79.1274064  64.7803103 135.5557849  79.5339256
  66.0894231 134.8619367  79.8448546  71.1909449 135.7205502  87.9588958
  71.5458836 135.9476976  88.8183424  71.8381580 136.0523879  87.3366213
  76.9207186 138.8423938  78.6638287  76.7825084 139.0325534  77.7359476
  76.5643404 139.6043321  79.1206338  65.0849312 132.8282033  84.7435299
  65.7248691 132.6870793  84.0458262  64.2526842 132.5416547  84.3673901
  76.9476565 140.9100465  83.6749559  77.3813072 140.8175754  84.5232613
  77.6608146 140.8857966  83.0369575  62.1692379 136.2727546  76.9330044
  61.2389967 136.2112001  77.1500006  62.2649851 135.7503498  76.1366685
  62.0877928 132.7982358  79.5208286  62.3484746 133.7127692  79.4117446
  62.9095101 132.3306801  79.6704899  63.5602854 134.2120116  86.6907110
  64.2325907 134.0037478  86.0419759  62.7332640 134.0142202  86.2512343
  77.8092115 140.9524166  86.2082444  78.0028005 141.8569976  86.4541719
  77.7092733 140.4931585  87.0421029  69.4628426 130.8382057  88.7072771
  68.8156341 131.5372006  88.6137248  70.2329441 131.2718200  89.0749019
  72.8707223 141.1030909  91.7823325  72.7192730 140.8741460  90.8653408
  72.8611903 142.0601510  91.7954670  69.6392560 138.6762821  86.7669591
  70.5684620 138.8273981  86.5938558  69.2183590 138.7646842  85.9118237
  63.9630351 137.4862719  87.4509548  63.8250149 136.7542957  88.0521087
  64.8735274 137.3971619  87.1693735  72.9245298 139.4251123  72.1994026
  72.3074469 138.6997951  72.1027079  72.4561787 140.1860483  71.8561100
  66.5912651 137.1982678  86.9393227  67.3012270 136.5575870  86.8979846
  66.5481960 137.4495573  87.8619408  65.3041585 134.1847896  88.7588867
  64.7678942 133.7338634  89.4110463  64.7158294 134.3193805  88.0159331
  64.7143844 133.6436547  71.3215330  63.8373311 133.5225348  70.9577577
  65.1901597 132.8522626  71.0694219  74.5816837 142.0989615  88.0913786
  73.6943616 141.7615537  88.2140185  75.1515388 141.3672646  88.3282551
  61.0380707 133.3203904  85.8441861  60.9538895 132.7129573  85.1092271
  60.2163413 133.8112922  85.8451357  71.2104421 131.8057467  81.2112056
  71.7073120 131.0527429  80.8913126  70.4391402 131.8421784  80.6455266
  79.0634178 137.5097833  82.8530348  79.0524054 138.3922548  82.4824281
  78.1951557 137.1569383  82.6584885  72.2934201 140.5629154  78.7850480
  71.3590480 140.6830617  78.6155184  72.4710870 139.6601621  78.5210489
  67.7939389 133.9474850  80.9383741  67.4237177 133.3945890  81.6264646
  68.2898482 133.3432984  80.3858741  75.6806753 136.4046474  79.3200514
  76.1467205 137.2374465  79.2460816  76.1314253 135.9391455  80.0245772
  73.7482984 142.7490295  76.3186666  74.0242828 142.6346889  77.2280540
  72.8787482 142.3507780  76.2798839  73.6523415 128.7727061  83.3591415
  72.7386495 129.0031287  83.5273622  74.0816517 128.8565505  84.2105447
  73.4229874 136.9616953  85.8591309  72.7701324 137.2092860  85.2043762
  73.8010254 136.1481091  85.5253786  69.4717447 137.7036764  92.3457346
  68.7958084 137.6030893  93.0159721  70.2945081 137.5475977  92.8093343
  55.8113961 136.5114300  83.6874305  55.8498060 135.9777891  84.4811423
  55.3054253 135.9849506  83.0685282  63.1904723 131.3578841  87.1836847
  63.2546049 132.2193672  86.7714245  63.1271843 130.7452842  86.4509205
  62.6656995 133.4301973  90.8309881  63.2929034 133.0479051  91.4447405
  61.8084914 133.2116175  91.1965574  59.4422538 135.2378402  76.7628236
  59.7375979 134.3289081  76.7095290  58.5410574 135.2166142  76.4409238
  62.9716785 133.3134399  82.7455785  62.2503371 133.9270367  82.6063258
  63.7610041 133.8492164  82.6672431  65.7743099 130.6488826  89.0196436
  66.2977501 130.8951122  89.7822746  65.5555432 131.4808860  88.5999574
  61.1710380 132.9192500  76.8867561  60.8423086 132.0389879  76.7042667
  61.5249751 132.8640169  77.7743950  64.2852203 133.2065470  77.2543039
  64.6248275 133.7351391  76.5321647  64.7324323 133.5445876  78.0301605
  66.9795644 131.5902521  86.7046107  66.6392464 130.7910334  87.1066787
  66.2734650 131.8904232  86.1322940  67.6312116 128.6751833  85.1573430
  68.4538185 128.2012311  85.0352320  67.8750179 129.4542317  85.6572116
  66.2720350 131.7040092  75.4536332  66.9928713 132.0821344  74.9500048
  65.6485654 132.4228968  75.5571310  70.4151473 132.4085241  76.3894664
  70.6315087 133.2909878  76.0883492  69.9345540 132.0171454  75.6600306
  65.1550694 135.3670954  82.9665408  65.0095275 135.6811257  83.8589690
  64.6775898 135.9855854  82.4136307  67.0147077 132.3573502  83.0146298
  67.0008646 131.4614595  82.6778596  67.7319505 132.3644165  83.6484584
  68.8673208 132.7910842  85.0599425  68.6090986 133.7127913  85.0583756
  68.3358248 132.3941276  85.7499890  66.4183973 131.2387882  78.2833868
  66.5399884 130.3104528  78.4824756  66.1286016 131.2526568  77.3712184
  69.2875164 128.9242792  81.4200588  69.3096860 128.9882126  80.4652568
  69.7043223 128.0847301  81.6141094  79.6658788 138.6598052  79.4579811
  80.1089934 137.9105377  79.0598934  78.7885298 138.6508188  79.0753543
  60.4162378 137.0346194  88.7983227  59.6744114 137.1828830  89.3847857
  60.0955123 137.2954460  87.9349976  76.6985992 142.6628099  76.4673740
  77.2237316 143.0015372  75.7423060  76.6108345 141.7275114  76.2836875
  65.9025053 132.7519879  92.4923801  65.9513208 133.6282002  92.1101570
  66.4447567 132.2097272  91.9195444  76.3879898 143.2961003  91.7724938
  75.5975442 143.2785141  91.2329437  76.1513253 143.8349296  92.5273974
  76.5077773 140.1453469  89.0857666  76.5575778 139.9803476  90.0273189
  76.3991697 139.2780728  88.6955547  73.7981536 136.1284397  90.4016973
  74.6991399 135.9890862  90.1100971  73.8729510 136.2938852  91.3415151
  68.1324341 133.5051252  89.2470159  67.2627651 133.7984818  88.9752748
  68.3683822 134.0891697  89.9677423  78.0095970 142.5650411  89.3299688
  77.7180779 142.9280391  90.1663149  77.3968102 141.8517419  89.1513020
  79.2091653 140.1303290  81.8502258  80.0438544 140.5693094  82.0139819
  79.3450781 139.6541943  81.0310504  76.2583159 137.6883025  87.7979746
  76.7337280 137.8810671  86.9898597  75.3348724 137.7442211  87.5523130
  63.1466665 138.8507192  77.3810824  62.9012707 137.9469522  77.5791034
  63.3162580 138.8524343  76.4390302  70.8363375 129.7230869  86.7635580
  71.3545319 130.4591896  86.4382068  70.4818508 130.0294862  87.5982339
  62.4162313 134.5835550  74.8796986  61.7231558 134.6579905  74.2237022
  62.1714065 133.8195894  75.4018503  71.0875969 126.1431151  82.2836476
  71.3677723 125.4754340  82.9096903  71.8726576 126.3360247  81.7711140
  74.9584828 134.5648785  86.0308052  75.9102250 134.6646883  86.0520276
  74.7888278 133.7727054  86.5406136  72.9799207 131.6504368  86.2167452
  72.3849139 131.9309381  85.5213941  72.6948904 132.1398269  86.9884194
  77.4372905 137.7854905  85.1450351  77.4049225 136.8470906  85.3310035
  78.0473529 137.8638942  84.4116176  69.2756236 136.6550958  71.1877555
  70.2215341 136.5257166  71.2565973  68.8970481 135.9165620  71.6646983
  77.5867394 134.5765948  85.1908634  77.0706442 133.7924405  85.0038563
  78.4707342 134.2484665  85.3555154  75.2478121 128.3206964  81.1504447
  75.0502942 128.0122052  82.0347779  75.8577826 129.0468603  81.2802377
  83.2549455 138.8470912  84.2856388  83.9852844 138.5856200  84.8464091
  82.6456401 138.1099634  84.3258456  81.3364752 136.9878774  84.8830839
  80.6097916 136.8534739  84.2747331  80.9212039 137.2955603  85.6887557
  69.1594929 140.7068704  92.6478212  70.0797938 140.8847303  92.8418259
  69.1244512 139.7624749  92.4957911  67.4599153 134.5800934  71.1232440
  66.5530609 134.2834047  71.1995154  67.7375134 134.2830752  70.2566727
  58.3777094 135.9007298  81.5731487  58.0579878 135.0472606  81.2805861
  57.8310522 136.1155876  82.3289454  69.0761219 129.1237824  77.2776682
  68.2661947 128.7784909  77.6531928  69.7645636 128.8145368  77.8664293
  71.0051767 128.2015871  78.9000978  71.5582806 128.6211324  79.5591001
  71.2421854 127.2751619  78.9423934  67.0284867 134.1902944  94.6803742
  66.9281593 135.1397301  94.6115833  66.8106409 133.8621183  93.8079812
  66.2297938 131.4387869  71.2644420  67.0917102 131.7642768  71.5240237
  66.4148282 130.6519365  70.7517485  74.3830574 130.3116396  78.4079643
  73.8029243 130.9701200  78.0257695  74.1166507 129.4893741  77.9967060
  72.8334141 129.7121454  80.6100963  73.3333919 129.8237988  79.8015282
  73.4769749 129.4082507  81.2501771  66.8916137 137.6200083  93.4968804
  66.4083218 138.4200443  93.7032693  66.9777076 137.6308028  92.5436248
  73.1655452 132.4716486  77.4635991  72.2781307 132.7566137  77.2456186
  73.5809442 132.3110250  76.6163268  76.5169989 132.4963007  81.1790330
  77.2930379 132.9859460  81.4514947  75.7918123 132.9221062  81.6362200
  78.9542547 133.2090627  82.2364271  79.5487038 132.9686362  81.5257579
  79.0269131 132.4897757  82.8637807  73.1396476 137.9871022  77.6786281
  73.0831678 138.4439574  76.8393913  73.6924819 137.2261707  77.5009124
  76.9501282 133.7760754  78.5036401  76.6938216 133.3757390  79.3344608
  76.3254150 134.4904548  78.3786540  81.2613620 136.5156827  81.0107692
  80.7013178 136.5850017  81.7839254  80.6557123 136.3397812  80.2907188
  74.2185363 142.6743690  73.6082471  75.0530967 142.2424889  73.4259946
  74.0569706 142.5025704  74.5359365  73.8731256 139.1775804  74.9738810
  73.8180059 139.0120075  74.0327254  73.2477311 139.8851836  75.1301000
  58.6623770 134.4143868  88.8000232  59.3082634 133.9042822  89.2887458
  58.4540922 135.1512550  89.3743658  71.1877163 141.4824715  94.2992373
  72.0568322 141.6565368  93.9379008  70.7083914 142.3019132  94.1768102
  67.1827381 128.6783913  74.5524129  67.1706051 129.6225752  74.7092400
  68.0750803 128.4954058  74.2583590  70.9979500 125.2726689  78.8070065
  70.2311896 124.7185176  78.9526748  71.4090205 125.3448558  79.6684217
  63.0021261 131.5611485  92.8975247  63.8652723 131.2048290  93.1078571
  62.4286672 131.2225380  93.5850651  85.3244754 144.5661602  86.1418443
  84.9928079 145.4357013  85.9179658  84.7290368 144.2497886  86.8212473
  87.0835064 147.4873127  84.9989667  86.4409444 147.7805660  84.3529461
  86.5789993 147.3726047  85.8042863  82.4227886 142.4131184  85.7589756
  82.0792156 143.3032825  85.6828867  82.7906849 142.2232841  84.8959341
  81.5024427 144.7835839  83.7238990  80.9989222 144.7465974  82.9106795
  81.7955033 145.6928582  83.7835646  77.6552299 143.9718025  78.8296608
  77.0016712 143.6567043  78.2053222  77.6132773 143.3493766  79.5556431
  84.2215552 141.6724743  80.8607494  84.5274429 140.8122106  80.5733409
  84.9468157 142.2642363  80.6606488  84.4917170 144.1018978  83.3591415
  83.5780250 144.3323205  83.5273622  84.9210271 144.1857422  84.2105447
  78.4705870 144.0043751  85.1573430  79.2931939 143.5304229  85.0352320
  78.7143934 144.7834235  85.6572116  80.1268918 144.2534710  81.4200588
  80.1490615 144.3174043  80.4652568  80.5436977 143.4139219  81.6141094
  81.6757130 145.0522786  86.7635580  82.1939073 145.7883813  86.4382068
  81.3212262 145.3586780  87.5982339  81.9269724 141.4723069  82.2836476
  82.2071477 140.8046258  82.9096903  82.7120331 141.6652165  81.7711140
  86.0871875 143.6498882  81.1504447  85.8896696 143.3413970  82.0347779
  86.6971581 144.3760521  81.2802377  79.9154974 144.4529742  77.2776682
  79.1055702 144.1076827  77.6531928  80.6039390 144.1437285  77.8664293
  81.8445522 143.5307788  78.9000978  82.3976560 143.9503242  79.5591001
  82.0815608 142.6043537  78.9423934  85.2224329 145.6408314  78.4079643
  84.6422998 146.2993118  78.0257695  84.9560262 144.8185658  77.9967060
  83.6727895 145.0413371  80.6100963  84.1727674 145.1529906  79.8015282
  84.3163503 144.7374424  81.2501771  89.7936302 148.5382544  82.2364271
  90.3880793 148.2978280  81.5257579  89.8662885 147.8189675  82.8637807
  81.8373255 140.6018607  78.8070065  81.0705651 140.0477094  78.9526748
  82.2483960 140.6740476  79.6684217   6.9713358  22.8932040  70.4282954
   7.6091768  22.7738788  69.7246294   6.8534201  23.8412884  70.4870906
   3.7803065  22.8459468  70.3644479   3.4421576  22.7300533  69.4765014
   4.6492833  22.4450633  70.3445485   4.2622848  23.9994320  76.3230685
   4.2511488  23.6047118  75.4511188   4.4243487  23.2660393  76.9164456
   5.2189439  28.3665912  61.6655835   4.5677419  28.9519993  61.2789849
   6.0133802  28.8972107  61.7250872   0.9830109  26.7831432  75.2709869
   0.6919975  27.6877063  75.1556535   1.6187093  26.8247959  75.9853938
   1.9086316  24.1608280  71.8611228   2.5049888  23.9364303  71.1468191
   1.9661287  23.4193026  72.4636676   1.4811344  21.6147716  59.6961419
   1.7336865  21.0929237  58.9344882   0.5435903  21.4513861  59.7988103
   6.5254627  20.6183494  67.5036162   7.3117716  20.2002917  67.1526579
   6.7893331  21.5229586  67.6717811   6.6964704  26.0556344  62.2024819
   6.0610537  26.1290971  62.9145724   6.3662111  26.6449943  61.5243898
  11.9263054  20.5558727  68.4069141  12.6588226  19.9857944  68.6406970
  11.1702410  20.1680328  68.8475646   1.2007633  23.5175822  61.8985794
   1.0843891  22.8420725  62.5666878   1.3109893  23.0308196  61.0817947
   3.5439174  22.9785969  65.6032483   3.1797381  22.4516590  66.3145405
   4.4006290  22.5884438  65.4298969   5.9419994  26.4692847  72.2659662
   5.6420717  27.3717886  72.1575469   5.5971053  26.2025031  73.1180815
   9.3417138  18.9875388  69.9457100   8.4334015  18.9190796  69.6515861
   9.2904733  19.4647332  70.7738925   3.1633881  20.4633526  61.5840499
   3.0433507  20.9090577  62.4225979   2.4686470  20.8118844  61.0254037
   3.4158003  20.4065033  77.8891997   2.6391337  20.9658953  77.8794861
   4.0548566  20.8921816  78.4106867  11.2078784  17.1891826  71.7234973
  10.5653164  17.4824359  71.0774768  10.7033712  17.0744746  72.5288170
   8.8618948  20.9354999  62.4120833   9.7736804  21.1682386  62.2368530
   8.3528595  21.5192043  61.8495911   1.6704376  23.2150486  77.4509964
   2.4119060  23.7535530  77.1744787   0.9641361  23.8416775  77.6081516
   7.1459715  25.3579627  76.0482125   7.5543071  24.9162037  75.3036758
   6.4236977  24.7832254  76.3016318   3.4990785  20.2952234  73.4215682
   4.3451981  20.7191647  73.5650331   3.4389423  19.6385858  74.1154245
   7.4688530  25.9180818  69.8034414   6.8397392  26.0826532  69.1010482
   7.0814192  26.3322427  70.5745378  11.3477762  26.8535255  67.1578778
  10.6628800  27.2334157  66.6075811  11.4321611  27.4630582  67.8910726
   6.6490231  17.9556602  75.0796856   6.4051163  18.7098663  74.5431132
   6.9250161  18.3341950  75.9144103   8.6028693  24.4995214  73.7574121
   8.8145589  25.1426974  73.0808503   8.5558442  23.6657531  73.2896052
   6.2054922  17.1113035  70.6610694   5.3439401  17.4094289  70.9527431
   6.2317357  17.3283434  69.7291726   3.0216492  25.6555226  67.0684499
   3.4854837  25.9342929  66.2789122   2.7573290  24.7538670  66.8857590
   1.9585378  21.7778378  63.8774064   2.6609421  22.2299422  64.3447991
   1.6266006  21.1362197  64.5053958   9.7174521  27.3767170  71.9296479
  10.5391965  26.9747357  71.6479160   9.7136924  27.2735404  72.8812595
   3.4831125  26.9251213  74.0857189   3.5475557  27.3871620  74.9215361
   2.7742049  26.2948578  74.2139499  17.8080514  23.7205918  68.2781450
  17.0544223  23.1513316  68.1225455  17.9428056  23.6868583  69.2252085
   3.1979142  28.5919321  63.9536170   3.0624817  29.4370856  64.3821017
   3.7388955  28.7938598  63.1902103   4.8247619  29.2142887  78.0836512
   4.3811473  28.4279266  77.7657416   5.4864832  29.4022038  77.4180403
   6.9228857  29.4945687  76.1117913   6.9047332  30.3154568  75.6198182
   7.8448777  29.3699762  76.3368054   3.3801911  27.0089817  76.9541421
   3.9130248  26.2478105  76.7240729   2.8515992  26.7163468  77.6965576
   6.5121889  22.1058494  60.9907498   5.9968512  22.8763098  61.2295886
   6.2399197  21.4323630  61.6140560  11.4856163  24.8590848  62.9260672
  10.7085606  24.5202008  62.4815834  12.1647644  24.8643471  62.2515637
   6.3008192  19.9785586  62.8167279   5.9958327  20.2931735  63.6677423
   7.2538634  20.0567006  62.8594612   4.7454624  26.1375809  64.4660233
   4.2175985  25.4028569  64.1533471   4.2442126  26.9150485  64.2200202
   9.7247470  24.3324830  69.5827280   9.0671144  25.0224091  69.6707408
  10.5287869  24.7221261  69.9261266   8.5352929  22.6869202  67.6331221
   9.0484810  23.3199194  68.1352931   9.1854152  22.0870398  67.2674581
   2.8907224  23.9556019  57.4695206   1.9834286  23.7245273  57.6686355
   3.3878256  23.1593639  57.6569188   5.7975303  32.6653526  60.3891893
   5.1237002  32.9685223  60.9976850   6.1841125  33.4682607  60.0397350
   5.0133759  20.1618658  69.8789562   4.0956321  20.3833605  69.7211250
   5.4293903  20.2364968  69.0201269   5.7968807  21.5610073  65.0092242
   6.5440626  22.0731471  64.6999364   6.0660397  21.2394126  65.8696636
   4.0695457  24.0568614  61.9919197   3.1606677  23.7727647  62.0891666
   4.0990541  24.4767693  61.1322503   9.3014725  27.6675204  65.7610364
   8.8477052  26.8266114  65.8175555   8.6708692  28.3036602  66.0985144
   8.2447644  18.5967190  66.9911032   7.5070401  18.0844576  67.3221274
   8.4974418  18.1567571  66.1794308   7.7447664  29.5051700  66.6960182
   8.0370638  30.0656757  65.9772548   8.2546285  29.7980261  67.4513341
   2.6180351  21.6697235  68.0928992   2.6728961  20.7171071  68.0171468
   1.8071553  21.8256674  68.5770290   3.7671545  25.5977358  59.3307275
   3.3290975  24.8813217  58.8712912   4.5081986  25.8253473  58.7692366
   2.7081289  30.2832051  67.7853635   2.6657468  30.5092898  66.8562167
   3.6243988  30.0495426  67.9339437   6.1546923  20.7516119  74.6834265
   6.5096311  20.9787592  75.5428730   6.8019054  21.0834496  74.0611520
  11.8844660  23.8734555  65.3883594  11.7462559  24.0636151  64.4604783
  11.5280879  24.6353938  65.8451645  11.9114040  25.9411082  70.3994865
  12.3450546  25.8486371  71.2477919  12.6245620  25.9168582  69.7614881
   5.6441934  29.5413176  71.9327966   5.6978957  30.1104112  72.7005682
   4.7756716  29.7115061  71.5682003  12.7729589  25.9834783  72.9327751
  12.9665479  26.8880593  73.1787025  12.6730207  25.5242202  73.7666336
   7.8344698  26.1341525  78.5068631   7.6830204  25.9052077  77.5898715
   7.8249377  27.0912127  78.5199976   4.6030034  23.7073438  73.4914898
   5.5322094  23.8584598  73.3183865   4.1821064  23.7957459  72.6363544
   3.4018366  27.7324102  71.2613435   3.2629452  27.3642887  72.1339373
   2.6132962  28.2471742  71.0897393   3.9966518  32.8333199  62.6038972
   4.1718274  32.3621242  63.4184594   3.3099306  33.4598965  62.8320232
   4.9523581  27.1105705  68.6502273   4.6173414  27.0706475  69.5459923
   4.4527527  26.4450421  68.1772683   7.8882773  24.4561739  58.9239333
   7.2711943  23.7308568  58.8272385   7.4199261  25.2171100  58.5806407
   1.5550126  22.2293294  73.6638534   2.2649744  21.5886487  73.6225152
   1.5119434  22.4806189  74.5864715   9.5436904  29.1660648  76.5845113
   9.4849451  28.4819868  75.9175696   9.9456423  29.9079638  76.1325739
   9.5454312  27.1300232  74.8159093   8.6581090  26.7926154  74.9385492
  10.1152863  26.3983263  75.0527858   3.0755465  31.7901684  71.7820336
   3.0025637  32.5956656  72.2939640   2.6332858  31.9893650  70.9568357
   2.8645245  31.0273454  65.2923157   2.0812767  31.5695134  65.3861382
   3.5637990  31.5447434  65.6917399  14.0271652  22.5408449  69.5775654
  14.0161529  23.4233165  69.2069587  13.1589032  22.1880000  69.3830191
   5.5354149  31.6888518  73.9378495   6.2482121  32.3235983  73.8654396
   5.0444177  31.7852384  73.1218496   7.2571676  25.5939771  65.5095786
   6.3227954  25.7141233  65.3400491   7.4348344  24.6912238  65.2455796
  10.6444227  21.4357090  66.0445820  11.1104679  22.2685082  65.9706123
  11.0951727  20.9702072  66.7491079   8.7120458  27.7800911  63.0431972
   8.9880302  27.6657506  63.9525846   7.8424957  27.3818396  63.0044146
   8.3867348  21.9927569  72.5836616   7.7338798  22.2403477  71.9289068
   8.7647728  21.1791707  72.2499093   5.3474522  32.0287262  66.6864786
   5.5296917  31.2108918  67.1492538   6.1707508  32.2454954  66.2489676
   5.6816688  30.9555447  63.9479835   6.2104454  30.4447902  63.3349997
   5.9444907  30.6397978  64.8125368   4.4354921  22.7347380  79.0702653
   3.7595558  22.6341509  79.7405028   5.2582555  22.5786594  79.5338650
   3.1777704  34.0414308  73.3060269   3.7296012  34.2045929  74.0709354
   3.5183898  34.6318745  72.6340294   8.0288578  28.8675565  79.1608923
   8.5728482  29.4805523  78.6663878   7.4475423  29.4255143  79.6775936
   6.3146091  31.9896283  70.2923951   6.1897231  31.1886023  69.7834896
   6.9725182  32.4842476  69.8037921   8.3781000  29.7905303  71.9203501
   7.4311335  29.6710654  71.8481828   8.7263773  28.9027801  72.0029763
   5.3827433  29.5858019  68.1207853   5.2352395  28.6574727  68.3015423
   6.2080927  29.6078110  67.6364929   8.9861555  30.4086578  69.2072726
   9.9108102  30.2029439  69.0697177   8.8176858  30.1602979  70.1162068
   8.7756871  30.9272246  64.5634818   8.9493749  30.3618668  63.8108670
   9.2685762  31.7273140  64.3814307  14.6296262  23.6908669  66.1825117
  15.0727408  22.9415994  65.7844241  13.7522773  23.6818805  65.7998849
   9.7632044  30.2439010  61.6631716  10.4582948  30.8645703  61.8819030
  10.1055194  29.3934361  61.9384094  11.6623467  27.6938716  63.1919047
  12.1874791  28.0325988  62.4668367  11.5745819  26.7585731  63.0082181
   3.3243515  31.6072789  75.3208923   3.6330642  31.3621936  76.1931623
   4.1218997  31.8119428  74.8327793   3.3464127  33.7610699  67.5514300
   2.9069118  33.2687077  68.2447156   4.0972244  33.2183666  67.3106375
  11.3517373  28.3271619  78.4970245  10.5612916  28.3095758  77.9574744
  11.1150727  28.8659913  79.2519281  11.4715248  25.1764086  75.8102973
  11.5213253  25.0114093  76.7518496  11.3629171  24.3091345  75.4200854
   8.7619010  21.1595014  77.1262280   9.6628873  21.0201478  76.8346278
   8.8366985  21.3249468  78.0660457  12.9733445  27.5961027  76.0544995
  12.6818253  27.9591008  76.8908456  12.3605576  26.8828035  75.8758327
  14.1729127  25.1613907  68.5747565  15.0076018  25.6003711  68.7385125
  14.3088256  24.6852560  67.7555811  11.2220633  22.7193642  74.5225053
  11.6974754  22.9121288  73.7143904  10.2986198  22.7752828  74.2768436
   3.8546912  30.3500762  60.5706809   3.2820879  30.9690949  60.1177281
   4.4279706  30.9000123  61.1046731   9.9222302  19.5959402  72.7553358
  10.8739725  19.6957499  72.7765582   9.7525752  18.8037670  73.2651443
   7.9436681  16.6814985  72.9412759   7.3486613  16.9619998  72.2459248
   7.6586378  17.1708886  73.7129500   7.0744172  30.6337912  61.7015392
   8.0074845  30.5683473  61.9048267   6.9867385  31.4694179  61.2429924
   9.7032188  29.9503782  58.6619339   9.6245820  29.6163646  59.5555097
  10.5241855  30.4425550  58.6610812  12.4010380  22.8165521  71.8695658
  12.3686700  21.8781522  72.0555342  13.0111003  22.8949558  71.1361483
   4.2393710  21.6861574  57.9122862   5.1852815  21.5567783  57.9811280
   3.8607955  20.9476236  58.3892290  12.5504868  19.6076565  71.9153941
  12.0343917  18.8235022  71.7283870  13.4344817  19.2795282  72.0800460
  18.2186929  23.8781528  71.0101695  18.9490318  23.6166816  71.5709398
  17.6093875  23.1410250  71.0503763  16.3002227  22.0189391  71.6076146
  15.5735390  21.8845356  70.9992637  15.8849513  22.3266219  72.4132864
   4.1232403  25.7379321  79.3723519   5.0435412  25.9157920  79.5663565
   4.0881986  24.7935366  79.2203218   9.3468049  15.3427012  65.1324949
   8.7666718  16.0011817  64.7503002   9.0803981  14.5204357  64.7212367
   1.8553611  22.6510700  80.2214111   1.3720693  23.4511060  80.4278000
   1.9414550  22.6618645  79.2681555   8.1292927  17.5027103  64.1881298
   7.2418782  17.7876753  63.9701492   8.5446916  17.3420866  63.3408574
  11.4807463  17.5273624  67.9035637  12.2567853  18.0170076  68.1760254
  10.7555597  17.9531678  68.3607506  13.9180022  18.2401243  68.9609577
  14.5124512  17.9996979  68.2502886  13.9906605  17.5208374  69.5883114
   7.2736140  27.2671778  58.2829318   7.9771990  27.4721780  58.8986973
   6.5498789  27.8348539  58.5478401   8.1033951  23.0181639  64.4031588
   8.0469152  23.4750190  63.5639220   8.6562293  22.2572323  64.2254430
  11.9138756  18.8071371  65.2281707  11.6575691  18.4068006  66.0589915
  11.2891624  19.5215165  65.1031846  16.2251094  21.5467444  67.7352999
  15.6650652  21.6160633  68.5084561  15.6194598  21.3708429  67.0152495
   9.1822838  27.7054307  60.3327778  10.0168442  27.2735505  60.1505252
   9.0207181  27.5336320  61.2604672   8.8368730  24.2086420  61.6984117
   8.7817534  24.0430691  60.7572561   8.2114785  24.9162453  61.8546307
   6.1514637  26.5135332  81.0237680   7.0205797  26.6875984  80.6624315
   5.6721388  27.3329749  80.9013409   2.0754419  32.3863419  69.3637192
   1.1250050  32.3865281  69.2501564   2.3786905  31.6396154  68.8473227
  17.8107113  38.2223958  70.4282954  18.4485523  38.1030705  69.7246294
  17.6927956  39.1704802  70.4870906  14.6196819  38.1751386  70.3644479
  14.2815331  38.0592451  69.4765014  15.4886587  37.7742551  70.3445485
  10.4783635  40.0286862  66.3541370   9.9148500  39.9376799  65.5857658
  10.3636030  39.2086767  66.8343863  15.1016602  39.3286238  76.3230685
  15.0905243  38.9339036  75.4511188  15.2637241  38.5952310  76.9164456
   8.0248067  41.5238054  69.1925590   8.8169359  41.1828879  68.7771890
   8.2644717  41.6333029  70.1127744  16.0583193  43.6957830  61.6655835
  15.4071173  44.2811910  61.2789849  16.8527556  44.2264025  61.7250872
   9.9838821  40.7846967  62.0642969  10.7569697  40.2375954  61.9255845
  10.3364219  41.6491217  62.2757431  11.8223863  42.1123349  75.2709869
  11.5313729  43.0168980  75.1556535  12.4580848  42.1539877  75.9853938
  12.7480070  39.4900198  71.8611228  13.3443642  39.2656220  71.1468191
  12.8055042  38.7484943  72.4636676  12.3205098  36.9439633  59.6961419
  12.5730619  36.4221155  58.9344882  11.3829657  36.7805779  59.7988103
  17.3648381  35.9475412  67.5036162  18.1511470  35.5294835  67.1526579
  17.6287086  36.8521504  67.6717811  17.5358459  41.3848262  62.2024819
  16.9004292  41.4582889  62.9145724  17.2055865  41.9741861  61.5243898
  22.7656808  35.8850645  68.4069141  23.4981980  35.3149862  68.6406970
  22.0096164  35.4972245  68.8475646  12.0401387  38.8467739  61.8985794
  11.9237645  38.1712643  62.5666878  12.1503647  38.3600113  61.0817947
  14.3832928  38.3077886  65.6032483  14.0191135  37.7808507  66.3145405
  15.2400044  37.9176355  65.4298969  20.2882229  29.5972219  72.8663749
  19.9565553  30.4667630  72.6424964  19.6927842  29.2808503  73.5457780
  14.0238415  33.3367786  60.5993832  14.1912817  34.2048023  60.9664303
  13.8335584  33.4995068  59.6755121  16.7813748  41.7984765  72.2659662
  16.4814471  42.7009804  72.1575469  16.4364808  41.5316948  73.1180815
  10.2326230  38.2498562  68.2996367   9.3076726  38.1174776  68.5074058
  10.4810643  39.0292781  68.7966309  20.1810892  34.3167305  69.9457100
  19.2727769  34.2482714  69.6515861  20.1298488  34.7939250  70.7738925
  14.0027636  35.7925444  61.5840499  13.8827261  36.2382494  62.4225979
  13.3080224  36.1410761  61.0254037   7.5935041  37.8931835  69.1340156
   7.7227422  38.1466314  70.0479567   6.9132492  38.4859543  68.8144811
  11.7634528  48.5629085  65.2330630  11.6858558  49.5136910  65.3119110
  11.1596172  48.2174958  65.8905556  14.2551758  35.7356951  77.8891997
  13.4785092  36.2950871  77.8794861  14.8942321  36.2213734  78.4106867
  22.0472538  32.5183744  71.7234973  21.4046919  32.8116277  71.0774768
  21.5427467  32.4036664  72.5288170  19.7012702  36.2646917  62.4120833
  20.6130558  36.4974304  62.2368530  19.1922349  36.8483961  61.8495911
  12.5098130  38.5442404  77.4509964  13.2512814  39.0827448  77.1744787
  11.8035116  39.1708693  77.6081516  17.9853470  40.6871545  76.0482125
  18.3936826  40.2453955  75.3036758  17.2630731  40.1124172  76.3016318
  14.3384540  35.6244151  73.4215682  15.1845735  36.0483565  73.5650331
  14.2783177  34.9677776  74.1154245  18.3082284  41.2472735  69.8034414
  17.6791147  41.4118449  69.1010482  17.9207946  41.6614345  70.5745378
  22.1871516  42.1827173  67.1578778  21.5022554  42.5626074  66.6075811
  22.2715366  42.7922500  67.8910726  17.4883985  33.2848520  75.0796856
  17.2444917  34.0390580  74.5431132  17.7643916  33.6633867  75.9144103
  19.4422448  39.8287132  73.7574121  19.6539343  40.4718892  73.0808503
  19.3952196  38.9949449  73.2896052  17.0448677  32.4404953  70.6610694
  16.1833156  32.7386206  70.9527431  17.0711112  32.6575352  69.7291726
  13.8610246  40.9847143  67.0684499  14.3248592  41.2634846  66.2789122
  13.5967044  40.0830588  66.8857590  10.7534327  40.5318625  70.0064263
  11.3235684  40.9605893  69.3681747  11.3442439  40.2501210  70.7048448
  12.7979132  37.1070296  63.8774064  13.5003176  37.5591339  64.3447991
  12.4659761  36.4654115  64.5053958  11.2459494  35.6982052  78.2525274
  10.6158154  36.3798333  78.4860671  11.1395582  35.5865134  77.3078412
   6.5404466  35.3653848  69.1791198   5.7503520  35.6211377  68.7031309
   7.0315714  36.1802186  69.2843239  20.5568276  42.7059088  71.9296479
  21.3785720  42.3039275  71.6479160  20.5530679  42.6027322  72.8812595
   8.4919212  35.7298428  66.1374675   7.6950375  35.8417122  66.6558170
   8.2644804  36.0685080  65.2715565  14.3224879  42.2543131  74.0857189
  14.3869312  42.7163538  74.9215361  13.6135803  41.6240496  74.2139499
   4.8242169  35.6184339  71.6106189   5.0750208  36.5031349  71.8763765
   5.3601718  35.4388940  70.8381281  28.6474269  39.0497836  68.2781450
  27.8937977  38.4805234  68.1225455  28.7821810  39.0160501  69.2252085
  14.0372897  43.9211238  63.9536170  13.9018572  44.7662774  64.3821017
  14.5782709  44.1230516  63.1902103  10.5240237  30.0002818  80.6150525
  10.1307182  29.4469017  81.2898169  11.3406377  30.3113397  81.0057042
   7.4902294  41.4386676  64.5264095   8.0026815  42.2329927  64.6769659
   8.1425007  40.7412967  64.4597696   9.2997179  44.5552433  66.6086848
   9.4763807  45.4770397  66.4207832  10.0954013  44.2410852  67.0381228
  13.4408198  31.4160697  78.2070781  14.1817911  32.0167850  78.1275244
  13.6726120  30.6738335  77.6488824   8.5849536  36.6017065  76.4849011
   8.4703051  35.7002322  76.7856110   7.7294053  36.8480761  76.1333828
  15.6641373  44.5434805  78.0836512  15.2205228  43.7571183  77.7657416
  16.3258587  44.7313955  77.4180403  10.4228495  46.0730606  72.6097190
  10.9735920  45.9447670  71.8374184   9.5839970  46.3725495  72.2592083
  17.7622611  44.8237605  76.1117913  17.7441087  45.6446486  75.6198182
  18.6842531  44.6991680  76.3368054  14.2195666  42.3381734  76.9541421
  14.7524002  41.5770022  76.7240729  13.6909747  42.0455386  77.6965576
  17.3865361  27.4441800  72.4835063  17.0429630  28.3343442  72.4074174
  17.7544323  27.2543458  71.6204648   5.4551211  39.7675331  65.3023665
   6.2926433  40.1772339  65.0857373   5.6329479  38.8274773  65.2723859
  17.3515643  37.4350411  60.9907498  16.8362267  38.2055016  61.2295886
  17.0792952  36.7615547  61.6140560  14.9362754  32.2800112  66.0492737
  14.0804351  31.8906962  65.8698375  15.3489706  32.3592073  65.1892522
  16.4661901  29.8146455  70.4484296  15.9626696  29.7776591  69.6352102
  16.7592508  30.7239198  70.5080953  12.7104787  29.8985185  69.4550478
  13.5757784  29.7027994  69.0956368  12.7782296  29.6695537  70.3819835
  22.3249917  40.1882766  62.9260672  21.5479360  39.8493925  62.4815834
  23.0041398  40.1935389  62.2515637  17.1401946  35.3077503  62.8167279
  16.8352082  35.6223653  63.6677423  18.0932389  35.3858923  62.8594612
  15.5848378  41.4667727  64.4660233  15.0569740  40.7320486  64.1533471
  15.0835881  42.2442403  64.2200202  20.5641224  39.6616747  69.5827280
  19.9064899  40.3516009  69.6707408  21.3681623  40.0513179  69.9261266
  10.3167106  32.1287393  66.8266845  10.8910858  31.9062574  66.0940038
  10.9038088  32.1976088  67.5795446  19.3746683  38.0161120  67.6331221
  19.8878565  38.6491112  68.1352931  20.0247907  37.4162315  67.2674581
  10.6436693  34.1591854  60.8462730   9.8074005  34.4966541  61.1672005
  10.5041463  34.0240834  59.9089867  12.6189774  29.0028642  65.5541914
  11.9654186  28.6877659  64.9298529  12.5770248  28.3804382  66.2801737
  13.7300978  39.2847937  57.4695206  12.8228040  39.0537190  57.6686355
  14.2272010  38.4885556  57.6569188  16.6369057  47.9945444  60.3891893
  15.9630756  48.2977141  60.9976850  17.0234879  48.7974525  60.0397350
  15.8527514  35.4910575  69.8789562  14.9350075  35.7125522  69.7211250
  16.2687658  35.5656886  69.0201269  16.6362562  36.8901991  65.0092242
  17.3834381  37.4023388  64.6999364  16.9054151  36.5686044  65.8696636
  14.9089212  39.3860532  61.9919197  14.0000431  39.1019565  62.0891666
  14.9384296  39.8059610  61.1322503  20.1408479  42.9967121  65.7610364
  19.6870806  42.1558031  65.8175555  19.5102446  43.6328520  66.0985144
  19.0841399  33.9259107  66.9911032  18.3464156  33.4136494  67.3221274
  19.3368172  33.4859489  66.1794308  18.5841419  44.8343618  66.6960182
  18.8764393  45.3948675  65.9772548  19.0940039  45.1272179  67.4513341
  19.1853026  26.7035359  67.5852801  19.4911903  25.8432723  67.2978716
  19.9105631  27.2952980  67.3851795   5.4777382  37.1066046  65.9734399
   5.2801782  36.5135407  65.2485465   4.9224046  36.8018256  66.6910338
  13.4574106  36.9989152  68.0928992  13.5122716  36.0462989  68.0171468
  12.6465308  37.1548592  68.5770290  14.6065300  40.9269276  59.3307275
  14.1684730  40.2105134  58.8712912  15.3475741  41.1545390  58.7692366
  11.3966466  35.6166212  65.8519371  10.5834331  35.9160383  66.2584563
  11.8925460  35.2221901  66.5693853  13.5475044  45.6123969  67.7853635
  13.5051223  45.8384815  66.8562167  14.4637743  45.3787344  67.9339437
  16.9940678  36.0808037  74.6834265  17.3490065  36.3079510  75.5428730
  17.6412809  36.4126413  74.0611520  22.7238414  39.2026473  65.3883594
  22.5856313  39.3928069  64.4604783  22.3674633  39.9645855  65.8451645
  10.8880541  33.1884568  71.4680606  11.5279920  33.0473327  70.7703569
  10.0558071  32.9019081  71.0919208  22.7507794  41.2703000  70.3994865
  23.1844301  41.1778289  71.2477919  23.4639375  41.2460500  69.7614881
  11.6640845  42.4886998  67.5815598  12.4581443  41.9937318  67.3798173
  10.9532537  41.9604861  67.2183304  16.4835689  44.8705094  71.9327966
  16.5372711  45.4396030  72.7005682  15.6150470  45.0406979  71.5682003
   7.9723608  36.6330080  63.6575351   7.0421196  36.5714535  63.8745313
   8.0681080  36.1106033  62.8611992   7.8909157  33.1584893  66.2453592
   8.1515974  34.0730226  66.1362753   8.7126329  32.6909335  66.3950205
   9.3634082  34.5722650  73.4152417  10.0357136  34.3640012  72.7665066
   8.5363869  34.3744736  72.9757649  23.6123344  41.3126700  72.9327751
  23.8059234  42.2172511  73.1787025  23.5123962  40.8534119  73.7666336
  15.2659654  31.1984591  75.4318078  14.6187569  31.8974540  75.3382554
  16.0360670  31.6320735  75.7994326  18.6738452  41.4633443  78.5068631
  18.5223959  41.2343995  77.5898715  18.6643132  42.4204044  78.5199976
  15.4423789  39.0365356  73.4914898  16.3715849  39.1876515  73.3183865
  15.0214819  39.1249376  72.6363544  14.2412120  43.0616020  71.2613435
  14.1023206  42.6934805  72.1339373  13.4526717  43.5763660  71.0897393
  14.8360272  48.1625117  62.6038972  15.0112028  47.6913160  63.4184594
  14.1493060  48.7890883  62.8320232  15.7917336  42.4397623  68.6502273
  15.4567168  42.3998393  69.5459923  15.2921281  41.7742339  68.1772683
   9.7661580  37.8465253  74.1754854   9.6281378  37.1145492  74.7766393
  10.6766503  37.7574153  73.8939042  18.7276527  39.7853657  58.9239333
  18.1105698  39.0600485  58.8272385  18.2593016  40.5463017  58.5806407
  12.3943880  37.5585212  73.6638534  13.1043499  36.9178404  73.6225152
  12.3513188  37.8098107  74.5864715  20.3830659  44.4952566  76.5845113
  20.3243205  43.8111786  75.9175696  20.7850177  45.2371556  76.1325739
  11.1072814  34.5450430  75.4834173  10.5710171  34.0941169  76.1355770
  10.5189523  34.6796339  74.7404638   9.4021358  51.3114479  69.3778832
   9.6417956  51.9433004  70.0557850   8.5590554  50.9602519  69.6644191
  10.5175073  34.0039081  58.0460637   9.6404540  33.8827882  57.6822884
  10.9932826  33.2125160  57.7939526  20.3848066  42.4592149  74.8159093
  19.4974845  42.1218071  74.9385492  20.9546617  41.7275181  75.0527858
   2.0377213  38.7916241  68.1402144   2.7248253  38.4777971  67.5523159
   1.8825342  39.6957606  67.8669396   6.8411935  33.6806438  72.5687168
   6.7570124  33.0732107  71.8337578   6.0194642  34.1715456  72.5696664
  13.9149220  47.1193602  71.7820336  13.8419391  47.9248573  72.2939640
  13.4726613  47.3185568  70.9568357  13.7038999  46.3565372  65.2923157
  12.9206521  46.8987052  65.3861382  14.4031744  46.8739351  65.6917399
  17.0135649  32.1660001  67.9357363  17.5104349  31.4129964  67.6158433
  16.2422631  32.2024318  67.3700572  24.8665407  37.8700367  69.5775654
  24.8555283  38.7525082  69.2069587  23.9982786  37.5171918  69.3830191
  16.3747903  47.0180436  73.9378495  17.0875875  47.6527901  73.8654396
  15.8837932  47.1144302  73.1218496  18.0965430  40.9231689  65.5095786
  17.1621709  41.0433151  65.3400491  18.2742099  40.0204155  65.2455796
  13.5970618  34.3077384  67.6629047  13.2268406  33.7548425  68.3509953
  14.0929711  33.7035518  67.1104047  21.4837981  36.7649008  66.0445820
  21.9498434  37.5976999  65.9706123  21.9345482  36.2993989  66.7491079
  11.4259817  44.7674879  74.7584065  12.1269276  45.4011362  74.9113460
  10.9554932  45.1089611  73.9979705  19.5514213  43.1092829  63.0431972
  19.8274056  42.9949424  63.9525846  18.6818711  42.7110314  63.0044146
  19.4554644  29.1329595  70.0836722  18.5417724  29.3633822  70.2518929
  19.8847746  29.2168039  70.9350754  19.2261103  37.3219487  72.5836616
  18.5732553  37.5695394  71.9289068  19.6041483  36.5083625  72.2499093
  16.1868277  47.3579180  66.6864786  16.3690671  46.5400836  67.1492538
  17.0101263  47.5746872  66.2489676  16.5210442  46.2847365  63.9479835
  17.0498208  45.7739820  63.3349997  16.7838662  45.9689895  64.8125368
  15.2748676  38.0639298  79.0702653  14.5989313  37.9633427  79.7405028
  16.0976310  37.9078512  79.5338650   7.0227535  44.3011234  71.6915168
   7.6080972  43.5554922  71.8243072   6.8252373  44.6115191  72.5751832
   9.8766190  47.3362482  66.7077610   9.2076565  47.8208609  66.2241651
   9.7379060  47.5831702  67.6220989   1.6145189  36.8716835  70.4119611
   1.6529289  36.3380425  71.2056729   1.1085482  36.3452040  69.7930588
  14.0171459  49.3706225  73.3060269  14.5689767  49.5337847  74.0709354
  14.3577652  49.9610663  72.6340294   8.9935952  31.7181375  73.9082154
   9.0577278  32.5796206  73.4959551   8.9303072  31.1055377  73.1754512
   8.4688224  33.7904508  77.5555188   9.0960263  33.4081585  78.1692712
   7.6116143  33.5718710  77.9210880  18.8682333  44.1967483  79.1608923
  19.4122237  44.8097441  78.6663878  18.2869178  44.7547061  79.6775936
   5.2453767  35.5980937  63.4873543   5.5407208  34.6891615  63.4340596
   4.3441803  35.5768676  63.1654545  17.1539846  47.3188201  70.2923951
  17.0290985  46.5177941  69.7834896  17.8118937  47.8134394  69.8037921
   8.7748014  33.6736933  69.4701091   8.0534600  34.2872901  69.3308565
   9.5641270  34.2094698  69.3917737  19.2174754  45.1197221  71.9203501
  18.2705090  45.0002572  71.8481828  19.5657527  44.2319719  72.0029763
  11.5774328  31.0091360  75.7441743  12.1008729  31.2553656  76.5068052
  11.3586661  31.8411395  75.3244880   6.9741609  33.2795034  63.6112868
   6.6454315  32.3992413  63.4287974   7.3280979  33.2242703  64.4989257
  16.2221188  44.9149937  68.1207853  16.0746150  43.9866644  68.3015423
  17.0474681  44.9370028  67.6364929  10.0883432  33.5668004  63.9788345
  10.4279504  34.0953925  63.2566954  10.5355552  33.9048410  64.7546912
  19.8255309  45.7378496  69.2072726  20.7501857  45.5321357  69.0697177
  19.6570613  45.4894897  70.1162068  12.7826873  31.9505055  73.4291413
  12.4423693  31.1512868  73.8312093  12.0765879  32.2506766  72.8568247
  13.4343344  29.0354367  71.8818737  14.2569414  28.5614846  71.7597627
  13.6781408  29.8144851  72.3817423  12.0751579  32.0642626  62.1781638
  12.7959941  32.4423879  61.6745355  11.4516883  32.7831503  62.2816616
  16.2182702  32.7687775  63.1139971  16.4346316  33.6512413  62.8128799
  15.7376769  32.3773988  62.3845613  10.9581923  35.7273488  69.6910715
  10.8126504  36.0413791  70.5834997  10.4807127  36.3458388  69.1381614
  12.8178306  32.7176036  69.7391605  12.8039875  31.8217129  69.4023903
  13.5350734  32.7246700  70.3729891  14.6704437  33.1513376  71.7844732
  14.4122215  34.0730447  71.7829063  14.1389477  32.7543811  72.4745196
  19.6150626  46.2564163  64.5634818  19.7887503  45.6910586  63.8108670
  20.1079517  47.0565058  64.3814307   5.4327585  38.2678832  72.6298376
   4.8881053  39.0438640  72.7618651   6.3106935  38.6149637  72.4717498
  12.2215202  31.5990416  65.0079175  12.3431113  30.6707062  65.2070062
  11.9317244  31.6129102  64.0957490  15.0906392  29.2845327  68.1445895
  15.1128089  29.3484660  67.1897874  15.5074451  28.4449835  68.3386401
  25.4690017  39.0200586  66.1825117  25.9121163  38.2707911  65.7844241
  24.5916527  39.0110723  65.7998849  20.6025798  45.5730928  61.6631716
  21.2976703  46.1937620  61.8819030  20.9448948  44.7226279  61.9384094
   6.2193607  37.3948729  75.5228533   5.4775343  37.5431364  76.1093164
   5.8986352  37.6556994  74.6595283  22.5017221  43.0230633  63.1919047
  23.0268545  43.3617906  62.4668367  22.4139574  42.0877649  63.0082181
  14.1637270  46.9364707  75.3208923  14.4724396  46.6913854  76.1931623
  14.9612752  47.1411345  74.8327793  14.1857882  49.0902616  67.5514300
  13.7462872  48.5978995  68.2447156  14.9365999  48.5475584  67.3106375
   6.6650221  45.2814157  67.5538928   7.4908241  44.9817929  67.1737571
   6.3144273  44.5121780  68.0028716  11.6331754  44.6340626  69.6236601
  11.0111763  43.9711331  69.3238829  12.3036621  44.6601757  68.9410249
   4.8658826  43.2000484  68.5127861   4.0290734  42.7722658  68.3311863
   4.8382471  43.3932927  69.4498653  11.7056282  33.1122414  79.2169107
  11.7544437  33.9884536  78.8346877  12.2478796  32.5699807  78.6440751
  22.3109002  40.5056003  75.8102973  22.3607007  40.3406011  76.7518496
  22.2022926  39.6383262  75.4200854  11.1945261  43.1844549  63.0995062
  11.3433381  43.8680013  62.4461735  12.0011704  43.1649639  63.6144518
  19.6012765  36.4886931  77.1262280  20.5022627  36.3493396  76.8346278
  19.6760739  36.6541386  78.0660457  13.9355570  33.8653786  75.9715466
  13.0658879  34.1587352  75.6998055  14.1715050  34.4494231  76.6922730
  25.0122881  40.4905825  68.5747565  25.8469773  40.9295629  68.7385125
  25.1482010  40.0144478  67.7555811  22.0614387  38.0485559  74.5225053
  22.5368509  38.2413206  73.7143904  21.1379953  38.1044745  74.2768436
   8.9497894  39.2109727  64.1056131   8.7043936  38.3072057  64.3036341
   9.1193808  39.2126877  63.1635609  16.6394604  30.0833403  73.4880886
  17.1576548  30.8194430  73.1627375  16.2849737  30.3897396  74.3227646
   8.2193541  34.9438084  61.6042292   7.5262786  35.0182439  60.9482328
   7.9745293  34.1798428  62.1263809  16.8907198  26.5033685  69.0081783
  17.1708952  25.8356875  69.6342210  17.6757805  26.6962781  68.4956447
  14.6940666  45.6792679  60.5706809  14.1214634  46.2982866  60.1177281
  15.2673460  46.2292041  61.1046731  20.7616056  34.9251319  72.7553358
  21.7133479  35.0249417  72.7765582  20.5919507  34.1329588  73.2651443
  18.7830436  32.0106903  72.9412759  18.1880368  32.2911915  72.2459248
  18.4980133  32.5000804  73.7129500  17.9137926  45.9629829  61.7015392
  18.8468599  45.8975391  61.9048267  17.8261139  46.7986096  61.2429924
  20.5425943  45.2795700  58.6619339  20.4639574  44.9455563  59.5555097
  21.3635610  45.7717468  58.6610812  23.2404134  38.1457439  71.8695658
  23.2080454  37.2073440  72.0555342  23.8504758  38.2241476  71.1361483
  15.0787465  37.0153492  57.9122862  16.0246570  36.8859700  57.9811280
  14.7001710  36.2768154  58.3892290  23.3898623  34.9368483  71.9153941
  22.8737671  34.1526939  71.7283870  24.2738571  34.6087199  72.0800460
  21.0509350  28.6809498  67.8749754  20.8534171  28.3724586  68.7593086
  21.6609055  29.4071137  68.0047684  29.0580684  39.2073446  71.0101695
  29.7884072  38.9458734  71.5709398  28.4487629  38.4702168  71.0503763
  27.1395981  37.3481309  71.6076146  26.4129145  37.2137273  70.9992637
  26.7243268  37.6558137  72.4132864  14.9626158  41.0671238  79.3723519
  15.8829167  41.2449837  79.5663565  14.9275741  40.1227284  79.2203218
  13.2630382  34.9403468  57.8477747  12.3561838  34.6436581  57.9240461
  13.5406363  34.6433287  56.9812033   4.1808323  36.2609832  68.2976793
   3.8611107  35.4075140  68.0051167   3.6341751  36.4758410  69.0534761
   7.9588230  38.9772273  72.0146300   8.1774240  39.9089381  72.0334334
   8.3714004  38.6180247  72.8001104  14.8792448  29.4840358  64.0021988
  14.0693176  29.1387443  64.3777234  15.5676865  29.1747902  64.5909600
  16.8082996  28.5618405  65.6246285  17.3614035  28.9813858  66.2836308
  17.0453083  27.6354153  65.6669241  12.8316095  34.5505479  81.4049049
  12.7312822  35.4999836  81.3361140  12.6137637  34.2223718  80.5325119
  12.0329167  31.7990404  57.9889726  12.8948331  32.1245302  58.2485544
  12.2179511  31.0121900  57.4762792   4.0496583  39.8812743  70.2669915
   3.3560054  39.4666696  69.7539869   4.7969574  39.9233280  69.6703334
  20.1861803  30.6718930  65.1324949  19.6060472  31.3303734  64.7503002
  19.9197736  29.8496275  64.7212367  18.6365370  30.0723988  67.3346270
  19.1365148  30.1840522  66.5260588  19.2800978  29.7685041  67.9747078
  12.6947365  37.9802617  80.2214111  12.2114447  38.7802978  80.4278000
  12.7808304  37.9910562  79.2681555   5.9633325  39.8130997  68.1435930
   5.9404013  39.9118684  67.1917813   6.2733962  40.6596148  68.4653096
   8.6220703  41.8707152  72.2582544   9.5763956  41.8391095  72.1912476
   8.4233227  41.4097776  73.0732770   9.2120085  40.4408268  74.8253342
  10.0312974  40.9352347  74.8488179   9.4856893  39.5240236  74.7970910
  18.9686681  32.8319021  64.1881298  18.0812536  33.1168671  63.9701492
  19.3840670  32.6712784  63.3408574  22.3201217  32.8565542  67.9035637
  23.0961608  33.3461994  68.1760254  21.5949352  33.2823596  68.3607506
  24.7573776  33.5693161  68.9609577  25.3518267  33.3288897  68.2502886
  24.8300360  32.8500291  69.5883114   6.9770932  47.4126772  69.2752742
   6.8425400  46.6527173  68.7090740   6.5602994  48.1367672  68.8081531
  18.1129895  42.5963695  58.2829318  18.8165745  42.8013698  58.8986973
  17.3892543  43.1640457  58.5478401  18.9427705  38.3473556  64.4031588
  18.8862906  38.8042108  63.5639220  19.4956047  37.5864241  64.2254430
  22.7532511  34.1363288  65.2281707  22.4969445  33.7359924  66.0589915
  22.1285379  34.8507082  65.1031846  27.0644849  36.8759362  67.7352999
  26.5044407  36.9452551  68.5084561  26.4588352  36.7000346  67.0152495
  10.1340058  48.3096089  69.4871185  10.0172442  49.2541521  69.3849875
   9.3132504  48.0069650  69.8756984  20.0216592  43.0346224  60.3327778
  20.8562196  42.6027423  60.1505252  19.8600935  42.8628238  61.2604672
  19.6762484  39.5378338  61.6984117  19.6211288  39.3722609  60.7572561
  19.0508540  40.2454371  61.8546307   4.4654999  34.7746402  75.5245539
   5.1113863  34.2645356  76.0132764   4.2572150  35.5115084  76.0988964
  16.9908391  41.8427250  81.0237680  17.8599551  42.0167902  80.6624315
  16.5115143  42.6621666  80.9013409  12.9858610  29.0386447  61.2769435
  12.9737280  29.9828287  61.4337706  13.8782032  28.8556592  60.9828896
  11.1594572  48.9624351  72.7027113  12.0621818  48.9947961  73.0193608
  10.9331942  48.0324802  72.7173449  12.9148174  47.7155337  69.3637192
  11.9643805  47.7157199  69.2501564  13.2180660  46.9688072  68.8473227
  16.8010729  25.6329223  65.5315372  16.0343125  25.0787710  65.6772054
  17.2121434  25.7051092  66.3929524   8.8052490  31.9214019  79.6220553
   9.6683952  31.5650824  79.8323878   8.2317901  31.5827914  80.3095958
  18.8641821  56.8529972  69.1925590  19.6563113  56.5120796  68.7771890
  19.1038471  56.9624947  70.1127744  20.8232575  56.1138885  62.0642969
  21.5963451  55.5667872  61.9255845  21.1757974  56.9783134  62.2757431
  23.1598853  52.2731551  59.6961419  23.4124374  51.7513072  58.9344882
  22.2223412  52.1097696  59.7988103  22.8795142  54.1759657  61.8985794
  22.7631400  53.5004560  62.5666878  22.9897402  53.6892031  61.0817947
  24.8632170  48.6659704  60.5993832  25.0306572  49.5339940  60.9664303
  24.6729339  48.8286985  59.6755121  24.8421390  51.1217361  61.5840499
  24.7221016  51.5674412  62.4225979  24.1473979  51.4702679  61.0254037
  18.4328795  53.2223753  69.1340156  18.5621176  53.4758232  70.0479567
  17.7526247  53.8151461  68.8144811  30.5406457  51.5938834  62.4120833
  31.4524313  51.8266221  62.2368530  30.0316104  52.1775879  61.8495911
  23.6372887  52.4362213  63.8774064  24.3396930  52.8883257  64.3447991
  23.3053515  51.7946032  64.5053958  17.3798221  50.6945766  69.1791198
  16.5897275  50.9503295  68.7031309  17.8709468  51.5094104  69.2843239
  19.3312966  51.0590345  66.1374675  18.5344129  51.1709040  66.6558170
  19.1038558  51.3976997  65.2715565  15.6635924  50.9476256  71.6106189
  15.9143962  51.8323266  71.8763765  16.1995472  50.7680858  70.8381281
  18.3296049  56.7678594  64.5264095  18.8420569  57.5621844  64.6769659
  18.9818762  56.0704884  64.4597696  20.1390934  59.8844350  66.6086848
  20.3157562  60.8062315  66.4207832  20.9347767  59.5702770  67.0381228
  21.2622249  61.4022524  72.6097190  21.8129674  61.2739587  71.8374184
  20.4233725  61.7017413  72.2592083  16.2944966  55.0967248  65.3023665
  17.1320188  55.5064257  65.0857373  16.4723233  54.1566690  65.2723859
  28.1909398  52.7642329  60.9907498  27.6756021  53.5346934  61.2295886
  27.9186706  52.0907465  61.6140560  23.5498541  45.2277103  69.4550478
  24.4151538  45.0319911  69.0956368  23.6176050  44.9987455  70.3819835
  27.9795701  50.6369421  62.8167279  27.6745836  50.9515570  63.6677423
  28.9326143  50.7150841  62.8594612  21.4830447  49.4883772  60.8462730
  20.6467760  49.8258458  61.1672005  21.3435217  49.3532751  59.9089867
  23.4583528  44.3320560  65.5541914  22.8047940  44.0169577  64.9298529
  23.4164002  43.7096300  66.2801737  24.5694733  54.6139855  57.4695206
  23.6621795  54.3829108  57.6686355  25.0665765  53.8177474  57.6569188
  27.4762812  63.3237362  60.3891893  26.8024511  63.6269059  60.9976850
  27.8628634  64.1266442  60.0397350  25.7482966  54.7152450  61.9919197
  24.8394186  54.4311482  62.0891666  25.7778050  55.1351528  61.1322503
  30.0246781  42.0327277  67.5852801  30.3305657  41.1724640  67.2978716
  30.7499385  42.6244897  67.3851795  16.3171137  52.4357964  65.9734399
  16.1195537  51.8427324  65.2485465  15.7617801  52.1310174  66.6910338
  25.4459054  56.2561193  59.3307275  25.0078484  55.5397052  58.8712912
  26.1869495  56.4837308  58.7692366  21.7274295  48.5176485  71.4680606
  22.3673674  48.3765244  70.7703569  20.8951826  48.2310999  71.0919208
  18.8117362  51.9621998  63.6575351  17.8814951  51.9006453  63.8745313
  18.9074834  51.4397950  62.8611992  18.7302912  48.4876810  66.2453592
  18.9909729  49.4022144  66.1362753  19.5520084  48.0201253  66.3950205
  20.2027837  49.9014568  73.4152417  20.8750890  49.6931930  72.7665066
  19.3757623  49.7036654  72.9757649  25.6754027  63.4917034  62.6038972
  25.8505783  63.0205077  63.4184594  24.9886815  64.1182800  62.8320232
  29.5670282  55.1145575  58.9239333  28.9499452  54.3892403  58.8272385
  29.0986770  55.8754935  58.5806407  21.3568828  49.3330999  58.0460637
  20.4798294  49.2119800  57.6822884  21.8326581  48.5417077  57.7939526
  12.8770968  54.1208159  68.1402144  13.5642008  53.8069889  67.5523159
  12.7219097  55.0249524  67.8669396  17.6805690  49.0098355  72.5687168
  17.5963879  48.4024025  71.8337578  16.8588396  49.5007374  72.5696664
  22.2653571  60.0966797  74.7584065  22.9663031  60.7303280  74.9113460
  21.7948686  60.4381529  73.9979705  17.8621289  59.6303152  71.6915168
  18.4474726  58.8846840  71.8243072  17.6646128  59.9407109  72.5751832
  12.4538944  52.2008752  70.4119611  12.4923043  51.6672343  71.2056729
  11.9479237  51.6743958  69.7930588  24.8565213  64.6998143  73.3060269
  25.4083521  64.8629764  74.0709354  25.1971406  65.2902581  72.6340294
  19.8329706  47.0473293  73.9082154  19.8971033  47.9088124  73.4959551
  19.7696827  46.4347294  73.1754512  16.0847522  50.9272854  63.4873543
  16.3800963  50.0183533  63.4340596  15.1835557  50.9060594  63.1654545
  19.6141769  49.0028851  69.4701091  18.8928354  49.6164819  69.3308565
  20.4035024  49.5386616  69.3917737  17.8135363  48.6086952  63.6112868
  17.4848069  47.7284331  63.4287974  18.1674734  48.5534621  64.4989257
  20.9277186  48.8959922  63.9788345  21.2673259  49.4245843  63.2566954
  21.3749307  49.2340328  64.7546912  23.6220627  47.2796973  73.4291413
  23.2817447  46.4804786  73.8312093  22.9159633  47.5798683  72.8568247
  24.2737099  44.3646285  71.8818737  25.0963168  43.8906763  71.7597627
  24.5175162  45.1436769  72.3817423  22.9145333  47.3934543  62.1781638
  23.6353696  47.7715796  61.6745355  22.2910638  48.1123420  62.2816616
  27.0576456  48.0979692  63.1139971  27.2740071  48.9804330  62.8128799
  26.5770523  47.7065906  62.3845613  16.2721340  53.5970750  72.6298376
  15.7274808  54.3730558  72.7618651  17.1500690  53.9441554  72.4717498
  25.9300147  44.6137244  68.1445895  25.9521844  44.6776577  67.1897874
  26.3468206  43.7741753  68.3386401  17.0587362  52.7240646  75.5228533
  16.3169098  52.8723282  76.1093164  16.7380106  52.9848912  74.6595283
  25.0031024  62.2656625  75.3208923  25.3118151  62.0205771  76.1931623
  25.8006506  62.4703263  74.8327793  17.5043975  60.6106075  67.5538928
  18.3301995  60.3109847  67.1737571  17.1538027  59.8413697  68.0028716
  15.7052580  58.5292401  68.5127861  14.8684489  58.1014576  68.3311863
  15.6776226  58.7224845  69.4498653  19.7891648  54.5401644  64.1056131
  19.5437690  53.6363974  64.3036341  19.9587563  54.5418795  63.1635609
  19.0587296  50.2730002  61.6042292  18.3656541  50.3474357  60.9482328
  18.8139048  49.5090345  62.1263809  27.7300952  41.8325603  69.0081783
  28.0102706  41.1648792  69.6342210  28.5151559  42.0254699  68.4956447
  25.5334421  61.0084597  60.5706809  24.9608388  61.6274784  60.1177281
  26.1067215  61.5583959  61.1046731  31.3819697  60.6087617  58.6619339
  31.3033329  60.2747481  59.5555097  32.2029364  61.1009385  58.6610812
  25.9181219  52.3445410  57.9122862  26.8640324  52.2151618  57.9811280
  25.5395464  51.6060072  58.3892290  24.1024137  50.2695386  57.8477747
  23.1955592  49.9728499  57.9240461  24.3800118  49.9725204  56.9812033
  15.0202077  51.5901750  68.2976793  14.7004861  50.7367058  68.0051167
  14.4735505  51.8050328  69.0534761  25.7186202  44.8132276  64.0021988
  24.9086931  44.4679361  64.3777234  26.4070619  44.5039820  64.5909600
  27.6476751  43.8910323  65.6246285  28.2007789  44.3105776  66.2836308
  27.8846837  42.9646071  65.6669241  22.8722921  47.1282321  57.9889726
  23.7342085  47.4537220  58.2485544  23.0573265  46.3413817  57.4762792
  14.8890337  55.2104661  70.2669915  14.1953808  54.7958614  69.7539869
  15.6363328  55.2525198  69.6703334  16.8027080  55.1422915  68.1435930
  16.7797768  55.2410602  67.1917813  17.1127716  55.9888066  68.4653096
  17.8164686  62.7418689  69.2752742  17.6819154  61.9819090  68.7090740
  17.3996748  63.4659589  68.8081531  28.9523649  57.9255613  58.2829318
  29.6559499  58.1305615  58.8986973  28.2286298  58.4932375  58.5478401
  30.8610347  58.3638142  60.3327778  31.6955951  57.9319341  60.1505252
  30.6994690  58.1920156  61.2604672  30.5156239  54.8670255  61.6984117
  30.4605043  54.7014527  60.7572561  29.8902294  55.5746288  61.8546307
  15.3048754  50.1038320  75.5245539  15.9507617  49.5937274  76.0132764
  15.0965905  50.8407001  76.0988964  23.8252364  44.3678364  61.2769435
  23.8131034  45.3120204  61.4337706  24.7175786  44.1848510  60.9828896
  21.9988326  64.2916268  72.7027113  22.9015573  64.3239879  73.0193608
  21.7725696  63.3616719  72.7173449  27.6404484  40.9621141  65.5315372
  26.8736880  40.4079628  65.6772054  28.0515189  41.0343010  66.3929524
  39.4894622  68.8807793  70.4282954  40.1273032  68.7614541  69.7246294
  39.3715465  69.8288637  70.4870906  36.2984328  68.8335221  70.3644479
  35.9602840  68.7176286  69.4765014  37.1674096  68.4326386  70.3445485
  32.1571144  70.6870698  66.3541370  31.5936009  70.5960635  65.5857658
  32.0423539  69.8670602  66.8343863  36.7804111  69.9870073  76.3230685
  36.7692752  69.5922871  75.4511188  36.9424750  69.2536146  76.9164456
  29.7035576  72.1821889  69.1925590  30.4956868  71.8412714  68.7771890
  29.9432226  72.2916864  70.1127744  37.7370702  74.3541665  61.6655835
  37.0858682  74.9395746  61.2789849  38.5315065  74.8847860  61.7250872
  31.6626330  71.4430803  62.0642969  32.4357206  70.8959790  61.9255845
  32.0151728  72.3075052  62.2757431  33.5011372  72.7707185  75.2709869
  33.2101238  73.6752816  75.1556535  34.1368356  72.8123712  75.9853938
  34.4267579  70.1484033  71.8611228  35.0231151  69.9240056  71.1468191
  34.4842551  69.4068779  72.4636676  33.9992607  67.6023469  59.6961419
  34.2518128  67.0804990  58.9344882  33.0617166  67.4389614  59.7988103
  39.2145968  72.0432097  62.2024819  38.5791801  72.1166724  62.9145724
  38.8843374  72.6325696  61.5243898  44.4444317  66.5434480  68.4069141
  45.1769489  65.9733697  68.6406970  43.6883673  66.1556081  68.8475646
  33.7188896  69.5051575  61.8985794  33.6025154  68.8296478  62.5666878
  33.8291156  69.0183949  61.0817947  36.0620437  68.9661722  65.6032483
  35.6978644  68.4392343  66.3145405  36.9187553  68.5760191  65.4298969
  35.7025924  63.9951621  60.5993832  35.8700326  64.8631858  60.9664303
  35.5123093  64.1578903  59.6755121  38.4601257  72.4568600  72.2659662
  38.1601980  73.3593639  72.1575469  38.1152317  72.1900784  73.1180815
  31.9113739  68.9082397  68.2996367  30.9864235  68.7758611  68.5074058
  32.1598152  69.6876616  68.7966309  35.6815145  66.4509279  61.5840499
  35.5614770  66.8966330  62.4225979  34.9867733  66.7994597  61.0254037
  29.2722550  68.5515671  69.1340156  29.4014931  68.8050150  70.0479567
  28.5920001  69.1443379  68.8144811  33.4422037  79.2212921  65.2330630
  33.3646067  80.1720746  65.3119110  32.8383681  78.8758793  65.8905556
  35.9339267  66.3940786  77.8891997  35.1572601  66.9534706  77.8794861
  36.5729830  66.8797569  78.4106867  41.3800211  66.9230752  62.4120833
  42.2918067  67.1558139  62.2368530  40.8709858  67.5067796  61.8495911
  34.1885639  69.2026239  77.4509964  34.9300323  69.7411283  77.1744787
  33.4822625  69.8292528  77.6081516  39.6640979  71.3455380  76.0482125
  40.0724335  70.9037790  75.3036758  38.9418240  70.7708007  76.3016318
  36.0172049  66.2827987  73.4215682  36.8633244  66.7067400  73.5650331
  35.9570686  65.6261611  74.1154245  39.9869793  71.9056571  69.8034414
  39.3578656  72.0702285  69.1010482  39.5995455  72.3198180  70.5745378
  43.8659025  72.8411008  67.1578778  43.1810063  73.2209910  66.6075811
  43.9502875  73.4506335  67.8910726  41.1209957  70.4870967  73.7574121
  41.3326852  71.1302727  73.0808503  41.0739705  69.6533284  73.2896052
  35.5397755  71.6430979  67.0684499  36.0036101  71.9218682  66.2789122
  35.2754553  70.7414423  66.8857590  32.4321836  71.1902460  70.0064263
  33.0023193  71.6189729  69.3681747  33.0229948  70.9085045  70.7048448
  34.4766641  67.7654131  63.8774064  35.1790685  68.2175175  64.3447991
  34.1447270  67.1237950  64.5053958  32.9247003  66.3565888  78.2525274
  32.2945663  67.0382169  78.4860671  32.8183091  66.2448969  77.3078412
  42.2355785  73.3642923  71.9296479  43.0573229  72.9623110  71.6479160
  42.2318188  73.2611157  72.8812595  30.1706721  66.3882263  66.1374675
  29.3737884  66.5000957  66.6558170  29.9432313  66.7268915  65.2715565
  36.0012388  72.9126966  74.0857189  36.0656821  73.3747373  74.9215361
  35.2923312  72.2824331  74.2139499  26.5029678  66.2768174  71.6106189
  26.7537717  67.1615184  71.8763765  27.0389227  66.0972776  70.8381281
  50.3261778  69.7081671  68.2781450  49.5725486  69.1389069  68.1225455
  50.4609319  69.6744336  69.2252085  35.7160406  74.5795074  63.9536170
  35.5806081  75.4246609  64.3821017  36.2570218  74.7814351  63.1902103
  29.1689803  72.0970512  64.5264095  29.6814324  72.8913762  64.6769659
  29.8212516  71.3996802  64.4597696  30.9784688  75.2136268  66.6086848
  31.1551316  76.1354233  66.4207832  31.7741522  74.8994687  67.0381228
  30.2637045  67.2600900  76.4849011  30.1490560  66.3586157  76.7856110
  29.4081562  67.5064597  76.1333828  37.3428882  75.2018640  78.0836512
  36.8992737  74.4155019  77.7657416  38.0046096  75.3897791  77.4180403
  32.1016003  76.7314442  72.6097190  32.6523429  76.6031505  71.8374184
  31.2627479  77.0309331  72.2592083  39.4410120  75.4821440  76.1117913
  39.4228596  76.3030321  75.6198182  40.3630040  75.3575515  76.3368054
  35.8983175  72.9965570  76.9541421  36.4311511  72.2353858  76.7240729
  35.3697256  72.7039221  77.6965576  27.1338720  70.4259166  65.3023665
  27.9713942  70.8356174  65.0857373  27.3116988  69.4858608  65.2723859
  39.0303152  68.0934247  60.9907498  38.5149776  68.8638851  61.2295886
  38.7580461  67.4199383  61.6140560  44.0037426  70.8466601  62.9260672
  43.2266869  70.5077761  62.4815834  44.6828907  70.8519224  62.2515637
  38.8189455  65.9661339  62.8167279  38.5139591  66.2807488  63.6677423
  39.7719898  66.0442759  62.8594612  37.2635887  72.1251562  64.4660233
  36.7357249  71.3904322  64.1533471  36.7623390  72.9026238  64.2200202
  42.2428733  70.3200583  69.5827280  41.5852408  71.0099844  69.6707408
  43.0469132  70.7097014  69.9261266  41.0534192  68.6744955  67.6331221
  41.5666074  69.3074947  68.1352931  41.7035416  68.0746151  67.2674581
  32.3224202  64.8175689  60.8462730  31.4861514  65.1550376  61.1672005
  32.1828972  64.6824669  59.9089867  35.4088487  69.9431772  57.4695206
  34.5015549  69.7121026  57.6686355  35.9059519  69.1469392  57.6569188
  38.3156566  78.6529280  60.3891893  37.6418265  78.9560976  60.9976850
  38.7022388  79.4558360  60.0397350  38.3150071  67.5485826  65.0092242
  39.0621890  68.0607224  64.6999364  38.5841660  67.2269879  65.8696636
  36.5876721  70.0444367  61.9919197  35.6787940  69.7603400  62.0891666
  36.6171805  70.4643446  61.1322503  41.8195988  73.6550957  65.7610364
  41.3658315  72.8141867  65.8175555  41.1889955  74.2912355  66.0985144
  40.2628928  75.4927453  66.6960182  40.5551902  76.0532510  65.9772548
  40.7727548  75.7856014  67.4513341  36.2852809  71.5853111  59.3307275
  35.8472239  70.8688970  58.8712912  37.0263250  71.8129226  58.7692366
  35.2262553  76.2707804  67.7853635  35.1838732  76.4968651  66.8562167
  36.1425252  76.0371179  67.9339437  44.4025923  69.8610308  65.3883594
  44.2643822  70.0511904  64.4604783  44.0462142  70.6229691  65.8451645
  44.4295303  71.9286835  70.3994865  44.8631810  71.8362124  71.2477919
  45.1426884  71.9044335  69.7614881  33.3428353  73.1470833  67.5815598
  34.1368952  72.6521154  67.3798173  32.6320046  72.6188697  67.2183304
  38.1623198  75.5288929  71.9327966  38.2160220  76.0979865  72.7005682
  37.2937979  75.6990814  71.5682003  29.6511117  67.2913915  63.6575351
  28.7208705  67.2298371  63.8745313  29.7468589  66.7689868  62.8611992
  31.0421591  65.2306485  73.4152417  31.7144645  65.0223847  72.7665066
  30.2151378  65.0328571  72.9757649  45.2910853  71.9710536  72.9327751
  45.4846743  72.8756346  73.1787025  45.1911471  71.5117955  73.7666336
  40.3525961  72.1217278  78.5068631  40.2011468  71.8927830  77.5898715
  40.3430641  73.0787880  78.5199976  37.1211298  69.6949191  73.4914898
  38.0503358  69.8460351  73.3183865  36.7002328  69.7833212  72.6363544
  35.9199629  73.7199855  71.2613435  35.7810715  73.3518640  72.1339373
  35.1314226  74.2347495  71.0897393  36.5147781  78.8208952  62.6038972
  36.6899537  78.3496995  63.4184594  35.8280569  79.4474718  62.8320232
  37.4704845  73.0981458  68.6502273  37.1354677  73.0582228  69.5459923
  36.9708790  72.4326174  68.1772683  31.4449089  68.5049088  74.1754854
  31.3068887  67.7729327  74.7766393  32.3554012  68.4157988  73.8939042
  40.4064036  70.4437493  58.9239333  39.7893207  69.7184321  58.8272385
  39.9380525  71.2046853  58.5806407  34.0731389  68.2169048  73.6638534
  34.7831008  67.5762240  73.6225152  34.0300697  68.4681942  74.5864715
  42.0618168  75.1536401  76.5845113  42.0030714  74.4695621  75.9175696
  42.4637686  75.8955391  76.1325739  31.0808867  81.9698315  69.3778832
  31.3205465  82.6016839  70.0557850  30.2378063  81.6186355  69.6644191
  32.1962582  64.6622917  58.0460637  31.3192049  64.5411718  57.6822884
  32.6720335  63.8708995  57.7939526  42.0635575  73.1175985  74.8159093
  41.1762354  72.7801907  74.9385492  42.6334126  72.3859016  75.0527858
  28.5199444  64.3390273  72.5687168  28.4357633  63.7315943  71.8337578
  27.6982151  64.8299291  72.5696664  35.5936729  77.7777437  71.7820336
  35.5206900  78.5832409  72.2939640  35.1514122  77.9769403  70.9568357
  35.3826508  77.0149207  65.2923157  34.5994030  77.5570887  65.3861382
  36.0819253  77.5323187  65.6917399  46.5452916  68.5284202  69.5775654
  46.5342792  69.4108918  69.2069587  45.6770295  68.1755753  69.3830191
  38.0535412  77.6764271  73.9378495  38.7663384  78.3111736  73.8654396
  37.5625441  77.7728137  73.1218496  39.7752939  71.5815524  65.5095786
  38.8409218  71.7016986  65.3400491  39.9529607  70.6787991  65.2455796
  43.1625490  67.4232843  66.0445820  43.6285943  68.2560835  65.9706123
  43.6132991  66.9577825  66.7491079  33.1047326  75.4258715  74.7584065
  33.8056785  76.0595198  74.9113460  32.6342441  75.7673446  73.9979705
  41.2301721  73.7676664  63.0431972  41.5061565  73.6533259  63.9525846
  40.3606220  73.3694149  63.0044146  40.9048612  67.9803322  72.5836616
  40.2520062  68.2279230  71.9289068  41.2828992  67.1667460  72.2499093
  37.8655785  78.0163015  66.6864786  38.0478180  77.1984671  67.1492538
  38.6888772  78.2330708  66.2489676  38.1997951  76.9431200  63.9479835
  38.7285717  76.4323655  63.3349997  38.4626171  76.6273731  64.8125368
  36.9536185  68.7223133  79.0702653  36.2776822  68.6217262  79.7405028
  37.7763819  68.5662347  79.5338650  28.7015044  74.9595070  71.6915168
  29.2868481  74.2138758  71.8243072  28.5039882  75.2699026  72.5751832
  31.5553699  77.9946317  66.7077610  30.8864074  78.4792445  66.2241651
  31.4166569  78.2415538  67.6220989  35.6958968  80.0290061  73.3060269
  36.2477276  80.1921682  74.0709354  36.0365161  80.6194498  72.6340294
  40.5469842  74.8551318  79.1608923  41.0909746  75.4681276  78.6663878
  39.9656687  75.4130897  79.6775936  26.9241276  66.2564772  63.4873543
  27.2194717  65.3475450  63.4340596  26.0229312  66.2352512  63.1654545
  38.8327355  77.9772036  70.2923951  38.7078494  77.1761776  69.7834896
  39.4906446  78.4718229  69.8037921  40.8962263  75.7781056  71.9203501
  39.9492599  75.6586407  71.8481828  41.2445036  74.8903554  72.0029763
  37.9008696  75.5733772  68.1207853  37.7533659  74.6450480  68.3015423
  38.7262190  75.5953863  67.6364929  41.5042818  76.3962331  69.2072726
  42.4289366  76.1905192  69.0697177  41.3358122  76.1478732  70.1162068
  41.2938135  76.9147999  64.5634818  41.4675012  76.3494421  63.8108670
  41.7867026  77.7148893  64.3814307  27.1115094  68.9262668  72.6298376
  26.5668562  69.7022476  72.7618651  27.9894444  69.2733472  72.4717498
  47.1477526  69.6784422  66.1825117  47.5908672  68.9291747  65.7844241
  46.2704036  69.6694558  65.7998849  42.2813307  76.2314763  61.6631716
  42.9764212  76.8521456  61.8819030  42.6236457  75.3810114  61.9384094
  27.8981116  68.0532564  75.5228533  27.1562852  68.2015199  76.1093164
  27.5773860  68.3140830  74.6595283  44.1804730  73.6814469  63.1919047
  44.7056054  74.0201741  62.4668367  44.0927083  72.7461484  63.0082181
  35.8424779  77.5948542  75.3208923  36.1511905  77.3497689  76.1931623
  36.6400261  77.7995181  74.8327793  35.8645391  79.7486452  67.5514300
  35.4250381  79.2562831  68.2447156  36.6153508  79.2059419  67.3106375
  28.3437730  75.9397993  67.5538928  29.1695750  75.6401765  67.1737571
  27.9931782  75.1705615  68.0028716  33.3119263  75.2924461  69.6236601
  32.6899272  74.6295166  69.3238829  33.9824130  75.3185593  68.9410249
  26.5446335  73.8584319  68.5127861  25.7078243  73.4306493  68.3311863
  26.5169980  74.0516762  69.4498653  43.8698636  74.3147372  78.4970245
  43.0794180  74.2971511  77.9574744  43.6331991  74.8535666  79.2519281
  43.9896511  71.1639839  75.8102973  44.0394516  70.9989846  76.7518496
  43.8810435  70.2967098  75.4200854  32.8732770  73.8428384  63.0995062
  33.0220890  74.5263849  62.4461735  33.6799213  73.8233474  63.6144518
  45.4914708  73.5836780  76.0544995  45.1999516  73.9466761  76.8908456
  44.8786839  72.8703788  75.8758327  46.6910390  71.1489660  68.5747565
  47.5257282  71.5879464  68.7385125  46.8269519  70.6728313  67.7555811
  43.7401896  68.7069395  74.5225053  44.2156018  68.8997041  73.7143904
  42.8167462  68.7628581  74.2768436  30.6285403  69.8693562  64.1056131
  30.3831445  68.9655892  64.3036341  30.7981317  69.8710712  63.1635609
  29.8981050  65.6021919  61.6042292  29.2050295  65.6766274  60.9482328
  29.6532802  64.8382263  62.1263809  36.3728175  76.3376515  60.5706809
  35.8002143  76.9566702  60.1177281  36.9460969  76.8875876  61.1046731
  39.5925435  76.6213665  61.7015392  40.5256108  76.5559227  61.9048267
  39.5048648  77.4569932  61.2429924  42.2213452  75.9379535  58.6619339
  42.1427083  75.6039399  59.5555097  43.0423119  76.4301303  58.6610812
  44.9191643  68.8041274  71.8695658  44.8867963  67.8657275  72.0555342
  45.5292267  68.8825311  71.1361483  36.7574974  67.6737327  57.9122862
  37.7034079  67.5443536  57.9811280  36.3789219  66.9351989  58.3892290
  50.7368193  69.8657281  71.0101695  51.4671581  69.6042569  71.5709398
  50.1275138  69.1286003  71.0503763  36.6413667  71.7255074  79.3723519
  37.5616676  71.9033673  79.5663565  36.6063250  70.7811119  79.2203218
  34.9417891  65.5987304  57.8477747  34.0349347  65.3020417  57.9240461
  35.2193872  65.3017122  56.9812033  29.6375739  69.6356108  72.0146300
  29.8561749  70.5673216  72.0334334  30.0501513  69.2764083  72.8001104
  33.7116676  62.4574239  57.9889726  34.5735840  62.7829137  58.2485544
  33.8967020  61.6705735  57.4762792  25.7284092  70.5396579  70.2669915
  25.0347563  70.1250532  69.7539869  26.4757083  70.5817115  69.6703334
  34.3734874  68.6386453  80.2214111  33.8901956  69.4386813  80.4278000
  34.4595813  68.6494398  79.2681555  27.6420834  70.4714833  68.1435930
  27.6191522  70.5702520  67.1917813  27.9521471  71.3179983  68.4653096
  30.3008212  72.5290988  72.2582544  31.2551465  72.4974930  72.1912476
  30.1020735  72.0681611  73.0732770  30.8907594  71.0992104  74.8253342
  31.7100483  71.5936182  74.8488179  31.1644402  70.1824072  74.7970910
  28.6558441  78.0710607  69.2752742  28.5212909  77.3111008  68.7090740
  28.2390503  78.7951507  68.8081531  39.7917404  73.2547531  58.2829318
  40.4953254  73.4597533  58.8986973  39.0680052  73.8224292  58.5478401
  40.6215214  69.0057392  64.4031588  40.5650415  69.4625943  63.5639220
  41.1743556  68.2448076  64.2254430  31.8127567  78.9679924  69.4871185
  31.6959951  79.9125357  69.3849875  30.9920013  78.6653486  69.8756984
  41.7004101  73.6930060  60.3327778  42.5349705  73.2611258  60.1505252
  41.5388444  73.5212073  61.2604672  41.3549993  70.1962173  61.6984117
  41.2998797  70.0306445  60.7572561  40.7296049  70.9038206  61.8546307
  26.1442508  65.4330237  75.5245539  26.7901372  64.9229191  76.0132764
  25.9359659  66.1698919  76.0988964  38.6695900  72.5011085  81.0237680
  39.5387060  72.6751737  80.6624315  38.1902652  73.3205502  80.9013409
  32.8382081  79.6208186  72.7027113  33.7409327  79.6531796  73.0193608
  32.6119451  78.6908637  72.7173449  34.5935683  78.3739172  69.3637192
  33.6431314  78.3741034  69.2501564  34.8968169  77.6271907  68.8473227
  50.3288376  84.2099711  70.4282954  50.9666786  84.0906458  69.7246294
  50.2109219  85.1580555  70.4870906  47.1378082  84.1627139  70.3644479
  46.7996594  84.0468204  69.4765014  48.0067851  83.7618304  70.3445485
  47.6197865  85.3161991  76.3230685  47.6086506  84.9214789  75.4511188
  47.7818505  84.5828063  76.9164456  40.5429330  87.5113807  69.1925590
  41.3350622  87.1704632  68.7771890  40.7825980  87.6208782  70.1127744
  42.5020084  86.7722720  62.0642969  43.2750960  86.2251707  61.9255845
  42.8545483  87.6366970  62.2757431  44.3405127  88.0999103  75.2709869
  44.0494993  89.0044733  75.1556535  44.9762111  88.1415630  75.9853938
  45.2661333  85.4775951  71.8611228  45.8624906  85.2531973  71.1468191
  45.3236305  84.7360697  72.4636676  49.8829645  81.9351165  67.5036162
  50.6692734  81.5170588  67.1526579  50.1468349  82.8397257  67.6717811
  49.2995012  87.7860518  72.2659662  48.9995735  88.6885557  72.1575469
  48.9546071  87.5192701  73.1180815  40.1116304  83.8807588  69.1340156
  40.2408685  84.1342067  70.0479567  39.4313756  84.4735296  68.8144811
  44.2815792  94.5504838  65.2330630  44.2039821  95.5012663  65.3119110
  43.6777435  94.2050711  65.8905556  46.7733021  81.7232704  77.8891997
  45.9966355  82.2826624  77.8794861  47.4123584  82.2089487  78.4106867
  45.0279394  84.5318157  77.4509964  45.7694078  85.0703201  77.1744787
  44.3216379  85.1584446  77.6081516  46.8565803  81.6119904  73.4215682
  47.7026998  82.0359318  73.5650331  46.7964441  80.9553529  74.1154245
  49.5629940  78.4280706  70.6610694  48.7014419  78.7261959  70.9527431
  49.5892375  78.6451105  69.7291726  43.7640757  81.6857805  78.2525274
  43.1339418  82.3674086  78.4860671  43.6576845  81.5740887  77.3078412
  39.0585730  81.3529601  69.1791198  38.2684784  81.6087130  68.7031309
  39.5496977  82.1677939  69.2843239  41.0100475  81.7174181  66.1374675
  40.2131638  81.8292875  66.6558170  40.7826067  82.0560833  65.2715565
  46.8406143  88.2418884  74.0857189  46.9050575  88.7039291  74.9215361
  46.1317067  87.6116249  74.2139499  37.3423433  81.6060092  71.6106189
  37.5931471  82.4907102  71.8763765  37.8782981  81.4264693  70.8381281
  43.0421500  75.9878571  80.6150525  42.6488446  75.4344770  81.2898169
  43.8587640  76.2989150  81.0057042  40.0083558  87.4262429  64.5264095
  40.5208078  88.2205680  64.6769659  40.6606271  86.7288720  64.4597696
  41.8178443  90.5428186  66.6086848  41.9945071  91.4646150  66.4207832
  42.6135276  90.2286605  67.0381228  45.9589461  77.4036450  78.2070781
  46.6999174  78.0043603  78.1275244  46.1907384  76.6614088  77.6488824
  41.1030799  82.5892818  76.4849011  40.9884314  81.6878075  76.7856110
  40.2475317  82.8356514  76.1333828  48.1822637  90.5310558  78.0836512
  47.7386491  89.7446936  77.7657416  48.8439850  90.7189708  77.4180403
  42.9409758  92.0606359  72.6097190  43.4917183  91.9323423  71.8374184
  42.1021234  92.3601248  72.2592083  50.2803875  90.8113358  76.1117913
  50.2622350  91.6322239  75.6198182  51.2023795  90.6867433  76.3368054
  46.7376929  88.3257487  76.9541421  47.2705266  87.5645775  76.7240729
  46.2091010  88.0331139  77.6965576  49.9046624  73.4317553  72.4835063
  49.5610893  74.3219195  72.4074174  50.2725587  73.2419211  71.6204648
  37.9732475  85.7551084  65.3023665  38.8107697  86.1648092  65.0857373
  38.1510742  84.8150526  65.2723859  47.4544018  78.2675865  66.0492737
  46.5985614  77.8782716  65.8698375  47.8670970  78.3467826  65.1892522
  48.9843164  75.8022208  70.4484296  48.4807960  75.7652344  69.6352102
  49.2773771  76.7114951  70.5080953  45.2286050  75.8860938  69.4550478
  46.0939047  75.6903747  69.0956368  45.2963559  75.6571290  70.3819835
  42.8348369  78.1163146  66.8266845  43.4092121  77.8938328  66.0940038
  43.4219352  78.1851841  67.5795446  43.1617956  80.1467607  60.8462730
  42.3255269  80.4842294  61.1672005  43.0222726  80.0116587  59.9089867
  45.1371037  74.9904395  65.5541914  44.4835449  74.6753412  64.9298529
  45.0951511  74.3680135  66.2801737  48.3708777  81.4786328  69.8789562
  47.4531339  81.7001275  69.7211250  48.7868921  81.5532639  69.0201269
  51.7034290  72.6911112  67.5852801  52.0093166  71.8308476  67.2978716
  52.4286894  73.2828733  67.3851795  37.9958646  83.0941799  65.9734399
  37.7983046  82.5011160  65.2485465  37.4405310  82.7894009  66.6910338
  43.4061804  79.1760321  71.4680606  44.0461183  79.0349080  70.7703569
  42.5739335  78.8894834  71.0919208  40.4904871  82.6205833  63.6575351
  39.5602460  82.5590288  63.8745313  40.5862343  82.0981786  62.8611992
  40.4090420  79.1460646  66.2453592  40.6697238  80.0605979  66.1362753
  41.2307593  78.6785088  66.3950205  41.8815346  80.5598403  73.4152417
  42.5538399  80.3515765  72.7665066  41.0545132  80.3620489  72.9757649
  47.7840918  77.1860344  75.4318078  47.1368833  77.8850293  75.3382554
  48.5541933  77.6196488  75.7994326  51.1919716  87.4509196  78.5068631
  51.0405222  87.2219748  77.5898715  51.1824395  88.4079797  78.5199976
  47.9605052  85.0241109  73.4914898  48.8897112  85.1752268  73.3183865
  47.5396082  85.1125130  72.6363544  47.3541536  94.1500870  62.6038972
  47.5293292  93.6788913  63.4184594  46.6674324  94.7766636  62.8320232
  42.2842843  83.8341006  74.1754854  42.1462641  83.1021245  74.7766393
  43.1947767  83.7449906  73.8939042  44.9125144  83.5460965  73.6638534
  45.6224762  82.9054157  73.6225152  44.8694452  83.7973860  74.5864715
  52.9011922  90.4828319  76.5845113  52.8424469  89.7987539  75.9175696
  53.3031441  91.2247309  76.1325739  43.6254078  80.5326183  75.4834173
  43.0891435  80.0816922  76.1355770  43.0370786  80.6672092  74.7404638
  41.9202621  97.2990232  69.3778832  42.1599219  97.9308757  70.0557850
  41.0771818  96.9478272  69.6644191  43.0356337  79.9914834  58.0460637
  42.1585803  79.8703635  57.6822884  43.5114090  79.2000913  57.7939526
  52.9029330  88.4467902  74.8159093  52.0156108  88.1093824  74.9385492
  53.4727881  87.7150934  75.0527858  34.5558477  84.7791994  68.1402144
  35.2429517  84.4653724  67.5523159  34.4006606  85.6833359  67.8669396
  39.3593199  79.6682191  72.5687168  39.2751388  79.0607860  71.8337578
  38.5375905  80.1591209  72.5696664  46.4330483  93.1069355  71.7820336
  46.3600655  93.9124326  72.2939640  45.9907876  93.3061321  70.9568357
  49.5316913  78.1535754  67.9357363  50.0285612  77.4005717  67.6158433
  48.7603894  78.1900071  67.3700572  48.8929167  93.0056189  73.9378495
  49.6057139  93.6403654  73.8654396  48.4019195  93.1020055  73.1218496
  46.1151882  80.2953137  67.6629047  45.7449669  79.7424178  68.3509953
  46.6110974  79.6911271  67.1104047  43.9441080  90.7550632  74.7584065
  44.6450540  91.3887115  74.9113460  43.4736195  91.0965364  73.9979705
  47.7929939  84.0515051  79.0702653  47.1170576  83.9509180  79.7405028
  48.6157573  83.8954265  79.5338650  39.5408798  90.2886987  71.6915168
  40.1262235  89.5430675  71.8243072  39.3433637  90.5990944  72.5751832
  42.3947453  93.3238235  66.7077610  41.7257829  93.8084362  66.2241651
  42.2560323  93.5707455  67.6220989  34.1326453  82.8592588  70.4119611
  34.1710552  82.3256178  71.2056729  33.6266746  82.3327793  69.7930588
  46.5352722  95.3581978  73.3060269  47.0871030  95.5213600  74.0709354
  46.8758915  95.9486416  72.6340294  41.5117215  77.7057128  73.9082154
  41.5758542  78.5671959  73.4959551  41.4484335  77.0931130  73.1754512
  40.9869488  79.7780261  77.5555188  41.6141527  79.3957338  78.1692712
  40.1297407  79.5594463  77.9210880  51.3863596  90.1843236  79.1608923
  51.9303500  90.7973194  78.6663878  50.8050441  90.7422814  79.6775936
  37.7635031  81.5856690  63.4873543  38.0588472  80.6767368  63.4340596
  36.8623066  81.5644429  63.1654545  41.2929278  79.6612686  69.4701091
  40.5715863  80.2748654  69.3308565  42.0822533  80.1970451  69.3917737
  44.0955591  76.9967113  75.7441743  44.6189993  77.2429409  76.5068052
  43.8767924  77.8287148  75.3244880  39.4922872  79.2670787  63.6112868
  39.1635578  78.3868166  63.4287974  39.8462243  79.2118456  64.4989257
  42.6064695  79.5543757  63.9788345  42.9460768  80.0829678  63.2566954
  43.0536816  79.8924163  64.7546912  45.3008136  77.9380808  73.4291413
  44.9604956  77.1388621  73.8312093  44.5947142  78.2382519  72.8568247
  45.9524608  75.0230120  71.8818737  46.7750677  74.5490599  71.7597627
  46.1962671  75.8020604  72.3817423  44.5932842  78.0518379  62.1781638
  45.3141205  78.4299632  61.6745355  43.9698147  78.7707256  62.2816616
  43.4763187  81.7149241  69.6910715  43.3307767  82.0289544  70.5834997
  42.9988390  82.3334141  69.1381614  45.3359570  78.7051789  69.7391605
  45.3221138  77.8092882  69.4023903  46.0531998  78.7122453  70.3729891
  47.1885700  79.1389129  71.7844732  46.9303478  80.0606200  71.7829063
  46.6570741  78.7419564  72.4745196  37.9508849  84.2554585  72.6298376
  37.4062317  85.0314393  72.7618651  38.8288199  84.6025390  72.4717498
  44.7396465  77.5866169  65.0079175  44.8612377  76.6582815  65.2070062
  44.4498508  77.6004855  64.0957490  47.6087656  75.2721080  68.1445895
  47.6309353  75.3360413  67.1897874  48.0255715  74.4325588  68.3386401
  38.7374871  83.3824482  75.5228533  37.9956607  83.5307117  76.1093164
  38.4167615  83.6432747  74.6595283  46.6818533  92.9240460  75.3208923
  46.9905660  92.6789607  76.1931623  47.4794015  93.1287098  74.8327793
  46.7039145  95.0778370  67.5514300  46.2644136  94.5854748  68.2447156
  47.4547262  94.5351337  67.3106375  39.1831484  91.2689910  67.5538928
  40.0089504  90.9693682  67.1737571  38.8325536  90.4997533  68.0028716
  44.1513018  90.6216379  69.6236601  43.5293027  89.9587084  69.3238829
  44.8217884  90.6477510  68.9410249  37.3840089  89.1876237  68.5127861
  36.5471998  88.7598411  68.3311863  37.3563735  89.3808680  69.4498653
  44.2237545  79.0998167  79.2169107  44.2725700  79.9760289  78.8346877
  44.7660059  78.5575560  78.6440751  54.7092391  89.6439290  78.4970245
  53.9187934  89.6263429  77.9574744  54.4725745  90.1827584  79.2519281
  46.4536833  79.8529539  75.9715466  45.5840143  80.1463105  75.6998055
  46.6896314  80.4369984  76.6922730  49.1575867  76.0709156  73.4880886
  49.6757811  76.8070183  73.1627375  48.8031000  76.3773149  74.3227646
  40.7374805  80.9313837  61.6042292  40.0444050  81.0058192  60.9482328
  40.4926557  80.1674181  62.1263809  49.4088461  72.4909438  69.0081783
  49.6890215  71.8232628  69.6342210  50.1939068  72.6838534  68.4956447
  47.4807421  87.0546991  79.3723519  48.4010430  87.2325590  79.5663565
  47.4457004  86.1103037  79.2203218  36.6989586  82.2485585  68.2976793
  36.3792370  81.3950893  68.0051167  36.1523014  82.4634163  69.0534761
  40.4769494  84.9648026  72.0146300  40.6955503  85.8965134  72.0334334
  40.8895267  84.6056000  72.8001104  47.3973711  75.4716111  64.0021988
  46.5874440  75.1263196  64.3777234  48.0858128  75.1623655  64.5909600
  49.3264260  74.5494158  65.6246285  49.8795298  74.9689611  66.2836308
  49.5634346  73.6229906  65.6669241  45.3497359  80.5381232  81.4049049
  45.2494086  81.4875589  81.3361140  45.1318901  80.2099471  80.5325119
  44.5510430  77.7866157  57.9889726  45.4129594  78.1121055  58.2485544
  44.7360774  76.9997653  57.4762792  36.5677846  85.8688496  70.2669915
  35.8741317  85.4542449  69.7539869  37.3150837  85.9109033  69.6703334
  52.7043067  76.6594683  65.1324949  52.1241736  77.3179487  64.7503002
  52.4378999  75.8372028  64.7212367  51.1546633  76.0599741  67.3346270
  51.6546411  76.1716275  66.5260588  51.7982241  75.7560794  67.9747078
  45.2128629  83.9678371  80.2214111  44.7295711  84.7678731  80.4278000
  45.2989568  83.9786315  79.2681555  38.4814589  85.8006750  68.1435930
  38.4585277  85.8994437  67.1917813  38.7915225  86.6471901  68.4653096
  41.1401966  87.8582905  72.2582544  42.0945220  87.8266848  72.1912476
  40.9414490  87.3973529  73.0732770  41.7301349  86.4284021  74.8253342
  42.5494238  86.9228100  74.8488179  42.0038156  85.5115989  74.7970910
  39.4952195  93.4002525  69.2752742  39.3606663  92.6402926  68.7090740
  39.0784257  94.1243425  68.8081531  42.6521321  94.2971842  69.4871185
  42.5353705  95.2417274  69.3849875  41.8313767  93.9945403  69.8756984
  36.9836263  80.7622155  75.5245539  37.6295126  80.2521109  76.0132764
  36.7753414  81.4990837  76.0988964  49.5089655  87.8303003  81.0237680
  50.3780815  88.0043655  80.6624315  49.0296406  88.6497419  80.9013409
  45.5039873  75.0262200  61.2769435  45.4918543  75.9704040  61.4337706
  46.3963295  74.8432345  60.9828896  43.6775835  94.9500104  72.7027113
  44.5803082  94.9823714  73.0193608  43.4513205  94.0200555  72.7173449
  45.4329437  93.7031090  69.3637192  44.4825068  93.7032952  69.2501564
  45.7361923  92.9563825  68.8473227  49.3191993  71.6204976  65.5315372
  48.5524389  71.0663463  65.6772054  49.7302698  71.6926845  66.3929524
  41.3233754  77.9089772  79.6220553  42.1865215  77.5526577  79.8323878
  40.7499164  77.5703667  80.3095958  57.9771837  99.4919057  70.3644479
  57.6390349  99.3760121  69.4765014  58.8461605  99.0910222  70.3445485
  58.4591620 100.6453908  76.3230685  58.4480261 100.2506707  75.4511188
  58.6212259  99.9119981  76.9164456  55.1798881 103.4291020  75.2709869
  54.8888747 104.3336651  75.1556535  55.8155865 103.4707548  75.9853938
  56.1055088 100.8067869  71.8611228  56.7018660 100.5823891  71.1468191
  56.1630060 100.0652614  72.4636676  60.1388766 103.1152436  72.2659662
  59.8389489 104.0177475  72.1575469  59.7939826 102.8484619  73.1180815
  55.1209546 109.8796756  65.2330630  55.0433576 110.8304581  65.3119110
  54.5171190 109.5342629  65.8905556  55.8673148  99.8610075  77.4509964
  56.6087832 100.3995119  77.1744787  55.1610134 100.4876364  77.6081516
  61.3428488 102.0039215  76.0482125  61.7511844 101.5621626  75.3036758
  60.6205749 101.4291843  76.3016318  57.6959558  96.9411822  73.4215682
  58.5420753  97.3651236  73.5650331  57.6358195  96.2845446  74.1154245
  62.7997466 101.1454803  73.7574121  63.0114361 101.7886563  73.0808503
  62.7527214 100.3117119  73.2896052  54.6034512  97.0149723  78.2525274
  53.9733172  97.6966004  78.4860671  54.4970600  96.9032805  77.3078412
  63.9143294 104.0226758  71.9296479  64.7360738 103.6206946  71.6479160
  63.9105697 103.9194992  72.8812595  57.6799897 103.5710802  74.0857189
  57.7444330 104.0331209  74.9215361  56.9710821 102.9408166  74.2139499
  48.1817187  96.9352010  71.6106189  48.4325226  97.8199019  71.8763765
  48.7176736  96.7556611  70.8381281  53.8815255  91.3170489  80.6150525
  53.4882200  90.7636687  81.2898169  54.6981395  91.6281067  81.0057042
  51.9424554  97.9184735  76.4849011  51.8278069  97.0169992  76.7856110
  51.0869071  98.1648432  76.1333828  59.0216391 105.8602476  78.0836512
  58.5780245 105.0738854  77.7657416  59.6833605 106.0481626  77.4180403
  53.7803512 107.3898277  72.6097190  54.3310938 107.2615340  71.8374184
  52.9414988 107.6893166  72.2592083  57.5770684 103.6549405  76.9541421
  58.1099020 102.8937693  76.7240729  57.0484765 103.3623057  77.6965576
  63.9216242 100.9784418  69.5827280  63.2639917 101.6683679  69.6707408
  64.7256641 101.3680850  69.9261266  59.9944075 109.3113115  60.3891893
  59.3205774 109.6144812  60.9976850  60.3809897 110.1142195  60.0397350
  56.9050062 106.9291640  67.7853635  56.8626240 107.1552486  66.8562167
  57.8212761 106.6955014  67.9339437  60.3515695  97.3975707  74.6834265
  60.7065083  97.6247181  75.5428730  60.9987827  97.7294084  74.0611520
  66.1082812 102.5870670  70.3994865  66.5419319 102.4945959  71.2477919
  66.8214393 102.5628171  69.7614881  59.8410707 106.1872764  71.9327966
  59.8947729 106.7563701  72.7005682  58.9725488 106.3574649  71.5682003
  52.7209100  95.8890321  73.4152417  53.3932154  95.6807683  72.7665066
  51.8938887  95.6912407  72.9757649  58.7998807 100.3533026  73.4914898
  59.7290867 100.5044186  73.3183865  58.3789837 100.4417047  72.6363544
  57.5987138 104.3783691  71.2613435  57.4598224 104.0102475  72.1339373
  56.8101735 104.8931330  71.0897393  58.1935290 109.4792787  62.6038972
  58.3687046 109.0080830  63.4184594  57.5068078 110.1058553  62.8320232
  53.1236598  99.1632924  74.1754854  52.9856396  98.4313162  74.7766393
  54.0341521  99.0741824  73.8939042  55.7518898  98.8752883  73.6638534
  56.4618517  98.2346075  73.6225152  55.7088206  99.1265778  74.5864715
  54.4647832  95.8618101  75.4834173  53.9285189  95.4108839  76.1355770
  53.8764541  95.9964010  74.7404638  52.7596376 112.6282150  69.3778832
  52.9992974 113.2600674  70.0557850  51.9165572 112.2770190  69.6644191
  45.3952231 100.1083912  68.1402144  46.0823271  99.7945642  67.5523159
  45.2400360 101.0125277  67.8669396  57.2724238 108.4361272  71.7820336
  57.1994409 109.2416244  72.2939640  56.8301631 108.6353238  70.9568357
  57.0614017 107.6733043  65.2923157  56.2781539 108.2154723  65.3861382
  57.7606762 108.1907022  65.6917399  59.7322921 108.3348107  73.9378495
  60.4450893 108.9695571  73.8654396  59.2412950 108.4311973  73.1218496
  54.7834835 106.0842550  74.7584065  55.4844294 106.7179033  74.9113460
  54.3129950 106.4257282  73.9979705  62.5836121  98.6387157  72.5836616
  61.9307571  98.8863065  71.9289068  62.9616500  97.8251296  72.2499093
  59.5443294 108.6746851  66.6864786  59.7265689 107.8568507  67.1492538
  60.3676280 108.8914543  66.2489676  59.8785460 107.6015036  63.9479835
  60.4073226 107.0907490  63.3349997  60.1413680 107.2857566  64.8125368
  58.6323694  99.3806968  79.0702653  57.9564331  99.2801098  79.7405028
  59.4551328  99.2246182  79.5338650  50.3802553 105.6178905  71.6915168
  50.9655990 104.8722593  71.8243072  50.1827391 105.9282862  72.5751832
  53.2341208 108.6530152  66.7077610  52.5651583 109.1376280  66.2241651
  53.0954078 108.8999373  67.6220989  44.9720207  98.1884505  70.4119611
  45.0104307  97.6548096  71.2056729  44.4660500  97.6619711  69.7930588
  57.3746477 110.6873896  73.3060269  57.9264785 110.8505517  74.0709354
  57.7152670 111.2778334  72.6340294  52.3510970  93.0349046  73.9082154
  52.4152296  93.8963877  73.4959551  52.2878090  92.4223047  73.1754512
  51.8263242  95.1072178  77.5555188  52.4535281  94.7249256  78.1692712
  50.9691161  94.8886380  77.9210880  48.6028785  96.9148607  63.4873543
  48.8982226  96.0059286  63.4340596  47.7016821  96.8936347  63.1654545
  60.5114864 108.6355871  70.2923951  60.3866003 107.8345611  69.7834896
  61.1693955 109.1302065  69.8037921  62.5749772 106.4364892  71.9203501
  61.6280108 106.3170243  71.8481828  62.9232545 105.5487390  72.0029763
  63.1830327 107.0546167  69.2072726  64.1076875 106.8489028  69.0697177
  63.0145631 106.8062568  70.1162068  54.3156941  97.0441159  69.6910715
  54.1701522  97.3581462  70.5834997  53.8382145  97.6626059  69.1381614
  48.7902603  99.5846503  72.6298376  48.2456071 100.3606311  72.7618651
  49.6681953  99.9317308  72.4717498  49.5768625  98.7116399  75.5228533
  48.8350361  98.8599035  76.1093164  49.2561369  98.9724665  74.6595283
  57.5212288 108.2532378  75.3208923  57.8299414 108.0081524  76.1931623
  58.3187770 108.4579016  74.8327793  57.5432900 110.4070287  67.5514300
  57.1037890 109.9146666  68.2447156  58.2941017 109.8643255  67.3106375
  54.9906772 105.9508296  69.6236601  54.3686781 105.2879001  69.3238829
  55.6611639 105.9769428  68.9410249  55.0631300  94.4290084  79.2169107
  55.1119455  95.3052207  78.8346877  55.6053814  93.8867477  78.6440751
  62.9587783  97.8054602  77.1262280  63.8597645  97.6661067  76.8346278
  63.0335757  97.9709057  78.0660457  66.5979152  99.4625110  71.8695658
  66.5655472  98.5241111  72.0555342  67.2079776  99.5409147  71.1361483
  58.3201175 102.3838909  79.3723519  59.2404185 102.5617508  79.5663565
  58.2850759 101.4394954  79.2203218  47.5383340  97.5777503  68.2976793
  47.2186125  96.7242811  68.0051167  46.9916769  97.7926081  69.0534761
  51.3163248 100.2939944  72.0146300  51.5349258 101.2257051  72.0334334
  51.7289022  99.9347918  72.8001104  56.1891113  95.8673149  81.4049049
  56.0887840  96.8167506  81.3361140  55.9712655  95.5391388  80.5325119
  47.4071600 101.1980414  70.2669915  46.7135072 100.7834367  69.7539869
  48.1544591 101.2400951  69.6703334  56.0522383  99.2970288  80.2214111
  55.5689465 100.0970648  80.4278000  56.1383322  99.3078233  79.2681555
  51.9795721 103.1874823  72.2582544  52.9338974 103.1558765  72.1912476
  51.7808244 102.7265447  73.0732770  52.5695103 101.7575939  74.8253342
  53.3887992 102.2520018  74.8488179  52.8431911 100.8407907  74.7970910
  50.3345950 108.7294442  69.2752742  50.2000418 107.9694843  68.7090740
  49.9178012 109.4535342  68.8081531  53.4915076 109.6263759  69.4871185
  53.3747460 110.5709192  69.3849875  52.6707522 109.3237321  69.8756984
  47.8230017  96.0914073  75.5245539  48.4688881  95.5813027  76.0132764
  47.6147168  96.8282754  76.0988964  54.5169590 110.2792021  72.7027113
  55.4196836 110.3115632  73.0193608  54.2906960 109.3492472  72.7173449
  56.2723192 109.0323008  69.3637192  55.3218823 109.0324869  69.2501564
  56.5755678 108.2855742  68.8473227  52.1627508  93.2381690  79.6220553
  53.0258970  92.8818495  79.8323878  51.5892919  92.8995585  80.3095958
  68.8165591 114.8210974  70.3644479  68.4784103 114.7052039  69.4765014
  69.6855360 114.4202139  70.3445485  64.6752407 116.6746451  66.3541370
  64.1117272 116.5836388  65.5857658  64.5604802 115.8546355  66.8343863
  62.2216839 118.1697642  69.1925590  63.0138131 117.8288467  68.7771890
  62.4613489 118.2792617  70.1127744  70.2551966 120.3417418  61.6655835
  69.6039946 120.9271499  61.2789849  71.0496329 120.8723613  61.7250872
  64.1807593 117.4306556  62.0642969  64.9538469 116.8835543  61.9255845
  64.5332992 118.2950805  62.2757431  66.0192636 118.7582938  75.2709869
  65.7282502 119.6628569  75.1556535  66.6549620 118.7999465  75.9853938
  66.9448842 116.1359786  71.8611228  67.5412415 115.9115809  71.1468191
  67.0023814 115.3944532  72.4636676  66.5173871 113.5899222  59.6961419
  66.7699392 113.0680743  58.9344882  65.5798430 113.4265367  59.7988103
  71.5617154 112.5935000  67.5036162  72.3480243 112.1754423  67.1526579
  71.8255858 113.4981092  67.6717811  71.7327231 118.0307850  62.2024819
  71.0973064 118.1042477  62.9145724  71.4024637 118.6201449  61.5243898
  66.2370160 115.4927328  61.8985794  66.1206418 114.8172231  62.5666878
  66.3472419 115.0059702  61.0817947  68.5801701 114.9537475  65.6032483
  68.2159908 114.4268096  66.3145405  69.4368816 114.5635944  65.4298969
  64.4295002 114.8958150  68.2996367  63.5045499 114.7634364  68.5074058
  64.6779415 115.6752369  68.7966309  68.1996408 112.4385032  61.5840499
  68.0796034 112.8842083  62.4225979  67.5048997 112.7870350  61.0254037
  61.7903813 114.5391424  69.1340156  61.9196194 114.7925903  70.0479567
  61.1101265 115.1319132  68.8144811  65.9603300 125.2088674  65.2330630
  65.8827330 126.1596499  65.3119110  65.3564944 124.8634546  65.8905556
  72.5051057 117.8932324  69.8034414  71.8759919 118.0578038  69.1010482
  72.1176719 118.3073933  70.5745378  68.0579019 117.6306732  67.0684499
  68.5217364 117.9094435  66.2789122  67.7935817 116.7290176  66.8857590
  64.9503100 117.1778213  70.0064263  65.5204457 117.6065482  69.3681747
  65.5411212 116.8960798  70.7048448  66.9947905 113.7529884  63.8774064
  67.6971948 114.2050928  64.3447991  66.6628533 113.1113703  64.5053958
  60.7373239 112.0113437  69.1791198  59.9472293 112.2670965  68.7031309
  61.2284486 112.8261775  69.2843239  62.6887984 112.3758016  66.1374675
  61.8919147 112.4876710  66.6558170  62.4613576 112.7144668  65.2715565
  68.5193652 118.9002719  74.0857189  68.5838084 119.3623126  74.9215361
  67.8104576 118.2700084  74.2139499  59.0210942 112.2643927  71.6106189
  59.2718980 113.1490937  71.8763765  59.5570490 112.0848529  70.8381281
  68.2341669 120.5670827  63.9536170  68.0987344 121.4122362  64.3821017
  68.7751482 120.7690104  63.1902103  61.6871067 118.0846265  64.5264095
  62.1995587 118.8789515  64.6769659  62.3393780 117.3872555  64.4597696
  63.4965951 121.2012021  66.6086848  63.6732580 122.1229986  66.4207832
  64.2922785 120.8870440  67.0381228  62.7818308 113.2476653  76.4849011
  62.6671823 112.3461910  76.7856110  61.9262826 113.4940350  76.1333828
  69.8610146 121.1894393  78.0836512  69.4174000 120.4030772  77.7657416
  70.5227359 121.3773544  77.4180403  64.6197267 122.7190195  72.6097190
  65.1704692 122.5907258  71.8374184  63.7808743 123.0185084  72.2592083
  68.4164438 118.9841323  76.9541421  68.9492775 118.2229611  76.7240729
  67.8878519 118.6914974  77.6965576  59.6519984 116.4134919  65.3023665
  60.4895206 116.8231927  65.0857373  59.8298251 115.4734361  65.2723859
  71.5484416 114.0810000  60.9907498  71.0331039 114.8514604  61.2295886
  71.2761724 113.4075136  61.6140560  69.1331527 108.9259700  66.0492737
  68.2773123 108.5366551  65.8698375  69.5458478 109.0051661  65.1892522
  66.9073559 106.5444773  69.4550478  67.7726556 106.3487582  69.0956368
  66.9751068 106.3155125  70.3819835  76.5218690 116.8342354  62.9260672
  75.7448133 116.4953514  62.4815834  77.2010171 116.8394977  62.2515637
  71.3370719 111.9537092  62.8167279  71.0320854 112.2683241  63.6677423
  72.2901161 112.0318512  62.8594612  69.7817151 118.1127315  64.4660233
  69.2538512 117.3780075  64.1533471  69.2804653 118.8901991  64.2200202
  73.5715456 114.6620708  67.6331221  74.0847337 115.2950700  68.1352931
  74.2216679 114.0621904  67.2674581  64.8405465 110.8051442  60.8462730
  64.0042778 111.1426129  61.1672005  64.7010235 110.6700422  59.9089867
  67.9269751 115.9307525  57.4695206  67.0196813 115.6996779  57.6686355
  68.4240783 115.1345145  57.6569188  70.8337830 124.6405033  60.3891893
  70.1599529 124.9436729  60.9976850  71.2203652 125.4434113  60.0397350
  70.8331334 113.5361579  65.0092242  71.5803153 114.0482977  64.6999364
  71.1022924 113.2145632  65.8696636  69.1057984 116.0320120  61.9919197
  68.1969204 115.7479153  62.0891666  69.1353068 116.4519199  61.1322503
  59.6746155 113.7525634  65.9734399  59.4770555 113.1594995  65.2485465
  59.1192819 113.4477845  66.6910338  67.6542878 113.6448741  68.0928992
  67.7091488 112.6922577  68.0171468  66.8434080 113.8008180  68.5770290
  68.8034072 117.5728864  59.3307275  68.3653502 116.8564723  58.8712912
  69.5444513 117.8004979  58.7692366  65.5935238 112.2625801  65.8519371
  64.7803104 112.5619971  66.2584563  66.0894232 111.8681489  66.5693853
  67.7443816 122.2583557  67.7853635  67.7019995 122.4844404  66.8562167
  68.6606515 122.0246932  67.9339437  65.8609617 119.1346587  67.5815598
  66.6550215 118.6396907  67.3798173  65.1501309 118.6064450  67.2183304
  62.1692380 113.2789668  63.6575351  61.2389969 113.2174124  63.8745313
  62.2649852 112.7565621  62.8611992  62.0877929 109.8044481  66.2453592
  62.3484747 110.7189814  66.1362753  62.9095102 109.3368924  66.3950205
  63.5602855 111.2182238  73.4152417  64.2325908 111.0099600  72.7665066
  62.7332641 111.0204324  72.9757649  68.4380893 119.7075609  71.2613435
  68.2991979 119.3394393  72.1339373  67.6495489 120.2223248  71.0897393
  69.0329045 124.8084705  62.6038972  69.2080801 124.3372748  63.4184594
  68.3461833 125.4350471  62.8320232  69.9886108 119.0857211  68.6502273
  69.6535941 119.0457981  69.5459923  69.4890054 118.4201927  68.1772683
  63.9630352 114.4924841  74.1754854  63.8250150 113.7605080  74.7766393
  64.8735276 114.4033741  73.8939042  72.9245300 116.4313246  58.9239333
  72.3074470 115.7060074  58.8272385  72.4561788 117.1922606  58.5806407
  63.5990130 127.9574068  69.3778832  63.8386728 128.5892592  70.0557850
  62.7559327 127.6062108  69.6644191  64.7143846 110.6498670  58.0460637
  63.8373312 110.5287471  57.6822884  65.1901599 109.8584748  57.7939526
  56.2345986 115.4375830  68.1402144  56.9217026 115.1237560  67.5523159
  56.0794114 116.3417194  67.8669396  61.0380708 110.3266026  72.5687168
  60.9538897 109.7191696  71.8337578  60.2163414 110.8175044  72.5696664
  68.1117992 123.7653190  71.7820336  68.0388164 124.5708162  72.2939640
  67.6695385 123.9645156  70.9568357  67.9007772 123.0024960  65.2923157
  67.1175294 123.5446640  65.3861382  68.6000517 123.5198940  65.6917399
  71.2104422 108.8119590  67.9357363  71.7073121 108.0589552  67.6158433
  70.4391403 108.8483906  67.3700572  72.2934202 117.5691277  65.5095786
  71.3590481 117.6892739  65.3400491  72.4710871 116.6663744  65.2455796
  67.7939391 110.9536973  67.6629047  67.4237178 110.4008013  68.3509953
  68.2898483 110.3495106  67.1104047  65.6228589 121.4134468  74.7584065
  66.3238049 122.0470951  74.9113460  65.1523704 121.7549199  73.9979705
  73.7482985 119.7552417  63.0431972  74.0242829 119.6409012  63.9525846
  72.8787484 119.3569902  63.0044146  70.3837049 124.0038768  66.6864786
  70.5659444 123.1860424  67.1492538  71.2070035 124.2206461  66.2489676
  70.7179214 122.9306953  63.9479835  71.2466981 122.4199408  63.3349997
  70.9807434 122.6149484  64.8125368  61.2196307 120.9470823  71.6915168
  61.8049744 120.2014511  71.8243072  61.0221146 121.2574779  72.5751832
  64.0734962 123.9822070  66.7077610  63.4045338 124.4668198  66.2241651
  63.9347832 124.2291291  67.6220989  55.8113962 113.5176423  70.4119611
  55.8498061 112.9840014  71.2056729  55.3054255 112.9911628  69.7930588
  68.2140231 126.0165814  73.3060269  68.7658539 126.1797435  74.0709354
  68.5546424 126.6070251  72.6340294  73.0651105 120.8427071  79.1608923
  73.6091009 121.4557029  78.6663878  72.4837950 121.4006650  79.6775936
  59.4422540 112.2440525  63.4873543  59.7375981 111.3351203  63.4340596
  58.5410575 112.2228265  63.1654545  71.3508618 123.9647789  70.2923951
  71.2259758 123.1637529  69.7834896  72.0087709 124.4593983  69.8037921
  62.9716787 110.3196522  69.4701091  62.2503372 110.9332489  69.3308565
  63.7610042 110.8554286  69.3917737  61.1710381 109.9254623  63.6112868
  60.8423087 109.0452002  63.4287974  61.5249752 109.8702291  64.4989257
  70.4189960 121.5609525  68.1207853  70.2714922 120.6326233  68.3015423
  71.2443453 121.5829616  67.6364929  64.2852204 110.2127593  63.9788345
  64.6248277 110.7413514  63.2566954  64.7324325 110.5507999  64.7546912
  65.1550696 112.3733076  69.6910715  65.0095276 112.6873379  70.5834997
  64.6775899 112.9917977  69.1381614  67.0147079 109.3635624  69.7391605
  67.0008647 108.4676718  69.4023903  67.7319507 109.3706288  70.3729891
  59.6296358 114.9138421  72.6298376  59.0849826 115.6898229  72.7618651
  60.5075708 115.2609225  72.4717498  74.7994570 122.2190516  61.6631716
  75.4945475 122.8397209  61.8819030  75.1417721 121.3685867  61.9384094
  60.4162380 114.0408317  75.5228533  59.6744116 114.1890952  76.1093164
  60.0955124 114.3016583  74.6595283  76.6985994 119.6690222  63.1919047
  77.2237318 120.0077494  62.4668367  76.6108346 118.7337237  63.0082181
  68.3606042 123.5824295  75.3208923  68.6693169 123.3373442  76.1931623
  69.1581524 123.7870934  74.8327793  68.3826654 125.7362205  67.5514300
  67.9431645 125.2438584  68.2447156  69.1334771 125.1935173  67.3106375
  60.8618993 121.9273746  67.5538928  61.6877013 121.6277518  67.1737571
  60.5113045 121.1581368  68.0028716  65.8300527 121.2800214  69.6236601
  65.2080536 120.6170919  69.3238829  66.5005393 121.3061346  68.9410249
  59.0627598 119.8460072  68.5127861  58.2259507 119.4182247  68.3311863
  59.0351244 120.0392516  69.4498653  65.3914033 119.8304137  63.0995062
  65.5402154 120.5139602  62.4461735  66.1980477 119.8109227  63.6144518
  63.1466666 115.8569315  64.1056131  62.9012708 114.9531645  64.3036341
  63.3162581 115.8586465  63.1635609  62.4162314 111.5897672  61.6042292
  61.7231559 111.6642027  60.9482328  62.1714066 110.8258016  62.1263809
  68.8909439 122.3252268  60.5706809  68.3183406 122.9442455  60.1177281
  69.4642233 122.8751629  61.1046731  72.1106699 122.6089418  61.7015392
  73.0437372 122.5434980  61.9048267  72.0229912 123.4445685  61.2429924
  74.7394715 121.9255288  58.6619339  74.6608347 121.5915152  59.5555097
  75.5604382 122.4177056  58.6610812  69.2756237 113.6613080  57.9122862
  70.2215342 113.5319289  57.9811280  68.8970482 112.9227742  58.3892290
  67.4599155 111.5863057  57.8477747  66.5530610 111.2896170  57.9240461
  67.7375136 111.2892875  56.9812033  58.3777095 112.9069420  68.2976793
  58.0579879 112.0534728  68.0051167  57.8310523 113.1217998  69.0534761
  62.1557003 115.6231861  72.0146300  62.3743012 116.5548969  72.0334334
  62.5682776 115.2639836  72.8001104  58.2465355 116.5272332  70.2669915
  57.5528826 116.1126285  69.7539869  58.9938346 116.5692868  69.6703334
  60.1602098 116.4590586  68.1435930  60.1372786 116.5578273  67.1917813
  60.4702734 117.3055736  68.4653096  62.8189475 118.5166741  72.2582544
  63.7732729 118.4850683  72.1912476  62.6201999 118.0557364  73.0732770
  63.4088858 117.0867857  74.8253342  64.2281747 117.5811935  74.8488179
  63.6825665 116.1699825  74.7970910  61.1739704 124.0586360  69.2752742
  61.0394172 123.2986761  68.7090740  60.7571766 124.7827260  68.8081531
  72.3098667 119.2423284  58.2829318  73.0134517 119.4473286  58.8986973
  71.5861316 119.8100045  58.5478401  73.1396477 114.9933145  64.4031588
  73.0831679 115.4501696  63.5639220  73.6924820 114.2323829  64.2254430
  64.3308830 124.9555677  69.4871185  64.2141214 125.9001110  69.3849875
  63.5101276 124.6529239  69.8756984  74.2185365 119.6805813  60.3327778
  75.0530969 119.2487011  60.1505252  74.0569708 119.5087826  61.2604672
  73.8731257 116.1837926  61.6984117  73.8180061 116.0182198  60.7572561
  73.2477312 116.8913959  61.8546307  58.6623772 111.4205990  75.5245539
  59.3082635 110.9104944  76.0132764  58.4540923 112.1574672  76.0988964
  65.3563344 125.6083939  72.7027113  66.2590591 125.6407549  73.0193608
  65.1300714 124.6784390  72.7173449  67.1116946 124.3614926  69.3637192
  66.1612577 124.3616787  69.2501564  67.4149432 123.6147660  68.8473227
  75.5146162 132.0038368  66.3541370  74.9511027 131.9128305  65.5857658
  75.3998557 131.1838273  66.8343863  73.0610594 133.4989560  69.1925590
  73.8531886 133.1580385  68.7771890  73.3007244 133.6084535  70.1127744
  81.0945720 135.6709336  61.6655835  80.4433700 136.2563417  61.2789849
  81.8890083 136.2015531  61.7250872  75.0201348 132.7598473  62.0642969
  75.7932224 132.2127460  61.9255845  75.3726746 133.6242723  62.2757431
  76.8586390 134.0874856  75.2709869  76.5676256 134.9920486  75.1556535
  77.4943374 134.1291383  75.9853938  77.3567625 128.9191139  59.6961419
  77.6093146 128.3972661  58.9344882  76.4192184 128.7557285  59.7988103
  82.5720986 133.3599768  62.2024819  81.9366819 133.4334395  62.9145724
  82.2418392 133.9493367  61.5243898  87.8019335 127.8602151  68.4069141
  88.5344507 127.2901368  68.6406970  87.0458691 127.4723751  68.8475646
  77.0763914 130.8219245  61.8985794  76.9600172 130.1464149  62.5666878
  77.1866174 130.3351619  61.0817947  79.4195455 130.2829392  65.6032483
  79.0553662 129.7560013  66.3145405  80.2762571 129.8927862  65.4298969
  79.0600942 125.3119292  60.5993832  79.2275344 126.1799529  60.9664303
  78.8698111 125.4746574  59.6755121  85.2173419 126.2918811  69.9457100
  84.3090296 126.2234220  69.6515861  85.1661015 126.7690756  70.7738925
  79.0390163 127.7676950  61.5840499  78.9189788 128.2134000  62.4225979
  78.3442751 128.1162267  61.0254037  72.6297568 129.8683341  69.1340156
  72.7589949 130.1217820  70.0479567  71.9495019 130.4611049  68.8144811
  76.7997055 140.5380591  65.2330630  76.7221085 141.4888416  65.3119110
  76.1958699 140.1926464  65.8905556  87.0835065 124.4935250  71.7234973
  86.4409446 124.7867783  71.0774768  86.5789994 124.3788170  72.5288170
  84.7375229 128.2398423  62.4120833  85.6493085 128.4725810  62.2368530
  84.2284876 128.8235467  61.8495911  83.0215997 132.6623051  76.0482125
  83.4299353 132.2205461  75.3036758  82.2993258 132.0875678  76.3016318
  83.3444811 133.2224241  69.8034414  82.7153674 133.3869955  69.1010482
  82.9570473 133.6365851  70.5745378  87.2234043 134.1578679  67.1578778
  86.5385081 134.5377580  66.6075811  87.3077893 134.7674006  67.8910726
  84.4784975 131.8038638  73.7574121  84.6901870 132.4470398  73.0808503
  84.4314723 130.9700955  73.2896052  77.8341659 129.0821802  63.8774064
  78.5365703 129.5342845  64.3447991  77.5022288 128.4405621  64.5053958
  71.5766993 127.3405354  69.1791198  70.7866047 127.5962883  68.7031309
  72.0678241 128.1553692  69.2843239  85.5930803 134.6810594  71.9296479
  86.4148247 134.2790781  71.6479160  85.5893206 134.5778828  72.8812595
  73.5281739 127.7049934  66.1374675  72.7312902 127.8168628  66.6558170
  73.3007331 128.0436586  65.2715565  79.3587406 134.2294637  74.0857189
  79.4231839 134.6915044  74.9215361  78.6498330 133.5992002  74.2139499
  69.8604696 127.5935845  71.6106189  70.1112735 128.4782855  71.8763765
  70.3964245 127.4140446  70.8381281  93.6836796 131.0249342  68.2781450
  92.9300504 130.4556740  68.1225455  93.8184337 130.9912007  69.2252085
  79.0735424 135.8962744  63.9536170  78.9381099 136.7414280  64.3821017
  79.6145236 136.0982022  63.1902103  75.5602764 121.9754324  80.6150525
  75.1669709 121.4220523  81.2898169  76.3768904 122.2864903  81.0057042
  72.5264821 133.4138182  64.5264095  73.0389342 134.2081433  64.6769659
  73.1787534 132.7164473  64.4597696  74.3359706 136.5303939  66.6086848
  74.5126334 137.4521903  66.4207832  75.1316540 136.2162358  67.0381228
  80.7003900 136.5186311  78.0836512  80.2567754 135.7322689  77.7657416
  81.3621114 136.7065461  77.4180403  75.4591021 138.0482112  72.6097190
  76.0098447 137.9199176  71.8374184  74.6202497 138.3477001  72.2592083
  82.7985138 136.7989111  76.1117913  82.7803614 137.6197992  75.6198182
  83.7205058 136.6743186  76.3368054  79.2558193 134.3133240  76.9541421
  79.7886529 133.5521528  76.7240729  78.7272274 134.0206892  77.6965576
  70.4913738 131.7426837  65.3023665  71.3288960 132.1523845  65.0857373
  70.6692006 130.8026279  65.2723859  82.3878170 129.4101917  60.9907498
  81.8724794 130.1806522  61.2295886  82.1155479 128.7367054  61.6140560
  87.3612444 132.1634272  62.9260672  86.5841887 131.8245431  62.4815834
  88.0403925 132.1686895  62.2515637  82.1764473 127.2829009  62.8167279
  81.8714609 127.5975159  63.6677423  83.1294915 127.3610429  62.8594612
  80.6210905 133.4419233  64.4660233  80.0932267 132.7071992  64.1533471
  80.1198408 134.2193909  64.2200202  85.6003751 131.6368253  69.5827280
  84.9427426 132.3267515  69.6707408  86.4044150 132.0264685  69.9261266
  84.4109210 129.9912626  67.6331221  84.9241092 130.6242618  68.1352931
  85.0610434 129.3913821  67.2674581  75.6799220 126.1343360  60.8462730
  74.8436532 126.4718047  61.1672005  75.5403990 125.9992340  59.9089867
  78.7663505 131.2599443  57.4695206  77.8590567 131.0288696  57.6686355
  79.2634537 130.4637062  57.6569188  81.6731584 139.9696950  60.3891893
  80.9993283 140.2728647  60.9976850  82.0597406 140.7726031  60.0397350
  79.9451739 131.3612038  61.9919197  79.0362958 131.0771071  62.0891666
  79.9746823 131.7811116  61.1322503  85.1771006 134.9718627  65.7610364
  84.7233333 134.1309537  65.8175555  84.5464973 135.6080026  66.0985144
  83.6203945 136.8095124  66.6960182  83.9126920 137.3700181  65.9772548
  84.1302566 137.1023685  67.4513341  70.5139909 129.0817552  65.9734399
  70.3164309 128.4886913  65.2485465  69.9586573 128.7769762  66.6910338
  79.6427827 132.9020782  59.3307275  79.2047257 132.1856640  58.8712912
  80.3838267 133.1296896  58.7692366  78.5837571 137.5875475  67.7853635
  78.5413749 137.8136321  66.8562167  79.5000270 137.3538850  67.9339437
  87.7600941 131.1777979  65.3883594  87.6218840 131.3679575  64.4604783
  87.4037160 131.9397361  65.8451645  87.7870321 133.2454506  70.3994865
  88.2206828 133.1529795  71.2477919  88.5001902 133.2212006  69.7614881
  76.7003371 134.4638504  67.5815598  77.4943970 133.9688824  67.3798173
  75.9895064 133.9356367  67.2183304  81.5198216 136.8456600  71.9327966
  81.5735238 137.4147536  72.7005682  80.6512997 137.0158485  71.5682003
  73.0086135 128.6081586  63.6575351  72.0783723 128.5466041  63.8745313
  73.1043607 128.0857539  62.8611992  88.6485871 133.2878206  72.9327751
  88.8421761 134.1924017  73.1787025  88.5486489 132.8285625  73.7666336
  83.7100979 133.4384949  78.5068631  83.5586486 133.2095501  77.5898715
  83.7005659 134.3955550  78.5199976  79.8722799 140.1376623  62.6038972
  80.0474555 139.6664666  63.4184594  79.1855587 140.7642389  62.8320232
  83.7639054 131.7605163  58.9239333  83.1468225 131.0351991  58.8272385
  83.2955543 132.5214523  58.5806407  85.4193186 136.4704072  76.5845113
  85.3605732 135.7863292  75.9175696  85.8212704 137.2123062  76.1325739
  75.5537600 125.9790588  58.0460637  74.6767066 125.8579388  57.6822884
  76.0295353 125.1876666  57.7939526  85.4210593 134.4343656  74.8159093
  84.5337372 134.0969577  74.9385492  85.9909144 133.7026687  75.0527858
  67.0739740 130.7667747  68.1402144  67.7610780 130.4529477  67.5523159
  66.9187869 131.6709112  67.8669396  78.9511747 139.0945108  71.7820336
  78.8781918 139.9000079  72.2939640  78.5089140 139.2937074  70.9568357
  78.7401526 138.3316878  65.2923157  77.9569048 138.8738558  65.3861382
  79.4394271 138.8490858  65.6917399  89.9027934 129.8451873  69.5775654
  89.8917810 130.7276588  69.2069587  89.0345313 129.4923424  69.3830191
  81.4110430 138.9931942  73.9378495  82.1238402 139.6279407  73.8654396
  80.9200459 139.0895808  73.1218496  83.1327957 132.8983195  65.5095786
  82.1984236 133.0184657  65.3400491  83.3104625 131.9955661  65.2455796
  86.5200508 128.7400514  66.0445820  86.9860961 129.5728505  65.9706123
  86.9708009 128.2745495  66.7491079  76.4622344 136.7426385  74.7584065
  77.1631803 137.3762868  74.9113460  75.9917459 137.0841117  73.9979705
  84.5876739 135.0844335  63.0431972  84.8636583 134.9700930  63.9525846
  83.7181238 134.6861820  63.0044146  84.2623630 129.2970993  72.5836616
  83.6095080 129.5446900  71.9289068  84.6404009 128.4835131  72.2499093
  81.2230803 139.3330686  66.6864786  81.4053198 138.5152342  67.1492538
  82.0463789 139.5498378  66.2489676  81.5572969 138.2598871  63.9479835
  82.0860735 137.7491326  63.3349997  81.8201189 137.9441401  64.8125368
  72.0590062 136.2762740  71.6915168  72.6443498 135.5306428  71.8243072
  71.8614900 136.5866697  72.5751832  74.9128717 139.3113988  66.7077610
  74.2439092 139.7960115  66.2241651  74.7741587 139.5583208  67.6220989
  66.6507716 128.8468341  70.4119611  66.6891816 128.3131931  71.2056729
  66.1448009 128.3203546  69.7930588  79.0533985 141.3457731  73.3060269
  79.6052294 141.5089353  74.0709354  79.3940179 141.9362169  72.6340294
  73.5050751 125.7656014  77.5555188  74.1322790 125.3833091  78.1692712
  72.6478670 125.5470216  77.9210880  83.9044860 136.1718989  79.1608923
  84.4484764 136.7848947  78.6663878  83.3231705 136.7298567  79.6775936
  70.2816294 127.5732443  63.4873543  70.5769735 126.6643121  63.4340596
  69.3804330 127.5520182  63.1654545  82.1902373 139.2939707  70.2923951
  82.0653512 138.4929447  69.7834896  82.8481464 139.7885900  69.8037921
  84.2537281 137.0948727  71.9203501  83.3067617 136.9754078  71.8481828
  84.6020054 136.2071225  72.0029763  72.0104136 125.2546540  63.6112868
  71.6816842 124.3743919  63.4287974  72.3643506 125.1994209  64.4989257
  81.2583714 136.8901443  68.1207853  81.1108677 135.9618151  68.3015423
  82.0837208 136.9121534  67.6364929  75.1245959 125.5419510  63.9788345
  75.4642031 126.0705431  63.2566954  75.5718079 125.8799916  64.7546912
  84.8617836 137.7130002  69.2072726  85.7864384 137.5072863  69.0697177
  84.6933140 137.4646403  70.1162068  77.1114106 124.0394132  62.1781638
  77.8322468 124.4175385  61.6745355  76.4879410 124.7583009  62.2816616
  81.2545229 124.7439281  63.1139971  81.4708843 125.6263919  62.8128799
  80.7739296 124.3525494  62.3845613  84.6513153 138.2315669  64.5634818
  84.8250030 137.6662092  63.8108670  85.1442044 139.0316564  64.3814307
  70.4690112 130.2430338  72.6298376  69.9243580 131.0190146  72.7618651
  71.3469462 130.5901143  72.4717498  90.5052544 130.9952092  66.1825117
  90.9483690 130.2459417  65.7844241  89.6279054 130.9862229  65.7998849
  85.6388325 137.5482434  61.6631716  86.3339230 138.1689126  61.8819030
  85.9811475 136.6977785  61.9384094  71.2556134 129.3700235  75.5228533
  70.5137870 129.5182870  76.1093164  70.9348878 129.6308500  74.6595283
  87.5379748 134.9982139  63.1919047  88.0631072 135.3369412  62.4668367
  87.4502101 134.0629155  63.0082181  79.1999797 138.9116213  75.3208923
  79.5086923 138.6665360  76.1931623  79.9975279 139.1162851  74.8327793
  79.2220409 141.0654123  67.5514300  78.7825399 140.5730501  68.2447156
  79.9728526 140.5227090  67.3106375  71.7012748 137.2565663  67.5538928
  72.5270768 136.9569435  67.1737571  71.3506800 136.4873286  68.0028716
  76.6694281 136.6092132  69.6236601  76.0474290 135.9462837  69.3238829
  77.3399148 136.6353264  68.9410249  69.9021353 135.1751990  68.5127861
  69.0653261 134.7474164  68.3311863  69.8744998 135.3684433  69.4498653
  87.2273654 135.6315043  78.4970245  86.4369198 135.6139182  77.9574744
  86.9907009 136.1703337  79.2519281  87.3471529 132.4807509  75.8102973
  87.3969534 132.3157517  76.7518496  87.2385453 131.6134768  75.4200854
  76.2307788 135.1596055  63.0995062  76.3795908 135.8431519  62.4461735
  77.0374231 135.1401145  63.6144518  84.6375292 128.4638437  77.1262280
  85.5385154 128.3244902  76.8346278  84.7123266 128.6292892  78.0660457
  88.8489726 134.9004451  76.0544995  88.5574534 135.2634431  76.8908456
  88.2361857 134.1871459  75.8758327  90.0485408 132.4657331  68.5747565
  90.8832300 132.9047135  68.7385125  90.1844537 131.9895984  67.7555811
  87.0976914 130.0237065  74.5225053  87.5731036 130.2164712  73.7143904
  86.1742480 130.0796251  74.2768436  73.9860421 131.1861233  64.1056131
  73.7406463 130.2823563  64.3036341  74.1556335 131.1878383  63.1635609
  73.2556068 126.9189590  61.6042292  72.5625313 126.9933945  60.9482328
  73.0107820 126.1549934  62.1263809  79.7303193 137.6544185  60.5706809
  79.1577161 138.2734373  60.1177281  80.3035987 138.2043547  61.1046731
  85.7978583 126.9002825  72.7553358  86.7496006 127.0000923  72.7765582
  85.6282034 126.1081094  73.2651443  82.9500453 137.9381336  61.7015392
  83.8831126 137.8726897  61.9048267  82.8623666 138.7737602  61.2429924
  85.5788470 137.2547206  58.6619339  85.5002101 136.9207069  59.5555097
  86.3998137 137.7468974  58.6610812  88.2766661 130.1208945  71.8695658
  88.2442981 129.1824946  72.0555342  88.8867285 130.1992982  71.1361483
  80.1149992 128.9904998  57.9122862  81.0609097 128.8611206  57.9811280
  79.7364237 128.2519660  58.3892290  88.4261150 126.9119989  71.9153941
  87.9100198 126.1278445  71.7283870  89.3101098 126.5838705  72.0800460
  94.0943211 131.1824952  71.0101695  94.8246599 130.9210240  71.5709398
  93.4850156 130.4453674  71.0503763  92.1758508 129.3232815  71.6076146
  91.4491672 129.1888780  70.9992637  91.7605795 129.6309643  72.4132864
  79.9988684 133.0422744  79.3723519  80.9191694 133.2201343  79.5663565
  79.9638268 132.0978790  79.2203218  78.2992909 126.9154975  57.8477747
  77.3924364 126.6188087  57.9240461  78.5768890 126.6184793  56.9812033
  69.2170849 128.2361338  68.2976793  68.8973634 127.3826646  68.0051167
  68.6704278 128.4509916  69.0534761  79.9154975 121.4591864  64.0021988
  79.1055703 121.1138949  64.3777234  80.6039392 121.1499408  64.5909600
  77.8678622 126.5256985  81.4049049  77.7675349 127.4751342  81.3361140
  77.6500164 126.1975224  80.5325119  77.0691694 123.7741910  57.9889726
  77.9310858 124.0996808  58.2485544  77.2542038 122.9873406  57.4762792
  69.0859109 131.8564249  70.2669915  68.3922581 131.4418202  69.7539869
  69.8332100 131.8984786  69.6703334  85.2224330 122.6470436  65.1324949
  84.6422999 123.3055240  64.7503002  84.9560263 121.8247781  64.7212367
  70.9995852 131.7882503  68.1435930  70.9766540 131.8870190  67.1917813
  71.3096488 132.6347654  68.4653096  73.6583230 133.8458658  72.2582544
  74.6126483 133.8142601  72.1912476  73.4595753 133.3849282  73.0732770
  74.2482612 132.4159774  74.8253342  75.0675501 132.9103853  74.8488179
  74.5219420 131.4991742  74.7970910  84.0049208 124.8070527  64.1881298
  83.1175063 125.0920177  63.9701492  84.4203197 124.6464290  63.3408574
  87.3563744 124.8317048  67.9035637  88.1324134 125.3213500  68.1760254
  86.6311879 125.2575102  68.3607506  89.7936303 125.5444667  68.9609577
  90.3880794 125.3040403  68.2502886  89.8662887 124.8251797  69.5883114
  72.0133459 139.3878278  69.2752742  71.8787927 138.6278679  68.7090740
  71.5965521 140.1119178  68.8081531  83.1492422 134.5715201  58.2829318
  83.8528272 134.7765204  58.8986973  82.4255070 135.1391963  58.5478401
  83.9790232 130.3225063  64.4031588  83.9225433 130.7793614  63.5639220
  84.5318574 129.5615747  64.2254430  87.7895038 126.1114794  65.2281707
  87.5331972 125.7111430  66.0589915  87.1647906 126.8258588  65.1031846
  92.1007376 128.8510868  67.7352999  91.5406934 128.9204057  68.5084561
  91.4950879 128.6751852  67.0152495  75.1702585 140.2847595  69.4871185
  75.0534969 141.2293027  69.3849875  74.3495031 139.9821156  69.8756984
  85.0579119 135.0097730  60.3327778  85.8924723 134.5778929  60.1505252
  84.8963462 134.8379744  61.2604672  84.7125011 131.5129844  61.6984117
  84.6573815 131.3474115  60.7572561  84.0871067 132.2205877  61.8546307
  69.5017526 126.7497908  75.5245539  70.1476390 126.2396862  76.0132764
  69.2934677 127.4866590  76.0988964  82.0270918 133.8178756  81.0237680
  82.8962078 133.9919408  80.6624315  81.5477670 134.6373172  80.9013409
  78.0221137 121.0137953  61.2769435  78.0099807 121.9579793  61.4337706
  78.9144559 120.8308098  60.9828896  76.1957099 140.9375857  72.7027113
  77.0984345 140.9699467  73.0193608  75.9694469 140.0076308  72.7173449
  77.9510701 139.6906843  69.3637192  77.0006332 139.6908705  69.2501564
  78.2543187 138.9439578  68.8473227  93.6863394 145.5267382  70.4282954
  94.3241804 145.4074129  69.7246294  93.5684237 146.4748226  70.4870906
  90.4953100 145.4794810  70.3644479  90.1571612 145.3635874  69.4765014
  91.3642869 145.0785975  70.3445485  86.3539916 147.3330286  66.3541370
  85.7904781 147.2420223  65.5857658  86.2392311 146.5130191  66.8343863
  90.9772883 146.6329661  76.3230685  90.9661524 146.2382460  75.4511188
  91.1393523 145.8995734  76.9164456  88.6236351 146.7943622  71.8611228
  89.2199924 146.5699644  71.1468191  88.6811323 146.0528367  72.4636676
  88.1961380 144.2483057  59.6961419  88.4486901 143.7264578  58.9344882
  87.2585939 144.0849203  59.7988103  93.2404663 143.2518835  67.5036162
  94.0267752 142.8338259  67.1526579  93.5043367 144.1564928  67.6717811
  98.6413090 143.1894069  68.4069141  99.3738262 142.6193285  68.6406970
  97.8852445 142.8015669  68.8475646  87.9157669 146.1511163  61.8985794
  87.7993927 145.4756066  62.5666878  88.0259928 145.6643537  61.0817947
  90.2589210 145.6121310  65.6032483  89.8947417 145.0851931  66.3145405
  91.1156325 145.2219779  65.4298969  96.1638510 136.9015643  72.8663749
  95.8321835 137.7711054  72.6424964  95.5684124 136.5851927  73.5457780
  89.8994696 140.6411210  60.5993832  90.0669099 141.5091446  60.9664303
  89.7091866 140.8038492  59.6755121  86.1082511 145.5541986  68.2996367
  85.1833008 145.4218200  68.5074058  86.3566924 146.3336205  68.7966309
  96.0567173 141.6210729  69.9457100  95.1484051 141.5526137  69.6515861
  96.0054769 142.0982674  70.7738925  89.8783917 143.0968867  61.5840499
  89.7583543 143.5425918  62.4225979  89.1836506 143.4454185  61.0254037
  83.4691322 145.1975259  69.1340156  83.5983703 145.4509738  70.0479567
  82.7888773 145.7902967  68.8144811  90.1308039 143.0400375  77.8891997
  89.3541373 143.5994295  77.8794861  90.7698602 143.5257157  78.4106867
  97.9228820 139.8227167  71.7234973  97.2803200 140.1159700  71.0774768
  97.4183748 139.7080088  72.5288170  95.5768984 143.5690341  62.4120833
  96.4886840 143.8017727  62.2368530  95.0678631 144.1527385  61.8495911
  88.3854412 145.8485828  77.4509964  89.1269096 146.3870872  77.1744787
  87.6791397 146.4752117  77.6081516  93.8609751 147.9914968  76.0482125
  94.2693107 147.5497379  75.3036758  93.1387013 147.4167596  76.3016318
  90.2140821 142.9287575  73.4215682  91.0602016 143.3526989  73.5650331
  90.1539459 142.2721199  74.1154245  93.3640267 140.5891943  75.0796856
  93.1201198 141.3434004  74.5431132  93.6400197 140.9677291  75.9144103
  92.9204958 139.7448376  70.6610694  92.0589437 140.0429630  70.9527431
  92.9467393 139.9618775  69.7291726  89.7366528 148.2890567  67.0684499
  90.2004873 148.5678270  66.2789122  89.4723326 147.3874012  66.8857590
  88.6735414 144.4113719  63.8774064  89.3759457 144.8634763  64.3447991
  88.3416042 143.7697538  64.5053958  87.1215775 143.0025476  78.2525274
  86.4914436 143.6841757  78.4860671  87.0151863 142.8908558  77.3078412
  82.4160748 142.6697272  69.1791198  81.6259802 142.9254801  68.7031309
  82.9071995 143.4845610  69.2843239  84.3675493 143.0341851  66.1374675
  83.5706656 143.1460546  66.6558170  84.1401085 143.3728504  65.2715565
  80.6998451 142.9227763  71.6106189  80.9506489 143.8074772  71.8763765
  81.2357999 142.7432364  70.8381281  86.3996518 137.3046242  80.6150525
  86.0063464 136.7512440  81.2898169  87.2162658 137.6156820  81.0057042
  89.3164479 138.7204121  78.2070781  90.0574192 139.3211274  78.1275244
  89.5482402 137.9781759  77.6488824  84.4605817 143.9060488  76.4849011
  84.3459332 143.0045745  76.7856110  83.6050335 144.1524185  76.1333828
  93.2621642 134.7485224  72.4835063  92.9185911 135.6386866  72.4074174
  93.6300605 134.5586882  71.6204648  93.2271925 144.7393835  60.9907498
  92.7118548 145.5098440  61.2295886  92.9549233 144.0658971  61.6140560
  90.8119036 139.5843536  66.0492737  89.9560632 139.1950386  65.8698375
  91.2245987 139.6635497  65.1892522  92.3418182 137.1189879  70.4484296
  91.8382978 137.0820014  69.6352102  92.6348789 138.0282622  70.5080953
  88.5861068 137.2028609  69.4550478  89.4514065 137.0071417  69.0956368
  88.6538577 136.9738961  70.3819835  93.0158228 142.6120927  62.8167279
  92.7108363 142.9267076  63.6677423  93.9688670 142.6902347  62.8594612
  86.1923387 139.4330817  66.8266845  86.7667139 139.2105998  66.0940038
  86.7794370 139.5019511  67.5795446  95.2502965 145.3204544  67.6331221
  95.7634846 145.9534535  68.1352931  95.9004188 144.7205739  67.2674581
  86.5192974 141.4635278  60.8462730  85.6830287 141.8009964  61.1672005
  86.3797744 141.3284258  59.9089867  88.4946055 136.3072066  65.5541914
  87.8410467 135.9921083  64.9298529  88.4526529 135.6847806  66.2801737
  89.6057260 146.5891361  57.4695206  88.6984322 146.3580614  57.6686355
  90.1028292 145.7928980  57.6569188  91.7283795 142.7953999  69.8789562
  90.8106357 143.0168946  69.7211250  92.1443939 142.8700310  69.0201269
  92.5118843 144.1945415  65.0092242  93.2590662 144.7066812  64.6999364
  92.7810433 143.8729468  65.8696636  90.7845493 146.6903956  61.9919197
  89.8756713 146.4062988  62.0891666  90.8140577 147.1103034  61.1322503
  94.9597680 141.2302531  66.9911032  94.2220437 140.7179917  67.3221274
  95.2124454 140.7902913  66.1794308  95.0609308 134.0078783  67.5852801
  95.3668184 133.1476147  67.2978716  95.7861912 134.5996403  67.3851795
  81.3533664 144.4109470  65.9734399  81.1558064 143.8178830  65.2485465
  80.7980328 144.1061680  66.6910338  89.3330387 144.3032576  68.0928992
  89.3878997 143.3506413  68.0171468  88.5221589 144.4592015  68.5770290
  90.4821581 148.2312699  59.3307275  90.0441011 147.5148558  58.8712912
  91.2232022 148.4588814  58.7692366  87.2722747 142.9209636  65.8519371
  86.4590613 143.2203806  66.2584563  87.7681741 142.5265325  66.5693853
  92.8696959 143.3851460  74.6834265  93.2246347 143.6122934  75.5428730
  93.5169090 143.7169837  74.0611520  86.7636822 140.4927991  71.4680606
  87.4036201 140.3516751  70.7703569  85.9314353 140.2062505  71.0919208
  83.8479889 143.9373504  63.6575351  82.9177478 143.8757959  63.8745313
  83.9437361 143.4149456  62.8611992  83.7665438 140.4628316  66.2453592
  84.0272256 141.3773650  66.1362753  84.5882611 139.9952759  66.3950205
  85.2390364 141.8766074  73.4152417  85.9113417 141.6683436  72.7665066
  84.4120150 141.6788160  72.9757649  91.1415936 138.5028015  75.4318078
  90.4943851 139.2017964  75.3382554  91.9116951 138.9364158  75.7994326
  91.3180070 146.3408779  73.4914898  92.2472130 146.4919939  73.3183865
  90.8971100 146.4292800  72.6363544  85.6417861 145.1508677  74.1754854
  85.5037659 144.4188915  74.7766393  86.5522785 145.0617577  73.8939042
  94.6032809 147.0897081  58.9239333  93.9861979 146.3643909  58.8272385
  94.1349297 147.8506441  58.5806407  88.2700162 144.8628636  73.6638534
  88.9799780 144.2221828  73.6225152  88.2269470 145.1141531  74.5864715
  86.9829096 141.8493854  75.4834173  86.4466453 141.3984592  76.1355770
  86.3945804 141.9839763  74.7404638  86.3931355 141.3082505  58.0460637
  85.5160821 141.1871306  57.6822884  86.8689108 140.5168583  57.7939526
  82.7168217 140.9849861  72.5687168  82.6326406 140.3775531  71.8337578
  81.8950923 141.4758880  72.5696664  92.8891931 139.4703425  67.9357363
  93.3860630 138.7173387  67.6158433  92.1178912 139.5067742  67.3700572
  93.9721711 148.2275112  65.5095786  93.0377990 148.3476575  65.3400491
  94.1498380 147.3247579  65.2455796  89.4726900 141.6120808  67.6629047
  89.1024687 141.0591848  68.3509953  89.9685992 141.0078941  67.1104047
  97.3594263 144.0692432  66.0445820  97.8254715 144.9020423  65.9706123
  97.8101763 143.6037413  66.7491079  95.3310926 136.4373019  70.0836722
  94.4174005 136.6677245  70.2518929  95.7604027 136.5211463  70.9350754
  95.1017384 144.6262910  72.5836616  94.4488834 144.8738818  71.9289068
  95.4797764 143.8127049  72.2499093  91.1504957 145.3682722  79.0702653
  90.4745594 145.2676851  79.7405028  91.9732591 145.2121935  79.5338650
  77.4901471 144.1760258  70.4119611  77.5285570 143.6423849  71.2056729
  76.9841764 143.6495464  69.7930588  84.8692233 139.0224799  73.9082154
  84.9333560 139.8839630  73.4959551  84.8059353 138.4098800  73.1754512
  84.3444506 141.0947931  77.5555188  84.9716545 140.7125009  78.1692712
  83.4872425 140.8762133  77.9210880  81.1210048 142.9024360  63.4873543
  81.4163490 141.9935039  63.4340596  80.2198084 142.8812100  63.1654545
  84.6504295 140.9780357  69.4701091  83.9290881 141.5916325  69.3308565
  85.4397551 141.5138122  69.3917737  87.4530609 138.3134784  75.7441743
  87.9765011 138.5597080  76.5068052  87.2342942 139.1454818  75.3244880
  82.8497890 140.5838458  63.6112868  82.5210596 139.7035837  63.4287974
  83.2037261 140.5286127  64.4989257  85.9639713 140.8711428  63.9788345
  86.3035786 141.3997349  63.2566954  86.4111834 141.2091834  64.7546912
  88.6583154 139.2548479  73.4291413  88.3179974 138.4556292  73.8312093
  87.9522160 139.5550189  72.8568247  89.3099626 136.3397791  71.8818737
  90.1325695 135.8658269  71.7597627  89.5537689 137.1188275  72.3817423
  87.9507860 139.3686049  62.1781638  88.6716223 139.7467302  61.6745355
  87.3273164 140.0874926  62.2816616  92.0938983 140.0731198  63.1139971
  92.3102598 140.9555836  62.8128799  91.6133050 139.6817412  62.3845613
  86.8338205 143.0316912  69.6910715  86.6882785 143.3457215  70.5834997
  86.3563408 143.6501812  69.1381614  88.6934588 140.0219460  69.7391605
  88.6796156 139.1260553  69.4023903  89.4107016 140.0290123  70.3729891
  90.5460718 140.4556800  71.7844732  90.2878496 141.3773871  71.7829063
  90.0145759 140.0587234  72.4745196  88.0971483 138.9033840  65.0079175
  88.2187395 137.9750486  65.2070062  87.8073526 138.9172526  64.0957490
  90.9662674 136.5888750  68.1445895  90.9884371 136.6528083  67.1897874
  91.3830733 135.7493259  68.3386401  82.0949889 144.6992152  75.5228533
  81.3531625 144.8474788  76.1093164  81.7742633 144.9600418  74.6595283
  87.5812563 140.4165837  79.2169107  87.6300718 141.2927960  78.8346877
  88.1235077 139.8743230  78.6440751  95.4769046 143.7930355  77.1262280
  96.3778909 143.6536820  76.8346278  95.5517021 143.9584810  78.0660457
  89.8111851 141.1697210  75.9715466  88.9415161 141.4630776  75.6998055
  90.0471332 141.7537655  76.6922730  84.8254175 146.5153150  64.1056131
  84.5800217 145.6115480  64.3036341  84.9950090 146.5170301  63.1635609
  92.5150885 137.3876827  73.4880886  93.0332829 138.1237854  73.1627375
  92.1606018 137.6940820  74.3227646  84.0949823 142.2481508  61.6042292
  83.4019068 142.3225863  60.9482328  83.8501575 141.4841851  62.1263809
  92.7663479 133.8077109  69.0081783  93.0465233 133.1400298  69.6342210
  93.5514086 134.0006205  68.4956447  96.6372338 142.2294743  72.7553358
  97.5889761 142.3292841  72.7765582  96.4675788 141.4373012  73.2651443
  94.6586717 139.3150326  72.9412759  94.0636649 139.5955339  72.2459248
  94.3736414 139.8044227  73.7129500  90.9543746 144.3196916  57.9122862
  91.9002851 144.1903124  57.9811280  90.5757991 143.5811578  58.3892290
  99.2654904 142.2411906  71.9153941  98.7493953 141.4570363  71.7283870
 100.1494853 141.9130623  72.0800460  96.9265631 135.9852922  67.8749754
  96.7290452 135.6768010  68.7593086  97.5365337 136.7114561  68.0047684
  90.8382439 148.3714662  79.3723519  91.7585448 148.5493261  79.5663565
  90.8032022 147.4270707  79.2203218  89.1386664 142.2446892  57.8477747
  88.2318119 141.9480005  57.9240461  89.4162645 141.9476710  56.9812033
  80.0564604 143.5653256  68.2976793  79.7367388 142.7118564  68.0051167
  79.5098032 143.7801834  69.0534761  90.7548729 136.7883782  64.0021988
  89.9449458 136.4430867  64.3777234  91.4433146 136.4791326  64.5909600
  92.6839278 135.8661829  65.6246285  93.2370316 136.2857282  66.2836308
  92.9209364 134.9397577  65.6669241  88.7072377 141.8548902  81.4049049
  88.6069104 142.8043259  81.3361140  88.4893919 141.5267141  80.5325119
  87.9085448 139.1033827  57.9889726  88.7704612 139.4288726  58.2485544
  88.0935792 138.3165323  57.4762792  96.0618085 137.9762354  65.1324949
  95.4816754 138.6347158  64.7503002  95.7954017 137.1539698  64.7212367
  94.5121651 137.3767412  67.3346270  95.0121429 137.4883946  66.5260588
  95.1557259 137.0728464  67.9747078  88.5703647 145.2846041  80.2214111
  88.0870729 146.0846401  80.4278000  88.6564586 145.2953986  79.2681555
  94.8442963 140.1362444  64.1881298  93.9568818 140.4212095  63.9701492
  95.2596952 139.9756208  63.3408574  98.1957499 140.1608965  67.9035637
  98.9717889 140.6505418  68.1760254  97.4705633 140.5867019  68.3607506
 100.6330057 140.8736584  68.9609577 101.2274548 140.6332320  68.2502886
 100.7056641 140.1543715  69.5883114  94.8183986 145.6516980  64.4031588
  94.7619188 146.1085532  63.5639220  95.3712329 144.8907665  64.2254430
  98.6288792 141.4406712  65.2281707  98.3725727 141.0403348  66.0589915
  98.0041660 142.1550506  65.1031846  95.5518766 146.8421761  61.6984117
  95.4967570 146.6766033  60.7572561  94.9264821 147.5497794  61.8546307
  80.3411281 142.0789826  75.5245539  80.9870144 141.5688780  76.0132764
  80.1328432 142.8158507  76.0988964  88.8614891 136.3429870  61.2769435
  88.8493561 137.2871710  61.4337706  89.7538313 136.1600016  60.9828896
  92.6767011 132.9372647  65.5315372  91.9099406 132.3831134  65.6772054
  93.0877716 133.0094516  66.3929524  84.6808772 139.2257443  79.6220553
  85.5440233 138.8694248  79.8323878  84.1074182 138.8871338  80.3095958
  17.8107114  15.2286080  57.1528261  18.4485524  15.1092828  56.4491601
  17.6927957  16.1766924  57.2116213  14.6196820  15.1813509  57.0889786
  14.2815332  15.0654573  56.2010321  15.4886588  14.7804674  57.0690792
  10.4783636  17.0348985  53.0786677   9.9148501  16.9438922  52.3102964
  10.3636031  16.2148889  53.5589169  15.1016603  16.3348360  63.0475991
  15.0905244  15.9401159  62.1756495  15.2637243  15.6014433  63.6409763
   8.0248068  18.5300177  55.9170897   8.8169360  18.1891001  55.5017196
   8.2644718  18.6395152  56.8373050  16.0583195  20.7019953  48.3901142
  15.4071174  21.2874033  48.0035155  16.8527557  21.2326148  48.4496179
   9.9838822  17.7909090  48.7888276  10.7569698  17.2438077  48.6501152
  10.3364221  18.6553339  49.0002737  11.8223864  19.1185472  61.9955175
  11.5313730  20.0231103  61.8801841  12.4580849  19.1602000  62.7099245
  12.7480071  16.4962321  58.5856535  13.3443644  16.2718343  57.8713498
  12.8055043  15.7547066  59.1881983  12.3205100  13.9501756  46.4206726
  12.5730620  13.4283277  45.6590189  11.3829659  13.7867901  46.5233409
  17.3648382  12.9537534  54.2281469  18.1511472  12.5356957  53.8771886
  17.6287087  13.8583626  54.3963117  17.5358460  18.3910385  48.9270126
  16.9004293  18.4645011  49.6391030  17.2055866  18.9803983  48.2489205
  22.7656810  12.8912768  55.1314448  23.4981982  12.3211984  55.3652277
  22.0096165  12.5034368  55.5720953  12.0401388  15.8529862  48.6231101
  11.9237647  15.1774765  49.2912185  12.1503648  15.3662236  47.8063254
  14.3832929  15.3140009  52.3277790  14.0191137  14.7870630  53.0390711
  15.2400045  14.9238478  52.1544275  16.7813749  18.8046888  58.9904969
  16.4814473  19.7071926  58.8820776  16.4364809  18.5379071  59.8426122
  10.2326231  15.2560684  55.0241673   9.3076727  15.1236899  55.2319365
  10.4810644  16.0354904  55.5211616  20.1810893  11.3229428  56.6702406
  19.2727771  11.2544836  56.3761167  20.1298489  11.8001373  57.4984232
  14.0027637  12.7987566  48.3085805  13.8827262  13.2444617  49.1471286
  13.3080226  13.1472884  47.7499343  11.7634529  25.5691208  51.9575937
  11.6858559  26.5199033  52.0364417  11.1596173  25.2237080  52.6150863
  14.2551759  12.7419073  64.6137303  13.4785093  13.3012994  64.6040168
  14.8942322  13.2275856  65.1352174  22.0472540   9.5245866  58.4480280
  21.4046920   9.8178399  57.8020075  21.5427468   9.4098787  59.2533477
  19.7012703  13.2709039  49.1366139  20.6130559  13.5036426  48.9613837
  19.1922350  13.8546084  48.5741218  12.5098131  15.5504527  64.1755270
  13.2512816  16.0889571  63.8990094  11.8035117  16.1770815  64.3326822
  17.9853471  17.6933667  62.7727432  18.3936827  17.2516078  62.0282064
  17.2630733  17.1186295  63.0261625  14.3384541  12.6306274  60.1460989
  15.1845736  13.0545688  60.2895638  14.2783179  11.9739898  60.8399552
  18.3082286  18.2534858  56.5279721  17.6791148  18.4180572  55.8255789
  17.9207948  18.6676467  57.2990685  22.1871518  19.1889296  53.8824085
  21.5022556  19.5688197  53.3321118  22.2715367  19.7984622  54.6156032
  17.4883986  10.2910642  61.8042163  17.2444918  11.0452703  61.2676438
  17.7643917  10.6695990  62.6389410  19.4422449  16.8349255  60.4819428
  19.6539344  17.4781015  59.8053809  19.3952197  16.0011571  60.0141358
  17.0448678   9.4467075  57.3856000  16.1833157   9.7448329  57.6772738
  17.0711113   9.6637474  56.4537033  13.8610248  17.9909266  53.7929806
  14.3248593  18.2696969  53.0034428  13.5967046  17.0892710  53.6102897
  10.7534329  17.5380747  56.7309569  11.3235686  17.9668016  56.0927054
  11.3442440  17.2563332  57.4293755  12.7979134  14.1132418  50.6019371
  13.5003177  14.5653462  51.0693297  12.4659762  13.4716237  51.2299264
  20.5568277  19.7121210  58.6541785  21.3785721  19.3101397  58.3724467
  20.5530680  19.6089444  59.6057901  14.3224881  19.2605253  60.8102496
  14.3869313  19.7225661  61.6460668  13.6135804  18.6302618  60.9384806
  28.6474270  16.0559959  55.0026757  27.8937979  15.4867357  54.8470761
  28.7821811  16.0222623  55.9497392  14.0372898  20.9273361  50.6781476
  13.9018573  21.7724897  51.1066324  14.5782711  21.1292639  49.9147410
   7.4902296  18.4448799  51.2509401   8.0026816  19.2392049  51.4014966
   8.1425008  17.7475089  51.1843003   9.2997180  21.5614555  53.3332155
   9.4763809  22.4832520  53.1453138  10.0954014  21.2472974  53.7626534
  15.6641375  21.5496927  64.8081818  15.2205229  20.7633306  64.4902723
  16.3258588  21.7376078  64.1425709  10.4228496  23.0792729  59.3342497
  10.9735921  22.9509792  58.5619491   9.5839972  23.3787618  58.9837390
  17.7622613  21.8299727  62.8363220  17.7441088  22.6508608  62.3443489
  18.6842533  21.7053803  63.0613361  14.2195667  19.3443857  63.6786728
  14.7524004  18.5832145  63.4486036  13.6909748  19.0517509  64.4210882
  17.3515644  14.4412534  47.7152805  16.8362268  15.2117139  47.9541192
  17.0792953  13.7677670  48.3385866  22.3249919  17.1944889  49.6505978
  21.5479361  16.8556048  49.2061140  23.0041400  17.1997512  48.9760943
  17.1401948  12.3139626  49.5412586  16.8352083  12.6285775  50.3922729
  18.0932390  12.3921046  49.5839919  15.5848380  18.4729849  51.1905540
  15.0569741  17.7382609  50.8778777  15.0835882  19.2504526  50.9445508
  20.5641226  16.6678870  56.3072586  19.9064900  17.3578131  56.3952715
  21.3681625  17.0575302  56.6506573  19.3746684  15.0223242  54.3576528
  19.8878566  15.6553234  54.8598238  20.0247908  14.4224438  53.9919888
  13.7300980  16.2910060  44.1940513  12.8228041  16.0599313  44.3931662
  14.2272012  15.4947679  44.3814495  16.6369059  25.0007567  47.1137199
  15.9630757  25.3039264  47.7222157  17.0234881  25.8036647  46.7642656
  15.8527515  12.4972698  56.6034869  14.9350077  12.7187645  56.4456557
  16.2687659  12.5719009  55.7446576  16.6362563  13.8964114  51.7337549
  17.3834382  14.4085511  51.4244671  16.9054153  13.5748166  52.5941942
  14.9089213  16.3922654  48.7164503  14.0000432  16.1081687  48.8136973
  14.9384297  16.8121733  47.8567810  20.1408481  20.0029244  52.4855671
  19.6870808  19.1620154  52.5420861  19.5102447  20.6390642  52.8230451
  19.0841400  10.9321230  53.7156338  18.3464157  10.4198616  54.0466581
  19.3368174  10.4921612  52.9039615  18.5841420  21.8405741  53.4205489
  18.8764394  22.4010798  52.7017854  19.0940040  22.1334302  54.1758648
  13.4574107  14.0051275  54.8174299  13.5122717  13.0525111  54.7416775
  12.6465309  14.1610714  55.3015597  14.6065301  17.9331398  46.0552582
  14.1684731  17.2167257  45.5958219  15.3475742  18.1607513  45.4937673
  13.5475045  22.6186092  54.5098942  13.5051224  22.8446938  53.5807474
  14.4637744  22.3849466  54.6584743  16.9940679  13.0870159  61.4079571
  17.3490066  13.3141632  62.2674037  17.6412810  13.4188536  60.7856827
  22.7238416  16.2088595  52.1128900  22.5856314  16.3990191  51.1850090
  22.3674635  16.9707978  52.5696951  22.7507795  18.2765122  57.1240172
  23.1844302  18.1840411  57.9723226  23.4639376  18.2522623  56.4860188
  11.6640846  19.4949121  54.3060905  12.4581444  18.9999441  54.1043480
  10.9532538  18.9666984  53.9428610  16.4835690  21.8767216  58.6573272
  16.5372713  22.4458153  59.4250988  15.6150472  22.0469101  58.2927310
  23.6123345  18.3188823  59.6573057  23.8059235  19.2234633  59.9032332
  23.5123963  17.8596242  60.4911642  18.6738454  18.4695566  65.2313938
  18.5223960  18.2406117  64.3144021  18.6643133  19.4266167  65.2445283
  15.4423790  16.0427478  60.2160204  16.3715850  16.1938638  60.0429172
  15.0214820  16.1311499  59.3608851  14.2412122  20.0678143  57.9858742
  14.1023207  19.6996927  58.8584680  13.4526718  20.5825782  57.8142700
  14.8360274  25.1687239  49.3284278  15.0112029  24.6975282  50.1429901
  14.1493062  25.7953005  49.5565539  15.7917337  19.4459745  55.3747580
  15.4567170  19.4060515  56.2705230  15.2921283  18.7804461  54.9017990
   9.7661581  14.8527375  60.9000161   9.6281379  14.1207614  61.5011700
  10.6766504  14.7636276  60.6184349  18.7276529  16.7915780  45.6484639
  18.1105699  16.0662608  45.5517692  18.2593017  17.5525140  45.3051714
  12.3943882  14.5647335  60.3883840  13.1043500  13.9240527  60.3470459
  12.3513190  14.8160230  61.3110021  20.3830660  21.5014688  63.3090420
  20.3243206  20.8173908  62.6421003  20.7850179  22.2433678  62.8571046
   9.4021359  28.3176602  56.1024139   9.6417957  28.9495126  56.7803157
   8.5590555  27.9664642  56.3889498  20.3848067  19.4654272  61.5404399
  19.4974846  19.1280194  61.6630798  20.9546619  18.7337303  61.7773165
  13.9149221  24.1255724  58.5065643  13.8419392  24.9310696  59.0184947
  13.4726614  24.3247690  57.6813664  13.7039000  23.3627494  52.0168464
  12.9206522  23.9049175  52.1106689  14.4031746  23.8801474  52.4162705
  24.8665408  14.8762489  56.3020961  24.8555284  15.7587205  55.9314894
  23.9982787  14.5234040  56.1075498  16.3747904  24.0242558  60.6623801
  17.0875877  24.6590023  60.5899703  15.8837933  24.1206424  59.8463803
  18.0965431  17.9293811  52.2341093  17.1621710  18.0495274  52.0645797
  18.2742100  17.0266278  51.9701103  21.4837983  13.7711130  52.7691127
  21.9498435  14.6039122  52.6951430  21.9345483  13.3056112  53.4736386
  11.4259818  21.7737002  61.4829372  12.1269277  22.4073485  61.6358766
  10.9554933  22.1151733  60.7225011  19.5514214  20.1154952  49.7677279
  19.8274058  20.0011546  50.6771153  18.6818712  19.7172437  49.7289452
  19.2261104  14.3281609  59.3081922  18.5732554  14.5757517  58.6534375
  19.6041484  13.5145748  58.9744400  16.1868278  24.3641303  53.4110093
  16.3690672  23.5462958  53.8737845  17.0101264  24.5808995  52.9734983
  16.5210443  23.2909488  50.6725141  17.0498210  22.7801942  50.0595303
  16.7838663  22.9752018  51.5370674  15.2748677  15.0701420  65.7947959
  14.5989314  14.9695550  66.4650335  16.0976311  14.9140634  66.2583957
   7.0227536  21.3073357  58.4160475   7.6080973  20.5617045  58.5488379
   6.8252374  21.6177314  59.2997139   9.8766191  24.3424604  53.4322917
   9.2076566  24.8270732  52.9486957   9.7379061  24.5893825  54.3466296
  14.0171460  26.3768348  60.0305575  14.5689768  26.5399969  60.7954661
  14.3577653  26.9672786  59.3585600  18.8682334  21.2029605  65.8854230
  19.4122238  21.8159564  65.3909185  18.2869179  21.7609184  66.4021243
  17.1539847  24.3250323  57.0169258  17.0290987  23.5240063  56.5080203
  17.8118938  24.8196517  56.5283228  19.2174755  22.1259343  58.6448808
  18.2705091  22.0064695  58.5727134  19.5657529  21.2381841  58.7275069
  16.2221189  21.9212060  54.8453160  16.0746151  20.9928767  55.0260730
  17.0474682  21.9432150  54.3610235  19.8255311  22.7440618  55.9318033
  20.7501858  22.5383480  55.7942484  19.6570614  22.4957020  56.8407374
  19.6150627  23.2626286  51.2880124  19.7887504  22.6972708  50.5353977
  20.1079518  24.0627181  51.1059614  25.4690018  16.0262709  52.9070424
  25.9121164  15.2770034  52.5089547  24.5916528  16.0172845  52.5244156
  20.6025799  22.5793050  48.3877022  21.2976704  23.1999743  48.6064337
  20.9448949  21.7288401  48.6629400  22.5017222  20.0292756  49.9164353
  23.0268547  20.3680029  49.1913673  22.4139575  19.0939771  49.7327488
  14.1637271  23.9426829  62.0454230  14.4724398  23.6975976  62.9176929
  14.9612753  24.1473468  61.5573100  14.1857883  26.0964739  54.2759606
  13.7462873  25.6041118  54.9692463  14.9366000  25.5537707  54.0351682
   6.6650222  22.2876280  54.2784234   7.4908242  21.9880052  53.8982878
   6.3144274  21.5183902  54.7274023  11.6331755  21.6402748  56.3481908
  11.0111765  20.9773453  56.0484136  12.3036622  21.6663880  55.6655556
   4.8658827  20.2062606  55.2373168   4.0290736  19.7784781  55.0557169
   4.8382473  20.3995050  56.1743959  22.1911128  20.6625659  65.2215551
  21.4006672  20.6449798  64.6820051  21.9544483  21.2013953  65.9764588
  22.3109004  17.5118126  62.5348280  22.3607008  17.3468133  63.4763802
  22.2022927  16.6445385  62.1446160  11.1945262  20.1906672  49.8240369
  11.3433383  20.8742136  49.1707041  12.0011706  20.1711762  50.3389824
  19.6012766  13.4949054  63.8507586  20.5022629  13.3555519  63.5591584
  19.6760740  13.6603509  64.7905764  23.8127200  19.9315067  62.7790301
  23.5212009  20.2945048  63.6153762  23.1999332  19.2182076  62.6003633
  25.0122883  17.4967947  55.2992871  25.8469774  17.9357751  55.4630432
  25.1482011  17.0206600  54.4801117  22.0614389  15.0547682  61.2470359
  22.5368510  15.2475328  60.4389211  21.1379954  15.1106868  61.0013743
   8.9497895  16.2171849  50.8301437   8.7043937  15.3134179  51.0281648
   9.1193810  16.2189000  49.8880915  14.6940668  22.6854802  47.2952116
  14.1214635  23.3044989  46.8422588  15.2673461  23.2354164  47.8292038
  20.7616058  11.9313442  59.4798665  21.7133480  12.0311540  59.5010889
  20.5919508  11.1391711  59.9896749  18.7830437   9.0169025  59.6658066
  18.1880369   9.2974038  58.9704554  18.4980134   9.5062926  60.4374807
  17.9137928  22.9691952  48.4260698  18.8468601  22.9037514  48.6293574
  17.8261140  23.8048219  47.9675231  20.5425944  22.2857822  45.3864646
  20.4639576  21.9517686  46.2800404  21.3635611  22.7779590  45.3856118
  23.2404135  15.1519562  58.5940964  23.2080455  14.2135562  58.7800648
  23.8504759  15.2303598  57.8606789  15.0787466  14.0215615  44.6368168
  16.0246571  13.8921823  44.7056587  14.7001711  13.2830277  45.1137597
  23.3898624  11.9430605  58.6399248  22.8737673  11.1589062  58.4529177
  24.2738572  11.6149322  58.8045767  29.0580685  16.2135569  57.7347001
  29.7884074  15.9520857  58.2954705  28.4487631  15.4764291  57.7749069
  27.1395982  14.3543431  58.3321452  26.4129146  14.2199396  57.7237944
  26.7243269  14.6620260  59.1378170  14.9626159  18.0733361  66.0968825
  15.8829168  18.2511960  66.2908872  14.9275742  17.1289406  65.9448525
   7.9588231  15.9834395  58.7391607   8.1774241  16.9151503  58.7579640
   8.3714005  15.6242370  59.5246410  20.1861804   7.6781053  51.8570256
  19.6060474   8.3365857  51.4748308  19.9197737   6.8558397  51.4457673
  12.6947367  14.9864740  66.9459417  12.2114448  15.7865100  67.1523306
  12.7808306  14.9972685  65.9926861   5.9633326  16.8193120  54.8681237
   5.9404014  16.9180807  53.9163120   6.2733963  17.6658271  55.1898403
   8.6220704  18.8769275  58.9827851   9.5763958  18.8453217  58.9157783
   8.4233228  18.4159899  59.7978077   9.2120086  17.4470391  61.5498649
  10.0312975  17.9414470  61.5733486   9.4856894  16.5302359  61.5216216
  18.9686683   9.8381143  50.9126604  18.0812538  10.1230794  50.6946799
  19.3840672   9.6774907  50.0653881  22.3201219   9.8627664  54.6280943
  23.0961609  10.3524117  54.9005560  21.5949353  10.2885718  55.0852813
  24.7573777  10.5755283  55.6854884  25.3518268  10.3351019  54.9748192
  24.8300361   9.8562414  56.3128420   6.9770933  24.4188894  55.9998049
   6.8425401  23.6589295  55.4336047   6.5602995  25.1429794  55.5326838
  18.1129896  19.6025818  45.0074624  18.8165746  19.8075820  45.6232280
  17.3892545  20.1702580  45.2723708  18.9427706  15.3535679  51.1276894
  18.8862908  15.8104231  50.2884527  19.4956049  14.5926364  50.9499737
  22.7532512  11.1425411  51.9527014  22.4969446  10.7422047  52.7835222
  22.1285380  11.8569205  51.8277153  27.0644850  13.8821484  54.4598305
  26.5044408  13.9514674  55.2329867  26.4588353  13.7062469  53.7397801
  10.1340059  25.3158211  56.2116492  10.0172443  26.2603644  56.1095182
   9.3132505  25.0131773  56.6002291  20.0216593  20.0408347  47.0573084
  20.8562197  19.6089545  46.8750559  19.8600936  19.8690361  47.9849979
  19.6762486  16.5440460  48.4229424  19.6211289  16.3784732  47.4817868
  19.0508541  17.2516493  48.5791613  16.9908393  18.8489372  67.7482986
  17.8599552  19.0230024  67.3869621  16.5115144  19.6683789  67.6258716
  11.1594573  25.9686473  59.4272420  12.0621820  26.0010083  59.7438915
  10.9331943  25.0386924  59.4418756  12.9148175  24.7217460  56.0882499
  11.9643806  24.7219321  55.9746871  13.2180661  23.9750194  55.5718533
  28.6500868  30.5577998  57.1528261  29.2879278  30.4384745  56.4491601
  28.5321711  31.5058842  57.2116213  25.4590575  30.5105426  57.0889786
  25.1209086  30.3946491  56.2010321  26.3280343  30.1096591  57.0690792
  21.3177390  32.3640903  53.0786677  20.7542256  32.2730840  52.3102964
  21.2029786  31.5440807  53.5589169  25.9410358  31.6640278  63.0475991
  25.9298999  31.2693076  62.1756495  26.1030997  30.9306351  63.6409763
  18.8641822  33.8592094  55.9170897  19.6563114  33.5182919  55.5017196
  19.1038473  33.9687069  56.8373050  26.8976949  36.0311870  48.3901142
  26.2464929  36.6165951  48.0035155  27.6921312  36.5618065  48.4496179
  20.8232576  33.1201008  48.7888276  21.5963452  32.5729995  48.6501152
  21.1757975  33.9845257  49.0002737  22.6617619  34.4477390  61.9955175
  22.3707485  35.3523021  61.8801841  23.2974603  34.4893917  62.7099245
  23.5873826  31.8254238  58.5856535  24.1837398  31.6010261  57.8713498
  23.6448797  31.0838984  59.1881983  23.1598854  29.2793674  46.4206726
  23.4124375  28.7575195  45.6590189  22.2223413  29.1159819  46.5233409
  28.2042137  28.2829452  54.2281469  28.9905226  27.8648875  53.8771886
  28.4680841  29.1875544  54.3963117  28.3752214  33.7202302  48.9270126
  27.7398047  33.7936929  49.6391030  28.0449621  34.3095901  48.2489205
  33.6050564  28.2204685  55.1314448  34.3375736  27.6503902  55.3652277
  32.8489920  27.8326286  55.5720953  22.8795143  31.1821780  48.6231101
  22.7631401  30.5066683  49.2912185  22.9897403  30.6954154  47.8063254
  25.2226684  30.6431927  52.3277790  24.8584891  30.1162548  53.0390711
  26.0793800  30.2530396  52.1544275  31.1275984  21.9326259  59.5909056
  30.7959309  22.8021670  59.3670271  30.5321598  21.6162543  60.2703087
  24.8632171  25.6721826  47.3239138  25.0306573  26.5402063  47.6909610
  24.6729340  25.8349108  46.4000428  27.6207504  34.1338805  58.9904969
  27.3208227  35.0363844  58.8820776  27.2758564  33.8670988  59.8426122
  21.0719985  30.5852602  55.0241673  20.1470482  30.4528816  55.2319365
  21.3204399  31.3646821  55.5211616  31.0204648  26.6521345  56.6702406
  30.1121525  26.5836754  56.3761167  30.9692244  27.1293290  57.4984232
  24.8421392  28.1279484  48.3085805  24.7221017  28.5736535  49.1471286
  24.1473980  28.4764802  47.7499343  18.4328797  30.2285876  55.8585462
  18.5621178  30.4820355  56.7724874  17.7526248  30.8213584  55.5390117
  22.6028284  40.8983126  51.9575937  22.5252313  41.8490951  52.0364417
  21.9989927  40.5528998  52.6150863  25.0945514  28.0710991  64.6137303
  24.3178848  28.6304911  64.6040168  25.7336077  28.5567774  65.1352174
  32.8866294  24.8537784  58.4480280  32.2440674  25.1470317  57.8020075
  32.3821223  24.7390704  59.2533477  30.5406458  28.6000957  49.1366139
  31.4524314  28.8328344  48.9613837  30.0316105  29.1838001  48.5741218
  23.3491886  30.8796444  64.1755270  24.0906570  31.4181488  63.8990094
  22.6428871  31.5062733  64.3326822  28.8247225  33.0225585  62.7727432
  29.2330582  32.5807995  62.0282064  28.1024487  32.4478212  63.0261625
  25.1778296  27.9598192  60.1460989  26.0239491  28.3837605  60.2895638
  25.1176933  27.3031816  60.8399552  29.1476040  33.5826776  56.5279721
  28.5184903  33.7472490  55.8255789  28.7601702  33.9968385  57.2990685
  33.0265272  34.5181213  53.8824085  32.3416310  34.8980115  53.3321118
  33.1109121  35.1276540  54.6156032  28.3277741  25.6202560  61.8042163
  28.0838673  26.3744621  61.2676438  28.6037671  25.9987908  62.6389410
  30.2816204  32.1641172  60.4819428  30.4933099  32.8072932  59.8053809
  30.2345952  31.3303489  60.0141358  27.8842433  24.7758993  57.3856000
  27.0226912  25.0740247  57.6772738  27.9104867  24.9929392  56.4537033
  24.7004002  33.3201184  53.7929806  25.1642348  33.5988887  53.0034428
  24.4360800  32.4184628  53.6102897  21.5928083  32.8672665  56.7309569
  22.1629440  33.2959934  56.0927054  22.1836195  32.5855250  57.4293755
  23.6372888  29.4424336  50.6019371  24.3396931  29.8945380  51.0693297
  23.3053517  28.8008155  51.2299264  22.0853250  28.0336093  64.9770580
  21.4551910  28.7152373  65.2105977  21.9789337  27.9219174  64.0323719
  17.3798222  27.7007889  55.9036505  16.5897276  27.9565417  55.4276615
  17.8709469  28.5156226  56.0088545  31.3962032  35.0413128  58.6541785
  32.2179475  34.6393315  58.3724467  31.3924434  34.9381362  59.6057901
  19.3312967  28.0652468  52.8619981  18.5344131  28.1771162  53.3803477
  19.1038560  28.4039120  51.9960872  25.1618635  34.5897171  60.8102496
  25.2263068  35.0517578  61.6460668  24.4529559  33.9594536  60.9384806
  15.6635925  27.9538379  58.3351495  15.9143963  28.8385389  58.6009071
  16.1995473  27.7742981  57.5626587  39.4868025  31.3851876  55.0026757
  38.7331733  30.8159274  54.8470761  39.6215566  31.3514541  55.9497392
  24.8766653  36.2565279  50.6781476  24.7412327  37.1016814  51.1066324
  25.4176465  36.4584556  49.9147410  21.3633992  22.3356858  67.3395832
  20.9700938  21.7823057  68.0143476  22.1800133  22.6467437  67.7302349
  18.3296050  33.7740717  51.2509401  18.8420571  34.5683967  51.4014966
  18.9818763  33.0767007  51.1843003  20.1390935  36.8906473  53.3332155
  20.3157563  37.8124438  53.1453138  20.9347768  36.5764892  53.7626534
  24.2801953  23.7514738  64.9316088  25.0211667  24.3521891  64.8520551
  24.5119876  23.0092375  64.3734131  19.4243291  28.9371105  63.2094318
  19.3096806  28.0356362  63.5101417  18.5687809  29.1834802  62.8579134
  26.5035129  36.8788845  64.8081818  26.0598983  36.0925224  64.4902723
  27.1652343  37.0667996  64.1425709  21.2622250  38.4084647  59.3342497
  21.8129675  38.2801710  58.5619491  20.4233726  38.7079536  58.9837390
  28.6016367  37.1591645  62.8363220  28.5834842  37.9800526  62.3443489
  29.5236287  37.0345720  63.0613361  25.0589421  34.6735775  63.6786728
  25.5917758  33.9124063  63.4486036  24.5303502  34.3809426  64.4210882
  28.2259116  19.7795840  59.2080370  27.8823386  20.6697482  59.1319480
  28.5938079  19.5897498  58.3449955  16.2944967  32.1029371  52.0268972
  17.1320189  32.5126379  51.8102680  16.4723235  31.1628813  51.9969166
  28.1909399  29.7704452  47.7152805  27.6756022  30.5409056  47.9541192
  27.9186707  29.0969588  48.3385866  25.7756510  24.6154152  52.7738043
  24.9198106  24.2261003  52.5943682  26.1883462  24.6946113  51.9137829
  27.3055657  22.1500496  57.1729603  26.8020452  22.1130631  56.3597408
  27.5986264  23.0593238  57.2326260  23.5498543  22.2339225  56.1795785
  24.4151539  22.0382034  55.8201674  23.6176051  22.0049577  57.1065141
  33.1643673  32.5236806  49.6505978  32.3873116  32.1847966  49.2061140
  33.8435154  32.5289429  48.9760943  27.9795702  27.6431544  49.5412586
  27.6745838  27.9577693  50.3922729  28.9326144  27.7212964  49.5839919
  26.4242134  33.8021767  51.1905540  25.8963496  33.0674527  50.8778777
  25.9229637  34.5796443  50.9445508  31.4034980  31.9970787  56.3072586
  30.7458654  32.6870049  56.3952715  32.2075379  32.3867219  56.6506573
  21.1560862  24.4641433  53.5512152  21.7304614  24.2416615  52.8185344
  21.7431844  24.5330128  54.3040753  30.2140439  30.3515160  54.3576528
  30.7272321  30.9845152  54.8598238  30.8641663  29.7516356  53.9919888
  21.4830449  26.4945894  47.5708037  20.6467761  26.8320581  47.8917312
  21.3435218  26.3594874  46.6335174  23.4583529  21.3382682  52.2787221
  22.8047942  21.0231699  51.6543836  23.4164003  20.7158423  53.0047044
  24.5694734  31.6201977  44.1940513  23.6621796  31.3891231  44.3931662
  25.0665766  30.8239597  44.3814495  27.4762813  40.3299484  47.1137199
  26.8024512  40.6331181  47.7222157  27.8628635  41.1328565  46.7642656
  26.6921270  27.8264616  56.6034869  25.7743831  28.0479563  56.4456557
  27.1081413  27.9010926  55.7446576  27.4756317  29.2256031  51.7337549
  28.2228136  29.7377429  51.4244671  27.7447907  28.9040084  52.5941942
  25.7482968  31.7214572  48.7164503  24.8394187  31.4373605  48.8136973
  25.7778051  32.1413651  47.8567810  30.9802235  35.3321162  52.4855671
  30.5264562  34.4912071  52.5420861  30.3496202  35.9682560  52.8230451
  29.9235155  26.2613148  53.7156338  29.1857911  25.7490534  54.0466581
  30.1761928  25.8213529  52.9039615  29.4235174  37.1697658  53.4205489
  29.7158149  37.7302715  52.7017854  29.9333795  37.4626219  54.1758648
  30.0246782  19.0389400  54.3098107  30.3305659  18.1786763  54.0224023
  30.7499387  19.6307020  54.1097101  16.3171138  29.4420086  52.6979705
  16.1195538  28.8489447  51.9730772  15.7617802  29.1372296  53.4155644
  24.2967862  29.3343193  54.8174299  24.3516471  28.3817029  54.7416775
  23.4859064  29.4902632  55.3015597  25.4459055  33.2623316  46.0552582
  25.0078485  32.5459175  45.5958219  26.1869496  33.4899431  45.4937673
  22.2360222  27.9520252  52.5764677  21.4228087  28.2514423  52.9829870
  22.7319216  27.5575941  53.2939160  24.3868799  37.9478009  54.5098942
  24.3444978  38.1738856  53.5807474  25.3031498  37.7141384  54.6584743
  27.8334433  28.4162077  61.4079571  28.1883821  28.6433550  62.2674037
  28.4806564  28.7480454  60.7856827  33.5632170  31.5380513  52.1128900
  33.4250069  31.7282109  51.1850090  33.2068389  32.2999896  52.5696951
  21.7274296  25.5238608  58.1925912  22.3673676  25.3827367  57.4948876
  20.8951827  25.2373121  57.8164514  33.5901550  33.6057040  57.1240172
  34.0238056  33.5132329  57.9723226  34.3033131  33.5814540  56.4860188
  22.5034600  34.8241038  54.3060905  23.2975199  34.3291359  54.1043480
  21.7926293  34.2958902  53.9428610  27.3229445  37.2059134  58.6573272
  27.3766467  37.7750070  59.4250988  26.4544226  37.3761019  58.2927310
  18.8117364  28.9684120  50.3820657  17.8814952  28.9068576  50.5990620
  18.9074836  28.4460073  49.5857299  18.7302913  25.4938933  52.9698899
  18.9909730  26.4084266  52.8608060  19.5520085  25.0263376  53.1195512
  20.2027838  26.9076690  60.1397724  20.8750892  26.6994052  59.4910373
  19.3757625  26.7098776  59.7002956  34.4517099  33.6480740  59.6573057
  34.6452989  34.5526551  59.9032332  34.3517718  33.1888160  60.4911642
  26.1053410  23.5338631  62.1563385  25.4581325  24.2328581  62.0627861
  26.8754426  23.9674775  62.5239633  29.5132208  33.7987483  65.2313938
  29.3617714  33.5698035  64.3144021  29.5036888  34.7558085  65.2445283
  26.2817544  31.3719396  60.2160204  27.2109604  31.5230556  60.0429172
  25.8608574  31.4603417  59.3608851  25.0805876  35.3970060  57.9858742
  24.9416962  35.0288845  58.8584680  24.2920472  35.9117700  57.8142700
  25.6754028  40.4979157  49.3284278  25.8505784  40.0267200  50.1429901
  24.9886816  41.1244923  49.5565539  26.6311091  34.7751663  55.3747580
  26.2960924  34.7352433  56.2705230  26.1315037  34.1096379  54.9017990
  20.6055335  30.1819293  60.9000161  20.4675133  29.4499532  61.5011700
  21.5160259  30.0928193  60.6184349  29.5670283  32.1207697  45.6484639
  28.9499454  31.3954526  45.5517692  29.0986772  32.8817058  45.3051714
  23.2337636  29.8939252  60.3883840  23.9437255  29.2532445  60.3470459
  23.1906944  30.1452147  61.3110021  31.2224415  36.8306606  63.3090420
  31.1636961  36.1465826  62.6421003  31.6243933  37.5725596  62.8571046
  21.9466570  26.8804470  62.2079480  21.4103927  26.4295209  62.8601076
  21.3583278  27.0150379  61.4649944  20.2415113  43.6468520  56.1024139
  20.4811712  44.2787044  56.7803157  19.3984310  43.2956560  56.3889498
  21.3568829  26.3393122  44.7705944  20.4798295  26.2181923  44.4068190
  21.8326582  25.5479200  44.5184832  31.2241822  34.7946190  61.5404399
  30.3368601  34.4572112  61.6630798  31.7940373  34.0629221  61.7773165
  12.8770969  31.1270281  54.8647451  13.5642009  30.8132011  54.2768466
  12.7219098  32.0311646  54.5914702  17.6805691  26.0160478  59.2932474
  17.5963880  25.4086148  58.5582884  16.8588398  26.5069496  59.2941971
  24.7542975  39.4547642  58.5065643  24.6813147  40.2602614  59.0184947
  24.3120368  39.6539608  57.6813664  24.5432755  38.6919412  52.0168464
  23.7600277  39.2341092  52.1106689  25.2425500  39.2093392  52.4162705
  27.8529405  24.5014042  54.6602669  28.3498105  23.7484004  54.3403740
  27.0816387  24.5378358  54.0945879  35.7059163  30.2054407  56.3020961
  35.6949039  31.0879123  55.9314894  34.8376542  29.8525958  56.1075498
  27.2141659  39.3534476  60.6623801  27.9269631  39.9881941  60.5899703
  26.7231688  39.4498342  59.8463803  28.9359186  33.2585729  52.2341093
  28.0015465  33.3787191  52.0645797  29.1135854  32.3558196  51.9701103
  24.4364374  26.6431425  54.3874354  24.0662161  26.0902465  55.0755260
  24.9323466  26.0389558  53.8349354  32.3231737  29.1003048  52.7691127
  32.7892189  29.9331040  52.6951430  32.7739238  28.6348030  53.4736386
  22.2653572  37.1028920  61.4829372  22.9663032  37.7365403  61.6358766
  21.7948687  37.4443651  60.7225011  30.3907968  35.4446869  49.7677279
  30.6667812  35.3303464  50.6771153  29.5212467  35.0464354  49.7289452
  30.2948400  21.4683635  56.8082028  29.3811480  21.6987862  56.9764235
  30.7241501  21.5522079  57.6596061  30.0654858  29.6573527  59.3081922
  29.4126309  29.9049434  58.6534375  30.4435238  28.8437665  58.9744400
  27.0262032  39.6933220  53.4110093  27.2084427  38.8754876  53.8737845
  27.8495018  39.9100912  52.9734983  27.3604198  38.6201405  50.6725141
  27.8891964  38.1093860  50.0595303  27.6232417  38.3043936  51.5370674
  26.1142431  30.3993338  65.7947959  25.4383068  30.2987467  66.4650335
  26.9370065  30.2432552  66.2583957  17.8621290  36.6365275  58.4160475
  18.4474727  35.8908963  58.5488379  17.6646129  36.9469231  59.2997139
  20.7159946  39.6716522  53.4322917  20.0470321  40.1562650  52.9486957
  20.5772815  39.9185742  54.3466296  12.4538945  29.2070875  57.1364918
  12.4923045  28.6734466  57.9302036  11.9479238  28.6806080  56.5175895
  24.8565214  41.7060266  60.0305575  25.4083522  41.8691887  60.7954661
  25.1971408  42.2964703  59.3585600  19.8329708  24.0535415  60.6327460
  19.8971034  24.9150246  60.2204858  19.7696828  23.4409417  59.8999819
  19.3081980  26.1258548  64.2800494  19.9354019  25.7435625  64.8938019
  18.4509899  25.9072750  64.6456187  29.7076089  36.5321523  65.8854230
  30.2515993  37.1451481  65.3909185  29.1262933  37.0901101  66.4021243
  16.0847523  27.9334977  50.2118849  16.3800964  27.0245655  50.1585903
  15.1835559  27.9122716  49.8899852  27.9933602  39.6542241  57.0169258
  27.8684741  38.8531981  56.5080203  28.6512693  40.1488434  56.5283228
  19.6141770  26.0090974  56.1946398  18.8928356  26.6226941  56.0553871
  20.4035026  26.5448738  56.1163044  30.0568510  37.4551261  58.6448808
  29.1098845  37.3356612  58.5727134  30.4051283  36.5673759  58.7275069
  22.4168083  23.3445400  62.4687050  22.9402485  23.5907697  63.2313359
  22.1980417  24.1765435  62.0490187  17.8135364  25.6149075  50.3358174
  17.4848071  24.7346454  50.1533280  18.1674735  25.5596743  51.2234564
  27.0614943  37.2503977  54.8453160  26.9139906  36.3220685  55.0260730
  27.8868437  37.2724068  54.3610235  20.9277188  25.9022044  50.7033652
  21.2673260  26.4307966  49.9812260  21.3749308  26.2402451  51.4792219
  30.6649065  38.0732536  55.9318033  31.5895613  37.8675397  55.7942484
  30.4964368  37.8248937  56.8407374  23.6220628  24.2859095  60.1536720
  23.2817449  23.4866908  60.5557400  22.9159635  24.5860806  59.5813553
  24.2737100  21.3708408  58.6064043  25.0963170  20.8968886  58.4842933
  24.5175164  22.1498891  59.1062729  22.9145335  24.3996666  48.9026945
  23.6353697  24.7777919  48.3990662  22.2910639  25.1185543  49.0061923
  27.0576458  25.1041815  49.8385277  27.2740072  25.9866453  49.5374105
  26.5770525  24.7128028  49.1090919  21.7975679  28.0627528  56.4156022
  21.6520260  28.3767831  57.3080303  21.3200883  28.6812429  55.8626920
  23.6572062  25.0530076  56.4636911  23.6433631  24.1571170  56.1269209
  24.3744490  25.0600740  57.0975197  25.5098193  25.4867416  58.5090039
  25.2515970  26.4084487  58.5074369  24.9783233  25.0897851  59.1990503
  30.4544381  38.5918204  51.2880124  30.6281259  38.0264626  50.5353977
  30.9473273  39.3919098  51.1059614  16.2721341  30.6032873  59.3543683
  15.7274809  31.3792681  59.4863957  17.1500691  30.9503677  59.1962804
  23.0608958  23.9344456  51.7324481  23.1824869  23.0061103  51.9315369
  22.7711000  23.9483142  50.8202797  25.9300148  21.6199367  54.8691201
  25.9521845  21.6838700  53.9143181  26.3468207  20.7803876  55.0631707
  36.3083772  31.3554626  52.9070424  36.7514919  30.6061952  52.5089547
  35.4310283  31.3464763  52.5244156  31.4419554  37.9084968  48.3877022
  32.1370458  38.5291661  48.6064337  31.7842704  37.0580319  48.6629400
  17.0587363  29.7302769  62.2473840  16.3169099  29.8785404  62.8338470
  16.7380107  29.9911034  61.3840589  33.3410977  35.3584673  49.9164353
  33.8662301  35.6971946  49.1913673  33.2533329  34.4231689  49.7327488
  25.0031026  39.2718747  62.0454230  25.3118152  39.0267894  62.9176929
  25.8006508  39.4765386  61.5573100  25.0251638  41.4256657  54.2759606
  24.5856628  40.9333035  54.9692463  25.7759755  40.8829624  54.0351682
  17.5043977  37.6168198  54.2784234  18.3301997  37.3171969  53.8982878
  17.1538029  36.8475820  54.7274023  22.4725510  36.9694666  56.3481908
  21.8505519  36.3065371  56.0484136  23.1430377  36.9955798  55.6655556
  15.7052582  35.5354524  55.2373168  14.8684490  35.1076698  55.0557169
  15.6776227  35.7286967  56.1743959  22.5450037  25.4476454  65.9414414
  22.5938193  26.3238577  65.5592184  23.0872552  24.9053847  65.3686057
  33.0304883  35.9917577  65.2215551  32.2400427  35.9741716  64.6820051
  32.7938238  36.5305871  65.9764588  33.1502758  32.8410043  62.5348280
  33.2000763  32.6760051  63.4763802  33.0416681  31.9737303  62.1446160
  22.0339017  35.5198589  49.8240369  22.1827137  36.2034054  49.1707041
  22.8405460  35.5003679  50.3389824  30.4406520  28.8240972  63.8507586
  31.3416383  28.6847436  63.5591584  30.5154495  28.9895426  64.7905764
  24.7749326  26.2007826  62.6960773  23.9052635  26.4941392  62.4243361
  25.0108806  26.7848271  63.4168036  34.6520955  35.2606985  62.7790301
  34.3605763  35.6236966  63.6153762  34.0393086  34.5473993  62.6003633
  35.8516637  32.8259865  55.2992871  36.6863529  33.2649669  55.4630432
  35.9875766  32.3498518  54.4801117  32.9008143  30.3839600  61.2470359
  33.3762265  30.5767246  60.4389211  31.9773708  30.4398785  61.0013743
  19.7891650  31.5463767  50.8301437  19.5437692  30.6426097  51.0281648
  19.9587564  31.5480917  49.8880915  27.4788360  22.4187443  60.2126193
  27.9970303  23.1548470  59.8872682  27.1243492  22.7251436  61.0472952
  19.0587297  27.2792124  48.3287599  18.3656542  27.3536479  47.6727635
  18.8139049  26.5152468  48.8509116  27.7300954  18.8387726  55.7327090
  28.0102708  18.1710915  56.3587516  28.5151561  19.0316821  55.2201754
  25.5334422  38.0146720  47.2952116  24.9608389  38.6336907  46.8422588
  26.1067216  38.5646081  47.8292038  31.6009812  27.2605360  59.4798665
  32.5527235  27.3603457  59.5010889  31.4313263  26.4683628  59.9896749
  29.6224192  24.3460943  59.6658066  29.0274124  24.6265956  58.9704554
  29.3373888  24.8354844  60.4374807  28.7531682  38.2983870  48.4260698
  29.6862355  38.2329431  48.6293574  28.6654895  39.1340137  47.9675231
  31.3819699  37.6149740  45.3864646  31.3033330  37.2809604  46.2800404
  32.2029365  38.1071508  45.3856118  34.0797890  30.4811479  58.5940964
  34.0474210  29.5427480  58.7800648  34.6898514  30.5595516  57.8606789
  25.9181221  29.3507532  44.6368168  26.8640325  29.2213740  44.7056587
  25.5395466  28.6122194  45.1137597  34.2292378  27.2722523  58.6399248
  33.7131427  26.4880979  58.4529177  35.1132327  26.9441239  58.8045767
  31.8903105  21.0163538  54.5995060  31.6927926  20.7078627  55.4838392
  32.5002811  21.7425177  54.7292990  39.8974440  31.5427486  57.7347001
  40.6277828  31.2812774  58.2954705  39.2881385  30.8056208  57.7749069
  37.9789737  29.6835349  58.3321452  37.2522900  29.5491314  57.7237944
  37.5637024  29.9912177  59.1378170  25.8019913  33.4025278  66.0968825
  26.7222923  33.5803878  66.2908872  25.7669496  32.4581324  65.9448525
  24.1024138  27.2757509  44.5723054  23.1955593  26.9790621  44.6485767
  24.3800119  26.9787327  43.7057340  15.0202078  28.5963872  55.0222100
  14.7004863  27.7429180  54.7296474  14.4735506  28.8112450  55.7780067
  18.7981986  31.3126313  58.7391607  19.0167996  32.2443421  58.7579640
  19.2107760  30.9534288  59.5246410  25.7186204  21.8194398  50.7267295
  24.9086932  21.4741483  51.1022541  26.4070621  21.5101942  51.3154907
  27.6476752  20.8972445  52.3491592  28.2007791  21.3167899  53.0081615
  27.8846838  19.9708193  52.3914548  23.6709851  26.8859519  68.1294356
  23.5706578  27.8353876  68.0606447  23.4531393  26.5577758  67.2570426
  22.8722923  24.1344444  44.7135033  23.7342087  24.4599342  44.9730850
  23.0573267  23.3475940  44.2008099  14.8890338  32.2166784  56.9915222
  14.1953810  31.8020736  56.4785176  15.6363329  32.2587320  56.3948641
  31.0255559  23.0072970  51.8570256  30.4454228  23.6657774  51.4748308
  30.7591492  22.1850315  51.4457673  29.4759125  22.4078028  54.0591576
  29.9758904  22.5194563  53.2505895  30.1194733  22.1039081  54.6992385
  23.5341121  30.3156658  66.9459417  23.0508203  31.1157018  67.1523306
  23.6202060  30.3264603  65.9926861  16.8027081  32.1485037  54.8681237
  16.7797769  32.2472725  53.9163120  17.1127717  32.9950188  55.1898403
  19.4614459  34.2061192  58.9827851  20.4157712  34.1745135  58.9157783
  19.2626982  33.7451816  59.7978077  20.0513841  32.7762309  61.5498649
  20.8706730  33.2706387  61.5733486  20.3250649  31.8594277  61.5216216
  29.8080437  25.1673061  50.9126604  28.9206292  25.4522711  50.6946799
  30.2234426  25.0066824  50.0653881  33.1594973  25.1919582  54.6280943
  33.9355363  25.6816034  54.9005560  32.4343107  25.6177636  55.0852813
  35.5967532  25.9047201  55.6854884  36.1912023  25.6642937  54.9748192
  35.6694115  25.1854332  56.3128420  17.8164687  39.7480812  55.9998049
  17.6819155  38.9881213  55.4336047  17.3996750  40.4721712  55.5326838
  28.9523650  34.9317735  45.0074624  29.6559501  35.1367738  45.6232280
  28.2286299  35.4994497  45.2723708  29.7821461  30.6827597  51.1276894
  29.7256662  31.1396148  50.2884527  30.3349803  29.9218281  50.9499737
  33.5926267  26.4717329  51.9527014  33.3363201  26.0713964  52.7835222
  32.9679135  27.1861123  51.8277153  37.9038605  29.2113402  54.4598305
  37.3438163  29.2806591  55.2329867  37.2982108  29.0354386  53.7397801
  20.9733813  40.6450129  56.2116492  20.8566197  41.5895561  56.1095182
  20.1526260  40.3423691  56.6002291  30.8610348  35.3700265  47.0573084
  31.6955952  34.9381463  46.8750559  30.6994691  35.1982278  47.9849979
  30.5156240  31.8732378  48.4229424  30.4605044  31.7076649  47.4817868
  29.8902295  32.5808411  48.5791613  15.3048755  27.1100442  62.2490846
  15.9507619  26.5999396  62.7378071  15.0965906  27.8469124  62.8234271
  27.8302147  34.1781290  67.7482986  28.6993307  34.3521942  67.3869621
  27.3508899  34.9975707  67.6258716  23.8252366  21.3740487  48.0014742
  23.8131035  22.3182327  48.1583013  24.7175787  21.1910632  47.7074203
  21.9988327  41.2978391  59.4272420  22.9015574  41.3302001  59.7438915
  21.7725698  40.3678842  59.4418756  23.7541929  40.0509377  56.0882499
  22.8037560  40.0511239  55.9746871  24.0574416  39.3042112  55.5718533
  27.6404485  17.9683264  52.2560679  26.8736881  17.4141750  52.4017361
  28.0515190  18.0405132  53.1174830  19.6446246  24.2568059  66.3465860
  20.5077708  23.9004864  66.5569185  19.0711657  23.9181954  67.0341264
  39.4894623  45.8869916  57.1528261  40.1273033  45.7676663  56.4491601
  39.3715466  46.8350760  57.2116213  36.2984329  45.8397344  57.0889786
  35.9602841  45.7238409  56.2010321  37.1674097  45.4388509  57.0690792
  32.1571145  47.6932820  53.0786677  31.5936010  47.6022757  52.3102964
  32.0423540  46.8732725  53.5589169  36.7804112  46.9932196  63.0475991
  36.7692753  46.5984994  62.1756495  36.9424752  46.2598268  63.6409763
  29.7035577  49.1884012  55.9170897  30.4956869  48.8474837  55.5017196
  29.9432227  49.2978987  56.8373050  37.7370704  51.3603788  48.3901142
  37.0858683  51.9457868  48.0035155  38.5315066  51.8909983  48.4496179
  31.6626331  48.4492925  48.7888276  32.4357207  47.9021912  48.6501152
  32.0151730  49.3137174  49.0002737  33.5011373  49.7769307  61.9955175
  33.2101239  50.6814938  61.8801841  34.1368358  49.8185835  62.7099245
  34.4267580  47.1546156  58.5856535  35.0231152  46.9302178  57.8713498
  34.4842552  46.4130901  59.1881983  33.9992609  44.6085591  46.4206726
  34.2518129  44.0867113  45.6590189  33.0617168  44.4451737  46.5233409
  39.0435891  43.6121370  54.2281469  39.8298981  43.1940793  53.8771886
  39.3074596  44.5167462  54.3963117  39.2145969  49.0494220  48.9270126
  38.5791802  49.1228846  49.6391030  38.8843375  49.6387819  48.2489205
  44.4444319  43.5496603  55.1314448  45.1769491  42.9795820  55.3652277
  43.6883674  43.1618203  55.5720953  33.7188897  46.5113697  48.6231101
  33.6025155  45.8358601  49.2912185  33.8291157  46.0246071  47.8063254
  36.0620438  45.9723844  52.3277790  35.6978646  45.4454465  53.0390711
  36.9187554  45.5822313  52.1544275  41.9669739  37.2618177  59.5909056
  41.6353064  38.1313588  59.3670271  41.3715352  36.9454461  60.2703087
  35.7025925  41.0013744  47.3239138  35.8700328  41.8693980  47.6909610
  35.5123094  41.1641026  46.4000428  38.4601258  49.4630723  58.9904969
  38.1601982  50.3655762  58.8820776  38.1152318  49.1962906  59.8426122
  31.9113740  45.9144520  55.0241673  30.9864236  45.7820734  55.2319365
  32.1598153  46.6938739  55.5211616  41.8598402  41.9813263  56.6702406
  40.9515280  41.9128672  56.3761167  41.8085998  42.4585208  57.4984232
  35.6815146  43.4571402  48.3085805  35.5614771  43.9028452  49.1471286
  34.9867735  43.8056719  47.7499343  29.2722551  45.5577793  55.8585462
  29.4014932  45.8112272  56.7724874  28.5920002  46.1505501  55.5390117
  33.4422038  56.2275043  51.9575937  33.3646068  57.1782868  52.0364417
  32.8383682  55.8820916  52.6150863  43.7260049  40.1829702  58.4480280
  43.0834429  40.4762235  57.8020075  43.2214977  40.0682622  59.2533477
  41.3800212  43.9292875  49.1366139  42.2918068  44.1620261  48.9613837
  40.8709859  44.5129919  48.5741218  36.0172050  43.2890109  60.1460989
  36.8633245  43.7129523  60.2895638  35.9570688  42.6323734  60.8399552
  39.9869795  48.9118693  56.5279721  39.3578657  49.0764407  55.8255789
  39.5995457  49.3260303  57.2990685  43.8659027  49.8473131  53.8824085
  43.1810065  50.2272032  53.3321118  43.9502876  50.4568458  54.6156032
  39.1671495  40.9494478  61.8042163  38.9232427  41.7036538  61.2676438
  39.4431426  41.3279825  62.6389410  41.1209958  47.4933090  60.4819428
  41.3326853  48.1364850  59.8053809  41.0739706  46.6595407  60.0141358
  38.7236187  40.1050911  57.3856000  37.8620666  40.4032164  57.6772738
  38.7498622  40.3221310  56.4537033  35.5397757  48.6493101  53.7929806
  36.0036102  48.9280804  53.0034428  35.2754555  47.7476546  53.6102897
  32.4321838  48.1964583  56.7309569  33.0023195  48.6251851  56.0927054
  33.0229949  47.9147168  57.4293755  34.4766643  44.7716254  50.6019371
  35.1790686  45.2237297  51.0693297  34.1447271  44.1300072  51.2299264
  28.2191977  43.0299806  55.9036505  27.4291031  43.2857335  55.4276615
  28.7103224  43.8448144  56.0088545  42.2355786  50.3705045  58.6541785
  43.0573230  49.9685233  58.3724467  42.2318189  50.2673280  59.6057901
  30.1706722  43.3944386  52.8619981  29.3737885  43.5063080  53.3803477
  29.9432314  43.7331038  51.9960872  36.0012390  49.9189089  60.8102496
  36.0656822  50.3809496  61.6460668  35.2923313  49.2886454  60.9384806
  26.5029680  43.2830297  58.3351495  26.7537718  44.1677307  58.6009071
  27.0389228  43.1034898  57.5626587  50.3261779  46.7143794  55.0026757
  49.5725488  46.1451192  54.8470761  50.4609320  46.6806458  55.9497392
  35.7160407  51.5857196  50.6781476  35.5806082  52.4308732  51.1066324
  36.2570220  51.7876474  49.9147410  32.2027747  37.6648776  67.3395832
  31.8094692  37.1114975  68.0143476  33.0193887  37.9759355  67.7302349
  29.1689805  49.1032634  51.2509401  29.6814325  49.8975885  51.4014966
  29.8212517  48.4058925  51.1843003  30.9784689  52.2198391  53.3332155
  31.1551318  53.1416355  53.1453138  31.7741523  51.9056810  53.7626534
  35.1195708  39.0806655  64.9316088  35.8605421  39.6813808  64.8520551
  35.3513631  38.3384293  64.3734131  30.2637046  44.2663022  63.2094318
  30.1490561  43.3648280  63.5101417  29.4081564  44.5126719  62.8579134
  32.1016005  53.7376564  59.3342497  32.6523430  53.6093628  58.5619491
  31.2627481  54.0371453  58.9837390  39.4410122  52.4883563  62.8363220
  39.4228597  53.3092444  62.3443489  40.3630042  52.3637638  63.0613361
  39.0652871  35.1087758  59.2080370  38.7217140  35.9989400  59.1319480
  39.4331833  34.9189416  58.3449955  27.1338721  47.4321289  52.0268972
  27.9713943  47.8418297  51.8102680  27.3116989  46.4920731  51.9969166
  39.0303153  45.0996369  47.7152805  38.5149777  45.8700974  47.9541192
  38.7580462  44.4261505  48.3385866  36.6150265  39.9446070  52.7738043
  35.7591861  39.5552920  52.5943682  37.0277216  40.0238031  51.9137829
  38.1449411  37.4792413  57.1729603  37.6414207  37.4422548  56.3597408
  38.4380018  38.3885156  57.2326260  34.3892297  37.5631143  56.1795785
  35.2545294  37.3673952  55.8201674  34.4569806  37.3341495  57.1065141
  44.0037428  47.8528724  49.6505978  43.2266870  47.5139883  49.2061140
  44.6828909  47.8581347  48.9760943  38.8189457  42.9723461  49.5412586
  38.5139592  43.2869611  50.3922729  39.7719899  43.0504881  49.5839919
  37.2635888  49.1313685  51.1905540  36.7357250  48.3966444  50.8778777
  36.7623391  49.9088361  50.9445508  42.2428735  47.3262705  56.3072586
  41.5852409  48.0161967  56.3952715  43.0469134  47.7159137  56.6506573
  31.9954616  39.7933351  53.5512152  32.5698368  39.5708532  52.8185344
  32.5825599  39.8622045  54.3040753  41.0534193  45.6807078  54.3576528
  41.5666075  46.3137070  54.8598238  41.7035417  45.0808273  53.9919888
  32.3224203  41.8237812  47.5708037  31.4861515  42.1612499  47.8917312
  32.1828973  41.6886792  46.6335174  34.2977284  36.6674600  52.2787221
  33.6441696  36.3523617  51.6543836  34.2557758  36.0450340  53.0047044
  35.4088489  46.9493895  44.1940513  34.5015550  46.7183148  44.3931662
  35.9059521  46.1531514  44.3814495  38.3156568  55.6591402  47.1137199
  37.6418266  55.9623099  47.7222157  38.7022390  56.4620482  46.7642656
  37.5315024  43.1556533  56.6034869  36.6137586  43.3771480  56.4456557
  37.9475168  43.2302844  55.7446576  38.3150072  44.5547949  51.7337549
  39.0621891  45.0669346  51.4244671  38.5841661  44.2332002  52.5941942
  36.5876722  47.0506490  48.7164503  35.6787941  46.7665523  48.8136973
  36.6171806  47.4705568  47.8567810  41.8195990  50.6613079  52.4855671
  41.3658317  49.8203989  52.5420861  41.1889956  51.2974478  52.8230451
  40.7628909  41.5905065  53.7156338  40.0251666  41.0782452  54.0466581
  41.0155683  41.1505447  52.9039615  40.2628929  52.4989576  53.4205489
  40.5551903  53.0594633  52.7017854  40.7727549  52.7918137  54.1758648
  40.8640536  34.3681317  54.3098107  41.1699413  33.5078681  54.0224023
  41.5893141  34.9598938  54.1097101  27.1564892  44.7712004  52.6979705
  26.9589292  44.1781365  51.9730772  26.6011556  44.4664214  53.4155644
  35.1361616  44.6635110  54.8174299  35.1910226  43.7108947  54.7416775
  34.3252818  44.8194549  55.3015597  36.2852810  48.5915233  46.0552582
  35.8472240  47.8751092  45.5958219  37.0263251  48.8191348  45.4937673
  33.0753976  43.2812170  52.5764677  32.2621842  43.5806341  52.9829870
  33.5712970  42.8867859  53.2939160  35.2262554  53.2769927  54.5098942
  35.1838733  53.5030773  53.5807474  36.1425253  53.0433302  54.6584743
  38.6728188  43.7453995  61.4079571  39.0277575  43.9725468  62.2674037
  39.3200319  44.0772371  60.7856827  44.4025925  46.8672430  52.1128900
  44.2643823  47.0574026  51.1850090  44.0462144  47.6291813  52.5696951
  32.5668051  40.8530526  58.1925912  33.2067430  40.7119285  57.4948876
  31.7345581  40.5665039  57.8164514  44.4295304  48.9348958  57.1240172
  44.8631811  48.8424247  57.9723226  45.1426885  48.9106458  56.4860188
  33.3428355  50.1532956  54.3060905  34.1368953  49.6583276  54.1043480
  32.6320047  49.6250819  53.9428610  38.1623199  52.5351052  58.6573272
  38.2160221  53.1041988  59.4250988  37.2937981  52.7052937  58.2927310
  29.6511118  44.2976038  50.3820657  28.7208706  44.2360493  50.5990620
  29.7468590  43.7751991  49.5857299  29.5696667  40.8230851  52.9698899
  29.8303485  41.7376184  52.8608060  30.3913840  40.3555293  53.1195512
  31.0421593  42.2368608  60.1397724  31.7144646  42.0285970  59.4910373
  30.2151379  42.0390694  59.7002956  45.2910854  48.9772658  59.6573057
  45.4846744  49.8818469  59.9032332  45.1911472  48.5180077  60.4911642
  36.9447165  38.8630549  62.1563385  36.2975080  39.5620498  62.0627861
  37.7148180  39.2966693  62.5239633  37.1211299  46.7011314  60.2160204
  38.0503359  46.8522473  60.0429172  36.7002329  46.7895334  59.3608851
  35.9199631  50.7261978  57.9858742  35.7810716  50.3580762  58.8584680
  35.1314227  51.2409617  57.8142700  36.5147783  55.8271075  49.3284278
  36.6899538  55.3559118  50.1429901  35.8280571  56.4536841  49.5565539
  37.4704846  50.1043581  55.3747580  37.1354678  50.0644351  56.2705230
  36.9708792  49.4388297  54.9017990  31.4449090  45.5111211  60.9000161
  31.3068888  44.7791450  61.5011700  32.3554013  45.4220111  60.6184349
  40.4064038  47.4499615  45.6484639  39.7893208  46.7246443  45.5517692
  39.9380526  48.2108975  45.3051714  34.0731391  45.2231170  60.3883840
  34.7831009  44.5824362  60.3470459  34.0300699  45.4744065  61.3110021
  42.0618169  52.1598523  63.3090420  42.0030715  51.4757744  62.6421003
  42.4637688  52.9017513  62.8571046  32.7860324  42.2096388  62.2079480
  32.2497682  41.7587126  62.8601076  32.1977033  42.3442297  61.4649944
  31.0808868  58.9760437  56.1024139  31.3205466  59.6078961  56.7803157
  30.2378064  58.6248477  56.3889498  32.1962583  41.6685039  44.7705944
  31.3192050  41.5473840  44.4068190  32.6720337  40.8771118  44.5184832
  42.0635576  50.1238107  61.5404399  41.1762355  49.7864029  61.6630798
  42.6334128  49.3921139  61.7773165  23.7164724  46.4562199  54.8647451
  24.4035763  46.1423929  54.2768466  23.5612852  47.3603564  54.5914702
  28.5199446  41.3452396  59.2932474  28.4357634  40.7378065  58.5582884
  27.6982152  41.8361414  59.2941971  35.5936730  54.7839560  58.5065643
  35.5206901  55.5894531  59.0184947  35.1514123  54.9831526  57.6813664
  35.3826509  54.0211330  52.0168464  34.5994031  54.5633010  52.1106689
  36.0819255  54.5385309  52.4162705  38.6923160  39.8305959  54.6602669
  39.1891859  39.0775922  54.3403740  37.9210141  39.8670276  54.0945879
  46.5452917  45.5346325  56.3020961  46.5342793  46.4171040  55.9314894
  45.6770296  45.1817876  56.1075498  38.0535413  54.6826394  60.6623801
  38.7663386  55.3173859  60.5899703  37.5625442  54.7790260  59.8463803
  39.7752940  48.5877646  52.2341093  38.8409219  48.7079109  52.0645797
  39.9529609  47.6850113  51.9701103  35.2758128  41.9723342  54.3874354
  34.9055916  41.4194383  55.0755260  35.7717221  41.3681476  53.8349354
  43.1625492  44.4294966  52.7691127  43.6285944  45.2622957  52.6951430
  43.6132992  43.9639947  53.4736386  33.1047327  52.4320837  61.4829372
  33.8056786  53.0657320  61.6358766  32.6342442  52.7735569  60.7225011
  41.2301723  50.7738787  49.7677279  41.5061567  50.6595382  50.6771153
  40.3606221  50.3756272  49.7289452  41.1342154  36.7975553  56.8082028
  40.2205234  37.0279780  56.9764235  41.5635256  36.8813997  57.6596061
  40.9048613  44.9865445  59.3081922  40.2520063  45.2341352  58.6534375
  41.2828993  44.1729583  58.9744400  37.8655787  55.0225138  53.4110093
  38.0478181  54.2046794  53.8737845  38.6888773  55.2392830  52.9734983
  38.1997952  53.9493323  50.6725141  38.7285719  53.4385778  50.0595303
  38.4626172  53.6335853  51.5370674  28.7015045  51.9657192  58.4160475
  29.2868482  51.2200880  58.5488379  28.5039883  52.2761149  59.2997139
  31.5553700  55.0008440  53.4322917  30.8864075  55.4854567  52.9486957
  31.4166570  55.2477660  54.3466296  23.2932700  44.5362792  57.1364918
  23.3316799  44.0026383  57.9302036  22.7872993  44.0097998  56.5175895
  35.6958969  57.0352183  60.0305575  36.2477277  57.1983805  60.7954661
  36.0365162  57.6256621  59.3585600  30.6723462  39.3827333  60.6327460
  30.7364788  40.2442164  60.2204858  30.6090582  38.7701335  59.8999819
  30.1475735  41.4550466  64.2800494  30.7747773  41.0727543  64.8938019
  29.2903653  41.2364667  64.6456187  26.9241277  43.2626895  50.2118849
  27.2194718  42.3537573  50.1585903  26.0229313  43.2414634  49.8899852
  38.8327356  54.9834159  57.0169258  38.7078496  54.1823899  56.5080203
  39.4906447  55.4780352  56.5283228  30.4535524  41.3382891  56.1946398
  29.7322110  41.9518859  56.0553871  31.2428780  41.8740656  56.1163044
  40.8962264  52.7843179  58.6448808  39.9492600  52.6648530  58.5727134
  41.2445038  51.8965677  58.7275069  33.2561838  38.6737318  62.4687050
  33.7796240  38.9199614  63.2313359  33.0374171  39.5057353  62.0490187
  28.6529119  40.9440992  50.3358174  28.3241825  40.0638371  50.1533280
  29.0068490  40.8888661  51.2234564  37.9008698  52.5795895  54.8453160
  37.7533660  51.6512602  55.0260730  38.7262191  52.6015986  54.3610235
  31.7670942  41.2313962  50.7033652  32.1067015  41.7599883  49.9812260
  32.2143063  41.5694368  51.4792219  41.5042820  53.4024454  55.9318033
  42.4289367  53.1967315  55.7942484  41.3358123  53.1540855  56.8407374
  34.4614383  39.6151013  60.1536720  34.1211203  38.8158826  60.5557400
  33.7553389  39.9152724  59.5813553  35.1130855  36.7000325  58.6064043
  35.9356924  36.2260803  58.4842933  35.3568918  37.4790809  59.1062729
  33.7539089  39.7288584  48.9026945  34.4747452  40.1069836  48.3990662
  33.1304393  40.4477461  49.0061923  37.8970212  40.4333733  49.8385277
  38.1133826  41.3158371  49.5374105  37.4164279  40.0419946  49.1090919
  32.6369433  43.3919446  56.4156022  32.4914014  43.7059749  57.3080303
  32.1594637  44.0104346  55.8626920  34.4965816  40.3821994  56.4636911
  34.4827385  39.4863087  56.1269209  35.2138244  40.3892658  57.0975197
  36.3491947  40.8159334  58.5090039  36.0909725  41.7376405  58.5074369
  35.8176987  40.4189769  59.1990503  41.2938136  53.9210121  51.2880124
  41.4675013  53.3556544  50.5353977  41.7867027  54.7211016  51.1059614
  27.1115096  45.9324790  59.3543683  26.5668564  46.7084598  59.4863957
  27.9894445  46.2795595  59.1962804  33.9002712  39.2636374  51.7324481
  34.0218623  38.3353020  51.9315369  33.6104755  39.2775060  50.8202797
  36.7693903  36.9491285  54.8691201  36.7915599  37.0130618  53.9143181
  37.1861962  36.1095793  55.0631707  47.1477527  46.6846544  52.9070424
  47.5908673  45.9353869  52.5089547  46.2704037  46.6756681  52.5244156
  42.2813308  53.2376886  48.3877022  42.9764213  53.8583578  48.6064337
  42.6236458  52.3872237  48.6629400  27.8981117  45.0594687  62.2473840
  27.1562853  45.2077322  62.8338470  27.5773862  45.3202952  61.3840589
  44.1804731  50.6876591  49.9164353  44.7056055  51.0263864  49.1913673
  44.0927084  49.7523606  49.7327488  35.8424780  54.6010665  62.0454230
  36.1511907  54.3559812  62.9176929  36.6400262  54.8057303  61.5573100
  35.8645392  56.7548574  54.2759606  35.4250382  56.2624953  54.9692463
  36.6153509  56.2121542  54.0351682  28.3437731  52.9460115  54.2784234
  29.1695751  52.6463887  53.8982878  27.9931783  52.1767738  54.7274023
  33.3119264  52.2986584  56.3481908  32.6899274  51.6357289  56.0484136
  33.9824131  52.3247715  55.6655556  26.5446336  50.8646442  55.2373168
  25.7078244  50.4368616  55.0557169  26.5169982  51.0578885  56.1743959
  33.3843792  40.7768372  65.9414414  33.4331947  41.6530494  65.5592184
  33.9266306  40.2345765  65.3686057  32.8732771  50.8490507  49.8240369
  33.0220892  51.5325971  49.1707041  33.6799215  50.8295597  50.3389824
  35.6143080  41.5299744  62.6960773  34.7446390  41.8233310  62.4243361
  35.8502561  42.1140189  63.4168036  46.6910392  48.1551782  55.2992871
  47.5257283  48.5941587  55.4630432  46.8269520  47.6790436  54.4801117
  43.7401898  45.7131517  61.2470359  44.2156019  45.9059164  60.4389211
  42.8167463  45.7690703  61.0013743  30.6285404  46.8755684  50.8301437
  30.3831446  45.9718014  51.0281648  30.7981319  46.8772835  49.8880915
  38.3182114  37.7479361  60.2126193  38.8364058  38.4840388  59.8872682
  37.9637247  38.0543354  61.0472952  29.8981052  42.6084042  48.3287599
  29.2050297  42.6828397  47.6727635  29.6532804  41.8444386  48.8509116
  38.5694708  34.1679643  55.7327090  38.8496462  33.5002832  56.3587516
  39.3545315  34.3608739  55.2201754  36.3728177  53.3438637  47.2952116
  35.8002144  53.9628824  46.8422588  36.9460970  53.8937999  47.8292038
  42.4403567  42.5897277  59.4798665  43.3920989  42.6895375  59.5010889
  42.2707017  41.7975546  59.9896749  40.4617946  39.6752861  59.6658066
  39.8667878  39.9557873  58.9704554  40.1767643  40.1646762  60.4374807
  39.5925437  53.6275787  48.4260698  40.5256110  53.5621349  48.6293574
  39.5048649  54.4632054  47.9675231  42.2213453  52.9441658  45.3864646
  42.1427085  52.6101521  46.2800404  43.0423120  53.4363426  45.3856118
  44.9191644  45.8103397  58.5940964  44.8867964  44.8719398  58.7800648
  45.5292268  45.8887434  57.8606789  36.7574975  44.6799450  44.6368168
  37.7034080  44.5505658  44.7056587  36.3789220  43.9414112  45.1137597
  45.0686133  42.6014441  58.6399248  44.5525182  41.8172897  58.4529177
  45.9526081  42.2733157  58.8045767  42.7296860  36.3455456  54.5995060
  42.5321681  36.0370544  55.4838392  43.3396565  37.0717095  54.7292990
  50.7368194  46.8719404  57.7347001  51.4671583  46.6104692  58.2954705
  50.1275140  46.1348126  57.7749069  48.8183491  45.0127266  58.3321452
  48.0916655  44.8783231  57.7237944  48.4030778  45.3204095  59.1378170
  34.9417892  42.6049426  44.5723054  34.0349348  42.3082539  44.6485767
  35.2193873  42.3079245  43.7057340  25.8595833  43.9255790  55.0222100
  25.5398617  43.0721098  54.7296474  25.3129261  44.1404368  55.7780067
  29.6375740  46.6418231  58.7391607  29.8561750  47.5735339  58.7579640
  30.0501514  46.2826205  59.5246410  36.5579958  37.1486316  50.7267295
  35.7480686  36.8033401  51.1022541  37.2464375  36.8393860  51.3154907
  38.4870506  36.2264363  52.3491592  39.0401545  36.6459816  53.0081615
  38.7240593  35.3000111  52.3914548  33.7116677  39.4636362  44.7135033
  34.5735841  39.7891260  44.9730850  33.8967021  38.6767858  44.2008099
  25.7284093  47.5458701  56.9915222  25.0347564  47.1312654  56.4785176
  26.4757084  47.5879238  56.3948641  41.8649313  38.3364888  51.8570256
  41.2847983  38.9949692  51.4748308  41.5985246  37.5142233  51.4457673
  40.3152880  37.7369946  54.0591576  40.8152658  37.8486480  53.2505895
  40.9588488  37.4330999  54.6992385  27.6420835  47.4776955  54.8681237
  27.6191523  47.5764642  53.9163120  27.9521472  48.3242106  55.1898403
  30.3008213  49.5353110  58.9827851  31.2551467  49.5037052  58.9157783
  30.1020737  49.0743734  59.7978077  30.8907595  48.1054226  61.5498649
  31.7100484  48.5998305  61.5733486  31.1644403  47.1886194  61.5216216
  40.6474192  40.4964978  50.9126604  39.7600047  40.7814629  50.6946799
  41.0628181  40.3358742  50.0653881  43.9988728  40.5211499  54.6280943
  44.7749118  41.0107952  54.9005560  43.2736862  40.9469554  55.0852813
  46.4361286  41.2339119  55.6854884  47.0305777  40.9934855  54.9748192
  46.5087870  40.5146249  56.3128420  28.6558442  55.0772730  55.9998049
  28.5212910  54.3173131  55.4336047  28.2390504  55.8013629  55.5326838
  39.7917405  50.2609653  45.0074624  40.4953255  50.4659656  45.6232280
  39.0680054  50.8286415  45.2723708  40.6215215  46.0119514  51.1276894
  40.5650417  46.4688066  50.2884527  41.1743558  45.2510199  50.9499737
  44.4320021  41.8009246  51.9527014  44.1756955  41.4005882  52.7835222
  43.8072889  42.5153040  51.8277153  48.7432359  44.5405320  54.4598305
  48.1831917  44.6098509  55.2329867  48.1375862  44.3646304  53.7397801
  31.8127568  55.9742047  56.2116492  31.6959952  56.9187479  56.1095182
  30.9920014  55.6715608  56.6002291  41.7004102  50.6992182  47.0573084
  42.5349706  50.2673381  46.8750559  41.5388445  50.5274196  47.9849979
  41.3549995  47.2024296  48.4229424  41.2998798  47.0368567  47.4817868
  40.7296050  47.9100329  48.5791613  26.1442510  42.4392360  62.2490846
  26.7901373  41.9291314  62.7378071  25.9359661  43.1761042  62.8234271
  34.6646120  36.7032405  48.0014742  34.6524790  37.6474245  48.1583013
  35.5569542  36.5202550  47.7074203  32.8382082  56.6270309  59.4272420
  33.7409329  56.6593919  59.7438915  32.6119452  55.6970759  59.4418756
  34.5935684  55.3801295  56.0882499  33.6431315  55.3803157  55.9746871
  34.8968170  54.6334030  55.5718533  38.4798239  33.2975181  52.2560679
  37.7130635  32.7433668  52.4017361  38.8908944  33.3697050  53.1174830
  30.4840001  39.5859977  66.3465860  31.3471462  39.2296782  66.5569185
  29.9105411  39.2473872  67.0341264  50.3288377  61.2161833  57.1528261
  50.9666787  61.0968581  56.4491601  50.2109220  62.1642677  57.2116213
  47.1378084  61.1689262  57.0889786  46.7996595  61.0530326  56.2010321
  48.0067852  60.7680427  57.0690792  42.9964899  63.0224738  53.0786677
  42.4329765  62.9314675  52.3102964  42.8817294  62.2024642  53.5589169
  47.6197867  62.3224113  63.0475991  47.6086508  61.9276912  62.1756495
  47.7818506  61.5890186  63.6409763  40.5429331  64.5175930  55.9170897
  41.3350623  64.1766754  55.5017196  40.7825982  64.6270905  56.8373050
  48.5764458  66.6895706  48.3901142  47.9252438  67.2749786  48.0035155
  49.3708821  67.2201901  48.4496179  42.5020085  63.7784843  48.7888276
  43.2750961  63.2313830  48.6501152  42.8545484  64.6429092  49.0002737
  44.3405128  65.1061225  61.9955175  44.0494994  66.0106856  61.8801841
  44.9762112  65.1477753  62.7099245  45.2661335  62.4838074  58.5856535
  45.8624907  62.2594096  57.8713498  45.3236306  61.7422819  59.1881983
  44.8386363  59.9377509  46.4206726  45.0911884  59.4159030  45.6590189
  43.9010922  59.7743654  46.5233409  49.8829646  58.9413287  54.2281469
  50.6692735  58.5232710  53.8771886  50.1468350  59.8459380  54.3963117
  50.0539723  64.3786138  48.9270126  49.4185556  64.4520764  49.6391030
  49.7237130  64.9679736  48.2489205  55.2838073  58.8788521  55.1314448
  56.0163245  58.3087737  55.3652277  54.5277429  58.4910121  55.5720953
  44.5582652  61.8405615  48.6231101  44.4418910  61.1650518  49.2912185
  44.6684912  61.3537989  47.8063254  46.9014193  61.3015762  52.3277790
  46.5372400  60.7746383  53.0390711  47.7581309  60.9114231  52.1544275
  52.8063493  52.5910095  59.5909056  52.4746818  53.4605506  59.3670271
  52.2109107  52.2746379  60.2703087  46.5419680  56.3305662  47.3239138
  46.7094082  57.1985898  47.6909610  46.3516849  56.4932943  46.4000428
  49.2995013  64.7922641  58.9904969  48.9995736  65.6947679  58.8820776
  48.9546072  64.5254824  59.8426122  42.7507494  61.2436437  55.0241673
  41.8257991  61.1112652  55.2319365  42.9991908  62.0230657  55.5211616
  52.6992157  57.3105181  56.6702406  51.7909034  57.2420589  56.3761167
  52.6479753  57.7877126  57.4984232  46.5208901  58.7863319  48.3085805
  46.4008526  59.2320370  49.1471286  45.8261489  59.1348637  47.7499343
  40.1116305  60.8869711  55.8585462  40.2408687  61.1404190  56.7724874
  39.4313757  61.4797419  55.5390117  44.2815793  71.5566961  51.9575937
  44.2039822  72.5074786  52.0364417  43.6777436  71.2112833  52.6150863
  46.7733023  58.7294826  64.6137303  45.9966357  59.2888747  64.6040168
  47.4123586  59.2151609  65.1352174  54.5653803  55.5121619  58.4480280
  53.9228183  55.8054152  57.8020075  54.0608732  55.3974540  59.2533477
  52.2193967  59.2584792  49.1366139  53.1311823  59.4912179  48.9613837
  51.7103614  59.8421837  48.5741218  50.5034734  63.6809420  62.7727432
  50.9118091  63.2391831  62.0282064  49.7811996  63.1062048  63.0261625
  46.8565805  58.6182027  60.1460989  47.7027000  59.0421441  60.2895638
  46.7964442  57.9615651  60.8399552  50.8263549  64.2410611  56.5279721
  50.1972412  64.4056325  55.8255789  50.4389211  64.6552220  57.2990685
  54.7052781  65.1765049  53.8824085  54.0203819  65.5563950  53.3321118
  54.7896630  65.7860375  54.6156032  51.9603713  62.8225008  60.4819428
  52.1720608  63.4656768  59.8053809  51.9133461  61.9887324  60.0141358
  49.5629942  55.4342828  57.3856000  48.7014421  55.7324082  57.6772738
  49.5892376  55.6513227  56.4537033  46.3791511  63.9785019  53.7929806
  46.8429857  64.2572722  53.0034428  46.1148309  63.0768464  53.6102897
  43.2715592  63.5256500  56.7309569  43.8416949  63.9543769  56.0927054
  43.8623704  63.2439085  57.4293755  45.3160397  60.1008171  50.6019371
  46.0184440  60.5529215  51.0693297  44.9841026  59.4591990  51.2299264
  43.7640759  58.6919928  64.9770580  43.1339419  59.3736209  65.2105977
  43.6576846  58.5803010  64.0323719  39.0585731  58.3591724  55.9036505
  38.2684785  58.6149253  55.4276615  39.5496978  59.1740062  56.0088545
  53.0749541  65.6996963  58.6541785  53.8966984  65.2977150  58.3724467
  53.0711943  65.5965197  59.6057901  41.0100476  58.7236303  52.8619981
  40.2131640  58.8354997  53.3803477  40.7826069  59.0622955  51.9960872
  46.8406144  65.2481006  60.8102496  46.9050577  65.7101414  61.6460668
  46.1317068  64.6178371  60.9384806  37.3423434  58.6122214  58.3351495
  37.5931472  59.4969224  58.6009071  37.8782982  58.4326816  57.5626587
  46.5554162  66.9149114  50.6781476  46.4199836  67.7600650  51.1066324
  47.0963974  67.1168392  49.9147410  40.0083559  64.4324552  51.2509401
  40.5208080  65.2267802  51.4014966  40.6606272  63.7350842  51.1843003
  41.8178444  67.5490308  53.3332155  41.9945072  68.4708273  53.1453138
  42.6135277  67.2348727  53.7626534  48.1822638  67.5372680  64.8081818
  47.7386492  66.7509059  64.4902723  48.8439852  67.7251831  64.1425709
  42.9409759  69.0668482  59.3342497  43.4917184  68.9385545  58.5619491
  42.1021235  69.3663371  58.9837390  50.2803876  67.8175480  62.8363220
  50.2622351  68.6384361  62.3443489  51.2023796  67.6929556  63.0613361
  46.7376930  65.3319610  63.6786728  47.2705267  64.5707898  63.4486036
  46.2091011  65.0393262  64.4210882  49.9046625  50.4379676  59.2080370
  49.5610895  51.3281317  59.1319480  50.2725588  50.2481333  58.3449955
  37.9732476  62.7613206  52.0268972  38.8107698  63.1710215  51.8102680
  38.1510744  61.8212648  51.9969166  49.8696908  60.4288287  47.7152805
  49.3543531  61.1992892  47.9541192  49.5974216  59.7553423  48.3385866
  47.4544019  55.2737988  52.7738043  46.5985615  54.8844838  52.5943682
  47.8670971  55.3529949  51.9137829  48.9843166  52.8084331  57.1729603
  48.4807961  52.7714466  56.3597408  49.2773773  53.7177074  57.2326260
  45.2286052  52.8923061  56.1795785  46.0939048  52.6965869  55.8201674
  45.2963560  52.6633412  57.1065141  54.8431182  63.1820642  49.6505978
  54.0660625  62.8431801  49.2061140  55.5222663  63.1873265  48.9760943
  49.6583211  58.3015379  49.5412586  49.3533347  58.6161528  50.3922729
  50.6113653  58.3796799  49.5839919  48.1029643  64.4605602  51.1905540
  47.5751005  63.7258362  50.8778777  47.6017146  65.2380279  50.9445508
  53.0822489  62.6554623  56.3072586  52.4246163  63.3453884  56.3952715
  53.8862888  63.0451055  56.6506573  42.8348371  55.1225269  53.5512152
  43.4092123  54.9000450  52.8185344  43.4219353  55.1913963  54.3040753
  51.8927948  61.0098996  54.3576528  52.4059830  61.6428987  54.8598238
  52.5429172  60.4100191  53.9919888  43.1617958  57.1529730  47.5708037
  42.3255270  57.4904416  47.8917312  43.0222727  57.0178709  46.6335174
  45.1371038  51.9966518  52.2787221  44.4835451  51.6815535  51.6543836
  45.0951512  51.3742258  53.0047044  46.2482243  62.2785813  44.1940513
  45.3409305  62.0475066  44.3931662  46.7453275  61.4823432  44.3814495
  49.1550322  70.9883320  47.1137199  48.4812021  71.2915017  47.7222157
  49.5416144  71.7912400  46.7642656  48.3708779  58.4848451  56.6034869
  47.4531340  58.7063398  56.4456557  48.7868922  58.5594762  55.7446576
  49.1543826  59.8839867  51.7337549  49.9015645  60.3961264  51.4244671
  49.4235416  59.5623919  52.5941942  47.4270477  62.3798407  48.7164503
  46.5181696  62.0957440  48.8136973  47.4565560  62.7997486  47.8567810
  52.6589744  65.9904997  52.4855671  52.2052071  65.1495907  52.5420861
  52.0283711  66.6266395  52.8230451  51.6022664  56.9196983  53.7156338
  50.8645420  56.4074369  54.0466581  51.8549437  56.4797365  52.9039615
  51.1022683  67.8281494  53.4205489  51.3945658  68.3886551  52.7017854
  51.6121304  68.1210055  54.1758648  51.7034291  49.6973235  54.3098107
  52.0093168  48.8370598  54.0224023  52.4286896  50.2890855  54.1097101
  37.9958647  60.1003922  52.6979705  37.7983047  59.5073282  51.9730772
  37.4405311  59.7956132  53.4155644  45.9755371  59.9927028  54.8174299
  46.0303980  59.0400864  54.7416775  45.1646573  60.1486467  55.3015597
  47.1246564  63.9207151  46.0552582  46.6865994  63.2043010  45.5958219
  47.8657005  64.1483266  45.4937673  43.9147731  58.6104088  52.5764677
  43.1015596  58.9098258  52.9829870  44.4106725  58.2159777  53.2939160
  46.0656308  68.6061845  54.5098942  46.0232487  68.8322691  53.5807474
  46.9819007  68.3725219  54.6584743  49.5121942  59.0745912  61.4079571
  49.8671330  59.3017385  62.2674037  50.1594073  59.4064289  60.7856827
  55.2419679  62.1964348  52.1128900  55.1037578  62.3865944  51.1850090
  54.8855898  62.9583731  52.5696951  43.4061805  56.1822443  58.1925912
  44.0461185  56.0411202  57.4948876  42.5739336  55.8956957  57.8164514
  55.2689059  64.2640875  57.1240172  55.7025565  64.1716164  57.9723226
  55.9820639  64.2398376  56.4860188  44.1822109  65.4824874  54.3060905
  44.9762708  64.9875194  54.1043480  43.4713802  64.9542737  53.9428610
  49.0016954  67.8642969  58.6573272  49.0553976  68.4333906  59.4250988
  48.1331735  68.0344854  58.2927310  40.4904873  59.6267955  50.3820657
  39.5602461  59.5652411  50.5990620  40.5862345  59.1043908  49.5857299
  40.4090422  56.1522768  52.9698899  40.6697239  57.0668102  52.8608060
  41.2307594  55.6847211  53.1195512  41.8815347  57.5660525  60.1397724
  42.5538401  57.3577888  59.4910373  41.0545134  57.3682611  59.7002956
  56.1304608  64.3064576  59.6573057  56.3240498  65.2110386  59.9032332
  56.0305227  63.8471995  60.4911642  51.1919717  64.4571319  65.2313938
  51.0405223  64.2281870  64.3144021  51.1824397  65.4141920  65.2445283
  47.9605053  62.0303231  60.2160204  48.8897113  62.1814391  60.0429172
  47.5396083  62.1187252  59.3608851  46.7593385  66.0553896  57.9858742
  46.6204471  65.6872680  58.8584680  45.9707981  66.5701535  57.8142700
  47.3541537  71.1562992  49.3284278  47.5293293  70.6851035  50.1429901
  46.6674325  71.7828758  49.5565539  48.3098600  65.4335498  55.3747580
  47.9748433  65.3936268  56.2705230  47.8102546  64.7680214  54.9017990
  42.2842844  60.8403128  60.9000161  42.1462642  60.1083367  61.5011700
  43.1947768  60.7512029  60.6184349  51.2457792  62.7791533  45.6484639
  50.6286963  62.0538361  45.5517692  50.7774280  63.5400893  45.3051714
  44.9125145  60.5523088  60.3883840  45.6224764  59.9116280  60.3470459
  44.8694453  60.8035983  61.3110021  52.9011924  67.4890441  63.3090420
  52.8424470  66.8049661  62.6421003  53.3031442  68.2309431  62.8571046
  43.6254079  57.5388306  62.2079480  43.0891436  57.0879044  62.8601076
  43.0370787  57.6734215  61.4649944  41.9202622  74.3052355  56.1024139
  42.1599221  74.9370879  56.7803157  41.0771819  73.9540395  56.3889498
  43.0356338  56.9976957  44.7705944  42.1585804  56.8765758  44.4068190
  43.5114091  56.2063035  44.5184832  52.9029331  65.4530025  61.5404399
  52.0156110  65.1155947  61.6630798  53.4727882  64.7213056  61.7773165
  34.5558478  61.7854117  54.8647451  35.2429518  61.4715847  54.2768466
  34.4006607  62.6895481  54.5914702  39.3593200  56.6744313  59.2932474
  39.2751389  56.0669983  58.5582884  38.5375907  57.1653332  59.2941971
  46.4330484  70.1131477  58.5065643  46.3600656  70.9186449  59.0184947
  45.9907877  70.3123443  57.6813664  46.2220264  69.3503247  52.0168464
  45.4387786  69.8924928  52.1106689  46.9213009  69.8677227  52.4162705
  49.5316914  55.1597877  54.6602669  50.0285614  54.4067839  54.3403740
  48.7603896  55.1962194  54.0945879  57.3846671  60.8638242  56.3020961
  57.3736548  61.7462958  55.9314894  56.5164051  60.5109793  56.1075498
  48.8929168  70.0118311  60.6623801  49.6057140  70.6465776  60.5899703
  48.4019197  70.1082177  59.8463803  50.6146695  63.9169564  52.2341093
  49.6802974  64.0371027  52.0645797  50.7923363  63.0142031  51.9701103
  46.1151883  57.3015260  54.3874354  45.7449670  56.7486300  55.0755260
  46.6110975  56.6973393  53.8349354  54.0019246  59.7586883  52.7691127
  54.4679698  60.5914875  52.6951430  54.4526747  59.2931865  53.4736386
  43.9441081  67.7612755  61.4829372  44.6450541  68.3949238  61.6358766
  43.4736196  68.1027486  60.7225011  52.0695477  66.1030705  49.7677279
  52.3455321  65.9887299  50.6771153  51.1999976  65.7048190  49.7289452
  51.9735909  52.1267470  56.8082028  51.0598989  52.3571697  56.9764235
  52.4029010  52.2105914  57.6596061  51.7442367  60.3157362  59.3081922
  51.0913818  60.5633270  58.6534375  52.1222747  59.5021501  58.9744400
  48.7049541  70.3517056  53.4110093  48.8871936  69.5338711  53.8737845
  49.5282527  70.5684748  52.9734983  49.0391707  69.2785241  50.6725141
  49.5679473  68.7677695  50.0595303  49.3019926  68.9627771  51.5370674
  47.7929940  61.0577173  65.7947959  47.1170577  60.9571303  66.4650335
  48.6157574  60.9016387  66.2583957  39.5408799  67.2949110  58.4160475
  40.1262236  66.5492798  58.5488379  39.3433638  67.6053067  59.2997139
  42.3947455  70.3300357  53.4322917  41.7257830  70.8146485  52.9486957
  42.2560324  70.5769578  54.3466296  34.1326454  59.8654710  57.1364918
  34.1710554  59.3318301  57.9302036  33.6266747  59.3389916  56.5175895
  46.5352723  72.3644101  60.0305575  47.0871031  72.5275722  60.7954661
  46.8758917  72.9548539  59.3585600  41.5117216  54.7119251  60.6327460
  41.5758543  55.5734082  60.2204858  41.4484337  54.0993252  59.8999819
  51.3863598  67.1905358  65.8854230  51.9303502  67.8035317  65.3909185
  50.8050442  67.7484937  66.4021243  37.7635032  58.5918812  50.2118849
  38.0588473  57.6829491  50.1585903  36.8623068  58.5706552  49.8899852
  49.6721111  70.3126076  57.0169258  49.5472250  69.5115816  56.5080203
  50.3300202  70.8072270  56.5283228  41.2929279  56.6674809  56.1946398
  40.5715865  57.2810777  56.0553871  42.0822535  57.2032574  56.1163044
  51.7356019  68.1135096  58.6448808  50.7886354  67.9940448  58.5727134
  52.0838792  67.2257595  58.7275069  44.0955592  54.0029235  62.4687050
  44.6189994  54.2491532  63.2313359  43.8767926  54.8349270  62.0490187
  39.4922873  56.2732910  50.3358174  39.1635580  55.3930289  50.1533280
  39.8462244  56.2180579  51.2234564  48.7402452  67.9087813  54.8453160
  48.5927415  66.9804520  55.0260730  49.5655946  67.9307903  54.3610235
  42.6064697  56.5605880  50.7033652  42.9460769  57.0891801  49.9812260
  43.0536817  56.8986286  51.4792219  52.3436574  68.7316371  55.9318033
  53.2683122  68.5259233  55.7942484  52.1751877  68.4832773  56.8407374
  45.3008137  54.9442931  60.1536720  44.9604958  54.1450744  60.5557400
  44.5947144  55.2444641  59.5813553  45.9524609  52.0292243  58.6064043
  46.7750678  51.5552721  58.4842933  46.1962673  52.8082727  59.1062729
  44.5932844  55.0580501  48.9026945  45.3141206  55.4361754  48.3990662
  43.9698148  55.7769378  49.0061923  48.7363967  55.7625650  49.8385277
  48.9527581  56.6450288  49.5374105  48.2558034  55.3711864  49.1090919
  43.4763188  58.7211364  56.4156022  43.3307769  59.0351667  57.3080303
  42.9988392  59.3396264  55.8626920  45.3359571  55.7113912  56.4636911
  45.3221140  54.8155005  56.1269209  46.0531999  55.7184575  57.0975197
  47.1885702  56.1451252  58.5090039  46.9303479  57.0668322  58.5074369
  46.6570742  55.7481686  59.1990503  52.1331890  69.2502039  51.2880124
  52.3068768  68.6848461  50.5353977  52.6260782  70.0502934  51.1059614
  37.9508850  61.2616708  59.3543683  37.4062318  62.0376516  59.4863957
  38.8288200  61.6087512  59.1962804  44.7396467  54.5928292  51.7324481
  44.8612378  53.6644938  51.9315369  44.4498509  54.6066978  50.8202797
  47.6087657  52.2783202  54.8691201  47.6309354  52.3422535  53.9143181
  48.0255716  51.4387711  55.0631707  57.9871281  62.0138462  52.9070424
  58.4302427  61.2645787  52.5089547  57.1097792  62.0048598  52.5244156
  53.1207063  68.5668803  48.3877022  53.8157967  69.1875496  48.6064337
  53.4630213  67.7164155  48.6629400  55.0198486  66.0168509  49.9164353
  55.5449810  66.3555782  49.1913673  54.9320838  65.0815524  49.7327488
  46.6818535  69.9302582  62.0454230  46.9905661  69.6851729  62.9176929
  47.4794017  70.1349221  61.5573100  46.7039147  72.0840492  54.2759606
  46.2644137  71.5916871  54.9692463  47.4547264  71.5413460  54.0351682
  39.1831486  68.2752033  54.2784234  40.0089506  67.9755805  53.8982878
  38.8325538  67.5059655  54.7274023  44.1513019  67.6278501  56.3481908
  43.5293028  66.9649206  56.0484136  44.8217886  67.6539633  55.6655556
  37.3840091  66.1938359  55.2373168  36.5471999  65.7660534  55.0557169
  37.3563736  66.3870803  56.1743959  54.8290267  63.4993879  62.5348280
  54.8788272  63.3343886  63.4763802  54.7204190  62.6321138  62.1446160
  43.7126526  66.1782425  49.8240369  43.8614646  66.8617889  49.1707041
  44.5192969  66.1587515  50.3389824  52.1194029  59.4824807  63.8507586
  53.0203892  59.3431272  63.5591584  52.1942004  59.6479262  64.7905764
  46.4536835  56.8591662  62.6960773  45.5840144  57.1525228  62.4243361
  46.6896315  57.4432107  63.4168036  56.3308464  65.9190820  62.7790301
  56.0393272  66.2820801  63.6153762  55.7180595  65.2057829  62.6003633
  54.5795652  61.0423435  61.2470359  55.0549774  61.2351081  60.4389211
  53.6561217  61.0982621  61.0013743  41.4679159  62.2047602  50.8301437
  41.2225201  61.3009932  51.0281648  41.6375073  62.2064753  49.8880915
  40.7374806  57.9375960  48.3287599  40.0444051  58.0120315  47.6727635
  40.4926558  57.1736303  48.8509116  49.4088463  49.4971561  55.7327090
  49.6890216  48.8294750  56.3587516  50.1939070  49.6900657  55.2201754
  47.2121931  68.6730555  47.2952116  46.6395898  69.2920742  46.8422588
  47.7854725  69.2229917  47.8292038  53.2797321  57.9189195  59.4798665
  54.2314744  58.0187293  59.5010889  53.1100771  57.1267464  59.9896749
  50.4319191  68.9567705  48.4260698  51.3649864  68.8913267  48.6293574
  50.3442404  69.7923972  47.9675231  55.7585399  61.1395315  58.5940964
  55.7261719  60.2011315  58.7800648  56.3686023  61.2179351  57.8606789
  47.5968730  60.0091368  44.6368168  48.5427834  59.8797576  44.7056587
  47.2182975  59.2706030  45.1137597  55.9079887  57.9306358  58.6399248
  55.3918936  57.1464815  58.4529177  56.7919836  57.6025075  58.8045767
  53.5690614  51.6747374  54.5995060  53.3715435  51.3662462  55.4838392
  54.1790320  52.4009013  54.7292990  45.7811647  57.9341344  44.5723054
  44.8743102  57.6374457  44.6485767  46.0587628  57.6371162  43.7057340
  36.6989587  59.2547708  55.0222100  36.3792372  58.4013016  54.7296474
  36.1523015  59.4696286  55.7780067  40.4769495  61.9710149  58.7391607
  40.6955505  62.9027256  58.7579640  40.8895269  61.6118123  59.5246410
  47.3973713  52.4778234  50.7267295  46.5874441  52.1325319  51.1022541
  48.0858130  52.1685778  51.3154907  49.3264261  51.5556281  52.3491592
  49.8795299  51.9751734  53.0081615  49.5634347  50.6292029  52.3914548
  44.5510432  54.7928279  44.7135033  45.4129595  55.1183178  44.9730850
  44.7360776  54.0059775  44.2008099  36.5677847  62.8750619  56.9915222
  35.8741319  62.4604572  56.4785176  37.3150838  62.9171156  56.3948641
  52.7043068  53.6656806  51.8570256  52.1241737  54.3241610  51.4748308
  52.4379001  52.8434150  51.4457673  51.1546634  53.0661864  54.0591576
  51.6546413  53.1778398  53.2505895  51.7982242  52.7622916  54.6992385
  38.4814590  62.8068873  54.8681237  38.4585278  62.9056560  53.9163120
  38.7915226  63.6534024  55.1898403  41.1401968  64.8645028  58.9827851
  42.0945221  64.8328970  58.9157783  40.9414491  64.4035652  59.7978077
  41.7301350  63.4346144  61.5498649  42.5494239  63.9290223  61.5733486
  42.0038158  62.5178112  61.5216216  51.4867946  55.8256896  50.9126604
  50.5993801  56.1106547  50.6946799  51.9021935  55.6650660  50.0653881
  54.8382482  55.8503417  54.6280943  55.6142872  56.3399870  54.9005560
  54.1130616  56.2761471  55.0852813  57.2755041  56.5631036  55.6854884
  57.8699532  56.3226772  54.9748192  57.3481624  55.8438167  56.3128420
  39.4952196  70.4064647  55.9998049  39.3606664  69.6465048  55.4336047
  39.0784259  71.1305547  55.5326838  50.6311159  65.5901571  45.0074624
  51.3347010  65.7951573  45.6232280  49.9073808  66.1578333  45.2723708
  51.4608970  61.3411432  51.1276894  51.4044171  61.7979984  50.2884527
  52.0137312  60.5802117  50.9499737  55.2713776  57.1301164  51.9527014
  55.0150710  56.7297800  52.7835222  54.6466644  57.8444958  51.8277153
  59.5826114  59.8697237  54.4598305  59.0225671  59.9390427  55.2329867
  58.9769617  59.6938222  53.7397801  42.6521322  71.3033964  56.2116492
  42.5353706  72.2479397  56.1095182  41.8313769  71.0007526  56.6002291
  52.5397857  66.0284100  47.0573084  53.3743461  65.5965299  46.8750559
  52.3782200  65.8566114  47.9849979  52.1943749  62.5316213  48.4229424
  52.1392553  62.3660485  47.4817868  51.5689804  63.2392246  48.5791613
  45.5039875  52.0324322  48.0014742  45.4918544  52.9766162  48.1583013
  46.3963296  51.8494468  47.7074203  43.6775836  71.9562226  59.4272420
  44.5803083  71.9885836  59.7438915  43.4513207  71.0262677  59.4418756
  45.4329438  70.7093213  56.0882499  44.4825069  70.7095074  55.9746871
  45.7361925  69.9625947  55.5718533  49.3191994  48.6267099  52.2560679
  48.5524390  48.0725586  52.4017361  49.7302699  48.6988968  53.1174830
  51.3823086  79.8467847  55.9170897  52.1744378  79.5058672  55.5017196
  51.6219736  79.9562822  56.8373050  51.8494231  74.0528221  52.8619981
  51.0525394  74.1646915  53.3803477  51.6219823  74.3914873  51.9960872
  48.1817188  73.9414132  58.3351495  48.4325227  74.8261142  58.6009071
  48.7176737  73.7618734  57.5626587  50.8477314  79.7616470  51.2509401
  51.3601834  80.5559720  51.4014966  51.5000026  79.0642760  51.1843003
  51.9424555  74.9246858  63.2094318  51.8278070  74.0232115  63.5101417
  51.0869073  75.1710555  62.8579134  48.8126230  78.0905124  52.0268972
  49.6501452  78.5002132  51.8102680  48.9904498  77.1504566  51.9969166
  56.0679806  68.2214978  56.1795785  56.9332803  68.0257787  55.8201674
  56.1357315  67.9925330  57.1065141  48.8352401  75.4295839  52.6979705
  48.6376801  74.8365200  51.9730772  48.2799065  75.1248049  53.4155644
  54.2455560  71.5114361  58.1925912  54.8854939  71.3703120  57.4948876
  53.4133090  71.2248874  57.8164514  51.3298627  74.9559873  50.3820657
  50.3996215  74.8944329  50.5990620  51.4256099  74.4335826  49.5857299
  51.2484176  71.4814686  52.9698899  51.5090994  72.3960019  52.8608060
  52.0701349  71.0139129  53.1195512  52.7209102  72.8952443  60.1397724
  53.3932155  72.6869805  59.4910373  51.8938888  72.6974529  59.7002956
  45.3952233  77.1146034  54.8647451  46.0823272  76.8007765  54.2768466
  45.2400361  78.0187399  54.5914702  50.1986955  72.0036231  59.2932474
  50.1145143  71.3961901  58.5582884  49.3769661  72.4945249  59.2941971
  44.9720209  75.1946628  57.1364918  45.0104308  74.6610219  57.9302036
  44.4660502  74.6681833  56.5175895  52.3510971  70.0411168  60.6327460
  52.4152297  70.9025999  60.2204858  52.2878091  69.4285170  59.8999819
  48.6028786  73.9210730  50.2118849  48.8982227  73.0121408  50.1585903
  47.7016822  73.8998469  49.8899852  50.3316628  71.6024828  50.3358174
  50.0029334  70.7222207  50.1533280  50.6855999  71.5472496  51.2234564
  49.5768626  75.7178522  62.2473840  48.8350362  75.8661157  62.8338470
  49.2561371  75.9786788  61.3840589  52.3072913  77.5339520  50.8301437
  52.0618955  76.6301850  51.0281648  52.4768828  77.5356670  49.8880915
  47.5383342  74.5839625  55.0222100  47.2186126  73.7304933  54.7296474
  46.9916770  74.7988203  55.7780067  47.4071602  78.2042537  56.9915222
  46.7135073  77.7896489  56.4785176  48.1544593  78.2463073  56.3948641
  49.3208344  78.1360790  54.8681237  49.2979032  78.2348478  53.9163120
  49.6308981  78.9825941  55.1898403  47.8230019  73.0976195  62.2490846
  48.4688882  72.5875149  62.7378071  47.6147170  73.8344877  62.8234271
  82.8469641 107.2037587  57.1528261  83.4848051 107.0844334  56.4491601
  82.7290484 108.1518430  57.2116213  75.5146163 109.0100491  53.0786677
  74.9511028 108.9190428  52.3102964  75.3998558 108.1900395  53.5589169
  73.0610595 110.5051683  55.9170897  73.8531887 110.1642507  55.5017196
  73.3007245 110.6146658  56.8373050  81.0945722 112.6771459  48.3901142
  80.4433701 113.2625539  48.0035155  81.8890084 113.2077654  48.4496179
  75.0201349 109.7660596  48.7888276  75.7932225 109.2189583  48.6501152
  75.3726748 110.6304845  49.0002737  82.5720987 110.3661891  48.9270126
  81.9366820 110.4396517  49.6391030  82.2418393 110.9555490  48.2489205
  87.8019337 104.8664274  55.1314448  88.5344508 104.2963490  55.3652277
  87.0458692 104.4785874  55.5720953  77.0763915 107.8281368  48.6231101
  76.9600173 107.1526271  49.2912185  77.1866175 107.3413742  47.8063254
  81.8176276 110.7798394  58.9904969  81.5177000 111.6823432  58.8820776
  81.4727336 110.5130577  59.8426122  79.0390164 104.7739072  48.3085805
  78.9189789 105.2196123  49.1471286  78.3442753 105.1224390  47.7499343
  76.7997056 117.5442714  51.9575937  76.7221086 118.4950539  52.0364417
  76.1958700 117.1988587  52.6150863  84.7375230 105.2460545  49.1366139
  85.6493086 105.4787932  48.9613837  84.2284877 105.8297590  48.5741218
  79.3747068 104.6057780  60.1460989  80.2208263 105.0297194  60.2895638
  79.3145706 103.9491404  60.8399552  83.3444813 110.2286364  56.5279721
  82.7153675 110.3932078  55.8255789  82.9570475 110.6427973  57.2990685
  87.2234044 111.1640802  53.8824085  86.5385083 111.5439703  53.3321118
  87.3077894 111.7736128  54.6156032  78.8972774 109.9660772  53.7929806
  79.3611120 110.2448475  53.0034428  78.6329573 109.0644217  53.6102897
  77.8341661 106.0883924  50.6019371  78.5365704 106.5404968  51.0693297
  77.5022289 105.4467743  51.2299264  85.5930804 111.6872716  58.6541785
  86.4148248 111.2852903  58.3724467  85.5893207 111.5840950  59.6057901
  79.3587407 111.2356759  60.8102496  79.4231840 111.6977167  61.6460668
  78.6498331 110.6054124  60.9384806  93.6836797 108.0311465  55.0026757
  92.9300505 107.4618863  54.8470761  93.8184338 107.9974129  55.9497392
  79.0735425 112.9024867  50.6781476  78.9381100 113.7476403  51.1066324
  79.6145238 113.1044145  49.9147410  72.5264823 110.4200305  51.2509401
  73.0389343 111.2143555  51.4014966  73.1787535 109.7226595  51.1843003
  74.3359707 113.5366061  53.3332155  74.5126336 114.4584026  53.1453138
  75.1316541 113.2224480  53.7626534  75.4591023 115.0544235  59.3342497
  76.0098448 114.9261298  58.5619491  74.6202499 115.3539124  58.9837390
  82.3878171 106.4164040  47.7152805  81.8724795 107.1868645  47.9541192
  82.1155480 105.7429176  48.3385866  87.3612446 109.1696395  49.6505978
  86.5841888 108.8307554  49.2061140  88.0403927 109.1749018  48.9760943
  82.1764475 104.2891132  49.5412586  81.8714610 104.6037281  50.3922729
  83.1294917 104.3672552  49.5839919  80.6210906 110.4481355  51.1905540
  80.0932268 109.7134115  50.8778777  80.1198409 111.2256032  50.9445508
  85.6003752 108.6430376  56.3072586  84.9427427 109.3329637  56.3952715
  86.4044152 109.0326808  56.6506573  84.4109211 106.9974749  54.3576528
  84.9241093 107.6304740  54.8598238  85.0610435 106.3975944  53.9919888
  75.6799221 103.1405483  47.5708037  74.8436533 103.4780169  47.8917312
  75.5403991 103.0054462  46.6335174  78.7663507 108.2661566  44.1940513
  77.8590568 108.0350819  44.3931662  79.2634539 107.4699185  44.3814495
  81.6731586 116.9759073  47.1137199  80.9993284 117.2790770  47.7222157
  82.0597407 117.7788153  46.7642656  81.6725090 105.8715620  51.7337549
  82.4196909 106.3837017  51.4244671  81.9416679 105.5499672  52.5941942
  79.9451740 108.3674160  48.7164503  79.0362959 108.0833193  48.8136973
  79.9746824 108.7873239  47.8567810  85.1771007 111.9780750  52.4855671
  84.7233335 111.1371660  52.5420861  84.5464974 112.6142148  52.8230451
  83.6203947 113.8157247  53.4205489  83.9126921 114.3762304  52.7017854
  84.1302567 114.1085808  54.1758648  79.6427828 109.9082904  46.0552582
  79.2047258 109.1918763  45.5958219  80.3838269 110.1359019  45.4937673
  78.5837572 114.5937598  54.5098942  78.5413751 114.8198444  53.5807474
  79.5000271 114.3600972  54.6584743  87.7600943 108.1840101  52.1128900
  87.6218841 108.3741697  51.1850090  87.4037161 108.9459484  52.5696951
  87.7870322 110.2516628  57.1240172  88.2206829 110.1591917  57.9723226
  88.5001903 110.2274129  56.4860188  76.7003373 111.4700627  54.3060905
  77.4943971 110.9750947  54.1043480  75.9895065 110.9418490  53.9428610
  81.5198217 113.8518722  58.6573272  81.5735239 114.4209659  59.4250988
  80.6512999 114.0220607  58.2927310  80.4786317 108.0178984  60.2160204
  81.4078377 108.1690144  60.0429172  80.0577347 108.1063005  59.3608851
  79.2774649 112.0429649  57.9858742  79.1385734 111.6748433  58.8584680
  78.4889245 112.5577288  57.8142700  79.8722801 117.1438745  49.3284278
  80.0474556 116.6726788  50.1429901  79.1855589 117.7704511  49.5565539
  80.8279864 111.4211251  55.3747580  80.4929696 111.3812021  56.2705230
  80.3283810 110.7555967  54.9017990  83.7639055 108.7667286  45.6484639
  83.1468226 108.0414114  45.5517692  83.2955544 109.5276646  45.3051714
  74.4383886 120.2928108  56.1024139  74.6780484 120.9246632  56.7803157
  73.5953082 119.9416148  56.3889498  78.9511748 116.1007230  58.5065643
  78.8781919 116.9062202  59.0184947  78.5089141 116.2999196  57.6813664
  78.7401527 115.3379000  52.0168464  77.9569049 115.8800681  52.1106689
  79.4394273 115.8552980  52.4162705  89.9027935 106.8513995  56.3020961
  89.8917811 107.7338711  55.9314894  89.0345314 106.4985546  56.1075498
  81.4110431 115.9994064  60.6623801  82.1238404 116.6341529  60.5899703
  80.9200460 116.0957930  59.8463803  83.1327958 109.9045317  52.2341093
  82.1984237 110.0246780  52.0645797  83.3104627 109.0017784  51.9701103
  86.5200510 105.7462636  52.7691127  86.9860962 106.5790628  52.6951430
  86.9708010 105.2807618  53.4736386  84.5876741 112.0906458  49.7677279
  84.8636585 111.9763052  50.6771153  83.7181239 111.6923943  49.7289452
  81.2230805 116.3392809  53.4110093  81.4053199 115.5214464  53.8737845
  82.0463791 116.5560501  52.9734983  81.5572970 115.2660994  50.6725141
  82.0860737 114.7553448  50.0595303  81.8201190 114.9503524  51.5370674
  72.0590063 113.2824863  58.4160475  72.6443500 112.5368551  58.5488379
  71.8614901 113.5928820  59.2997139  74.9128718 116.3176110  53.4322917
  74.2439093 116.8022238  52.9486957  74.7741588 116.5645331  54.3466296
  79.0533987 118.3519854  60.0305575  79.6052295 118.5151475  60.7954661
  79.3940180 118.9424292  59.3585600  82.1902374 116.3001829  57.0169258
  82.0653513 115.4991569  56.5080203  82.8481465 116.7948023  56.5283228
  84.2537282 114.1010850  58.6448808  83.3067618 113.9816201  58.5727134
  84.6020056 113.2133348  58.7275069  81.2583716 113.8963566  54.8453160
  81.1108678 112.9680273  55.0260730  82.0837209 113.9183656  54.3610235
  84.8617838 114.7192124  55.9318033  85.7864385 114.5134986  55.7942484
  84.6933141 114.4708526  56.8407374  84.6513154 115.2377792  51.2880124
  84.8250031 114.6724214  50.5353977  85.1442045 116.0378687  51.1059614
  90.5052545 108.0014215  52.9070424  90.9483691 107.2521540  52.5089547
  89.6279055 107.9924351  52.5244156  85.6388326 114.5544556  48.3877022
  86.3339231 115.1751249  48.6064337  85.9811476 113.7039908  48.6629400
  87.5379749 112.0044262  49.9164353  88.0631073 112.3431535  49.1913673
  87.4502102 111.0691277  49.7327488  79.1999798 115.9178335  62.0454230
  79.5086925 115.6727482  62.9176929  79.9975280 116.1224974  61.5573100
  79.2220410 118.0716245  54.2759606  78.7825400 117.5792624  54.9692463
  79.9728527 117.5289213  54.0351682  71.7012749 114.2627786  54.2784234
  72.5270769 113.9631558  53.8982878  71.3506801 113.4935408  54.7274023
  76.6694282 113.6154254  56.3481908  76.0474292 112.9524959  56.0484136
  77.3399149 113.6415386  55.6655556  69.9021354 112.1814112  55.2373168
  69.0653262 111.7536287  55.0557169  69.8745000 112.3746556  56.1743959
  76.2307789 112.1658178  49.8240369  76.3795910 112.8493642  49.1707041
  77.0374233 112.1463268  50.3389824  90.0485410 109.4719453  55.2992871
  90.8832301 109.9109257  55.4630432  90.1844538 108.9958106  54.4801117
  73.9860422 108.1923355  50.8301437  73.7406464 107.2885685  51.0281648
  74.1556337 108.1940506  49.8880915  73.2556070 103.9251713  48.3287599
  72.5625315 103.9996068  47.6727635  73.0107822 103.1612056  48.8509116
  79.7303195 114.6606308  47.2952116  79.1577162 115.2796495  46.8422588
  80.3035988 115.2105670  47.8292038  82.9500454 114.9443458  48.4260698
  83.8831128 114.8789020  48.6293574  82.8623667 115.7799725  47.9675231
  85.5788471 114.2609328  45.3864646  85.5002103 113.9269192  46.2800404
  86.3998138 114.7531096  45.3856118  80.1149993 105.9967121  44.6368168
  81.0609098 105.8673329  44.7056587  79.7364238 105.2581783  45.1137597
  94.0943212 108.1887075  57.7347001  94.8246601 107.9272363  58.2954705
  93.4850158 107.4515797  57.7749069  73.6583231 110.8520781  58.9827851
  74.6126485 110.8204723  58.9157783  73.4595755 110.3911405  59.7978077
  72.0133460 116.3940400  55.9998049  71.8787928 115.6340801  55.4336047
  71.5965522 117.1181300  55.5326838  83.1492423 111.5777324  45.0074624
  83.8528273 111.7827326  45.6232280  82.4255072 112.1454086  45.2723708
  83.9790233 107.3287185  51.1276894  83.9225435 107.7855737  50.2884527
  84.5318576 106.5677870  50.9499737  87.7895039 103.1176917  51.9527014
  87.5331973 102.7173553  52.7835222  87.1647907 103.8320711  51.8277153
  92.1007377 105.8572990  54.4598305  91.5406935 105.9266180  55.2329867
  91.4950880 105.6813975  53.7397801  75.1702586 117.2909717  56.2116492
  75.0534970 118.2355150  56.1095182  74.3495032 116.9883279  56.6002291
  85.0579120 112.0159853  47.0573084  85.8924724 111.5841052  46.8750559
  84.8963463 111.8441867  47.9849979  84.7125013 108.5191966  48.4229424
  84.6573816 108.3536238  47.4817868  84.0871068 109.2267999  48.5791613
  76.1957100 117.9437979  59.4272420  77.0984347 117.9761590  59.7438915
  75.9694470 117.0138430  59.4418756  77.9510702 116.6968966  56.0882499
  77.0006333 116.6970827  55.9746871  78.2543188 115.9501700  55.5718533
  93.6863395 122.5329504  57.1528261  94.3241805 122.4136252  56.4491601
  93.5684238 123.4810348  57.2116213  90.4953102 122.4856932  57.0889786
  90.1571613 122.3697997  56.2010321  91.3642870 122.0848097  57.0690792
  86.3539917 124.3392409  53.0786677  85.7904783 124.2482346  52.3102964
  86.2392312 123.5192313  53.5589169  90.9772885 123.6391784  63.0475991
  90.9661525 123.2444582  62.1756495  91.1393524 122.9057857  63.6409763
  83.9004349 125.8343600  55.9170897  84.6925641 125.4934425  55.5017196
  84.1401000 125.9438575  56.8373050  91.9339476 128.0063376  48.3901142
  91.2827456 128.5917457  48.0035155  92.7283839 128.5369571  48.4496179
  85.8595103 125.0952514  48.7888276  86.6325979 124.5481501  48.6501152
  86.2120502 125.9596763  49.0002737  87.6980146 126.4228896  61.9955175
  87.4070012 127.3274527  61.8801841  88.3337130 126.4645423  62.7099245
  88.6236353 123.8005744  58.5856535  89.2199925 123.5761767  57.8713498
  88.6811324 123.0590490  59.1881983  88.1961381 121.2545180  46.4206726
  88.4486902 120.7326701  45.6590189  87.2585940 121.0911325  46.5233409
  93.2404664 120.2580958  54.2281469  94.0267753 119.8400381  53.8771886
  93.5043368 121.1627050  54.3963117  93.4114741 125.6953808  48.9270126
  92.7760574 125.7688435  49.6391030  93.0812148 126.2847407  48.2489205
  98.6413091 120.1956191  55.1314448  99.3738263 119.6255408  55.3652277
  97.8852447 119.8077792  55.5720953  87.9157670 123.1573286  48.6231101
  87.7993928 122.4818189  49.2912185  88.0259930 122.6705660  47.8063254
  90.2589211 122.6183433  52.3277790  89.8947418 122.0914054  53.0390711
  91.1156327 122.2281902  52.1544275  89.8994698 117.6473332  47.3239138
  90.0669100 118.5153569  47.6909610  89.7091867 117.8100614  46.4000428
  92.6570031 126.1090311  58.9904969  92.3570754 127.0115350  58.8820776
  92.3121090 125.8422495  59.8426122  86.1082512 122.5604108  55.0241673
  85.1833009 122.4280322  55.2319365  86.3566926 123.3398327  55.5211616
  96.0567175 118.6272852  56.6702406  95.1484052 118.5588260  56.3761167
  96.0054771 119.1044796  57.4984232  89.8783919 120.1030990  48.3085805
  89.7583544 120.5488041  49.1471286  89.1836507 120.4516308  47.7499343
  83.4691323 122.2037382  55.8585462  83.5983705 122.4571861  56.7724874
  82.7888775 122.7965090  55.5390117  87.6390811 132.8734632  51.9575937
  87.5614840 133.8242457  52.0364417  87.0352454 132.5280504  52.6150863
  90.1308040 120.0462497  64.6137303  89.3541375 120.6056417  64.6040168
  90.7698604 120.5319280  65.1352174  97.9228821 116.8289290  58.4480280
  97.2803201 117.1221823  57.8020075  97.4183750 116.7142210  59.2533477
  95.5768985 120.5752463  49.1366139  96.4886841 120.8079850  48.9613837
  95.0678632 121.1589507  48.5741218  88.3854413 122.8547950  64.1755270
  89.1269097 123.3932994  63.8990094  87.6791398 123.4814239  64.3326822
  93.8609752 124.9977091  62.7727432  94.2693108 124.5559501  62.0282064
  93.1387014 124.4229718  63.0261625  90.2140822 119.9349698  60.1460989
  91.0602018 120.3589111  60.2895638  90.1539460 119.2783322  60.8399552
  94.1838567 125.5578282  56.5279721  93.5547430 125.7223996  55.8255789
  93.7964229 125.9719891  57.2990685  98.0627799 126.4932719  53.8824085
  97.3778837 126.8731621  53.3321118  98.1471648 127.1028046  54.6156032
  93.3640268 117.5954066  61.8042163  93.1201200 118.3496127  61.2676438
  93.6400198 117.9739414  62.6389410  95.3178731 124.1392678  60.4819428
  95.5295626 124.7824438  59.8053809  95.2708479 123.3054995  60.0141358
  89.7366529 125.2952690  53.7929806  90.2004874 125.5740393  53.0034428
  89.4723327 124.3936134  53.6102897  86.6290610 124.8424171  56.7309569
  87.1991967 125.2711440  56.0927054  87.2198722 124.5606756  57.4293755
  88.6735415 121.4175842  50.6019371  89.3759458 121.8696886  51.0693297
  88.3416044 120.7759661  51.2299264  87.1215777 120.0087599  64.9770580
  86.4914437 120.6903880  65.2105977  87.0151864 119.8970680  64.0323719
  82.4160749 119.6759395  55.9036505  81.6259803 119.9316923  55.4276615
  82.9071996 120.4907733  56.0088545  96.4324559 127.0164634  58.6541785
  97.2542002 126.6144821  58.3724467  96.4286961 126.9132868  59.6057901
  84.3675494 120.0403974  52.8619981  83.5706658 120.1522668  53.3803477
  84.1401087 120.3790626  51.9960872  90.1981162 126.5648677  60.8102496
  90.2625595 127.0269084  61.6460668  89.4892086 125.9346042  60.9384806
  80.6998452 119.9289885  58.3351495  80.9506490 120.8136895  58.6009071
  81.2358000 119.7494487  57.5626587 104.5230552 123.3603382  55.0026757
 103.7694260 122.7910780  54.8470761 104.6578093 123.3266047  55.9497392
  89.9129180 128.2316785  50.6781476  89.7774854 129.0768320  51.1066324
  90.4538992 128.4336062  49.9147410  83.3658577 125.7492223  51.2509401
  83.8783098 126.5435473  51.4014966  84.0181290 125.0518513  51.1843003
  85.1753462 128.8657979  53.3332155  85.3520090 129.7875944  53.1453138
  85.9710295 128.5516398  53.7626534  84.4605818 120.9122611  63.2094318
  84.3459333 120.0107868  63.5101417  83.6050336 121.1586308  62.8579134
  91.5397656 128.8540351  64.8081818  91.0961510 128.0676730  64.4902723
  92.2014870 129.0419502  64.1425709  86.2984777 130.3836153  59.3342497
  86.8492202 130.2553216  58.5619491  85.4596253 130.6831042  58.9837390
  93.6378894 129.1343151  62.8363220  93.6197369 129.9552032  62.3443489
  94.5598814 129.0097226  63.0613361  90.0951948 126.6487281  63.6786728
  90.6280285 125.8875569  63.4486036  89.5666029 126.3560932  64.4210882
  81.3307494 124.0780877  52.0268972  82.1682716 124.4877885  51.8102680
  81.5085762 123.1380319  51.9969166  93.2271926 121.7455958  47.7152805
  92.7118549 122.5160562  47.9541192  92.9549234 121.0721094  48.3385866
  90.8119037 116.5905658  52.7738043  89.9560633 116.2012509  52.5943682
  91.2245989 116.6697619  51.9137829  92.3418184 114.1252002  57.1729603
  91.8382979 114.0882137  56.3597408  92.6348790 115.0344744  57.2326260
  88.5861069 114.2090731  56.1795785  89.4514066 114.0133540  55.8201674
  88.6538578 113.9801083  57.1065141  98.2006200 124.4988312  49.6505978
  97.4235643 124.1599472  49.2061140  98.8797681 124.5040935  48.9760943
  93.0158229 119.6183050  49.5412586  92.7108365 119.9329199  50.3922729
  93.9688671 119.6964470  49.5839919  91.4604661 125.7773273  51.1905540
  90.9326023 125.0426033  50.8778777  90.9592164 126.5547949  50.9445508
  96.4397507 123.9722294  56.3072586  95.7821181 124.6621555  56.3952715
  97.2437906 124.3618725  56.6506573  86.1923389 116.4392939  53.5512152
  86.7667140 116.2168121  52.8185344  86.7794371 116.5081634  54.3040753
  95.2502966 122.3266666  54.3576528  95.7634848 122.9596658  54.8598238
  95.9004190 121.7267862  53.9919888  86.5192976 118.4697400  47.5708037
  85.6830288 118.8072087  47.8917312  86.3797745 118.3346380  46.6335174
  88.4946056 113.3134188  52.2787221  87.8410469 112.9983205  51.6543836
  88.4526530 112.6909929  53.0047044  89.6057261 123.5953483  44.1940513
  88.6984323 123.3642737  44.3931662  90.1028293 122.7991103  44.3814495
  92.5125340 132.3050990  47.1137199  91.8387039 132.6082687  47.7222157
  92.8991162 133.1080071  46.7642656  91.7283797 119.8016122  56.6034869
  90.8106358 120.0231069  56.4456557  92.1443940 119.8762432  55.7446576
  92.5118844 121.2007537  51.7337549  93.2590663 121.7128935  51.4244671
  92.7810434 120.8791590  52.5941942  90.7845495 123.6966078  48.7164503
  89.8756714 123.4125111  48.8136973  90.8140578 124.1165157  47.8567810
  96.0164762 127.3072668  52.4855671  95.5627089 126.4663578  52.5420861
  95.3858729 127.9434066  52.8230451  94.9597682 118.2364654  53.7156338
  94.2220438 117.7242040  54.0466581  95.2124455 117.7965035  52.9039615
  94.4597701 129.1449164  53.4205489  94.7520676 129.7054221  52.7017854
  94.9696322 129.4377725  54.1758648  95.0609309 111.0140906  54.3098107
  95.3668186 110.1538269  54.0224023  95.7861914 111.6058526  54.1097101
  81.3533665 121.4171592  52.6979705  81.1558065 120.8240953  51.9730772
  80.7980329 121.1123802  53.4155644  89.3330389 121.3094699  54.8174299
  89.3878998 120.3568535  54.7416775  88.5221591 121.4654138  55.3015597
  90.4821582 125.2374822  46.0552582  90.0441012 124.5210681  45.5958219
  91.2232023 125.4650937  45.4937673  87.2722749 119.9271759  52.5764677
  86.4590614 120.2265929  52.9829870  87.7681743 119.5327447  53.2939160
  89.4231326 129.9229515  54.5098942  89.3807505 130.1490362  53.5807474
  90.3394025 129.6892890  54.6584743  92.8696960 120.3913583  61.4079571
  93.2246348 120.6185056  62.2674037  93.5169091 120.7231960  60.7856827
  98.5994697 123.5132019  52.1128900  98.4612596 123.7033615  51.1850090
  98.2430916 124.2751402  52.5696951  86.7636823 117.4990114  58.1925912
  87.4036203 117.3578873  57.4948876  85.9314354 117.2124627  57.8164514
  98.6264077 125.5808546  57.1240172  99.0600583 125.4883835  57.9723226
  99.3395657 125.5566046  56.4860188  87.5397127 126.7992544  54.3060905
  88.3337726 126.3042865  54.1043480  86.8288820 126.2710408  53.9428610
  92.3591972 129.1810640  58.6573272  92.4128994 129.7501576  59.4250988
  91.4906753 129.3512525  58.2927310  83.8479891 120.9435626  50.3820657
  82.9177479 120.8820082  50.5990620  83.9437363 120.4211579  49.5857299
  83.7665440 117.4690439  52.9698899  84.0272257 118.3835772  52.8608060
  84.5882612 117.0014882  53.1195512  85.2390365 118.8828196  60.1397724
  85.9113418 118.6745558  59.4910373  84.4120152 118.6850282  59.7002956
  99.4879626 125.6232247  59.6573057  99.6815516 126.5278057  59.9032332
  99.3880244 125.1639666  60.4911642  94.5494735 125.7738989  65.2313938
  94.3980241 125.5449541  64.3144021  94.5399414 126.7309591  65.2445283
  91.3180071 123.3470902  60.2160204  92.2472131 123.4982062  60.0429172
  90.8971101 123.4354923  59.3608851  90.1168403 127.3721566  57.9858742
  89.9779489 127.0040351  58.8584680  89.3282999 127.8869206  57.8142700
  90.7116555 132.4730663  49.3284278  90.8868311 132.0018706  50.1429901
  90.0249343 133.0996429  49.5565539  91.6673618 126.7503169  55.3747580
  91.3323451 126.7103939  56.2705230  91.1677564 126.0847885  54.9017990
  85.6417862 122.1570799  60.9000161  85.5037660 121.4251038  61.5011700
  86.5522786 122.0679699  60.6184349  94.6032810 124.0959203  45.6484639
  93.9861981 123.3706032  45.5517692  94.1349298 124.8568564  45.3051714
  88.2700163 121.8690759  60.3883840  88.9799781 121.2283951  60.3470459
  88.2269471 122.1203653  61.3110021  96.2586942 128.8058112  63.3090420
  96.1999488 128.1217332  62.6421003  96.6606460 129.5477102  62.8571046
  86.9829097 118.8555976  62.2079480  86.4466454 118.4046715  62.8601076
  86.3945805 118.9901885  61.4649944  85.2777640 135.6220026  56.1024139
  85.5174239 136.2538550  56.7803157  84.4346837 135.2708066  56.3889498
  86.3931356 118.3144628  44.7705944  85.5160822 118.1933429  44.4068190
  86.8689109 117.5230706  44.5184832  96.2604349 126.7697696  61.5404399
  95.3731128 126.4323618  61.6630798  96.8302900 126.0380727  61.7773165
  77.9133496 123.1021788  54.8647451  78.6004536 122.7883518  54.2768466
  77.7581625 124.0063152  54.5914702  82.7168218 117.9911984  59.2932474
  82.6326407 117.3837654  58.5582884  81.8950925 118.4821002  59.2941971
  89.7905502 131.4299148  58.5065643  89.7175674 132.2354120  59.0184947
  89.3482895 131.6291114  57.6813664  89.5795282 130.6670918  52.0168464
  88.7962804 131.2092598  52.1106689  90.2788027 131.1844898  52.4162705
  92.8891932 116.4765548  54.6602669  93.3860632 115.7235510  54.3403740
  92.1178914 116.5129864  54.0945879 100.7421689 122.1805913  56.3020961
 100.7311566 123.0630629  55.9314894  99.8739069 121.8277464  56.1075498
  92.2504186 131.3285982  60.6623801  92.9632158 131.9633447  60.5899703
  91.7594214 131.4249848  59.8463803  93.9721713 125.2337235  52.2341093
  93.0377991 125.3538697  52.0645797  94.1498381 124.3309702  51.9701103
  89.4726901 118.6182931  54.3874354  89.1024688 118.0653971  55.0755260
  89.9685993 118.0141064  53.8349354  97.3594264 121.0754554  52.7691127
  97.8254716 121.9082546  52.6951430  97.8101765 120.6099536  53.4736386
  87.3016099 129.0780426  61.4829372  88.0025559 129.7116909  61.6358766
  86.8311214 129.4195157  60.7225011  95.4270495 127.4198375  49.7677279
  95.7030339 127.3054970  50.6771153  94.5574994 127.0215860  49.7289452
  95.3310927 113.4435141  56.8082028  94.4174007 113.6739368  56.9764235
  95.7604028 113.5273585  57.6596061  95.1017385 121.6325033  59.3081922
  94.4488836 121.8800941  58.6534375  95.4797765 120.8189171  58.9744400
  92.0624559 131.6684726  53.4110093  92.2446954 130.8506382  53.8737845
  92.8857545 131.8852418  52.9734983  92.3966725 130.5952911  50.6725141
  92.9254491 130.0845366  50.0595303  92.6594944 130.2795442  51.5370674
  91.1504958 122.3744844  65.7947959  90.4745595 122.2738973  66.4650335
  91.9732592 122.2184058  66.2583957  82.8983817 128.6116781  58.4160475
  83.4837254 127.8660469  58.5488379  82.7008656 128.9220737  59.2997139
  85.7522473 131.6468028  53.4322917  85.0832848 132.1314156  52.9486957
  85.6135342 131.8937249  54.3466296  77.4901472 121.1822381  57.1364918
  77.5285572 120.6485972  57.9302036  76.9841765 120.6557586  56.5175895
  89.8927741 133.6811772  60.0305575  90.4446049 133.8443393  60.7954661
  90.2333935 134.2716209  59.3585600  84.8692234 116.0286921  60.6327460
  84.9333561 116.8901752  60.2204858  84.8059355 115.4160923  59.8999819
  94.7438616 128.5073029  65.8854230  95.2878520 129.1202987  65.3909185
  94.1625460 129.0652607  66.4021243  81.1210050 119.9086483  50.2118849
  81.4163491 118.9997161  50.1585903  80.2198085 119.8874222  49.8899852
  93.0296129 131.6293747  57.0169258  92.9047268 130.8283487  56.5080203
  93.6875220 132.1239940  56.5283228  84.6504297 117.9842480  56.1946398
  83.9290882 118.5978447  56.0553871  85.4397553 118.5200244  56.1163044
  95.0931037 129.4302767  58.6448808  94.1461372 129.3108118  58.5727134
  95.4413810 128.5425265  58.7275069  82.8497891 117.5900581  50.3358174
  82.5210597 116.7097960  50.1533280  83.2037262 117.5348249  51.2234564
  92.0977470 129.2255483  54.8453160  91.9502433 128.2972191  55.0260730
  92.9230964 129.2475574  54.3610235  85.9639714 117.8773550  50.7033652
  86.3035787 118.4059472  49.9812260  86.4111835 118.2153957  51.4792219
  95.7011592 130.0484042  55.9318033  96.6258140 129.8426903  55.7942484
  95.5326895 129.8000443  56.8407374  88.6583155 116.2610601  60.1536720
  88.3179976 115.4618414  60.5557400  87.9522162 116.5612312  59.5813553
  89.3099627 113.3459914  58.6064043  90.1325696 112.8720392  58.4842933
  89.5537691 114.1250397  59.1062729  87.9507862 116.3748172  48.9026945
  88.6716224 116.7529425  48.3990662  87.3273166 117.0937049  49.0061923
  92.0938985 117.0793321  49.8385277  92.3102599 117.9617959  49.5374105
  91.6133052 116.6879534  49.1090919  86.8338206 120.0379034  56.4156022
  86.6882787 120.3519337  57.3080303  86.3563410 120.6563935  55.8626920
  88.6934589 117.0281582  56.4636911  88.6796158 116.1322676  56.1269209
  89.4107017 117.0352246  57.0975197  90.5460719 117.4618922  58.5090039
  90.2878497 118.3835993  58.5074369  90.0145760 117.0649357  59.1990503
  95.4906908 130.5669710  51.2880124  95.6643786 130.0016132  50.5353977
  95.9835799 131.3670604  51.1059614  81.3083868 122.5784379  59.3543683
  80.7637336 123.3544187  59.4863957  82.1863218 122.9255183  59.1962804
  88.0971485 115.9095963  51.7324481  88.2187396 114.9812609  51.9315369
  87.8073527 115.9234649  50.8202797  90.9662675 113.5950873  54.8691201
  90.9884372 113.6590206  53.9143181  91.3830734 112.7555382  55.0631707
 101.3446299 123.3306133  52.9070424 101.7877445 122.5813458  52.5089547
 100.4672810 123.3216269  52.5244156  96.4782081 129.8836474  48.3877022
  97.1732985 130.5043167  48.6064337  96.8205231 129.0331825  48.6629400
  82.0949890 121.7054275  62.2473840  81.3531626 121.8536910  62.8338470
  81.7742634 121.9662541  61.3840589  98.3773504 127.3336180  49.9164353
  98.9024828 127.6723452  49.1913673  98.2895856 126.3983195  49.7327488
  90.0393553 131.2470253  62.0454230  90.3480679 131.0019400  62.9176929
  90.8369035 131.4516892  61.5573100  90.0614165 133.4008163  54.2759606
  89.6219155 132.9084541  54.9692463  90.8122282 132.8581130  54.0351682
  82.5406504 129.5919704  54.2784234  83.3664523 129.2923476  53.8982878
  82.1900556 128.8227326  54.7274023  87.5088037 128.9446172  56.3481908
  86.8868046 128.2816877  56.0484136  88.1792904 128.9707304  55.6655556
  80.7415109 127.5106030  55.2373168  79.9047017 127.0828204  55.0557169
  80.7138754 127.7038473  56.1743959  98.0667410 127.9669083  65.2215551
  97.2762954 127.9493222  64.6820051  97.8300764 128.5057377  65.9764588
  98.1865285 124.8161550  62.5348280  98.2363290 124.6511557  63.4763802
  98.0779208 123.9488809  62.1446160  87.0701544 127.4950095  49.8240369
  87.2189664 128.1785560  49.1707041  87.8767987 127.4755185  50.3389824
  89.8111853 118.1759332  62.6960773  88.9415162 118.4692898  62.4243361
  90.0471333 118.7599777  63.4168036  99.6883482 127.2358491  62.7790301
  99.3968290 127.5988472  63.6153762  99.0755613 126.5225499  62.6003633
 100.8879164 124.8011371  55.2992871 101.7226055 125.2401175  55.4630432
 101.0238293 124.3250024  54.4801117  97.9370670 122.3591106  61.2470359
  98.4124792 122.5518752  60.4389211  97.0136235 122.4150292  61.0013743
  84.8254177 123.5215273  50.8301437  84.5800219 122.6177603  51.0281648
  84.9950091 123.5232423  49.8880915  84.0949824 119.2543630  48.3287599
  83.4019069 119.3287985  47.6727635  83.8501576 118.4903974  48.8509116
  92.7663481 110.8139232  55.7327090  93.0465234 110.1462421  56.3587516
  93.5514088 111.0068327  55.2201754  90.5696949 129.9898226  47.2952116
  89.9970916 130.6088413  46.8422588  91.1429743 130.5397587  47.8292038
  96.6372339 119.2356866  59.4798665  97.5889762 119.3354963  59.5010889
  96.4675789 118.4435134  59.9896749  94.6586719 116.3212449  59.6658066
  94.0636651 116.6017462  58.9704554  94.3736415 116.8106350  60.4374807
  93.7894209 130.2735376  48.4260698  94.7224882 130.2080937  48.6293574
  93.7017422 131.1091643  47.9675231  96.4182226 129.5901246  45.3864646
  96.3395857 129.2561110  46.2800404  97.2391892 130.0823014  45.3856118
  99.1160417 122.4562985  58.5940964  99.0836737 121.5178986  58.7800648
  99.7261040 122.5347022  57.8606789  90.9543748 121.3259038  44.6368168
  91.9002852 121.1965247  44.7056587  90.5757993 120.5873700  45.1137597
  96.9265632 112.9915044  54.5995060  96.7290453 112.6830133  55.4838392
  97.5365338 113.7176683  54.7292990 104.9336967 123.5178992  57.7347001
 105.6640355 123.2564280  58.2954705 104.3243912 122.7807714  57.7749069
 103.0152264 121.6586855  58.3321452 102.2885427 121.5242820  57.7237944
 102.5999551 121.9663683  59.1378170  90.8382440 125.3776785  66.0968825
  91.7585450 125.5555384  66.2908872  90.8032023 124.4332830  65.9448525
  89.1386665 119.2509015  44.5723054  88.2318120 118.9542128  44.6485767
  89.4162646 118.9538833  43.7057340  80.0564605 120.5715378  55.0222100
  79.7367390 119.7180686  54.7296474  79.5098033 120.7863956  55.7780067
  83.8344513 123.2877819  58.7391607  84.0530523 124.2194927  58.7579640
  84.2470287 122.9285794  59.5246410  90.7548731 113.7945905  50.7267295
  89.9449459 113.4492990  51.1022541  91.4433147 113.4853448  51.3154907
  92.6839279 112.8723951  52.3491592  93.2370317 113.2919405  53.0081615
  92.9209365 111.9459699  52.3914548  87.9085449 116.1095950  44.7135033
  88.7704613 116.4350848  44.9730850  88.0935794 115.3227446  44.2008099
  79.9252865 124.1918290  56.9915222  79.2316337 123.7772243  56.4785176
  80.6725856 124.2338826  56.3948641  96.0618086 114.9824476  51.8570256
  95.4816755 115.6409281  51.4748308  95.7954019 114.1601821  51.4457673
  94.5121652 114.3829534  54.0591576  95.0121431 114.4946069  53.2505895
  95.1557260 114.0790587  54.6992385  81.8389608 124.1236543  54.8681237
  81.8160296 124.2224231  53.9163120  82.1490244 124.9701694  55.1898403
  84.4976986 126.1812699  58.9827851  85.4520239 126.1496641  58.9157783
  84.2989509 125.7203322  59.7978077  85.0876368 124.7513815  61.5498649
  85.9069257 125.2457893  61.5733486  85.3613175 123.8345783  61.5216216
  94.8442964 117.1424567  50.9126604  93.9568819 117.4274218  50.6946799
  95.2596953 116.9818330  50.0653881  98.1957500 117.1671088  54.6280943
  98.9717890 117.6567540  54.9005560  97.4705634 117.5929142  55.0852813
 100.6330059 117.8798707  55.6854884 101.2274550 117.6394443  54.9748192
 100.7056642 117.1605838  56.3128420  82.8527214 131.7232318  55.9998049
  82.7181682 130.9632719  55.4336047  82.4359277 132.4473218  55.5326838
  93.9886177 126.9069242  45.0074624  94.6922028 127.1119244  45.6232280
  93.2648826 127.4746003  45.2723708  94.8183988 122.6579103  51.1276894
  94.7619189 123.1147654  50.2884527  95.3712330 121.8969787  50.9499737
  98.6288794 118.4468835  51.9527014  98.3725728 118.0465470  52.7835222
  98.0041662 119.1612629  51.8277153 102.9401131 121.1864908  54.4598305
 102.3800689 121.2558097  55.2329867 102.3344635 121.0105893  53.7397801
  86.0096340 132.6201635  56.2116492  85.8928724 133.5647068  56.1095182
  85.1888787 132.3175197  56.6002291  95.8972875 127.3451771  47.0573084
  96.7318479 126.9132969  46.8750559  95.7357218 127.1733784  47.9849979
  95.5518767 123.8483884  48.4229424  95.4967571 123.6828155  47.4817868
  94.9264822 124.5559917  48.5791613  92.8664674 126.1532796  67.7482986
  93.7355834 126.3273448  67.3869621  92.3871426 126.9727213  67.6258716
  88.8614892 113.3491993  48.0014742  88.8493562 114.2933833  48.1583013
  89.7538314 113.1662138  47.7074203  87.0350854 133.2729897  59.4272420
  87.9378101 133.3053507  59.7438915  86.8088224 132.3430348  59.4418756
  88.7904456 132.0260883  56.0882499  87.8400087 132.0262745  55.9746871
  89.0936943 131.2793618  55.5718533  92.6767012 109.9434770  52.2560679
  91.9099408 109.3893256  52.4017361  93.0877717 110.0156638  53.1174830
 104.5257150 137.8621422  57.1528261 105.1635560 137.7428169  56.4491601
 104.4077993 138.8102266  57.2116213 101.3346856 137.8148850  57.0889786
 100.9965368 137.6989915  56.2010321 102.2036624 137.4140015  57.0690792
  97.1933672 139.6684326  53.0786677  96.6298537 139.5774263  52.3102964
  97.0786067 138.8484231  53.5589169 101.8166639 138.9683702  63.0475991
 101.8055280 138.5736500  62.1756495 101.9787279 138.2349774  63.6409763
  94.7398104 141.1635518  55.9170897  95.5319396 140.8226343  55.5017196
  94.9794754 141.2730493  56.8373050  96.6988858 140.4244431  48.7888276
  97.4719734 139.8773418  48.6501152  97.0514257 141.2888681  49.0002737
  98.5373900 141.7520813  61.9955175  98.2463766 142.6566444  61.8801841
  99.1730885 141.7937341  62.7099245  99.4630107 139.1297662  58.5856535
 100.0593679 138.9053684  57.8713498  99.5205079 138.3882407  59.1881983
  99.0355136 136.5837097  46.4206726  99.2880656 136.0618619  45.6590189
  98.0979695 136.4203243  46.5233409 104.0798418 135.5872876  54.2281469
 104.8661508 135.1692299  53.8771886 104.3437123 136.4918968  54.3963117
 109.4806846 135.5248109  55.1314448 110.2132017 134.9547326  55.3652277
 108.7246201 135.1369709  55.5720953  98.7551424 138.4865203  48.6231101
  98.6387682 137.8110107  49.2912185  98.8653684 137.9997577  47.8063254
 101.0982965 137.9475350  52.3277790 100.7341172 137.4205971  53.0390711
 101.9550081 137.5573819  52.1544275 107.0032266 129.2369683  59.5909056
 106.6715591 130.1065094  59.3670271 106.4077879 128.9205967  60.2703087
 100.7388452 132.9765250  47.3239138 100.9062855 133.8445487  47.6909610
 100.5485621 133.1392532  46.4000428  96.9476267 137.8896026  55.0241673
  96.0226763 137.7572240  55.2319365  97.1960680 138.6690245  55.5211616
 106.8960929 133.9564769  56.6702406 105.9877807 133.8880178  56.3761167
 106.8448525 134.4336714  57.4984232 100.7177673 135.4322908  48.3085805
 100.5977298 135.8779958  49.1471286 100.0230261 135.7808225  47.7499343
  94.3085078 137.5329299  55.8585462  94.4377459 137.7863778  56.7724874
  93.6282529 138.1257007  55.5390117 100.9701795 135.3754415  64.6137303
 100.1935129 135.9348335  64.6040168 101.6092358 135.8611198  65.1352174
 108.7622576 132.1581208  58.4480280 108.1196956 132.4513741  57.8020075
 108.2577504 132.0434128  59.2533477 106.4162739 135.9044381  49.1366139
 107.3280595 136.1371768  48.9613837 105.9072386 136.4881425  48.5741218
  99.2248167 138.1839868  64.1755270  99.9662852 138.7224912  63.8990094
  98.5185153 138.8106157  64.3326822 104.7003507 140.3269009  62.7727432
 105.1086863 139.8851419  62.0282064 103.9780768 139.7521636  63.0261625
 101.0534577 135.2641615  60.1460989 101.8995772 135.6881029  60.2895638
 100.9933215 134.6075240  60.8399552 104.2034022 132.9245984  61.8042163
 103.9594954 133.6788044  61.2676438 104.4793953 133.3031331  62.6389410
 103.7598714 132.0802417  57.3856000 102.8983193 132.3783670  57.6772738
 103.7861149 132.2972816  56.4537033 100.5760283 140.6244607  53.7929806
 101.0398629 140.9032310  53.0034428 100.3117082 139.7228052  53.6102897
  97.4684365 140.1716089  56.7309569  98.0385722 140.6003357  56.0927054
  98.0592476 139.8898674  57.4293755  99.5129170 136.7467760  50.6019371
 100.2153213 137.1988803  51.0693297  99.1809798 136.1051579  51.2299264
  97.9609531 135.3379516  64.9770580  97.3308192 136.0195797  65.2105977
  97.8545619 135.2262598  64.0323719  93.2554503 135.0051312  55.9036505
  92.4653557 135.2608841  55.4276615  93.7465751 135.8199650  56.0088545
  95.2069249 135.3695892  52.8619981  94.4100412 135.4814586  53.3803477
  94.9794841 135.7082544  51.9960872 101.0374916 141.8940595  60.8102496
 101.1019349 142.3561002  61.6460668 100.3285840 141.2637960  60.9384806
  91.5392206 135.2581803  58.3351495  91.7900245 136.1428813  58.6009071
  92.0751755 135.0786404  57.5626587  97.2390274 129.6400282  67.3395832
  96.8457219 129.0866481  68.0143476  98.0556414 129.9510861  67.7302349
  94.2052332 141.0784140  51.2509401  94.7176852 141.8727391  51.4014966
  94.8575044 140.3810431  51.1843003  96.0147216 144.1949897  53.3332155
  96.1913845 145.1167861  53.1453138  96.8104050 143.8808316  53.7626534
 100.1558235 131.0558161  64.9316088 100.8967948 131.6565314  64.8520551
 100.3876158 130.3135799  64.3734131  95.2999573 136.2414529  63.2094318
  95.1853088 135.3399786  63.5101417  94.4444091 136.4878225  62.8579134
  97.1378532 145.7128070  59.3342497  97.6885957 145.5845134  58.5619491
  96.2990008 146.0122959  58.9837390 100.9345703 141.9779198  63.6786728
 101.4674040 141.2167486  63.4486036 100.4059784 141.6852850  64.4210882
 104.1015398 127.0839264  59.2080370 103.7579667 127.9740906  59.1319480
 104.4694360 126.8940922  58.3449955  92.1701248 139.4072795  52.0268972
  93.0076470 139.8169803  51.8102680  92.3479516 138.4672237  51.9969166
 104.0665680 137.0747875  47.7152805 103.5512304 137.8452480  47.9541192
 103.7942989 136.4013011  48.3385866 101.6512791 131.9197576  52.7738043
 100.7954388 131.5304426  52.5943682 102.0639743 131.9989537  51.9137829
 103.1811938 129.4543919  57.1729603 102.6776734 129.4174055  56.3597408
 103.4742545 130.3636662  57.2326260  99.4254824 129.5382649  56.1795785
 100.2907821 129.3425458  55.8201674  99.4932333 129.3093001  57.1065141
 103.8551984 134.9474967  49.5412586 103.5502119 135.2621117  50.3922729
 104.8082426 135.0256387  49.5839919 102.2998415 141.1065191  51.1905540
 101.7719777 140.3717950  50.8778777 101.7985918 141.8839867  50.9445508
  97.0317143 131.7684857  53.5512152  97.6060895 131.5460038  52.8185344
  97.6188125 131.8373552  54.3040753 106.0896720 137.6558584  54.3576528
 106.6028602 138.2888576  54.8598238 106.7397944 137.0559779  53.9919888
  97.3586730 133.7989318  47.5708037  96.5224042 134.1364005  47.8917312
  97.2191500 133.6638298  46.6335174  99.3339811 128.6426106  52.2787221
  98.6804223 128.3275123  51.6543836  99.2920285 128.0201846  53.0047044
 100.4451016 138.9245401  44.1940513  99.5378077 138.6934654  44.3931662
 100.9422048 138.1283020  44.3814495 102.5677551 135.1308039  56.6034869
 101.6500112 135.3522986  56.4456557 102.9837695 135.2054350  55.7446576
 103.3512599 136.5299455  51.7337549 104.0984418 137.0420852  51.4244671
 103.6204188 136.2083508  52.5941942 101.6239249 139.0257996  48.7164503
 100.7150468 138.7417029  48.8136973 101.6534333 139.4457074  47.8567810
 105.7991436 133.5656571  53.7156338 105.0614193 133.0533958  54.0466581
 106.0518210 133.1256953  52.9039615 105.9003063 126.3432823  54.3098107
 106.2061940 125.4830187  54.0224023 106.6255668 126.9350444  54.1097101
  92.1927419 136.7463510  52.6979705  91.9951819 136.1532871  51.9730772
  91.6374083 136.4415720  53.4155644 100.1724143 136.6386616  54.8174299
 100.2272753 135.6860453  54.7416775  99.3615345 136.7946056  55.3015597
 101.3215337 140.5666740  46.0552582 100.8834767 139.8502598  45.5958219
 102.0625778 140.7942854  45.4937673  98.1116503 135.2563676  52.5764677
  97.2984369 135.5557847  52.9829870  98.6075497 134.8619365  53.2939160
 103.7090715 135.7205501  61.4079571 104.0640102 135.9476974  62.2674037
 104.3562846 136.0523877  60.7856827  97.6030578 132.8282032  58.1925912
  98.2429957 132.6870791  57.4948876  96.7708108 132.5416545  57.8164514
  98.3790882 142.1284462  54.3060905  99.1731480 141.6334782  54.1043480
  97.6682574 141.6002325  53.9428610  94.6873645 136.2727544  50.3820657
  93.7571233 136.2111999  50.5990620  94.7831117 135.7503497  49.5857299
  94.6059194 132.7982357  52.9698899  94.8666011 133.7127690  52.8608060
  95.4276367 132.3306799  53.1195512  96.0784120 134.2120114  60.1397724
  96.7507173 134.0037476  59.4910373  95.2513906 134.0142200  59.7002956
 101.9809692 130.8382055  62.1563385 101.3337607 131.5372004  62.0627861
 102.7510707 131.2718199  62.5239633 102.1573826 138.6762820  60.2160204
 103.0865886 138.8273979  60.0429172 101.7364856 138.7646840  59.3608851
 100.9562158 142.7013484  57.9858742 100.8173243 142.3332269  58.8584680
 100.1676754 143.2161124  57.8142700 102.5067373 142.0795087  55.3747580
 102.1717205 142.0395857  56.2705230 102.0071319 141.4139803  54.9017990
  96.4811617 137.4862717  60.9000161  96.3431415 136.7542956  61.5011700
  97.3916540 137.3971617  60.6184349 105.4426564 139.4251121  45.6484639
 104.8255735 138.6997949  45.5517692 104.9743053 140.1860481  45.3051714
  99.1093917 137.1982676  60.3883840  99.8193536 136.5575868  60.3470459
  99.0663226 137.4495571  61.3110021  97.8222851 134.1847894  62.2079480
  97.2860208 133.7338633  62.8601076  97.2339560 134.3193803  61.4649944
  97.2325110 133.6436545  44.7705944  96.3554577 133.5225346  44.4068190
  97.7082863 132.8522624  44.5184832  88.7527251 138.4313705  54.8647451
  89.4398290 138.1175435  54.2768466  88.5975379 139.3355070  54.5914702
  93.5561973 133.3203902  59.2932474  93.4720161 132.7129571  58.5582884
  92.7344679 133.8112920  59.2941971 103.7285687 131.8057465  54.6602669
 104.2254386 131.0527428  54.3403740 102.9572668 131.8421782  54.0945879
 104.8115467 140.5629153  52.2341093 103.8771746 140.6830615  52.0645797
 104.9892136 139.6601619  51.9701103 100.3120655 133.9474848  54.3874354
  99.9418443 133.3945889  55.0755260 100.8079748 133.3432982  53.8349354
 108.1988019 136.4046472  52.7691127 108.6648471 137.2374463  52.6951430
 108.6495519 135.9391453  53.4736386 106.1704681 128.7727059  56.8082028
 105.2567761 129.0031286  56.9764235 106.5997783 128.8565503  57.6596061
 105.9411140 136.9616951  59.3081922 105.2882590 137.2092858  58.6534375
 106.3191520 136.1481089  58.9744400 101.9898713 137.7036762  65.7947959
 101.3139350 137.6030891  66.4650335 102.8126347 137.5475976  66.2583957
  93.7377572 143.9408698  58.4160475  94.3231009 143.1952386  58.5488379
  93.5402410 144.2512655  59.2997139  88.3295227 136.5114299  57.1364918
  88.3679326 135.9777889  57.9302036  87.8235519 135.9849504  56.5175895
  95.7085989 131.3578839  60.6327460  95.7727315 132.2193670  60.2204858
  95.6453109 130.7452841  59.8999819  95.1838261 133.4301972  64.2800494
  95.8110300 133.0479049  64.8938019  94.3266180 133.2116174  64.6456187
  91.9603804 135.2378401  50.2118849  92.2557245 134.3289079  50.1585903
  91.0591840 135.2166140  49.8899852  95.4898051 133.3134397  56.1946398
  94.7684637 133.9270365  56.0553871  96.2791307 133.8492162  56.1163044
  98.2924365 130.6488824  62.4687050  98.8158767 130.8951120  63.2313359
  98.0736698 131.4808859  62.0490187  93.6891646 132.9192498  50.3358174
  93.3604352 132.0389877  50.1533280  94.0431017 132.8640167  51.2234564
  96.8033469 133.2065468  50.7033652  97.1429541 133.7351389  49.9812260
  97.2505589 133.5445874  51.4792219  99.4976910 131.5902519  60.1536720
  99.1573730 130.7910332  60.5557400  98.7915916 131.8904230  59.5813553
 100.1493382 128.6751831  58.6064043 100.9719451 128.2012310  58.4842933
 100.3931445 129.4542315  59.1062729  98.7901616 131.7040090  48.9026945
  99.5109979 132.0821343  48.3990662  98.1666920 132.4228967  49.0061923
 102.9332739 132.4085239  49.8385277 103.1496353 133.2909877  49.5374105
 102.4526806 132.0171452  49.1090919  97.6731960 135.3670952  56.4156022
  97.5276541 135.6811255  57.3080303  97.1957164 135.9855852  55.8626920
  99.5328343 132.3573500  56.4636911  99.5189912 131.4614593  56.1269209
 100.2500771 132.3644164  57.0975197 101.3854474 132.7910840  58.5090039
 101.1272252 133.7127911  58.5074369 100.8539514 132.3941275  59.1990503
  92.1477623 137.9076296  59.3543683  91.6031091 138.6836104  59.4863957
  93.0256972 138.2547101  59.1962804  98.9365239 131.2387880  51.7324481
  99.0581150 130.3104526  51.9315369  98.6467282 131.2526566  50.8202797
 101.8056430 128.9242791  54.8691201 101.8278126 128.9882124  53.9143181
 102.2224489 128.0847299  55.0631707  92.9343644 137.0346193  62.2473840
  92.1925380 137.1828828  62.8338470  92.6136389 137.2954458  61.3840589
  93.3800258 144.9211621  54.2784234  94.2058278 144.6215393  53.8982878
  93.0294310 144.1519244  54.7274023  98.3481791 144.2738090  56.3481908
  97.7261801 143.6108795  56.0484136  99.0186658 144.2999221  55.6655556
  91.5808863 142.8397948  55.2373168  90.7440771 142.4120122  55.0557169
  91.5532509 143.0330391  56.1743959  98.4206319 132.7519878  65.9414414
  98.4694474 133.6282000  65.5592184  98.9628833 132.2097271  65.3686057
  97.9095298 142.8242013  49.8240369  98.0583419 143.5077477  49.1707041
  98.7161742 142.8047103  50.3389824 106.3162802 136.1284395  63.8507586
 107.2172665 135.9890860  63.5591584 106.3910776 136.2938850  64.7905764
 100.6505607 133.5051250  62.6960773  99.7808917 133.7984816  62.4243361
 100.8865088 134.0891695  63.4168036  95.6647931 138.8507191  50.8301437
  95.4193973 137.9469521  51.0281648  95.8343846 138.8524341  49.8880915
 103.3544641 129.7230867  60.2126193 103.8726585 130.4591894  59.8872682
 102.9999774 130.0294860  61.0472952  94.9343579 134.5835548  48.3287599
  94.2412824 134.6579903  47.6727635  94.6895331 133.8195892  48.8509116
 103.6057235 126.1431149  55.7327090 103.8858989 125.4754339  56.3587516
 104.3907842 126.3360245  55.2201754 107.4766094 134.5648783  59.4798665
 108.4283516 134.6646881  59.5010889 107.3069544 133.7727052  59.9896749
 105.4980473 131.6504367  59.6658066 104.9030405 131.9309379  58.9704554
 105.2130170 132.1398268  60.4374807 101.7937502 136.6550956  44.6368168
 102.7396607 136.5257164  44.7056587 101.4151747 135.9165618  45.1137597
 110.1048660 134.5765947  58.6399248 109.5887708 133.7924403  58.4529177
 110.9888608 134.2484663  58.8045767 107.7659387 128.3206962  54.5995060
 107.5684208 128.0122050  55.4838392 108.3759092 129.0468601  54.7292990
 101.6776195 140.7068702  66.0968825 102.5979204 140.8847301  66.2908872
 101.6425778 139.7624748  65.9448525  99.9780419 134.5800932  44.5723054
  99.0711875 134.2834045  44.6485767 100.2556400 134.2830751  43.7057340
  90.8958360 135.9007296  55.0222100  90.5761144 135.0472604  54.7296474
  90.3491788 136.1155874  55.7780067  94.6738267 138.6169737  58.7391607
  94.8924277 139.5486845  58.7579640  95.0864041 138.2577711  59.5246410
 101.5942485 129.1237822  50.7267295 100.7843213 128.7784907  51.1022541
 102.2826902 128.8145366  51.3154907 103.5233033 128.2015869  52.3491592
 104.0764072 128.6211322  53.0081615 103.7603120 127.2751617  52.3914548
  99.5466133 134.1902943  68.1294356  99.4462859 135.1397300  68.0606447
  99.3287675 133.8621182  67.2570426  98.7479204 131.4387868  44.7135033
  99.6098368 131.7642766  44.9730850  98.9329548 130.6519364  44.2008099
  90.7646620 139.5210207  56.9915222  90.0710091 139.1064160  56.4785176
  91.5119611 139.5630744  56.3948641 106.9011840 130.3116394  51.8570256
 106.3210509 130.9701198  51.4748308 106.6347773 129.4893739  51.4457673
 105.3515407 129.7121452  54.0591576 105.8515185 129.8237986  53.2505895
 105.9951015 129.4082505  54.6992385  99.4097403 137.6200081  66.9459417
  98.9264484 138.4200442  67.1523306  99.4958342 137.6308026  65.9926861
  92.6783362 139.4528461  54.8681237  92.6554050 139.5516148  53.9163120
  92.9883999 140.2993612  55.1898403  95.3370740 141.5104616  58.9827851
  96.2913994 141.4788559  58.9157783  95.1383264 141.0495240  59.7978077
  95.9270122 140.0805732  61.5498649  96.7463011 140.5749811  61.5733486
  96.2006930 139.1637700  61.5216216 105.6836718 132.4716485  50.9126604
 104.7962573 132.7566135  50.6946799 106.0990708 132.3110248  50.0653881
 109.0351255 132.4963006  54.6280943 109.8111645 132.9859458  54.9005560
 108.3099389 132.9221060  55.0852813 111.4723813 133.2090625  55.6854884
 112.0668304 132.9686361  54.9748192 111.5450397 132.4897755  56.3128420
  93.6920969 147.0524236  55.9998049  93.5575437 146.2924637  55.4336047
  93.2753031 147.7765136  55.5326838 105.6577742 137.9871020  51.1276894
 105.6012944 138.4439572  50.2884527 106.2106085 137.2261705  50.9499737
 109.4682548 133.7760752  51.9527014 109.2119482 133.3757388  52.7835222
 108.8435416 134.4904546  51.8277153 106.3912522 139.1775802  48.4229424
 106.3361325 139.0120073  47.4817868 105.7658577 139.8851835  48.5791613
  91.1805036 134.4143866  62.2490846  91.8263900 133.9042820  62.7378071
  90.9722188 135.1512548  62.8234271  99.7008647 128.6783911  48.0014742
  99.6887317 129.6225751  48.1583013 100.5932069 128.4954056  47.7074203
 103.5160766 125.2726687  52.2560679 102.7493162 124.7185174  52.4017361
 103.9271471 125.3448556  53.1174830  95.5202527 131.5611483  66.3465860
  96.3833989 131.2048288  66.5569185  94.9467938 131.2225378  67.0341264
  28.6500870   7.5640121  43.8773568  29.2879280   7.4446868  43.1736908
  28.5321713   8.5120965  43.9361520  25.4590576   7.5167549  43.8135092
  25.1209088   7.4008614  42.9255627  26.3280344   7.1158714  43.7936098
  25.9410359   8.6702401  49.7721298  25.9299000   8.2755199  48.9001801
  26.1030998   7.9368473  50.3655069  18.8641824  10.8654217  42.6416204
  19.6563116  10.5245041  42.2262503  19.1038474  10.9749192  43.5618357
  26.8976950  13.0373993  35.1146448  26.2464930  13.6228073  34.7280462
  27.6921313  13.5680188  35.1741486  22.6617620  11.4539512  48.7200482
  22.3707486  12.3585143  48.6047148  23.2974605  11.4956040  49.4344551
  23.5873827   8.8316361  45.3101841  24.1837399   8.6072383  44.5958804
  23.6448799   8.0901106  45.9127289  28.2042138   5.2891575  40.9526776
  28.9905227   4.8710998  40.6017193  28.4680843   6.1937667  41.1208424
  33.6050565   5.2266808  41.8559754  34.3375737   4.6566025  42.0897584
  32.8489921   4.8388408  42.2966260  25.2226685   7.6494049  39.0523097
  24.8584892   7.1224670  39.7636018  26.0793801   7.2592518  38.8789582
  27.6207505  11.1400928  45.7150275  27.3208228  12.0425967  45.6066083
  27.2758565  10.8733111  46.5671428  21.0719987   7.5914725  41.7486980
  20.1470483   7.4590939  41.9564672  21.3204400   8.3708944  42.2456922
  31.0204649   3.6583468  43.3947713  30.1121526   3.5898876  43.1006474
  30.9692245   4.1355413  44.2229538  22.6028285  17.9045248  38.6821243
  22.5252315  18.8553073  38.7609724  21.9989929  17.5591121  39.3396170
  25.0945515   5.0773114  51.3382610  24.3178849   5.6367034  51.3285475
  25.7336078   5.5629897  51.8597480  32.8866295   1.8599906  45.1725587
  32.2440676   2.1532440  44.5265381  32.3821224   1.7452827  45.9778783
  23.3491887   7.8858567  50.9000577  24.0906571   8.4243611  50.6235401
  22.6428873   8.5124856  51.0572129  28.8247227  10.0287707  49.4972739
  29.2330583   9.5870118  48.7527371  28.1024488   9.4540335  49.7506931
  25.1778297   4.9660314  46.8706296  26.0239492   5.3899728  47.0140945
  25.1176934   4.3093939  47.5644859  29.1476041  10.5888898  43.2525027
  28.5184904  10.7534612  42.5501095  28.7601703  11.0030508  44.0235991
  33.0265273  11.5243336  40.6069391  32.3416311  11.9042237  40.0566425
  33.1109123  12.1338663  41.3401339  28.3277742   2.6264683  48.5287469
  28.0838674   3.3806743  47.9921745  28.6037673   3.0050030  49.3634716
  30.2816205   9.1703295  47.2064735  30.4933100   9.8135055  46.5299116
  30.2345953   8.3365612  46.7386665  27.8842434   1.7821116  44.1101307
  27.0226913   2.0802369  44.4018044  27.9104869   1.9991515  43.1782340
  24.7004003  10.3263306  40.5175113  25.1642349  10.6051009  39.7279735
  24.4360801   9.4246751  40.3348203  21.5928084   9.8734788  43.4554876
  22.1629441  10.3022056  42.8172360  22.1836196   9.5917372  44.1539061
  31.3962033  12.0475250  45.3787092  32.2179477  11.6455438  45.0969774
  31.3924436  11.9443485  46.3303208  25.1618636  11.5959294  47.5347803
  25.2263069  12.0579701  48.3705974  24.4529560  10.9656659  47.6630112
  39.4868026   8.3913999  41.7272064  38.7331734   7.8221397  41.5716068
  39.6215567   8.3576663  42.6742698  24.8766654  13.2627401  37.4026783
  24.7412329  14.1078937  37.8311631  25.4176466  13.4646679  36.6392717
  20.1390936  13.8968595  40.0577461  20.3157564  14.8186560  39.8698445
  20.9347770  13.5827015  40.4871841  26.5035130  13.8850968  51.5327125
  26.0598985  13.0987346  51.2148029  27.1652344  14.0730118  50.8671016
  21.2622252  15.4146769  46.0587804  21.8129677  15.2863833  45.2864797
  20.4233727  15.7141658  45.7082696  28.6016368  14.1653768  49.5608526
  28.5834844  14.9862649  49.0688795  29.5236288  14.0407843  49.7858667
  25.0589423  11.6797897  50.4032035  25.5917759  10.9186185  50.1731343
  24.5303504  11.3871549  51.1456189  33.1643674   9.5298929  36.3751285
  32.3873117   9.1910088  35.9306447  33.8435155   9.5351552  35.7006250
  26.4242135  10.8083890  37.9150847  25.8963497  10.0736649  37.6024084
  25.9229638  11.5858566  37.6690815  31.4034981   9.0032910  43.0317893
  30.7458656   9.6932171  43.1198022  32.2075380   9.3929342  43.3751879
  30.2140440   7.3577283  41.0821835  30.7272322   7.9907275  41.5843544
  30.8641664   6.7578478  40.7165195  27.4762814  17.3361607  33.8382506
  26.8024513  17.6393304  34.4467464  27.8628636  18.1390687  33.4887963
  26.6921271   4.8326738  43.3280175  25.7743832   5.0541685  43.1701863
  27.1081415   4.9073049  42.4691883  27.4756319   6.2318154  38.4582855
  28.2228138   6.7439551  38.1489978  27.7447908   5.9102207  39.3187249
  30.9802236  12.3383284  39.2100977  30.5264563  11.4974194  39.2666168
  30.3496203  12.9744683  39.5475757  29.9235156   3.2675270  40.4401645
  29.1857913   2.7552656  40.7711887  30.1761929   2.8275652  39.6284922
  29.4235176  14.1759781  40.1450795  29.7158150  14.7364838  39.4263161
  29.9333796  14.4688342  40.9003955  24.2967863   6.3405315  41.5419605
  24.3516473   5.3879152  41.4662082  23.4859065   6.4964754  42.0260904
  24.3868801  14.9540132  41.2344249  24.3444980  15.1800978  40.3052781
  25.3031500  14.7203507  41.3830050  27.8334435   5.4224200  48.1324878
  28.1883822   5.6495673  48.9919344  28.4806566   5.7542576  47.5102133
  33.5632171   8.5442635  38.8374207  33.4250070   8.7344231  37.9095396
  33.2068390   9.3062018  39.2942258  33.5901551  10.6119162  43.8485478
  34.0238058  10.5194452  44.6968532  34.3033132  10.5876663  43.2105494
  22.5034602  11.8303161  41.0306211  23.2975200  11.3353481  40.8288786
  21.7926294  11.3021024  40.6673917  27.3229446  14.2121257  45.3818579
  27.3766468  14.7812193  46.1496295  26.4544227  14.3823142  45.0172616
  34.4517101  10.6542863  46.3818364  34.6452991  11.5588674  46.6277639
  34.3517719  10.1950282  47.2156949  29.5132209  10.8049606  51.9559244
  29.3617716  10.5760158  51.0389328  29.5036889  11.7620207  51.9690589
  26.2817546   8.3781519  46.9405511  27.2109606   8.5292678  46.7674478
  25.8608576   8.4665539  46.0854157  25.0805877  12.4032183  44.7104049
  24.9416963  12.0350967  45.5829987  24.2920474  12.9179822  44.5388006
  25.6754029  17.5041279  36.0529585  25.8505785  17.0329323  36.8675208
  24.9886817  18.1307046  36.2810846  26.6311093  11.7813786  42.0992886
  26.2960925  11.7414556  42.9950536  26.1315038  11.1158502  41.6263297
  20.6055337   7.1881416  47.6245467  20.4675135   6.4561655  48.2257006
  21.5160260   7.0990316  47.3429655  23.2337637   6.9001375  47.1129147
  23.9437256   6.2594567  47.0715766  23.1906945   7.1514270  48.0355328
  31.2224416  13.8368728  50.0335726  31.1636962  13.1527949  49.3666309
  31.6243934  14.5787718  49.5816352  20.2415115  20.6530642  42.8269445
  20.4811713  21.2849166  43.5048464  19.3984311  20.3018682  43.1134804
  31.2241823  11.8008312  48.2649706  30.3368602  11.4634234  48.3876105
  31.7940374  11.0691344  48.5018471  24.7542977  16.4609765  45.2310949
  24.6813148  17.2664736  45.7430254  24.3120370  16.6601730  44.4058971
  24.5432756  15.6981535  38.7413771  23.7600278  16.2403215  38.8351995
  25.2425501  16.2155514  39.1408012  35.7059164   7.2116530  43.0266268
  35.6949040   8.0941245  42.6560201  34.8376543   6.8588081  42.8320805
  27.2141660  16.3596599  47.3869108  27.9269632  16.9944064  47.3145009
  26.7231689  16.4560465  46.5709110  28.9359187  10.2647851  38.9586400
  28.0015466  10.3849314  38.7891104  29.1135856   9.3620318  38.6946409
  32.3231738   6.1065171  39.4936434  32.7892191   6.9393162  39.4196736
  32.7739239   5.6410152  40.1981692  22.2653574  14.1091042  48.2074679
  22.9663033  14.7427525  48.3604073  21.7948689  14.4505774  47.4470318
  30.3907970  12.4508992  36.4922586  30.6667813  12.3365587  37.4016460
  29.5212468  12.0526477  36.4534759  30.0654860   6.6635650  46.0327229
  29.4126310   6.9111557  45.3779682  30.4435240   5.8499788  45.6989706
  27.0262034  16.6995343  40.1355399  27.2084428  15.8816999  40.5983152
  27.8495020  16.9163035  39.6980289  27.3604199  15.6263528  37.3970448
  27.8891965  15.1155983  36.7840610  27.6232419  15.3106058  38.2615981
  26.1142433   7.4055461  52.5193266  25.4383070   7.3049590  53.1895641
  26.9370067   7.2494674  52.9829263  17.8621292  13.6427397  45.1405781
  18.4474729  12.8971085  45.2733686  17.6646130  13.9531354  46.0242445
  20.7159947  16.6778645  40.1568224  20.0470322  17.1624772  39.6732264
  20.5772817  16.9247865  41.0711602  24.8565216  18.7122388  46.7550882
  25.4083524  18.8754010  47.5199967  25.1971409  19.3026826  46.0830907
  29.7076090  13.5383646  52.6099537  30.2515994  14.1513604  52.1154491
  29.1262935  14.0963224  53.1266550  27.9933603  16.6604364  43.7414564
  27.8684742  15.8594103  43.2325510  28.6512694  17.1550557  43.2528534
  30.0568511  14.4613384  45.3694114  29.1098847  14.3418735  45.2972441
  30.4051284  13.5735882  45.4520376  27.0614945  14.2566100  41.5698467
  26.9139907  13.3282807  41.7506037  27.8868438  14.2786191  41.0855542
  30.6649066  15.0794659  42.6563339  31.5895614  14.8737520  42.5187790
  30.4964370  14.8311060  43.5652681  30.4544383  15.5980326  38.0125431
  30.6281260  15.0326749  37.2599283  30.9473274  16.3981221  37.8304921
  36.3083774   8.3616749  39.6315731  36.7514920   7.6124074  39.2334854
  35.4310284   8.3526885  39.2489463  31.4419555  14.9147091  35.1122329
  32.1370460  15.5353783  35.3309644  31.7842705  14.0642442  35.3874707
  33.3410978  12.3646796  36.6409660  33.8662302  12.7034069  35.9158980
  33.2533331  11.4293811  36.4572794  25.0031027  16.2780870  48.7699536
  25.3118153  16.0330016  49.6422236  25.8006509  16.4827508  48.2818407
  25.0251639  18.4318779  41.0004913  24.5856629  17.9395158  41.6937770
  25.7759756  17.8891747  40.7596988  17.5043978  14.6230320  41.0029541
  18.3301998  14.3234092  40.6228185  17.1538030  13.8537943  41.4519330
  22.4725511  13.9756788  43.0727215  21.8505520  13.3127493  42.7729443
  23.1430378  14.0017920  42.3900862  15.7052583  12.5416647  41.9618475
  14.8684491  12.1138821  41.7802476  15.6776228  12.7349090  42.8989266
  33.0304884  12.9979700  51.9460858  32.2400428  12.9803839  51.4065357
  32.7938239  13.5367993  52.7009894  33.1502759   9.8472166  49.2593586
  33.2000764   9.6822174  50.2009109  33.0416683   8.9799425  48.8691467
  30.4406522   5.8303094  50.5752893  31.3416384   5.6909559  50.2836891
  30.5154496   5.9957549  51.5151070  34.6520956  12.2669108  49.5035608
  34.3605764  12.6299088  50.3399069  34.0393087  11.5536116  49.3248940
  35.8516638   9.8321987  42.0238178  36.6863530  10.2711791  42.1875738
  35.9875767   9.3560641  41.2046424  32.9008144   7.3901722  47.9715666
  33.3762266   7.5829369  47.1634517  31.9773710   7.4460908  47.7259050
  31.6009813   4.2667482  46.2043971  32.5527236   4.3665580  46.2256195
  31.4313264   3.4745751  46.7142056  29.6224193   1.3523066  46.3903372
  29.0274125   1.6328078  45.6949861  29.3373890   1.8416966  47.1620113
  28.7531683  15.3045992  35.1506005  29.6862356  15.2391554  35.3538880
  28.6654896  16.1402259  34.6920538  31.3819700  14.6211863  32.1109952
  31.3033331  14.2871726  33.0045710  32.2029367  15.1133631  32.1101425
  34.0797891   7.4873602  45.3186271  34.0474211   6.5489603  45.5045955
  34.6898515   7.5657639  44.5852096  34.2292380   4.2784645  45.3644554
  33.7131428   3.4943102  45.1774483  35.1132328   3.9503362  45.5291074
  39.8974441   8.5489609  44.4592308  40.6277829   8.2874897  45.0200011
  39.2881386   7.8118331  44.4994376  37.9789738   6.6897471  45.0566759
  37.2522902   6.5553436  44.4483251  37.5637025   6.9974300  45.8623477
  25.8019915  10.4087401  52.8214132  26.7222924  10.5866000  53.0154179
  25.7669498   9.4643446  52.6693831  18.7981987   8.3188436  45.4636913
  19.0167997   9.2505544  45.4824947  19.2107761   7.9596410  46.2491717
  23.5341122   7.3218780  53.6704724  23.0508204   8.1219140  53.8768613
  23.6202061   7.3326725  52.7172168  19.4614460  11.2123315  45.7073158
  20.4157713  11.1807257  45.6403089  19.2626984  10.7513939  46.5223384
  20.0513842   9.7824431  48.2743955  20.8706731  10.2768510  48.2978793
  20.3250650   8.8656399  48.2461523  33.1594974   2.1981704  41.3526250
  33.9355365   2.6878157  41.6250867  32.4343109   2.6239759  41.8098120
  35.5967533   2.9109324  42.4100191  36.1912024   2.6705060  41.6993499
  35.6694117   2.1916454  43.0373727  17.8164689  16.7542935  42.7243356
  17.6819157  15.9943335  42.1581354  17.3996751  17.4783834  42.2572144
  29.7821462   7.6889719  37.8522201  29.7256663   8.1458271  37.0129833
  30.3349804   6.9280404  37.6745044  33.5926268   3.4779451  38.6772320
  33.3363202   3.0776087  39.5080528  32.9679136   4.1923245  38.5522460
  37.9038606   6.2175524  41.1843612  37.3438164   6.2868714  41.9575174
  37.2982109   6.0416509  40.4643108  20.9733815  17.6512252  42.9361798
  20.8566199  18.5957684  42.8340488  20.1526261  17.3485813  43.3247597
  30.8610349  12.3762387  33.7818391  31.6955953  11.9443586  33.5995866
  30.6994692  12.2044401  34.7095285  27.8302149  11.1843412  54.4728293
  28.6993308  11.3584065  54.1114928  27.3508900  12.0037829  54.3504022
  21.9988329  18.3040513  46.1517727  22.9015575  18.3364124  46.4684222
  21.7725699  17.3740964  46.1664062  23.7541931  17.0571500  42.8127805
  22.8037562  17.0573362  42.6992178  24.0574417  16.3104235  42.2963840
  39.4894624  22.8932038  43.8773568  40.1273034  22.7738786  43.1736908
  39.3715467  23.8412882  43.9361520  36.2984331  22.8459467  43.8135092
  35.9602842  22.7300531  42.9255627  37.1674099  22.4450632  43.7936098
  32.1571146  24.6994943  39.8031983  31.5936011  24.6084880  39.0348271
  32.0423541  23.8794847  40.2834476  36.7804114  23.9994318  49.7721298
  36.7692754  23.6047117  48.9001801  36.9424753  23.2660391  50.3655069
  29.7035578  26.1946135  42.6416204  30.4956870  25.8536959  42.2262503
  29.9432228  26.3041110  43.5618357  37.7370705  28.3665911  35.1146448
  37.0858685  28.9519991  34.7280462  38.5315068  28.8972106  35.1741486
  31.6626332  25.4555048  35.5133583  32.4357208  24.9084035  35.3746458
  32.0151731  26.3199297  35.7248044  33.5011375  26.7831430  48.7200482
  33.2101241  27.6877061  48.6047148  34.1368359  26.8247958  49.4344551
  34.4267582  24.1608279  45.3101841  35.0231154  23.9364301  44.5958804
  34.4842553  23.4193024  45.9127289  33.9992610  21.6147714  33.1452032
  34.2518131  21.0929235  32.3835495  33.0617169  21.4513859  33.2478716
  39.0435893  20.6183492  40.9526776  39.8298982  20.2002915  40.6017193
  39.3074597  21.5229584  41.1208424  39.2145970  26.0556343  35.6515432
  38.5791803  26.1290969  36.3636337  38.8843376  26.6449941  34.9734512
  44.4444320  20.5558725  41.8559754  45.1769492  19.9857942  42.0897584
  43.6883676  20.1680326  42.2966260  33.7188899  23.5175820  35.3476407
  33.6025157  22.8420723  36.0157492  33.8291159  23.0308194  34.5308560
  36.0620440  22.9785967  39.0523097  35.6978647  22.4516588  39.7636018
  36.9187555  22.5884436  38.8789582  41.9669740  14.2680300  46.3154363
  41.6353065  15.1375711  46.0915578  41.3715354  13.9516584  46.9948393
  35.7025927  18.0075867  34.0484445  35.8700329  18.8756103  34.4154916
  35.5123096  18.1703148  33.1245734  38.4601260  26.4692846  45.7150275
  38.1601983  27.3717884  45.6066083  38.1152319  26.2025029  46.5671428
  31.9113741  22.9206642  41.7486980  30.9864238  22.7882856  41.9564672
  32.1598154  23.7000862  42.2456922  41.8598404  18.9875386  43.3947713
  40.9515281  18.9190794  43.1006474  41.8085999  19.4647331  44.2229538
  35.6815147  20.4633524  35.0331112  35.5614773  20.9090575  35.8716592
  34.9867736  20.8118842  34.4744650  29.2722552  22.5639916  42.5830769
  29.4014933  22.8174395  43.4970181  28.5920004  23.1567624  42.2635424
  33.4422040  33.2337166  38.6821243  33.3646069  34.1844991  38.7609724
  32.8383683  32.8883038  39.3396170  35.9339269  20.4065031  51.3382610
  35.1572603  20.9658951  51.3285475  36.5729832  20.8921814  51.8597480
  43.7260050  17.1891824  45.1725587  43.0834430  17.4824357  44.5265381
  43.2214978  17.0744744  45.9778783  41.3800214  20.9354997  35.8611446
  42.2918070  21.1682384  35.6859144  40.8709861  21.5192042  35.2986525
  34.1885642  23.2150485  50.9000577  34.9300326  23.7535529  50.6235401
  33.4822627  23.8416773  51.0572129  39.6640981  25.3579625  49.4972739
  40.0724337  24.9162036  48.7527371  38.9418243  24.7832253  49.7506931
  36.0172051  20.2952232  46.8706296  36.8633246  20.7191645  47.0140945
  35.9570689  19.6385856  47.5644859  39.9869796  25.9180816  43.2525027
  39.3578658  26.0826530  42.5501095  39.5995458  26.3322425  44.0235991
  43.8659028  26.8535254  40.6069391  43.1810066  27.2334155  40.0566425
  43.9502877  27.4630580  41.3401339  39.1671497  17.9556600  48.5287469
  38.9232429  18.7098661  47.9921745  39.4431427  18.3341948  49.3634716
  41.1209959  24.4995213  47.2064735  41.3326855  25.1426973  46.5299116
  41.0739708  23.6657529  46.7386665  38.7236188  17.1113033  44.1101307
  37.8620667  17.4094287  44.4018044  38.7498623  17.3283432  43.1782340
  35.5397758  25.6555224  40.5175113  36.0036103  25.9342927  39.7279735
  35.2754556  24.7538668  40.3348203  32.4321839  25.2026705  43.4554876
  33.0023196  25.6313974  42.8172360  33.0229951  24.9209290  44.1539061
  34.4766644  21.7778376  37.3264678  35.1790687  22.2299420  37.7938604
  34.1447272  21.1362195  37.9544571  32.9247005  20.3690133  51.7015887
  32.2945666  21.0506414  51.9351284  32.8183093  20.2573214  50.7569025
  28.2191978  20.0361929  42.6281811  27.4291032  20.2919457  42.1521922
  28.7103225  20.8510267  42.7333852  42.2355787  27.3767168  45.3787092
  43.0573231  26.9747355  45.0969774  42.2318190  27.2735402  46.3303208
  30.1706723  20.4006508  39.5865288  29.3737886  20.5125202  40.1048784
  29.9432315  20.7393160  38.7206178  36.0012391  26.9251211  47.5347803
  36.0656823  27.3871619  48.3705974  35.2923315  26.2948576  47.6630112
  26.5029681  20.2892419  45.0596802  26.7537719  21.1739429  45.3254378
  27.0389229  20.1097021  44.2871894  50.3261780  23.7205917  41.7272064
  49.5725489  23.1513315  41.5716068  50.4609322  23.6868581  42.6742698
  35.7160408  28.5919319  37.4026783  35.5806083  29.4370855  37.8311631
  36.2570221  28.7938597  36.6392717  32.2027748  14.6710899  54.0641138
  31.8094694  14.1177097  54.7388782  33.0193888  14.9821477  54.4547656
  29.1689806  26.1094757  37.9754708  29.6814326  26.9038007  38.1260273
  29.8212519  25.4121047  37.9088309  30.9784691  29.2260513  40.0577461
  31.1551319  30.1478478  39.8698445  31.7741524  28.9118932  40.4871841
  35.1195709  16.0868778  51.6561395  35.8605422  16.6875931  51.5765857
  35.3513632  15.3446416  51.0979437  30.2637047  21.2725145  49.9339624
  30.1490562  20.3710402  50.2346723  29.4081565  21.5188842  49.5824441
  37.3428885  29.2142885  51.5327125  36.8992739  28.4279264  51.2148029
  38.0046098  29.4022036  50.8671016  32.1016006  30.7438687  46.0587804
  32.6523431  30.6155750  45.2864797  31.2627482  31.0433576  45.7082696
  39.4410123  29.4945685  49.5608526  39.4228598  30.3154566  49.0688795
  40.3630043  29.3699761  49.7858667  35.8983177  27.0089815  50.4032035
  36.4311514  26.2478103  50.1731343  35.3697258  26.7163467  51.1456189
  39.0652872  12.1149881  45.9325676  38.7217141  13.0051522  45.8564787
  39.4331835  11.9251538  45.0695261  27.1338723  24.4383411  38.7514279
  27.9713945  24.8480420  38.5347986  27.3116990  23.4982853  38.7214472
  39.0303155  22.1058492  34.4398112  38.5149778  22.8763096  34.6786499
  38.7580463  21.4323628  35.0631173  36.6150266  16.9508193  39.4983350
  35.7591862  16.5615043  39.3188989  37.0277218  17.0300153  38.6383135
  38.1449412  14.4854536  43.8974910  37.6414208  14.4484671  43.0842715
  38.4380019  15.3947279  43.9571566  34.3892298  14.5693266  42.9041091
  35.2545295  14.3736074  42.5446981  34.4569807  14.3403617  43.8310448
  44.0037429  24.8590846  36.3751285  43.2266872  24.5202006  35.9306447
  44.6828910  24.8643470  35.7006250  38.8189458  19.9785584  36.2657893
  38.5139593  20.2931733  37.1168036  39.7719900  20.0567004  36.3085226
  37.2635890  26.1375807  37.9150847  36.7357251  25.4028567  37.6024084
  36.7623392  26.9150484  37.6690815  42.2428736  24.3324828  43.0317893
  41.5852410  25.0224089  43.1198022  43.0469135  24.7221260  43.3751879
  31.9954617  16.7995474  40.2757458  32.5698369  16.5770655  39.5430651
  32.5825600  16.8684168  41.0286059  41.0534195  22.6869200  41.0821835
  41.5666076  23.3199192  41.5843544  41.7035418  22.0870396  40.7165195
  32.3224204  18.8299935  34.2953343  31.4861517  19.1674621  34.6162618
  32.1828974  18.6948914  33.3580480  34.2977285  13.6736722  39.0032528
  33.6441697  13.3585740  38.3789142  34.2557759  13.0512463  39.7292351
  35.4088490  23.9556018  30.9185820  34.5015552  23.7245271  31.1176969
  35.9059522  23.1593637  31.1059801  38.3156569  32.6653525  33.8382506
  37.6418268  32.9685221  34.4467464  38.7022391  33.4682605  33.4887963
  37.5315025  20.1618656  43.3280175  36.6137587  20.3833603  43.1701863
  37.9475169  20.2364966  42.4691883  38.3150073  21.5610072  38.4582855
  39.0621892  22.0731469  38.1489978  38.5841663  21.2394124  39.3187249
  36.5876723  24.0568612  35.4409810  35.6787943  23.7727645  35.5382280
  36.6171807  24.4767691  34.5813117  41.8195991  27.6675202  39.2100977
  41.3658318  26.8266112  39.2666168  41.1889957  28.3036600  39.5475757
  40.7628910  18.5967188  40.4401645  40.0251667  18.0844574  40.7711887
  41.0155684  18.1567570  39.6284922  40.2628930  29.5051699  40.1450795
  40.5551904  30.0656756  39.4263161  40.7727551  29.7980260  40.9003955
  40.8640538  11.3743440  41.0343414  41.1699414  10.5140803  40.7469329
  41.5893142  11.9661060  40.8342408  27.1564894  21.7774127  39.4225012
  26.9589294  21.1843487  38.6976079  26.6011558  21.4726337  40.1400951
  35.1361617  21.6697233  41.5419605  35.1910227  20.7171069  41.4662082
  34.3252819  21.8256672  42.0260904  36.2852811  25.5977356  32.7797888
  35.8472241  24.8813215  32.3203526  37.0263252  25.8253471  32.2182980
  33.0753977  20.2874293  39.3009984  32.2621843  20.5868463  39.7075176
  33.5712972  19.8929982  40.0184466  35.2262555  30.2832050  41.2344249
  35.1838734  30.5092896  40.3052781  36.1425254  30.0495424  41.3830050
  38.6728189  20.7516117  48.1324878  39.0277577  20.9787590  48.9919344
  39.3200320  21.0834494  47.5102133  44.4025926  23.8734553  38.8374207
  44.2643825  24.0636149  37.9095396  44.0462145  24.6353936  39.2942258
  32.5668052  17.8592648  44.9171219  33.2067431  17.7181407  44.2194182
  31.7345583  17.5727162  44.5409821  44.4295306  25.9411080  43.8485478
  44.8631812  25.8486369  44.6968532  45.1426886  25.9168581  43.2105494
  33.3428356  27.1595079  41.0306211  34.1368954  26.6645399  40.8288786
  32.6320048  26.6312942  40.6673917  38.1623200  29.5413174  45.3818579
  38.2160223  30.1104111  46.1496295  37.2937982  29.7115059  45.0172616
  29.6511119  21.3038160  37.1065964  28.7208708  21.2422616  37.3235926
  29.7468591  20.7814113  36.3102605  29.5696669  17.8292973  39.6944206
  29.8303486  18.7438306  39.5853366  30.3913841  17.3617416  39.8440819
  31.0421594  19.2430730  46.8643030  31.7144647  19.0348093  46.2155679
  30.2151380  19.0452816  46.4248263  45.2910855  25.9834781  46.3818364
  45.4846745  26.8880591  46.6277639  45.1911473  25.5242200  47.2156949
  36.9447166  15.8692671  48.8808691  36.2975081  16.5682621  48.7873168
  37.7148181  16.3028815  49.2484939  40.3525964  26.1341524  51.9559244
  40.2011470  25.9052075  51.0389328  40.3430643  27.0912125  51.9690589
  37.1211300  23.7073436  46.9405511  38.0503360  23.8584596  46.7674478
  36.7002330  23.7957457  46.0854157  35.9199632  27.7324101  44.7104049
  35.7810718  27.3642885  45.5829987  35.1314228  28.2471740  44.5388006
  36.5147784  32.8333197  36.0529585  36.6899540  32.3621240  36.8675208
  35.8280572  33.4598963  36.2810846  37.4704847  27.1105703  42.0992886
  37.1354680  27.0706473  42.9950536  36.9708793  26.4450419  41.6263297
  31.4449091  22.5173333  47.6245467  31.3068889  21.7853572  48.2257006
  32.3554015  22.4282233  47.3429655  40.4064039  24.4561738  32.3729946
  39.7893209  23.7308566  32.2762999  39.9380527  25.2171098  32.0297020
  34.0731392  22.2293293  47.1129147  34.7831010  21.5886485  47.0715766
  34.0300700  22.4806188  48.0355328  42.0618170  29.1660646  50.0335726
  42.0030717  28.4819866  49.3666309  42.4637689  29.9079636  49.5816352
  32.7860326  19.2158511  48.9324787  32.2497683  18.7649249  49.5846383
  32.1977034  19.3504419  48.1895251  31.0808869  35.9822560  42.8269445
  31.3205467  36.6141084  43.5048464  30.2378066  35.6310600  43.1134804
  32.1962585  18.6747162  31.4951250  31.3192051  18.5535963  31.1313497
  32.6720338  17.8833240  31.2430139  42.0635578  27.1300230  48.2649706
  41.1762356  26.7926152  48.3876105  42.6334129  26.3983261  48.5018471
  23.7164725  23.4624322  41.5892757  24.4035765  23.1486052  41.0013773
  23.5612854  24.3665686  41.3160009  28.5199447  18.3514518  46.0177781
  28.4357636  17.7440188  45.2828191  27.6982153  18.8423537  46.0187277
  35.5936731  31.7901682  45.2310949  35.5206903  32.5956654  45.7430254
  35.1514124  31.9893648  44.4058971  35.3826511  31.0273452  38.7413771
  34.5994033  31.5695133  38.8351995  36.0819256  31.5447432  39.1408012
  38.6923161  16.8368082  41.3847976  39.1891860  16.0838044  41.0649046
  37.9210142  16.8732398  40.8191185  46.5452918  22.5408447  43.0266268
  46.5342794  23.4233163  42.6560201  45.6770298  22.1879998  42.8320805
  38.0535415  31.6888516  47.3869108  38.7663387  32.3235981  47.3145009
  37.5625443  31.7852382  46.5709110  39.7752942  25.5939769  38.9586400
  38.8409220  25.7141232  38.7891104  39.9529610  24.6912236  38.6946409
  35.2758130  18.9785465  41.1119661  34.9055917  18.4256505  41.8000566
  35.7717222  18.3743598  40.5594661  43.1625493  21.4357088  39.4936434
  43.6285945  22.2685080  39.4196736  43.6132993  20.9702070  40.1981692
  33.1047328  29.4382960  48.2074679  33.8056788  30.0719443  48.3604073
  32.6342443  29.7797691  47.4470318  41.2301724  27.7800910  36.4922586
  41.5061568  27.6657504  37.4016460  40.3606223  27.3818394  36.4534759
  41.1342156  13.8037675  43.5327335  40.2205235  14.0341902  43.7009542
  41.5635257  13.8876119  44.3841367  40.9048614  21.9927567  46.0327229
  40.2520064  22.2403475  45.3779682  41.2828994  21.1791705  45.6989706
  37.8655788  32.0287260  40.1355399  38.0478183  31.2108916  40.5983152
  38.6888774  32.2454953  39.6980289  38.1997954  30.9555446  37.3970448
  38.7285720  30.4447900  36.7840610  38.4626173  30.6397976  38.2615981
  36.9536187  22.7347378  52.5193266  36.2776824  22.6341508  53.1895641
  37.7763821  22.5786592  52.9829263  28.7015046  28.9719315  45.1405781
  29.2868483  28.2263003  45.2733686  28.5039885  29.2823272  46.0242445
  31.5553701  32.0070562  40.1568224  30.8864077  32.4916690  39.6732264
  31.4166571  32.2539783  41.0711602  23.2932701  21.5424915  43.8610225
  23.3316800  21.0088506  44.6547343  22.7872994  21.0160121  43.2421202
  35.6958970  34.0414306  46.7550882  36.2477278  34.2045927  47.5199967
  36.0365163  34.6318744  46.0830907  30.6723463  16.3889456  47.3572767
  30.7364790  17.2504287  46.9450164  30.6090584  15.7763457  46.6245125
  30.1475736  18.4612588  51.0045801  30.7747775  18.0789665  51.6183325
  29.2903655  18.2426790  51.3701494  40.5469844  28.8675563  52.6099537
  41.0909748  29.4805522  52.1154491  39.9656689  29.4255142  53.1266550
  26.9241279  20.2689017  36.9364156  27.2194720  19.3599696  36.8831210
  26.0229314  20.2476757  36.6145158  38.8327357  31.9896281  43.7414564
  38.7078497  31.1886021  43.2325510  39.4906448  32.4842475  43.2528534
  30.4535526  18.3445014  42.9191704  29.7322111  18.9580982  42.7799178
  31.2428781  18.8802779  42.8408350  40.8962266  29.7905301  45.3694114
  39.9492601  29.6710653  45.2972441  41.2445039  28.9027799  45.4520376
  33.2561839  15.6799440  49.1932356  33.7796241  15.9261737  49.9558666
  33.0374172  16.5119475  48.7735494  28.6529120  17.9503115  37.0603481
  28.3241826  17.0700494  36.8778587  29.0068491  17.8950784  37.9479870
  37.9008699  29.5858018  41.5698467  37.7533661  28.6574725  41.7506037
  38.7262193  29.6078108  41.0855542  31.7670943  18.2376085  37.4278959
  32.1067016  18.7662006  36.7057567  32.2143064  18.5756491  38.2037525
  41.5042821  30.4086576  42.6563339  42.4289368  30.2029438  42.5187790
  41.3358124  30.1602978  43.5652681  34.4614384  16.6213135  46.8782027
  34.1211204  15.8220948  47.2802707  33.7553390  16.9214846  46.3058860
  35.1130856  13.7062448  45.3309350  35.9356925  13.2322926  45.2088240
  35.3568919  14.4852932  45.8308036  33.7539090  16.7350706  35.6272251
  34.4747453  17.1131959  35.1235968  33.1304395  17.4539583  35.7307229
  37.8970213  17.4395855  36.5630584  38.1133828  18.3220493  36.2619412
  37.4164280  17.0482069  35.8336226  32.6369435  20.3981568  43.1401328
  32.4914015  20.7121872  44.0325610  32.1594638  21.0166469  42.5872227
  34.4965818  17.3884116  43.1882218  34.4827386  16.4925210  42.8514516
  35.2138246  17.3954780  43.8220504  36.3491948  17.8221457  45.2335345
  36.0909726  18.7438527  45.2319676  35.8176989  17.4251891  45.9235810
  41.2938137  30.9272244  38.0125431  41.4675015  30.3618666  37.2599283
  41.7867028  31.7273139  37.8304921  27.1115097  22.9386913  46.0788990
  26.5668565  23.7146721  46.2109264  27.9894447  23.2857717  45.9208111
  33.9002714  16.2698497  38.4569788  34.0218625  15.3415143  38.6560676
  33.6104756  16.2837183  37.5448104  36.7693904  13.9553407  41.5936508
  36.7915601  14.0192740  40.6388487  37.1861963  13.1157916  41.7877014
  47.1477528  23.6908667  39.6315731  47.5908674  22.9415992  39.2334854
  46.2704039  23.6818803  39.2489463  42.2813310  30.2439008  35.1122329
  42.9764214  30.8645701  35.3309644  42.6236460  29.3934359  35.3874707
  27.8981119  22.0656809  48.9719146  27.1562855  22.2139445  49.5583777
  27.5773863  22.3265075  48.1085896  44.1804733  27.6938714  36.6409660
  44.7056057  28.0325986  35.9158980  44.0927085  26.7585729  36.4572794
  35.8424781  31.6072787  48.7699536  36.1511908  31.3621934  49.6422236
  36.6400263  31.8119426  48.2818407  35.8645393  33.7610697  41.0004913
  35.4250384  33.2687076  41.6937770  36.6153510  33.2183665  40.7596988
  28.3437732  29.9522238  41.0029541  29.1695752  29.6526010  40.6228185
  27.9931784  29.1829860  41.4519330  33.3119266  29.3048706  43.0727215
  32.6899275  28.6419411  42.7729443  33.9824132  29.3309838  42.3900862
  26.5446337  27.8708564  41.9618475  25.7078246  27.4430739  41.7802476
  26.5169983  28.0641008  42.8989266  33.3843793  17.7830494  52.6659721
  33.4331949  18.6592617  52.2837490  33.9266307  17.2407887  52.0931364
  43.8698639  28.3271617  51.9460858  43.0794182  28.3095756  51.4065357
  43.6331993  28.8659911  52.7009894  43.9896514  25.1764084  49.2593586
  44.0394519  25.0114091  50.2009109  43.8810437  24.3091343  48.8691467
  32.8732772  27.8552629  36.5485675  33.0220893  28.5388094  35.8952348
  33.6799216  27.8357720  37.0635131  41.2800276  21.1595012  50.5752893
  42.1810139  21.0201477  50.2836891  41.3548251  21.3249467  51.5151070
  35.6143081  18.5361867  49.4206079  34.7446391  18.8295433  49.1488668
  35.8502562  19.1202312  50.1413343  45.4914711  27.5961025  49.5035608
  45.1999519  27.9591006  50.3399069  44.8786842  26.8828034  49.3248940
  46.6910393  25.1613905  42.0238178  47.5257284  25.6003709  42.1875738
  46.8269522  24.6852558  41.2046424  43.7401899  22.7193640  47.9715666
  44.2156020  22.9121286  47.1634517  42.8167464  22.7752826  47.7259050
  30.6285405  23.8817807  37.5546744  30.3831447  22.9780137  37.7526954
  30.7981320  23.8834958  36.6126222  38.3182115  14.7541483  46.9371500
  38.8364059  15.4902510  46.6117988  37.9637248  15.0605477  47.7718259
  29.8981053  19.6146165  35.0532906  29.2050298  19.6890520  34.3972942
  29.6532805  18.8506508  35.5754423  38.5694709  11.1741766  42.4572396
  38.8496463  10.5064955  43.0832823  39.3545316  11.3670862  41.9447060
  36.3728178  30.3500760  34.0197423  35.8002145  30.9690947  33.5667895
  36.9460972  30.9000122  34.5537345  42.4403568  19.5959400  46.2043971
  43.3920991  19.6957498  46.2256195  42.2707018  18.8037669  46.7142056
  40.4617947  16.6814983  46.3903372  39.8667879  16.9619996  45.6949861
  40.1767644  17.1708884  47.1620113  39.5925438  30.6337910  35.1506005
  40.5256111  30.5683472  35.3538880  39.5048651  31.4694177  34.6920538
  42.2213454  29.9503780  32.1109952  42.1427086  29.6163644  33.0045710
  43.0423121  30.4425548  32.1101425  44.9191646  22.8165520  45.3186271
  44.8867966  21.8781520  45.5045955  45.5292269  22.8949556  44.5852096
  36.7574976  21.6861573  31.3613475  37.7034081  21.5567781  31.4301893
  36.3789221  20.9476235  31.8382903  45.0686134  19.6076563  45.3644554
  44.5525183  18.8235020  45.1774483  45.9526083  19.2795280  45.5291074
  42.7296861  13.3517579  41.3240367  42.5321682  13.0432667  42.2083699
  43.3396567  14.0779218  41.4538297  50.7368195  23.8781527  44.4592308
  51.4671584  23.6166815  45.0200011  50.1275141  23.1410248  44.4994376
  48.8183493  22.0189389  45.0566759  48.0916656  21.8845354  44.4483251
  48.4030779  22.3266218  45.8623477  36.6413669  25.7379319  52.8214132
  37.5616678  25.9157918  53.0154179  36.6063252  24.7935364  52.6693831
  34.9417894  19.6111549  31.2968360  34.0349349  19.3144662  31.3731074
  35.2193875  19.3141367  30.4302647  25.8595834  20.9317912  41.7467407
  25.5398618  20.0783221  41.4541781  25.3129262  21.1466491  42.5025374
  29.6375742  23.6480353  45.4636913  29.8561751  24.5797461  45.4824947
  30.0501515  23.2888328  46.2491717  36.5579959  14.1548439  37.4512602
  35.7480688  13.8095524  37.8267848  37.2464376  13.8455982  38.0400213
  38.4870508  13.2326486  39.0736898  39.0401546  13.6521939  39.7326921
  38.7240594  12.3062234  39.1159854  34.5103607  19.2213559  54.8539662
  34.4100334  20.1707916  54.7851753  34.2925149  18.8931798  53.9815732
  33.7116678  16.4698484  31.4380340  34.5735842  16.7953383  31.6976157
  33.8967022  15.6829980  30.9253405  25.7284094  24.5520824  43.7160528
  25.0347565  24.1374777  43.2030483  26.4757085  24.5941360  43.1193947
  41.8649315  15.3427011  38.5815563  41.2847984  16.0011815  38.1993615
  41.5985247  14.5204355  38.1702980  40.3152881  14.7432068  40.7836883
  40.8152659  14.8548603  39.9751202  40.9588489  14.4393121  41.4237691
  34.3734877  22.6510698  53.6704724  33.8901959  23.4511058  53.8768613
  34.4595816  22.6618643  52.7172168  27.6420837  24.4839078  41.5926543
  27.6191525  24.5826765  40.6408426  27.9521473  25.3304229  41.9143709
  30.3008214  26.5415233  45.7073158  31.2551468  26.5099175  45.6403089
  30.1020738  26.0805856  46.5223384  30.8907597  25.1116349  48.2743955
  31.7100486  25.6060427  48.2978793  31.1644404  24.1948317  48.2461523
  40.6474193  17.5027101  37.6371911  39.7600048  17.7876752  37.4192106
  41.0628182  17.3420864  36.7899188  43.9988729  17.5273622  41.3526250
  44.7749119  18.0170075  41.6250867  43.2736863  17.9531676  41.8098120
  46.4361288  18.2401241  42.4100191  47.0305778  17.9996977  41.6993499
  46.5087871  17.5208372  43.0373727  28.6558443  32.0834852  42.7243356
  28.5212911  31.3235253  42.1581354  28.2390505  32.8075752  42.2572144
  39.7917406  27.2671776  31.7319931  40.4953256  27.4721778  32.3477586
  39.0680055  27.8348538  31.9969014  40.6215217  23.0181637  37.8522201
  40.5650418  23.4750188  37.0129833  41.1743559  22.2572322  37.6745044
  44.4320022  18.8071369  38.6772320  44.1756957  18.4068005  39.5080528
  43.8072890  19.5215163  38.5522460  48.7432360  21.5467442  41.1843612
  48.1831918  21.6160631  41.9575174  48.1375864  21.3708427  40.4643108
  31.8127569  32.9804169  42.9361798  31.6959953  33.9249602  42.8340488
  30.9920015  32.6777731  43.3247597  41.7004104  27.7054305  33.7818391
  42.5349708  27.2735503  33.5995866  41.5388447  27.5336319  34.7095285
  41.3549996  24.2086418  35.1474730  41.2998800  24.0430690  34.2063174
  40.7296051  24.9162451  35.3036920  26.1442511  19.4454483  48.9736152
  26.7901374  18.9353437  49.4623378  25.9359662  20.1823164  49.5479578
  38.6695903  26.5135330  54.4728293  39.5387063  26.6875982  54.1114928
  38.1902654  27.3329747  54.3504022  34.6646121  13.7094527  34.7260049
  34.6524791  14.6536367  34.8828319  35.5569543  13.5264673  34.4319510
  32.8382083  33.6332431  46.1517727  33.7409330  33.6656041  46.4684222
  32.6119453  32.7032882  46.1664062  34.5935685  32.3863418  42.8127805
  33.6431316  32.3865279  42.6992178  34.8968171  31.6396152  42.2963840
  38.4798241  10.3037304  38.9805985  37.7130637   9.7495791  39.1262668
  38.8908946  10.3759173  39.8420137  30.4840002  16.5922100  53.0711167
  31.3471463  16.2358905  53.2814491  29.9105412  16.2535995  53.7586571
  50.3288379  38.2223956  43.8773568  50.9666789  38.1030703  43.1736908
  50.2109222  39.1704800  43.9361520  47.1378085  38.1751384  43.8135092
  46.7996597  38.0592449  42.9255627  48.0067853  37.7742549  43.7936098
  42.9964901  40.0286861  39.8031983  42.4329766  39.9376798  39.0348271
  42.8817296  39.2086765  40.2834476  47.6197868  39.3286236  49.7721298
  47.6086509  38.9339034  48.9001801  47.7818507  38.5952309  50.3655069
  40.5429333  41.5238052  42.6416204  41.3350625  41.1828877  42.2262503
  40.7825983  41.6333027  43.5618357  48.5764459  43.6957828  35.1146448
  47.9252439  44.2811909  34.7280462  49.3708822  44.2264023  35.1741486
  42.5020087  40.7846965  35.5133583  43.2750963  40.2375953  35.3746458
  42.8545485  41.6491215  35.7248044  44.3405129  42.1123348  48.7200482
  44.0494995  43.0168979  48.6047148  44.9762113  42.1539875  49.4344551
  45.2661336  39.4900196  45.3101841  45.8624908  39.2656219  44.5958804
  45.3236308  38.7484942  45.9127289  44.8386364  36.9439632  33.1452032
  45.0911885  36.4221153  32.3835495  43.9010923  36.7805777  33.2478716
  49.8829647  35.9475410  40.9526776  50.6692736  35.5294833  40.6017193
  50.1468352  36.8521502  41.1208424  50.0539725  41.3848260  35.6515432
  49.4185558  41.4582887  36.3636337  49.7237131  41.9741859  34.9734512
  55.2838074  35.8850643  41.8559754  56.0163246  35.3149860  42.0897584
  54.5277430  35.4972244  42.2966260  44.5582653  38.8467738  35.3476407
  44.4418911  38.1712641  36.0157492  44.6684913  38.3600111  34.5308560
  46.9014194  38.3077885  39.0523097  46.5372401  37.7808506  39.7636018
  47.7581310  37.9176354  38.8789582  52.8063495  29.5972217  46.3154363
  52.4746819  30.4667628  46.0915578  52.2109108  29.2808501  46.9948393
  46.5419681  33.3367784  34.0484445  46.7094083  34.2048021  34.4154916
  46.3516850  33.4995066  33.1245734  49.2995014  41.7984763  45.7150275
  48.9995737  42.7009802  45.6066083  48.9546074  41.5316946  46.5671428
  42.7507496  38.2498560  41.7486980  41.8257992  38.1174774  41.9564672
  42.9991909  39.0292779  42.2456922  52.6992158  34.3167303  43.3947713
  51.7909035  34.2482712  43.1006474  52.6479754  34.7939248  44.2229538
  46.5208902  35.7925442  35.0331112  46.4008527  36.2382493  35.8716592
  45.8261490  36.1410759  34.4744650  40.1116307  37.8931834  42.5830769
  40.2408688  38.1466313  43.4970181  39.4313758  38.4859542  42.2635424
  44.2815794  48.5629084  38.6821243  44.2039824  49.5136909  38.7609724
  43.6777438  48.2174956  39.3396170  46.7733024  35.7356949  51.3382610
  45.9966358  36.2950869  51.3285475  47.4123587  36.2213732  51.8597480
  54.5653804  32.5183742  45.1725587  53.9228185  32.8116275  44.5265381
  54.0608733  32.4036662  45.9778783  52.2193968  36.2646915  35.8611446
  53.1311824  36.4974302  35.6859144  51.7103615  36.8483959  35.2986525
  45.0279396  38.5442402  50.9000577  45.7694080  39.0827446  50.6235401
  44.3216382  39.1708691  51.0572129  50.5034736  40.6871543  49.4972739
  50.9118092  40.2453953  48.7527371  49.7811997  40.1124170  49.7506931
  46.8565806  35.6244150  46.8706296  47.7027001  36.0483563  47.0140945
  46.7964443  34.9677774  47.5644859  50.8263550  41.2472733  43.2525027
  50.1972413  41.4118448  42.5501095  50.4389212  41.6614343  44.0235991
  54.7052782  42.1827171  40.6069391  54.0203820  42.5626073  40.0566425
  54.7896632  42.7922498  41.3401339  50.0065251  33.2848518  48.5287469
  49.7626183  34.0390578  47.9921745  50.2825182  33.6633866  49.3634716
  51.9603714  39.8287130  47.2064735  52.1720609  40.4718890  46.5299116
  51.9133462  38.9949447  46.7386665  49.5629943  32.4404951  44.1101307
  48.7014422  32.7386205  44.4018044  49.5892378  32.6575350  43.1782340
  46.3791512  40.9847142  40.5175113  46.8429858  41.2634845  39.7279735
  46.1148310  40.0830586  40.3348203  43.2715593  40.5318623  43.4554876
  43.8416950  40.9605891  42.8172360  43.8623705  40.2501208  44.1539061
  45.3160398  37.1070294  37.3264678  46.0184442  37.5591338  37.7938604
  44.9841027  36.4654113  37.9544571  43.7640760  35.6982051  51.7015887
  43.1339420  36.3798331  51.9351284  43.6576848  35.5865132  50.7569025
  39.0585732  35.3653847  42.6281811  38.2684786  35.6211375  42.1521922
  39.5496980  36.1802184  42.7333852  53.0749542  42.7059086  45.3787092
  53.8966986  42.3039273  45.0969774  53.0711945  42.6027320  46.3303208
  41.0100478  35.7298426  39.5865288  40.2131641  35.8417120  40.1048784
  40.7826070  36.0685078  38.7206178  46.8406145  42.2543129  47.5347803
  46.9050578  42.7163536  48.3705974  46.1317069  41.6240494  47.6630112
  37.3423435  35.6184337  45.0596802  37.5931474  36.5031347  45.3254378
  37.8782984  35.4388939  44.2871894  61.1655535  39.0497834  41.7272064
  60.4119243  38.4805232  41.5716068  61.3003076  39.0160499  42.6742698
  46.5554163  43.9211237  37.4026783  46.4199838  44.7662772  37.8311631
  47.0963975  44.1230514  36.6392717  43.0421503  30.0002816  54.0641138
  42.6488448  29.4469015  54.7388782  43.8587643  30.3113395  54.4547656
  40.0083560  41.4386675  37.9754708  40.5208081  42.2329925  38.1260273
  40.6606273  40.7412965  37.9088309  41.8178445  44.5552431  40.0577461
  41.9945073  45.4770396  39.8698445  42.6135279  44.2410850  40.4871841
  45.9589464  31.4160695  51.6561395  46.6999177  32.0167849  51.5765857
  46.1907386  30.6738333  51.0979437  41.1030802  36.6017063  49.9339624
  40.9884317  35.7002320  50.2346723  40.2475319  36.8480759  49.5824441
  48.1822639  44.5434803  51.5327125  47.7386494  43.7571182  51.2148029
  48.8439853  44.7313954  50.8671016  42.9409760  46.0730605  46.0587804
  43.4917186  45.9447668  45.2864797  42.1021236  46.3725494  45.7082696
  50.2803877  44.8237603  49.5608526  50.2622353  45.6446484  49.0688795
  51.2023797  44.6991678  49.7858667  46.7376932  42.3381732  50.4032035
  47.2705268  41.5770021  50.1731343  46.2091013  42.0455384  51.1456189
  49.9046627  27.4441798  45.9325676  49.5610896  28.3343440  45.8564787
  50.2725589  27.2543456  45.0695261  37.9732477  39.7675329  38.7514279
  38.8107699  40.1772337  38.5347986  38.1510745  38.8274771  38.7214472
  49.8696909  37.4350410  34.4398112  49.3543533  38.2055014  34.6786499
  49.5974218  36.7615546  35.0631173  47.4544020  32.2800110  39.4983350
  46.5985617  31.8906961  39.3188989  47.8670972  32.3592071  38.6383135
  48.9843167  29.8146454  43.8974910  48.4807962  29.7776589  43.0842715
  49.2773774  30.7239196  43.9571566  45.2286053  29.8985183  42.9041091
  46.0939050  29.7027992  42.5446981  45.2963562  29.6695535  43.8310448
  54.8431183  40.1882764  36.3751285  54.0660626  39.8493924  35.9306447
  55.5222664  40.1935387  35.7006250  49.6583212  35.3077502  36.2657893
  49.3533348  35.6223651  37.1168036  50.6113655  35.3858922  36.3085226
  48.1029644  41.4667725  37.9150847  47.5751006  40.7320485  37.6024084
  47.6017147  42.2442401  37.6690815  53.0822490  39.6616745  43.0317893
  52.4246165  40.3516007  43.1198022  53.8862889  40.0513177  43.3751879
  42.8348372  32.1287391  40.2757458  43.4092124  31.9062573  39.5430651
  43.4219354  32.1976086  41.0286059  51.8927949  38.0161118  41.0821835
  52.4059831  38.6491110  41.5843544  52.5429173  37.4162314  40.7165195
  43.1617959  34.1591852  34.2953343  42.3255271  34.4966539  34.6162618
  43.0222729  34.0240832  33.3580480  45.1371040  29.0028640  39.0032528
  44.4835452  28.6877657  38.3789142  45.0951514  28.3804381  39.7292351
  46.2482244  39.2847935  30.9185820  45.3409306  39.0537189  31.1176969
  46.7453276  38.4885554  31.1059801  49.1550323  47.9945442  33.8382506
  48.4812022  48.2977139  34.4467464  49.5416145  48.7974523  33.4887963
  48.3708780  35.4910574  43.3280175  47.4531341  35.7125521  43.1701863
  48.7868924  35.5656884  42.4691883  49.1543828  36.8901989  38.4582855
  49.9015647  37.4023387  38.1489978  49.4235417  36.5686042  39.3187249
  47.4270478  39.3860530  35.4409810  46.5181697  39.1019563  35.5382280
  47.4565562  39.8059609  34.5813117  52.6589745  42.9967120  39.2100977
  52.2052072  42.1558029  39.2666168  52.0283712  43.6328518  39.5475757
  51.6022665  33.9259106  40.4401645  50.8645422  33.4136492  40.7711887
  51.8549438  33.4859487  39.6284922  51.1022685  44.8343616  40.1450795
  51.3945659  45.3948673  39.4263161  51.6121305  45.1272177  40.9003955
  51.7034292  26.7035358  41.0343414  52.0093169  25.8432721  40.7469329
  52.4286897  27.2952978  40.8342408  37.9958648  37.1066044  39.4225012
  37.7983048  36.5135405  38.6976079  37.4405312  36.8018254  40.1400951
  45.9755372  36.9989151  41.5419605  46.0303982  36.0462987  41.4662082
  45.1646574  37.1548590  42.0260904  47.1246566  40.9269274  32.7797888
  46.6865996  40.2105133  32.3203526  47.8657007  41.1545389  32.2182980
  43.9147732  35.6166210  39.3009984  43.1015597  35.9160381  39.7075176
  44.4106726  35.2221899  40.0184466  46.0656310  45.6123967  41.2344249
  46.0232489  45.8384814  40.3052781  46.9819009  45.3787342  41.3830050
  49.5121944  36.0808035  48.1324878  49.8671331  36.3079508  48.9919344
  50.1594075  36.4126412  47.5102133  55.2419680  39.2026471  38.8374207
  55.1037579  39.3928067  37.9095396  54.8855899  39.9645854  39.2942258
  43.4061807  33.1884566  44.9171219  44.0461186  33.0473325  44.2194182
  42.5739337  32.9019079  44.5409821  55.2689060  41.2702998  43.8485478
  55.7025567  41.1778287  44.6968532  55.9820641  41.2460498  43.2105494
  44.1822110  42.4886996  41.0306211  44.9762709  41.9937316  40.8288786
  43.4713803  41.9604859  40.6673917  49.0016955  44.8705092  45.3818579
  49.0553977  45.4396028  46.1496295  48.1331736  45.0406977  45.0172616
  40.4904874  36.6330078  37.1065964  39.5602462  36.5714534  37.3235926
  40.5862346  36.1106031  36.3102605  40.4090423  33.1584891  39.6944206
  40.6697240  34.0730224  39.5853366  41.2307595  32.6909333  39.8440819
  41.8815348  34.5722648  46.8643030  42.5538402  34.3640010  46.2155679
  41.0545135  34.3744734  46.4248263  56.1304610  41.3126698  46.3818364
  56.3240500  42.2172509  46.6277639  56.0305228  40.8534118  47.2156949
  47.7840920  31.1984589  48.8808691  47.1368835  31.8974539  48.7873168
  48.5541936  31.6320733  49.2484939  51.1919718  41.4633441  51.9559244
  51.0405225  41.2343993  51.0389328  51.1824398  42.4204043  51.9690589
  47.9605055  39.0365354  46.9405511  48.8897115  39.1876514  46.7674478
  47.5396085  39.1249375  46.0854157  46.7593386  43.0616018  44.7104049
  46.6204472  42.6934803  45.5829987  45.9707983  43.5763658  44.5388006
  47.3541538  48.1625115  36.0529585  47.5293294  47.6913158  36.8675208
  46.6674326  48.7890881  36.2810846  48.3098602  42.4397621  42.0992886
  47.9748434  42.3998391  42.9950536  47.8102547  41.7742337  41.6263297
  42.2842846  37.8465251  47.6245467  42.1462644  37.1145490  48.2257006
  43.1947769  37.7574151  47.3429655  51.2457793  39.7853655  32.3729946
  50.6286964  39.0600484  32.2762999  50.7774282  40.5463016  32.0297020
  44.9125146  37.5585210  47.1129147  45.6224765  36.9178403  47.0715766
  44.8694454  37.8098105  48.0355328  52.9011925  44.4952564  50.0335726
  52.8424471  43.8111784  49.3666309  53.3031443  45.2371554  49.5816352
  43.6254080  34.5450428  48.9324787  43.0891437  34.0941167  49.5846383
  43.0370789  34.6796337  48.1895251  41.9202624  51.3114478  42.8269445
  42.1599222  51.9433002  43.5048464  41.0771820  50.9602518  43.1134804
  43.0356339  34.0039080  31.4951250  42.1585806  33.8827880  31.1313497
  43.5114092  33.2125158  31.2430139  52.9029332  42.4592148  48.2649706
  52.0156111  42.1218069  48.3876105  53.4727883  41.7275179  48.5018471
  34.5558479  38.7916239  41.5892757  35.2429519  38.4777969  41.0013773
  34.4006608  39.6957604  41.3160009  39.3593201  33.6806436  46.0177781
  39.2751390  33.0732106  45.2828191  38.5375908  34.1715454  46.0187277
  46.4330486  47.1193600  45.2310949  46.3600657  47.9248572  45.7430254
  45.9907879  47.3185566  44.4058971  46.2220265  46.3565370  38.7413771
  45.4387787  46.8987050  38.8351995  46.9213010  46.8739350  39.1408012
  49.5316915  32.1660000  41.3847976  50.0285615  31.4129962  41.0649046
  48.7603897  32.2024316  40.8191185  57.3846673  37.8700365  43.0266268
  57.3736549  38.7525080  42.6560201  56.5164052  37.5171916  42.8320805
  48.8929169  47.0180434  47.3869108  49.6057141  47.6527899  47.3145009
  48.4019198  47.1144300  46.5709110  50.6146696  40.9231687  38.9586400
  49.6802975  41.0433149  38.7891104  50.7923364  40.0204153  38.6946409
  46.1151884  34.3077382  41.1119661  45.7449672  33.7548423  41.8000566
  46.6110977  33.7035516  40.5594661  54.0019247  36.7649006  39.4936434
  54.4679700  37.5976998  39.4196736  54.4526748  36.2993988  40.1981692
  43.9441083  44.7674878  48.2074679  44.6450542  45.4011360  48.3604073
  43.4736198  45.1089609  47.4470318  52.0695478  43.1092827  36.4922586
  52.3455322  42.9949422  37.4016460  51.1999977  42.7110312  36.4534759
  51.9735910  29.1329593  43.5327335  51.0598990  29.3633820  43.7009542
  52.4029012  29.2168037  44.3841367  51.7442369  37.3219485  46.0327229
  51.0913819  37.5695392  45.3779682  52.1222749  36.5083623  45.6989706
  48.7049543  47.3579178  40.1355399  48.8871937  46.5400834  40.5983152
  49.5282529  47.5746870  39.6980289  49.0391708  46.2847363  37.3970448
  49.5679474  45.7739818  36.7840610  49.3019928  45.9689893  38.2615981
  47.7929942  38.0639296  52.5193266  47.1170579  37.9633425  53.1895641
  48.6157576  37.9078510  52.9829263  39.5408801  44.3011233  45.1405781
  40.1262238  43.5554920  45.2733686  39.3433639  44.6115189  46.0242445
  42.3947456  47.3362480  40.1568224  41.7257831  47.8208608  39.6732264
  42.2560326  47.5831700  41.0711602  34.1326455  36.8716833  43.8610225
  34.1710555  36.3380423  44.6547343  33.6266748  36.3452038  43.2421202
  46.5352725  49.3706223  46.7550882  47.0871033  49.5337845  47.5199967
  46.8758918  49.9610661  46.0830907  41.5117218  31.7181373  47.3572767
  41.5758544  32.5796204  46.9450164  41.4484338  31.1055375  46.6245125
  40.9869490  33.7904506  51.0045801  41.6141529  33.4081583  51.6183325
  40.1297409  33.5718708  51.3701494  51.3863599  44.1967481  52.6099537
  51.9303503  44.8097439  52.1154491  50.8050444  44.7547059  53.1266550
  37.7635033  35.5980935  36.9364156  38.0588474  34.6891613  36.8831210
  36.8623069  35.5768674  36.6145158  49.6721112  47.3188199  43.7414564
  49.5472251  46.5177939  43.2325510  50.3300203  47.8134392  43.2528534
  41.2929280  33.6736931  42.9191704  40.5715866  34.2872899  42.7799178
  42.0822536  34.2094696  42.8408350  51.7356020  45.1197219  45.3694114
  50.7886356  45.0002570  45.2972441  52.0838793  44.2319717  45.4520376
  44.0955594  31.0091358  49.1932356  44.6189995  31.2553655  49.9558666
  43.8767927  31.8411393  48.7735494  39.4922875  33.2795033  37.0603481
  39.1635581  32.3992412  36.8778587  39.8462245  33.2242701  37.9479870
  48.7402453  44.9149935  41.5698467  48.5927416  43.9866643  41.7506037
  49.5655947  44.9370026  41.0855542  42.6064698  33.5668002  37.4278959
  42.9460770  34.0953924  36.7057567  43.0536818  33.9048409  38.2037525
  52.3436575  45.7378494  42.6563339  53.2683123  45.5321355  42.5187790
  52.1751879  45.4894895  43.5652681  45.3008139  31.9505053  46.8782027
  44.9604959  31.1512866  47.2802707  44.5947145  32.2506764  46.3058860
  45.9524610  29.0354366  45.3309350  46.7750680  28.5614844  45.2088240
  46.1962674  29.8144849  45.8308036  44.5932845  32.0642624  35.6272251
  45.3141207  32.4423877  35.1235968  43.9698149  32.7831501  35.7307229
  48.7363968  32.7687773  36.5630584  48.9527582  33.6512411  36.2619412
  48.2558035  32.3773986  35.8336226  43.4763189  35.7273486  43.1401328
  43.3307770  36.0413789  44.0325610  42.9988393  36.3458386  42.5872227
  45.3359572  32.7176034  43.1882218  45.3221141  31.8217127  42.8514516
  46.0532000  32.7246698  43.8220504  47.1885703  33.1513374  45.2335345
  46.9303481  34.0730445  45.2319676  46.6570743  32.7543809  45.9235810
  52.1331892  46.2564161  38.0125431  52.3068769  45.6910584  37.2599283
  52.6260783  47.0565056  37.8304921  37.9508851  38.2678831  46.0788990
  37.4062319  39.0438639  46.2109264  38.8288201  38.6149635  45.9208111
  44.7396468  31.5990414  38.4569788  44.8612379  30.6707061  38.6560676
  44.4498510  31.6129100  37.5448104  47.6087658  29.2845325  41.5936508
  47.6309355  29.3484658  40.6388487  48.0255717  28.4449834  41.7877014
  57.9871283  39.0200584  39.6315731  58.4302429  38.2707910  39.2334854
  57.1097793  39.0110721  39.2489463  53.1207064  45.5730926  35.1122329
  53.8157969  46.1937619  35.3309644  53.4630214  44.7226277  35.3874707
  38.7374873  37.3948727  48.9719146  37.9956609  37.5431362  49.5583777
  38.4167617  37.6556992  48.1085896  55.0198487  43.0230631  36.6409660
  55.5449811  43.3617904  35.9158980  54.9320840  42.0877647  36.4572794
  46.6818536  46.9364705  48.7699536  46.9905662  46.6913852  49.6422236
  47.4794018  47.1411344  48.2818407  46.7039148  49.0902615  41.0004913
  46.2644138  48.5978993  41.6937770  47.4547265  48.5475582  40.7596988
  39.1831487  45.2814156  41.0029541  40.0089507  44.9817927  40.6228185
  38.8325539  44.5121778  41.4519330  44.1513020  44.6340624  43.0727215
  43.5293029  43.9711329  42.7729443  44.8217887  44.6601756  42.3900862
  37.3840092  43.2000482  41.9618475  36.5472000  42.7722656  41.7802476
  37.3563737  43.3932925  42.8989266  44.2237548  33.1122412  52.6659721
  44.2725703  33.9884535  52.2837490  44.7660062  32.5699805  52.0931364
  54.7092393  43.6563535  51.9460858  53.9187937  43.6387674  51.4065357
  54.4725748  44.1951829  52.7009894  54.8290268  40.5056001  49.2593586
  54.8788273  40.3406009  50.2009109  54.7204192  39.6383260  48.8691467
  43.7126527  43.1844547  36.5485675  43.8614647  43.8680012  35.8952348
  44.5192970  43.1649637  37.0635131  52.1194031  36.4886929  50.5752893
  53.0203893  36.3493394  50.2836891  52.1942005  36.6541384  51.5151070
  46.4536836  33.8653784  49.4206079  45.5840145  34.1587350  49.1488668
  46.6896316  34.4494229  50.1413343  56.3308465  42.9252943  49.5035608
  56.0393273  43.2882923  50.3399069  55.7180596  42.2119951  49.3248940
  57.5304147  40.4905823  42.0238178  58.3651039  40.9295627  42.1875738
  57.6663276  40.0144476  41.2046424  54.5795653  38.0485558  47.9715666
  55.0549775  38.2413204  47.1634517  53.6561219  38.1044743  47.7259050
  41.4679160  39.2109725  37.5546744  41.2225202  38.3072055  37.7526954
  41.6375074  39.2126875  36.6126222  49.1575870  30.0833401  46.9371500
  49.6757814  30.8194428  46.6117988  48.8031003  30.3897394  47.7718259
  40.7374807  34.9438082  35.0532906  40.0444052  35.0182437  34.3972942
  40.4926559  34.1798426  35.5754423  49.4088464  26.5033684  42.4572396
  49.6890218  25.8356873  43.0832823  50.1939071  26.6962779  41.9447060
  47.2121932  45.6792678  34.0197423  46.6395900  46.2982865  33.5667895
  47.7854726  46.2292039  34.5537345  53.2797322  34.9251318  46.2043971
  54.2314745  35.0249415  46.2256195  53.1100773  34.1329586  46.7142056
  51.3011702  32.0106901  46.3903372  50.7061634  32.2911914  45.6949861
  51.0161399  32.5000802  47.1620113  50.4319192  45.9629828  35.1506005
  51.3649865  45.8975389  35.3538880  50.3442405  46.7986095  34.6920538
  53.0607209  45.2795698  32.1109952  52.9820840  44.9455562  33.0045710
  53.8816876  45.7717466  32.1101425  55.7585400  38.1457437  45.3186271
  55.7261720  37.2073438  45.5045955  56.3686024  38.2241474  44.5852096
  47.5968731  37.0153490  31.3613475  48.5427836  36.8859698  31.4301893
  47.2182976  36.2768152  31.8382903  55.9079889  34.9368481  45.3644554
  55.3918937  34.1526937  45.1774483  56.7919837  34.6087197  45.5291074
  53.5690616  28.6809496  41.3240367  53.3715437  28.3724585  42.2083699
  54.1790321  29.4071135  41.4538297  61.5761950  39.2073444  44.4592308
  62.3065338  38.9458732  45.0200011  60.9668895  38.4702166  44.4994376
  59.6577247  37.3481307  45.0566759  58.9310411  37.2137272  44.4483251
  59.2424534  37.6558135  45.8623477  47.4807424  41.0671236  52.8214132
  48.4010433  41.2449835  53.0154179  47.4457007  40.1227282  52.6693831
  45.7811648  34.9403467  31.2968360  44.8743104  34.6436579  31.3731074
  46.0587629  34.6433285  30.4302647  36.6989589  36.2609830  41.7467407
  36.3792373  35.4075138  41.4541781  36.1523017  36.4758408  42.5025374
  40.4769496  38.9772271  45.4636913  40.6955506  39.9089379  45.4824947
  40.8895270  38.6180246  46.2491717  47.3973714  29.4840356  37.4512602
  46.5874442  29.1387441  37.8267848  48.0858131  29.1747900  38.0400213
  49.3264262  28.5618403  39.0736898  49.8795301  28.9813857  39.7326921
  49.5634349  27.6354151  39.1159854  45.3497361  34.5505477  54.8539662
  45.2494088  35.4999834  54.7851753  45.1318903  34.2223716  53.9815732
  44.5510433  31.7990402  31.4380340  45.4129597  32.1245300  31.6976157
  44.7360777  31.0121898  30.9253405  36.5677849  39.8812742  43.7160528
  35.8741320  39.4666694  43.2030483  37.3150840  39.9233278  43.1193947
  52.7043069  30.6718928  38.5815563  52.1241738  31.3303732  38.1993615
  52.4379002  29.8496273  38.1702980  51.1546636  30.0723986  40.7836883
  51.6546414  30.1840521  39.9751202  51.7982244  29.7685039  41.4237691
  45.2128631  37.9802616  53.6704724  44.7295713  38.7802976  53.8768613
  45.2989570  37.9910561  52.7172168  38.4814591  39.8130995  41.5926543
  38.4585279  39.9118683  40.6408426  38.7915228  40.6596146  41.9143709
  41.1401969  41.8707150  45.7073158  42.0945222  41.8391093  45.6403089
  40.9414493  41.4097774  46.5223384  41.7301351  40.4408266  48.2743955
  42.5494240  40.9352345  48.2978793  42.0038159  39.5240235  48.2461523
  51.4867947  32.8319019  37.6371911  50.5993802  33.1168669  37.4192106
  51.9021936  32.6712782  36.7899188  54.8382483  32.8565540  41.3526250
  55.6142874  33.3461992  41.6250867  54.1130618  33.2823594  41.8098120
  57.2755042  33.5693159  42.4100191  57.8699533  33.3288895  41.6993499
  57.3481626  32.8500290  43.0373727  39.4952198  47.4126770  42.7243356
  39.3606666  46.6527171  42.1581354  39.0784260  48.1367670  42.2572144
  50.6311161  42.5963693  31.7319931  51.3347011  42.8013696  32.3477586
  49.9073809  43.1640455  31.9969014  51.4608971  38.3473555  37.8522201
  51.4044172  38.8042106  37.0129833  52.0137313  37.5864239  37.6745044
  55.2713777  34.1363287  38.6772320  55.0150711  33.7359922  39.5080528
  54.6466645  34.8507081  38.5522460  59.5826115  36.8759360  41.1843612
  59.0225673  36.9452549  41.9575174  58.9769618  36.7000344  40.4643108
  42.6521324  48.3096087  42.9361798  42.5353708  49.2541519  42.8340488
  41.8313770  48.0069648  43.3247597  52.5397858  43.0346223  33.7818391
  53.3743462  42.6027421  33.5995866  52.3782201  42.8628236  34.7095285
  52.1943750  39.5378336  35.1474730  52.1392554  39.3722607  34.2063174
  51.5689806  40.2454369  35.3036920  36.9836265  34.7746400  48.9736152
  37.6295129  34.2645354  49.4623378  36.7753416  35.5115082  49.5479578
  49.5089657  41.8427248  54.4728293  50.3780817  42.0167900  54.1114928
  49.0296409  42.6621665  54.3504022  45.5039876  29.0386445  34.7260049
  45.4918546  29.9828285  34.8828319  46.3963298  28.8556590  34.4319510
  43.6775838  48.9624349  46.1517727  44.5803084  48.9947959  46.4684222
  43.4513208  48.0324800  46.1664062  45.4329440  47.7155335  42.8127805
  44.4825071  47.7157197  42.6992178  45.7361926  46.9688070  42.2963840
  49.3191995  25.6329222  38.9805985  48.5524391  25.0787708  39.1262668
  49.7302700  25.7051090  39.8420137  41.3233756  31.9214017  53.0711167
  42.1865218  31.5650822  53.2814491  40.7499167  31.5827912  53.7586571
  61.1682133  53.5515874  43.8773568  61.8060543  53.4322621  43.1736908
  61.0502976  54.4996718  43.9361520  57.9771840  53.5043302  43.8135092
  57.6390351  53.3884367  42.9255627  58.8461608  53.1034467  43.7936098
  53.8358655  55.3578778  39.8031983  53.2723520  55.2668715  39.0348271
  53.7211050  54.5378683  40.2834476  58.4591622  54.6578154  49.7721298
  58.4480263  54.2630952  48.9001801  58.6212262  53.9244226  50.3655069
  51.3823087  56.8529970  42.6416204  52.1744379  56.5120795  42.2262503
  51.6219737  56.9624945  43.5618357  59.4158214  59.0249746  35.1146448
  58.7646194  59.6103826  34.7280462  60.2102577  59.5555941  35.1741486
  53.3413841  56.1138883  35.5133583  54.1144717  55.5667870  35.3746458
  53.6939240  56.9783132  35.7248044  55.1798884  57.4415265  48.7200482
  54.8888750  58.3460896  48.6047148  55.8155868  57.4831793  49.4344551
  56.1055090  54.8192114  45.3101841  56.7018663  54.5948136  44.5958804
  56.1630062  54.0776859  45.9127289  55.6780119  52.2731549  33.1452032
  55.9305640  51.7513071  32.3835495  54.7404678  52.1097695  33.2478716
  60.7223402  51.2767328  40.9526776  61.5086491  50.8586751  40.6017193
  60.9862106  52.1813420  41.1208424  60.8933479  56.7140178  35.6515432
  60.2579312  56.7874804  36.3636337  60.5630885  57.3033777  34.9734512
  66.1231829  51.2142561  41.8559754  66.8557001  50.6441778  42.0897584
  65.3671185  50.8264161  42.2966260  55.3976408  54.1759655  35.3476407
  55.2812666  53.5004559  36.0157492  55.5078668  53.6892029  34.5308560
  57.7407949  53.6369802  39.0523097  57.3766156  53.1100423  39.7636018
  58.5975064  53.2468271  38.8789582  63.6457249  44.9264135  46.3154363
  63.3140574  45.7959546  46.0915578  63.0502863  44.6100419  46.9948393
  57.3813436  48.6659702  34.0484445  57.5487838  49.5339938  34.4154916
  57.1910605  48.8286984  33.1245734  60.1388769  57.1276681  45.7150275
  59.8389492  58.0301720  45.6066083  59.7939828  56.8608864  46.5671428
  53.5901250  53.5790478  41.7486980  52.6651747  53.4466692  41.9564672
  53.8385663  54.3584697  42.2456922  63.5385913  49.6459221  43.3947713
  62.6302790  49.5774630  43.1006474  63.4873508  50.1231166  44.2229538
  57.3602656  51.1217359  35.0331112  57.2402282  51.5674410  35.8716592
  56.6655245  51.4702677  34.4744650  50.9510061  53.2223751  42.5830769
  51.0802442  53.4758230  43.4970181  50.2707513  53.8151459  42.2635424
  55.1209549  63.8921001  38.6821243  55.0433578  64.8428826  38.7609724
  54.5171192  63.5466874  39.3396170  57.6126778  51.0648867  51.3382610
  56.8360112  51.6242787  51.3285475  58.2517341  51.5505650  51.8597480
  65.4047559  47.8475659  45.1725587  64.7621939  48.1408193  44.5265381
  64.9002487  47.7328580  45.9778783  63.0587723  51.5938833  35.8611446
  63.9705579  51.8266219  35.6859144  62.5497370  52.1775877  35.2986525
  55.8673151  53.8734320  50.9000577  56.6087835  54.4119364  50.6235401
  55.1610136  54.5000609  51.0572129  61.3428490  56.0163461  49.4972739
  61.7511846  55.5745871  48.7527371  60.6205752  55.4416088  49.7506931
  57.6959560  50.9536067  46.8706296  58.5420755  51.3775481  47.0140945
  57.6358198  50.2969692  47.5644859  61.6657305  56.5764651  43.2525027
  61.0366167  56.7410365  42.5501095  61.2782967  56.9906261  44.0235991
  65.5446537  57.5119089  40.6069391  64.8597575  57.8917990  40.0566425
  65.6290386  58.1214416  41.3401339  60.8459006  48.6140436  48.5287469
  60.6019937  49.3682496  47.9921745  61.1218936  48.9925783  49.3634716
  62.7997468  55.1579048  47.2064735  63.0114364  55.8010808  46.5299116
  62.7527217  54.3241365  46.7386665  60.4023697  47.7696869  44.1101307
  59.5408176  48.0678122  44.4018044  60.4286132  47.9867268  43.1782340
  57.2185267  56.3139059  40.5175113  57.6823612  56.5926762  39.7279735
  56.9542065  55.4122504  40.3348203  54.1109348  55.8610541  43.4554876
  54.6810705  56.2897809  42.8172360  54.7017460  55.5793125  44.1539061
  56.1554153  52.4362212  37.3264678  56.8578196  52.8883255  37.7938604
  55.8234781  51.7946030  37.9544571  54.6034514  51.0273968  51.7015887
  53.9733175  51.7090249  51.9351284  54.4970602  50.9157050  50.7569025
  49.8979487  50.6945764  42.6281811  49.1078541  50.9503293  42.1521922
  50.3890734  51.5094102  42.7333852  63.9143296  58.0351003  45.3787092
  64.7360740  57.6331191  45.0969774  63.9105699  57.9319238  46.3303208
  51.8494232  51.0590343  39.5865288  51.0525395  51.1709038  40.1048784
  51.6219824  51.3976996  38.7206178  57.6799900  57.5835047  47.5347803
  57.7444332  58.0455454  48.3705974  56.9710824  56.9532412  47.6630112
  48.1817190  50.9476255  45.0596802  48.4325228  51.8323265  45.3254378
  48.7176738  50.7680856  44.2871894  72.0049289  54.3789752  41.7272064
  71.2512998  53.8097150  41.5716068  72.1396831  54.3452416  42.6742698
  57.3947917  59.2503154  37.4026783  57.2593592  60.0954690  37.8311631
  57.9357730  59.4522432  36.6392717  53.8815257  45.3294734  54.0641138
  53.4882203  44.7760933  54.7388782  54.6981397  45.6405313  54.4547656
  50.8477315  56.7678592  37.9754708  51.3601835  57.5621842  38.1260273
  51.5000028  56.0704883  37.9088309  52.6572200  59.8844349  40.0577461
  52.8338828  60.8062313  39.8698445  53.4529033  59.5702768  40.4871841
  56.7983218  46.7452613  51.6561395  57.5392931  47.3459766  51.5765857
  57.0301141  46.0030251  51.0979437  51.9424556  51.9308980  49.9339624
  51.8278071  51.0294238  50.2346723  51.0869074  52.1772677  49.5824441
  59.0216394  59.8726721  51.5327125  58.5780248  59.0863099  51.2148029
  59.6833607  60.0605871  50.8671016  53.7803515  61.4022522  46.0587804
  54.3310940  61.2739586  45.2864797  52.9414991  61.7017411  45.7082696
  57.5770686  57.6673650  50.4032035  58.1099023  56.9061938  50.1731343
  57.0484767  57.3747302  51.1456189  60.7440381  42.7733716  45.9325676
  60.4004650  43.6635358  45.8564787  61.1119344  42.5835374  45.0695261
  48.8126232  55.0967247  38.7514279  49.6501454  55.5064255  38.5347986
  48.9904499  54.1566689  38.7214472  60.7090664  52.7642327  34.4398112
  60.1937287  53.5346932  34.6786499  60.4367972  52.0907463  35.0631173
  58.2937775  47.6092028  39.4983350  57.4379371  47.2198878  39.3188989
  58.7064727  47.6883989  38.6383135  59.8236921  45.1438371  43.8974910
  59.3201717  45.1068506  43.0842715  60.1167528  46.0531114  43.9571566
  56.0679807  45.2277101  42.9041091  56.9332804  45.0319910  42.5446981
  56.1357316  44.9987453  43.8310448  65.6824938  55.5174682  36.3751285
  64.9054381  55.1785841  35.9306447  66.3616419  55.5227305  35.7006250
  60.4976967  50.6369419  36.2657893  60.1927102  50.9515568  37.1168036
  61.4507409  50.7150839  36.3085226  58.9423399  56.7959643  37.9150847
  58.4144760  56.0612402  37.6024084  58.4410901  57.5734319  37.6690815
  63.9216245  54.9908663  43.0317893  63.2639919  55.6807924  43.1198022
  64.7256644  55.3805095  43.3751879  53.6742126  47.4579309  40.2757458
  54.2485878  47.2354490  39.5430651  54.2613109  47.5268003  41.0286059
  62.7321704  53.3453036  41.0821835  63.2453585  53.9783028  41.5843544
  63.3822927  52.7454231  40.7165195  54.0011713  49.4883770  34.2953343
  53.1649026  49.8258456  34.6162618  53.8616483  49.3532750  33.3580480
  55.9764794  44.3320558  39.0032528  55.3229206  44.0169575  38.3789142
  55.9345268  43.7096298  39.7292351  57.0875999  54.6139853  30.9185820
  56.1803061  54.3829106  31.1176969  57.5847031  53.8177472  31.1059801
  59.9944078  63.3237360  33.8382506  59.3205777  63.6269057  34.4467464
  60.3809900  64.1266440  33.4887963  59.2102534  50.8202491  43.3280175
  58.2925096  51.0417438  43.1701863  59.6262678  50.8948802  42.4691883
  59.9937582  52.2193907  38.4582855  60.7409401  52.7315304  38.1489978
  60.2629172  51.8977960  39.3187249  58.2664232  54.7152448  35.4409810
  57.3575452  54.4311481  35.5382280  58.2959316  55.1351526  34.5813117
  63.4983500  58.3259037  39.2100977  63.0445827  57.4849947  39.2666168
  62.8677466  58.9620436  39.5475757  62.4416419  49.2551023  40.4401645
  61.7039176  48.7428409  40.7711887  62.6943193  48.8151405  39.6284922
  61.9416439  60.1635534  40.1450795  62.2339413  60.7240591  39.4263161
  62.4515060  60.4564095  40.9003955  62.5428047  42.0327275  41.0343414
  62.8486923  41.1724639  40.7469329  63.2680651  42.6244895  40.8342408
  48.8352403  52.4357962  39.4225012  48.6376803  51.8427323  38.6976079
  48.2799067  52.1310172  40.1400951  56.8149126  52.3281068  41.5419605
  56.8697736  51.3754905  41.4662082  56.0040328  52.4840507  42.0260904
  57.9640320  56.2561191  32.7797888  57.5259750  55.5397050  32.3203526
  58.7050761  56.4837306  32.2182980  54.7541486  50.9458128  39.3009984
  53.9409352  51.2452299  39.7075176  55.2500481  50.5513817  40.0184466
  56.9050064  60.9415885  41.2344249  56.8626243  61.1676731  40.3052781
  57.8212763  60.7079260  41.3830050  60.3515698  51.4099953  48.1324878
  60.7065086  51.6371426  48.9919344  60.9987829  51.7418329  47.5102133
  66.0813435  54.5318388  38.8374207  65.9431334  54.7219984  37.9095396
  65.7249654  55.2937771  39.2942258  54.2455561  48.5176484  44.9171219
  54.8854940  48.3765243  44.2194182  53.4133092  48.2310997  44.5409821
  66.1082815  56.5994915  43.8485478  66.5419321  56.5070205  44.6968532
  66.8214395  56.5752416  43.2105494  55.0215865  57.8178914  41.0306211
  55.8156463  57.3229234  40.8288786  54.3107557  57.2896777  40.6673917
  51.3298628  51.9621996  37.1065964  50.3996217  51.9006451  37.3235926
  51.4256100  51.4397949  36.3102605  51.2484177  48.4876809  39.6944206
  51.5090995  49.4022142  39.5853366  52.0701350  48.0201251  39.8440819
  52.7209103  49.9014566  46.8643030  53.3932156  49.6931928  46.2155679
  51.8938889  49.7036652  46.4248263  58.6234675  46.5276507  48.8808691
  57.9762590  47.2266456  48.7873168  59.3935690  46.9612651  49.2484939
  62.0313473  56.7925359  51.9559244  61.8798979  56.5635911  51.0389328
  62.0218152  57.7495960  51.9690589  58.7998809  54.3657272  46.9405511
  59.7290869  54.5168431  46.7674478  58.3789839  54.4541292  46.0854157
  57.5987141  58.3907936  44.7104049  57.4598227  58.0226720  45.5829987
  56.8101737  58.9055575  44.5388006  58.1935293  63.4917032  36.0529585
  58.3687049  63.0205076  36.8675208  57.5068081  64.1182799  36.2810846
  59.1492356  57.7689539  42.0992886  58.8142189  57.7290309  42.9950536
  58.6496302  57.1034255  41.6263297  53.1236600  53.1757169  47.6245467
  52.9856398  52.4437408  48.2257006  54.0341524  53.0866069  47.3429655
  62.0851548  55.1145573  32.3729946  61.4680718  54.3892401  32.2762999
  61.6168036  55.8754933  32.0297020  55.7518901  52.8877128  47.1129147
  56.4618519  52.2470320  47.0715766  55.7088209  53.1390023  48.0355328
  54.4647835  49.8742346  48.9324787  53.9285192  49.4233084  49.5846383
  53.8764543  50.0088255  48.1895251  52.7596378  66.6406395  42.8269445
  52.9992976  67.2724919  43.5048464  51.9165575  66.2894435  43.1134804
  53.8750094  49.3330997  31.4951250  52.9979560  49.2119798  31.1313497
  54.3507847  48.5417076  31.2430139  63.7423087  57.7884065  48.2649706
  62.8549865  57.4509987  48.3876105  64.3121638  57.0567097  48.5018471
  45.3952234  54.1208157  41.5892757  46.0823274  53.8069887  41.0013773
  45.2400363  55.0249522  41.3160009  50.1986956  49.0098354  46.0177781
  50.1145145  48.4024023  45.2828191  49.3769662  49.5007372  46.0187277
  57.0614020  61.6857288  38.7413771  56.2781542  62.2278968  38.8351995
  57.7606765  62.2031267  39.1408012  60.3710670  47.4951917  41.3847976
  60.8679369  46.7421880  41.0649046  59.5997651  47.5316234  40.8191185
  68.2240427  53.1992283  43.0266268  68.2130303  54.0816998  42.6560201
  67.3557807  52.8463834  42.8320805  61.4540451  56.2523604  38.9586400
  60.5196729  56.3725067  38.7891104  61.6317119  55.3496071  38.6946409
  56.9545639  49.6369300  41.1119661  56.5843426  49.0840341  41.8000566
  57.4504731  49.0327434  40.5594661  64.8413002  52.0940924  39.4936434
  65.3073454  52.9268915  39.4196736  65.2920502  51.6285905  40.1981692
  54.7834837  60.0966795  48.2074679  55.4844297  60.7303278  48.3604073
  54.3129952  60.4381527  47.4470318  62.9089233  58.4384745  36.4922586
  63.1849077  58.3241340  37.4016460  62.0393732  58.0402230  36.4534759
  62.8129665  44.4621511  43.5327335  61.8992744  44.6925738  43.7009542
  63.2422766  44.5459955  44.3841367  62.5836123  52.6511403  46.0327229
  61.9307573  52.8987310  45.3779682  62.9616503  51.8375541  45.6989706
  59.5443297  62.6871096  40.1355399  59.7265692  61.8692752  40.5983152
  60.3676283  62.9038788  39.6980289  59.8785462  61.6139281  37.3970448
  60.4073229  61.1031736  36.7840610  60.1413682  61.2981811  38.2615981
  58.6323696  53.3931214  52.5193266  57.9564333  53.2925343  53.1895641
  59.4551330  53.2370427  52.9829263  50.3802555  59.6303150  45.1405781
  50.9655992  58.8846838  45.2733686  50.1827394  59.9407107  46.0242445
  53.2341210  62.6654398  40.1568224  52.5651586  63.1500525  39.6732264
  53.0954080  62.9123618  41.0711602  44.9720210  52.2008750  43.8610225
  45.0104309  51.6672341  44.6547343  44.4660503  51.6743956  43.2421202
  52.3510972  47.0473291  47.3572767  52.4152299  47.9088122  46.9450164
  52.2878092  46.4347293  46.6245125  51.8263245  49.1196423  51.0045801
  52.4535284  48.7373501  51.6183325  50.9691164  48.9010625  51.3701494
  48.6028788  50.9272853  36.9364156  48.8982229  50.0183531  36.8831210
  47.7016823  50.9060592  36.6145158  52.1323035  49.0028849  42.9191704
  51.4109620  49.6164817  42.7799178  52.9216290  49.5386614  42.8408350
  54.9349348  46.3383276  49.1932356  55.4583750  46.5845572  49.9558666
  54.7161681  47.1703310  48.7735494  50.3316629  48.6086950  37.0603481
  50.0029335  47.7284329  36.8778587  50.6856000  48.5534619  37.9479870
  59.5796208  60.2441853  41.5698467  59.4321170  59.3158560  41.7506037
  60.4049701  60.2661944  41.0855542  53.4458452  48.8959920  37.4278959
  53.7854525  49.4245841  36.7057567  53.8930573  49.2340326  38.2037525
  63.1830330  61.0670412  42.6563339  64.1076877  60.8613273  42.5187790
  63.0145633  60.8186813  43.5652681  56.1401893  47.2796971  46.8782027
  55.7998713  46.4804784  47.2802707  55.4340899  47.5798682  46.3058860
  56.7918365  44.3646283  45.3309350  57.6144434  43.8906761  45.2088240
  57.0356428  45.1436767  45.8308036  55.4326599  47.3934542  35.6272251
  56.1534962  47.7715794  35.1235968  54.8091904  48.1123418  35.7307229
  59.5757722  48.0979691  36.5630584  59.7921337  48.9804328  36.2619412
  59.0951789  47.7065904  35.8336226  54.3156944  51.0565404  43.1401328
  54.1701524  51.3705707  44.0325610  53.8382147  51.6750304  42.5872227
  56.1753327  48.0467952  43.1882218  56.1614895  47.1509045  42.8514516
  56.8925755  48.0538616  43.8220504  58.0279457  48.4805292  45.2335345
  57.7697235  49.4022363  45.2319676  57.4964498  48.0835727  45.9235810
  62.9725646  61.5856079  38.0125431  63.1462524  61.0202502  37.2599283
  63.4654537  62.3856974  37.8304921  48.7902606  53.5970748  46.0788990
  48.2456074  54.3730556  46.2109264  49.6681956  53.9441553  45.9208111
  55.5790222  46.9282332  38.4569788  55.7006134  45.9998978  38.6560676
  55.2892265  46.9421018  37.5448104  58.4481413  44.6137243  41.5936508
  58.4703110  44.6776576  40.6388487  58.8649472  43.7741751  41.7877014
  68.8265037  54.3492502  39.6315731  69.2696183  53.5999827  39.2334854
  67.9491547  54.3402638  39.2489463  63.9600819  60.9022844  35.1122329
  64.6551723  61.5229536  35.3309644  64.3023969  60.0518195  35.3874707
  49.5768628  52.7240645  48.9719146  48.8350364  52.8723280  49.5583777
  49.2561372  52.9848910  48.1085896  65.8592242  58.3522549  36.6409660
  66.3843566  58.6909822  35.9158980  65.7714594  57.4169564  36.4572794
  57.5432902  64.4194532  41.0004913  57.1037893  63.9270911  41.6937770
  58.2941019  63.8767500  40.7596988  50.0225241  60.6106073  41.0029541
  50.8483261  60.3109845  40.6228185  49.6719293  59.8413696  41.4519330
  54.9906775  59.9632541  43.0727215  54.3686784  59.3003246  42.7729443
  55.6611641  59.9893673  42.3900862  48.2233846  58.5292400  41.9618475
  47.3865755  58.1014574  41.7802476  48.1957492  58.7224843  42.8989266
  55.0631302  48.4414329  52.6659721  55.1119457  49.3176452  52.2837490
  55.6053816  47.8991723  52.0931364  54.5520281  58.5136465  36.5485675
  54.7008402  59.1971929  35.8952348  55.3586725  58.4941555  37.0635131
  62.9587785  51.8178847  50.5752893  63.8597648  51.6785312  50.2836891
  63.0335760  51.9833302  51.5151070  57.2930590  49.1945702  49.4206079
  56.4233900  49.4879268  49.1488668  57.5290071  49.7786147  50.1413343
  68.3697902  55.8197740  42.0238178  69.2044793  56.2587544  42.1875738
  68.5057031  55.3436394  41.2046424  52.3072914  54.5401642  37.5546744
  52.0618956  53.6363972  37.7526954  52.4768829  54.5418793  36.6126222
  59.9969624  45.4125319  46.9371500  60.5151568  46.1486346  46.6117988
  59.6424757  45.7189312  47.7718259  51.5768562  50.2730000  35.0532906
  50.8837807  50.3474355  34.3972942  51.3320314  49.5090344  35.5754423
  60.2482218  41.8325601  42.4572396  60.5283972  41.1648790  43.0832823
  61.0332825  42.0254697  41.9447060  58.0515687  61.0084595  34.0197423
  57.4789654  61.6274782  33.5667895  58.6248481  61.5583957  34.5537345
  64.1191077  50.2543235  46.2043971  65.0708500  50.3541333  46.2256195
  63.9494527  49.4621504  46.7142056  62.1405456  47.3398819  46.3903372
  61.5455388  47.6203831  45.6949861  61.8555153  47.8292719  47.1620113
  61.2712947  61.2921745  35.1506005  62.2043620  61.2267307  35.3538880
  61.1836160  62.1278012  34.6920538  63.9000963  60.6087616  32.1109952
  63.8214595  60.2747479  33.0045710  64.7210630  61.1009384  32.1101425
  58.4362485  52.3445408  31.3613475  59.3821590  52.2151616  31.4301893
  58.0576730  51.6060070  31.8382903  64.4084370  44.0101414  41.3240367
  64.2109191  43.7016502  42.2083699  65.0184076  44.7363053  41.4538297
  58.3201178  56.3963154  52.8214132  59.2404187  56.5741753  53.0154179
  58.2850761  55.4519199  52.6693831  56.6205403  50.2695384  31.2968360
  55.7136858  49.9728497  31.3731074  56.8981384  49.9725202  30.4302647
  47.5383343  51.5901748  41.7467407  47.2186127  50.7367056  41.4541781
  46.9916771  51.8050326  42.5025374  51.3163251  54.3064189  45.4636913
  51.5349260  55.2381297  45.4824947  51.7289024  53.9472163  46.2491717
  58.2367468  44.8132274  37.4512602  57.4268197  44.4679359  37.8267848
  58.9251885  44.5039818  38.0400213  60.1658017  43.8910321  39.0736898
  60.7189055  44.3105774  39.7326921  60.4028103  42.9646069  39.1159854
  56.1891116  49.8797395  54.8539662  56.0887843  50.8291752  54.7851753
  55.9712658  49.5515633  53.9815732  55.3904187  47.1282320  31.4380340
  56.2523351  47.4537218  31.6976157  55.5754531  46.3413816  30.9253405
  47.4071603  55.2104659  43.7160528  46.7135074  54.7958612  43.2030483
  48.1544594  55.2525196  43.1193947  63.5436824  46.0010846  38.5815563
  62.9635493  46.6595650  38.1993615  63.2772756  45.1788191  38.1702980
  61.9940390  45.4015904  40.7836883  62.4940168  45.5132438  39.9751202
  62.6375998  45.0976957  41.4237691  56.0522386  53.3094533  53.6704724
  55.5689468  54.1094894  53.8768613  56.1383325  53.3202478  52.7172168
  49.3208346  55.1422913  41.5926543  49.2979034  55.2410600  40.6408426
  49.6308982  55.9888064  41.9143709  51.9795723  57.1999068  45.7073158
  52.9338977  57.1683010  45.6403089  51.7808247  56.7389692  46.5223384
  52.5695106  55.7700184  48.2743955  53.3887995  56.2644263  48.2978793
  52.8431913  54.8532152  48.2461523  62.3261702  48.1610936  37.6371911
  61.4387557  48.4460587  37.4192106  62.7415691  48.0004700  36.7899188
  65.6776238  48.1857457  41.3526250  66.4536628  48.6753910  41.6250867
  64.9524372  48.6115512  41.8098120  68.1148796  48.8985077  42.4100191
  68.7093287  48.6580813  41.6993499  68.1875380  48.1792207  43.0373727
  50.3345952  62.7418688  42.7243356  50.2000420  61.9819088  42.1581354
  49.9178014  63.4659587  42.2572144  61.4704915  57.9255611  31.7319931
  62.1740765  58.1305614  32.3477586  60.7467564  58.4932373  31.9969014
  62.3002725  53.6765472  37.8522201  62.2437927  54.1334024  37.0129833
  62.8531068  52.9156157  37.6745044  66.1107531  49.4655204  38.6772320
  65.8544466  49.0651840  39.5080528  65.4860399  50.1798998  38.5522460
  70.4219869  52.2051277  41.1843612  69.8619427  52.2744467  41.9575174
  69.8163373  52.0292262  40.4643108  53.4915078  63.6388005  42.9361798
  53.3747462  64.5833437  42.8340488  52.6707524  63.3361566  43.3247597
  63.3791613  58.3638140  33.7818391  64.2137217  57.9319339  33.5995866
  63.2175956  58.1920154  34.7095285  63.0337505  54.8670254  35.1474730
  62.9786309  54.7014525  34.2063174  62.4083560  55.5746287  35.3036920
  47.8230020  50.1038318  48.9736152  48.4688883  49.5937272  49.4623378
  47.6147171  50.8407000  49.5479578  60.3483412  57.1719165  54.4728293
  61.2174572  57.3459818  54.1114928  59.8690163  57.9913582  54.3504022
  56.3433630  44.3678363  34.7260049  56.3312300  45.3120203  34.8828319
  57.2357052  44.1848508  34.4319510  60.1585750  40.9621139  38.9805985
  59.3918146  40.4079626  39.1262668  60.5696455  41.0343008  39.8420137
  52.1627511  47.2505935  53.0711167  53.0258972  46.8942740  53.2814491
  51.5892921  46.9119830  53.7586571  68.2207190  63.9951620  34.0484445
  68.3881592  64.8631856  34.4154916  68.0304359  64.1578901  33.1245734
  73.8981477  66.9230750  35.8611446  74.8099333  67.1558137  35.6859144
  73.3891124  67.5067795  35.2986525  71.2417452  63.0988786  44.1101307
  70.3801931  63.3970040  44.4018044  71.2679886  63.3159185  43.1782340
  82.8443044  69.7081670  41.7272064  82.0906752  69.1389068  41.5716068
  82.9790585  69.6744334  42.6742698  71.5484418  68.0934245  34.4398112
  71.0331042  68.8638850  34.6786499  71.2761727  67.4199381  35.0631173
  69.1331529  62.9383946  39.4983350  68.2773126  62.5490796  39.3188989
  69.5458481  63.0175906  38.6383135  76.5218692  70.8466600  36.3751285
  75.7448135  70.5077759  35.9306447  77.2010173  70.8519223  35.7006250
  71.3370721  65.9661337  36.2657893  71.0320857  66.2807486  37.1168036
  72.2901164  66.0442757  36.3085226  64.5135881  62.7871227  40.2757458
  65.0879633  62.5646408  39.5430651  65.1006863  62.8559921  41.0286059
  66.8158549  59.6612475  39.0032528  66.1622961  59.3461493  38.3789142
  66.7739023  59.0388216  39.7292351  67.9269753  69.9431771  30.9185820
  67.0196815  69.7121024  31.1176969  68.4240785  69.1469390  31.1059801
  73.3821801  57.3619193  41.0343414  73.6880678  56.5016556  40.7469329
  74.1074406  57.9536813  40.8342408  76.9207189  69.8610306  38.8374207
  76.7825088  70.0511902  37.9095396  76.5643408  70.6229689  39.2942258
  72.9245302  70.4437491  32.3729946  72.3074473  69.7184319  32.2762999
  72.4561791  71.2046851  32.0297020  64.7143848  64.6622915  31.4951250
  63.8373314  64.5411716  31.1313497  65.1901601  63.8708993  31.2430139
  71.2104424  62.8243835  41.3847976  71.7073124  62.0713797  41.0649046
  70.4391406  62.8608152  40.8191185  79.0634182  68.5284200  43.0266268
  79.0524058  69.4108916  42.6560201  78.1951561  68.1755751  42.8320805
  75.6806756  67.4232841  39.4936434  76.1467209  68.2560833  39.4196736
  76.1314257  66.9577823  40.1981692  61.1710384  63.9378868  37.0603481
  60.8423090  63.0576247  36.8778587  61.5249754  63.8826537  37.9479870
  64.2852207  64.2251838  37.4278959  64.6248279  64.7537759  36.7057567
  64.7324327  64.5632244  38.2037525  66.2720354  62.7226459  35.6272251
  66.9928716  63.1007712  35.1235968  65.6485658  63.4415336  35.7307229
  70.4151477  63.4271608  36.5630584  70.6315091  64.3096246  36.2619412
  69.9345544  63.0357822  35.8336226  66.4183977  62.2574250  38.4569788
  66.5399888  61.3290896  38.6560676  66.1286019  62.2712936  37.5448104
  69.2875167  59.9429160  41.5936508  69.3096864  60.0068493  40.6388487
  69.7043226  59.1033669  41.7877014  79.6658792  69.6784420  39.6315731
  80.1089938  68.9291745  39.2334854  78.7885302  69.6694556  39.2489463
  76.6985996  73.6814467  36.6409660  77.2237320  74.0201740  35.9158980
  76.6108349  72.7461482  36.4572794  79.2091656  71.1489658  42.0238178
  80.0438548  71.5879462  42.1875738  79.3450785  70.6728311  41.2046424
  69.2756240  67.6737326  31.3613475  70.2215345  67.5443534  31.4301893
  68.8970485  66.9351988  31.8382903  75.2478125  59.3393332  41.3240367
  75.0502946  59.0308420  42.2083699  75.8577830  60.0654971  41.4538297
  83.2549459  69.8657280  44.4592308  83.9852847  69.6042568  45.0200011
  82.6456404  69.1286001  44.4994376  67.4599157  65.5987302  31.2968360
  66.5530613  65.3020415  31.3731074  67.7375138  65.3017120  30.4302647
  69.0761223  60.1424192  37.4512602  68.2661951  59.7971277  37.8267848
  69.7645640  59.8331736  38.0400213  71.0051771  59.2202239  39.0736898
  71.5582810  59.6397692  39.7326921  71.2421857  58.2937987  39.1159854
  66.2297942  62.4574237  31.4380340  67.0917106  62.7829136  31.6976157
  66.4148286  61.6705733  30.9253405  74.3830578  61.3302764  38.5815563
  73.8029247  61.9887568  38.1993615  74.1166511  60.5080108  38.1702980
  72.8334145  60.7307821  40.7836883  73.3333923  60.8424356  39.9751202
  73.4769753  60.4268874  41.4237691  73.1655456  63.4902854  37.6371911
  72.2781311  63.7752505  37.4192106  73.5809445  63.3296617  36.7899188
  72.3098670  73.2547529  31.7319931  73.0134520  73.4597531  32.3477586
  71.5861318  73.8224291  31.9969014  73.1396480  69.0057390  37.8522201
  73.0831681  69.4625941  37.0129833  73.6924822  68.2448075  37.6745044
  76.9501286  64.7947122  38.6772320  76.6938220  64.3943758  39.5080528
  76.3254154  65.5090916  38.5522460  81.2613624  67.5343195  41.1843612
  80.7013182  67.6036384  41.9575174  80.6557127  67.3584180  40.4643108
  73.8731259  70.1962171  35.1474730  73.8180063  70.0306443  34.2063174
  73.2477315  70.9038204  35.3036920  67.1827385  59.6970280  34.7260049
  67.1706055  60.6412120  34.8828319  68.0750807  59.5140426  34.4319510
  70.9979504  56.2913057  38.9805985  70.2311900  55.7371544  39.1262668
  71.4090209  56.3634926  39.8420137  82.4010911  81.9351163  40.9526776
  83.1874000  81.5170586  40.6017193  82.6649615  82.8397255  41.1208424
  85.3244758  75.5847970  46.3154363  84.9928083  76.4543381  46.0915578
  84.7290372  75.2684254  46.9948393  79.0600945  79.3243537  34.0484445
  79.2275347  80.1923774  34.4154916  78.8698114  79.4870819  33.1245734
  85.2173421  80.3043056  43.3947713  84.3090299  80.2358465  43.1006474
  85.1661017  80.7815001  44.2229538  87.0835068  78.5059495  45.1725587
  86.4409448  78.7992028  44.5265381  86.5789996  78.3912415  45.9778783
  79.3747069  81.6119903  46.8706296  80.2208264  82.0359316  47.0140945
  79.3145707  80.9553527  47.5644859  82.5246515  79.2724271  48.5287469
  82.2807446  80.0266332  47.9921745  82.8006445  79.6509619  49.3634716
  82.0811206  78.4280704  44.1101307  81.2195685  78.7261958  44.4018044
  82.1073641  78.6451103  43.1782340  78.4770727  77.4036449  51.6561395
  79.2180440  78.0043602  51.5765857  78.7088650  76.6614086  51.0979437
  82.4227890  73.4317551  45.9325676  82.0792159  74.3219193  45.8564787
  82.7906853  73.2419209  45.0695261  79.9725284  78.2675863  39.4983350
  79.1166880  77.8782714  39.3188989  80.3852235  78.3467824  38.6383135
  81.5024430  75.8022207  43.8974910  80.9989226  75.7652342  43.0842715
  81.7955037  76.7114949  43.9571566  77.7467316  75.8860936  42.9041091
  78.6120313  75.6903745  42.5446981  77.8144825  75.6571288  43.8310448
  77.6552303  74.9904393  39.0032528  77.0016715  74.6753410  38.3789142
  77.6132777  74.3680134  39.7292351  78.7663508  85.2723688  30.9185820
  77.8590570  85.0412942  31.1176969  79.2634540  84.4761307  31.1059801
  81.6731587  93.9821195  33.8382506  80.9993286  94.2852892  34.4467464
  82.0597409  94.7850276  33.4887963  84.1203928  79.9134859  40.4401645
  83.3826685  79.4012245  40.7711887  84.3730702  79.4735240  39.6284922
  84.2215556  72.6911111  41.0343414  84.5274432  71.8308474  40.7469329
  84.9468160  73.2828731  40.8342408  79.6427829  86.9145027  32.7797888
  79.2047259  86.1980886  32.3203526  80.3838270  87.1421142  32.2182980
  80.3022184  77.1860342  48.8808691  79.6550099  77.8850292  48.7873168
  81.0723199  77.6196486  49.2484939  75.5537603  79.9914833  31.4951250
  74.6767069  79.8703633  31.1313497  76.0295356  79.2000911  31.2430139
  82.0498179  78.1535753  41.3847976  82.5466878  77.4005715  41.0649046
  81.2785160  78.1900069  40.8191185  78.6333148  80.2953136  41.1119661
  78.2630935  79.7424176  41.8000566  79.1292240  79.6911269  40.5594661
  84.4917174  75.1205346  43.5327335  83.5780253  75.3509573  43.7009542
  84.9210275  75.2043790  44.3841367  77.8189402  77.9380806  46.8782027
  77.4786222  77.1388619  47.2802707  77.1128408  78.2382517  46.3058860
  78.4705874  75.0230119  45.3309350  79.2931943  74.5490597  45.2088240
  78.7143937  75.8020602  45.8308036  77.1114108  78.0518377  35.6272251
  77.8322471  78.4299630  35.1235968  76.4879413  78.7707254  35.7307229
  77.8540836  78.7051787  43.1882218  77.8402404  77.8092880  42.8514516
  78.5713264  78.7122451  43.8220504  79.7066966  79.1389127  45.2335345
  79.4484744  80.0606198  45.2319676  79.1752007  78.7419562  45.9235810
  77.2577731  77.5866167  38.4569788  77.3793643  76.6582814  38.6560676
  76.9679774  77.6004853  37.5448104  80.1268922  75.2721078  41.5936508
  80.1490619  75.3360411  40.6388487  80.5436981  74.4325587  41.7877014
  76.7418811  79.0998165  52.6659721  76.7906966  79.9760288  52.2837490
  77.2841325  78.5575558  52.0931364  78.9718099  79.8529537  49.4206079
  78.1021409  80.1463103  49.1488668  79.2077580  80.4369982  50.1413343
  81.6757133  76.0709154  46.9371500  82.1939077  76.8070181  46.6117988
  81.3212266  76.3773147  47.7718259  81.9269727  72.4909437  42.4572396
  82.2071481  71.8232626  43.0832823  82.7120334  72.6838532  41.9447060
  83.8192965  77.9982654  46.3903372  83.2242897  78.2787667  45.6949861
  83.5342662  78.4876555  47.1620113  80.1149994  83.0029243  31.3613475
  81.0609099  82.8735451  31.4301893  79.7364239  82.2643905  31.8382903
  86.0871879  74.6685249  41.3240367  85.8896700  74.3600338  42.2083699
  86.6971585  75.3946888  41.4538297  78.2992912  80.9279220  31.2968360
  77.3924367  80.6312332  31.3731074  78.5768893  80.6309038  30.4302647
  79.9154977  75.4716109  37.4512602  79.1055706  75.1263194  37.8267848
  80.6039394  75.1623653  38.0400213  81.8445526  74.5494156  39.0736898
  82.3976564  74.9689610  39.7326921  82.0815612  73.6229904  39.1159854
  77.0691696  77.7866155  31.4380340  77.9310860  78.1121053  31.6976157
  77.2542040  76.9997651  30.9253405  85.2224333  76.6594681  38.5815563
  84.6423002  77.3179485  38.1993615  84.9560265  75.8372026  38.1702980
  83.6727899  76.0599739  40.7836883  84.1727677  76.1716274  39.9751202
  84.3163507  75.7560792  41.4237691  87.3563747  78.8441293  41.3526250
  88.1324137  79.3337745  41.6250867  86.6311881  79.2699347  41.8098120
  89.7936305  79.5568912  42.4100191  90.3880796  79.3164648  41.6993499
  89.8662889  78.8376043  43.0373727  83.1492424  88.5839446  31.7319931
  83.8528274  88.7889449  32.3477586  82.4255073  89.1516208  31.9969014
  87.7895040  80.1239040  38.6772320  87.5331975  79.7235675  39.5080528
  87.1647908  80.8382834  38.5522460  78.0221139  75.0262198  34.7260049
  78.0099809  75.9704038  34.8828319  78.9144561  74.8432343  34.4319510
  81.8373259  71.6204975  38.9805985  81.0705655  71.0663461  39.1262668
  82.2483964  71.6926843  39.8420137  86.3539919 101.3454531  39.8031983
  85.7904784 101.2544468  39.0348271  86.2392314 100.5254436  40.2834476
  91.9339477 105.0125499  35.1146448  91.2827457 105.5979579  34.7280462
  92.7283840 105.5431694  35.1741486  85.8595105 102.1014636  35.5133583
  86.6325981 101.5543623  35.3746458  86.2120503 102.9658885  35.7248044
  88.1961382  98.2607302  33.1452032  88.4486903  97.7388824  32.3835495
  87.2585941  98.0973448  33.2478716  93.4114743 102.7015931  35.6515432
  92.7760576 102.7750557  36.3636337  93.0812149 103.2909530  34.9734512
  98.6413092  97.2018314  41.8559754  99.3738264  96.6317531  42.0897584
  97.8852448  96.8139914  42.2966260  87.9157671 100.1635408  35.3476407
  87.7993929  99.4880312  36.0157492  88.0259931  99.6767782  34.5308560
  90.2589212  99.6245555  39.0523097  89.8947419  99.0976176  39.7636018
  91.1156328  99.2344024  38.8789582  89.8783920  97.1093113  35.0331112
  89.7583545  97.5550163  35.8716592  89.1836508  97.4578430  34.4744650
  87.6390812 109.8796754  38.6821243  87.5614842 110.8304579  38.7609724
  87.0352456 109.5342627  39.3396170  95.5768986  97.5814586  35.8611446
  96.4886842  97.8141972  35.6859144  95.0678633  98.1651630  35.2986525
  94.1838568 102.5640404  43.2525027  93.5547431 102.7286118  42.5501095
  93.7964230 102.9782014  44.0235991  98.0627800 103.4994842  40.6069391
  97.3778838 103.8793743  40.0566425  98.1471650 104.1090169  41.3401339
  89.7366530 102.3014812  40.5175113  90.2004876 102.5802515  39.7279735
  89.4723328 101.3998257  40.3348203  88.6735416  98.4237965  37.3264678
  89.3759460  98.8759008  37.7938604  88.3416045  97.7821783  37.9544571
  96.4324560 104.0226756  45.3787092  97.2542004 103.6206944  45.0969774
  96.4286963 103.9194991  46.3303208 104.5230553 100.3665505  41.7272064
 103.7694261  99.7972903  41.5716068 104.6578094 100.3328169  42.6742698
  89.9129181 105.2378907  37.4026783  89.7774856 106.0830443  37.8311631
  90.4538993 105.4398185  36.6392717  83.3658578 102.7554345  37.9754708
  83.8783099 103.5497596  38.1260273  84.0181291 102.0580636  37.9088309
  85.1753463 105.8720102  40.0577461  85.3520091 106.7938066  39.8698445
  85.9710297 105.5578521  40.4871841  91.5397657 105.8602474  51.5327125
  91.0961511 105.0738852  51.2148029  92.2014871 106.0481624  50.8671016
  86.2984778 107.3898275  46.0587804  86.8492204 107.2615339  45.2864797
  85.4596254 107.6893164  45.7082696  93.6378895 106.1405274  49.5608526
  93.6197371 106.9614155  49.0688795  94.5598815 106.0159349  49.7858667
  90.0951950 103.6549403  50.4032035  90.6280286 102.8937691  50.1731343
  89.5666031 103.3623055  51.1456189  93.2271927  98.7518080  34.4398112
  92.7118551  99.5222685  34.6786499  92.9549236  98.0783216  35.0631173
  98.2006201 101.5050435  36.3751285  97.4235644 101.1661594  35.9306447
  98.8797682 101.5103058  35.7006250  93.0158230  96.6245172  36.2657893
  92.7108366  96.9391321  37.1168036  93.9688672  96.7026592  36.3085226
  91.4604662 102.7835396  37.9150847  90.9326024 102.0488155  37.6024084
  90.9592165 103.5610072  37.6690815  96.4397508 100.9784416  43.0317893
  95.7821183 101.6683678  43.1198022  97.2437907 101.3680848  43.3751879
  95.2502967  99.3328789  41.0821835  95.7634849  99.9658781  41.5843544
  95.9004191  98.7329984  40.7165195  89.6057262 100.6015606  30.9185820
  88.6984324 100.3704859  31.1176969  90.1028294  99.8053225  31.1059801
  92.5125341 109.3113113  33.8382506  91.8387040 109.6144810  34.4467464
  92.8991163 110.1142193  33.4887963  92.5118846  98.2069660  38.4582855
  93.2590665  98.7191057  38.1489978  92.7810435  97.8853713  39.3187249
  90.7845496 100.7028201  35.4409810  89.8756715 100.4187234  35.5382280
  90.8140580 101.1227279  34.5813117  96.0164763 104.3134790  39.2100977
  95.5627090 103.4725700  39.2666168  95.3858730 104.9496189  39.5475757
  94.4597702 106.1511287  40.1450795  94.7520677 106.7116344  39.4263161
  94.9696323 106.4439848  40.9003955  89.3330390  98.3156821  41.5419605
  89.3879000  97.3630658  41.4662082  88.5221592  98.4716260  42.0260904
  90.4821584 102.2436944  32.7797888  90.0441014 101.5272803  32.3203526
  91.2232024 102.4713059  32.2182980  87.2722750  96.9333881  39.3009984
  86.4590615  97.2328052  39.7075176  87.7681744  96.5389570  40.0184466
  89.4231328 106.9291638  41.2344249  89.3807506 107.1552484  40.3052781
  90.3394027 106.6955013  41.3830050  98.5994698 100.5194141  38.8374207
  98.4612597 100.7095737  37.9095396  98.2430917 101.2813524  39.2942258
  98.6264078 102.5870668  43.8485478  99.0600585 102.4945958  44.6968532
  99.3395659 102.5628169  43.2105494  87.5397128 103.8054667  41.0306211
  88.3337727 103.3104987  40.8288786  86.8288821 103.2772530  40.6673917
  92.3591973 106.1872763  45.3818579  92.4128995 106.7563699  46.1496295
  91.4906754 106.3574648  45.0172616  99.4879628 102.6294369  46.3818364
  99.6815518 103.5340180  46.6277639  99.3880246 102.1701788  47.2156949
  94.5494736 102.7801112  51.9559244  94.3980243 102.5511664  51.0389328
  94.5399416 103.7371713  51.9690589  90.1168404 104.3783689  44.7104049
  89.9779490 104.0102473  45.5829987  89.3283001 104.8931328  44.5388006
  90.7116556 109.4792786  36.0529585  90.8868312 109.0080829  36.8675208
  90.0249344 110.1058552  36.2810846  91.6673620 103.7565292  42.0992886
  91.3323452 103.7166062  42.9950536  91.1677565 103.0910008  41.6263297
  94.6032811 101.1021326  32.3729946  93.9861982 100.3768154  32.2762999
  94.1349300 101.8630686  32.0297020  96.2586943 105.8120234  50.0335726
  96.1999489 105.1279455  49.3666309  96.6606461 106.5539224  49.5816352
  85.2777642 112.6282148  42.8269445  85.5174240 113.2600672  43.5048464
  84.4346838 112.2770188  43.1134804  86.3931357  95.3206750  31.4951250
  85.5160823  95.1995551  31.1313497  86.8689110  94.5292829  31.2430139
  96.2604350 103.7759818  48.2649706  95.3731129 103.4385740  48.3876105
  96.8302901 103.0442850  48.5018471  89.7905504 108.4361271  45.2310949
  89.7175675 109.2416242  45.7430254  89.3482897 108.6353237  44.4058971
  89.5795283 107.6733041  38.7413771  88.7962805 108.2154721  38.8351995
  90.2788028 108.1907020  39.1408012 100.7421691  99.1868036  43.0266268
 100.7311567 100.0692751  42.6560201  99.8739070  98.8339587  42.8320805
  92.2504187 108.3348105  47.3869108  92.9632159 108.9695570  47.3145009
  91.7594216 108.4311971  46.5709110  93.9721714 102.2399357  38.9586400
  93.0377993 102.3600820  38.7891104  94.1498382 101.3371824  38.6946409
  97.3594265  98.0816677  39.4936434  97.8254718  98.9144668  39.4196736
  97.8101766  97.6161658  40.1981692  87.3016101 106.0842548  48.2074679
  88.0025560 106.7179031  48.3604073  86.8311216 106.4257280  47.4470318
  95.4270496 104.4260498  36.4922586  95.7030340 104.3117093  37.4016460
  94.5574995 104.0277983  36.4534759  92.0624560 108.6746849  40.1355399
  92.2446955 107.8568505  40.5983152  92.8857546 108.8914541  39.6980289
  92.3966726 107.6015034  37.3970448  92.9254492 107.0907489  36.7840610
  92.6594946 107.2857564  38.2615981  82.8983819 105.6178903  45.1405781
  83.4837255 104.8722591  45.2733686  82.7008657 105.9282860  46.0242445
  85.7522474 108.6530151  40.1568224  85.0832849 109.1376278  39.6732264
  85.6135344 108.8999371  41.0711602  89.8927742 110.6873894  46.7550882
  90.4446051 110.8505516  47.5199967  90.2333936 111.2778332  46.0830907
  94.7438617 105.5135152  52.6099537  95.2878521 106.1265110  52.1154491
  94.1625462 106.0714730  53.1266550  93.0296130 108.6355870  43.7414564
  92.9047269 107.8345610  43.2325510  93.6875221 109.1302063  43.2528534
  95.0931038 106.4364890  45.3694114  94.1461374 106.3170241  45.2972441
  95.4413811 105.5487388  45.4520376  92.0977471 106.2317606  41.5698467
  91.9502434 105.3034313  41.7506037  92.9230965 106.2537697  41.0855542
  95.7011593 107.0546165  42.6563339  96.6258141 106.8489026  42.5187790
  95.5326897 106.8062566  43.5652681  95.4906910 107.5731832  38.0125431
  95.6643787 107.0078255  37.2599283  95.9835801 108.3732727  37.8304921
 101.3446301 100.3368255  39.6315731 101.7877447  99.5875580  39.2334854
 100.4672811 100.3278391  39.2489463  96.4782082 106.8898597  35.1122329
  97.1732987 107.5105289  35.3309644  96.8205232 106.0393948  35.3874707
  98.3773505 104.3398302  36.6409660  98.9024829 104.6785575  35.9158980
  98.2895858 103.4045317  36.4572794  90.0393554 108.2532376  48.7699536
  90.3480680 108.0081523  49.6422236  90.8369036 108.4579014  48.2818407
  90.0614166 110.4070285  41.0004913  89.6219156 109.9146664  41.6937770
  90.8122283 109.8643253  40.7596988  82.5406505 106.5981826  41.0029541
  83.3664525 106.2985598  40.6228185  82.1900557 105.8289449  41.4519330
  87.5088038 105.9508294  43.0727215  86.8868047 105.2879000  42.7729443
  88.1792905 105.9769426  42.3900862  80.7415110 104.5168153  41.9618475
  79.9047018 104.0890327  41.7802476  80.7138755 104.7100596  42.8989266
  98.0667411 104.9731206  51.9460858  97.2762955 104.9555345  51.4065357
  97.8300766 105.5119499  52.7009894  98.1865286 101.8223672  49.2593586
  98.2363291 101.6573680  50.2009109  98.0779210 100.9550931  48.8691467
  87.0701545 104.5012218  36.5485675  87.2189665 105.1847682  35.8952348
  87.8767988 104.4817308  37.0635131  99.6883483 104.2420614  49.5035608
  99.3968291 104.6050594  50.3399069  99.0755614 103.5287622  49.3248940
 100.8879165 101.8073493  42.0238178 101.7226057 102.2463297  42.1875738
 101.0238294 101.3312147  41.2046424  97.9370671  99.3653228  47.9715666
  98.4124793  99.5580875  47.1634517  97.0136237  99.4212414  47.7259050
  90.5696950 106.9960348  34.0197423  89.9970918 107.6150535  33.5667895
  91.1429744 107.5459710  34.5537345  93.7894210 107.2797498  35.1506005
  94.7224883 107.2143060  35.3538880  93.7017423 108.1153765  34.6920538
  96.4182227 106.5963369  32.1109952  96.3395858 106.2623232  33.0045710
  97.2391894 107.0885137  32.1101425  99.1160418  99.4625108  45.3186271
  99.0836738  98.5241109  45.5045955  99.7261042  99.5409145  44.5852096
  90.9543749  98.3321161  31.3613475  91.9002854  98.2027369  31.4301893
  90.5757994  97.5935823  31.8382903 104.9336968 100.5241115  44.4592308
 105.6640356 100.2626403  45.0200011 104.3243913  99.7869837  44.4994376
  89.1386666  96.2571137  31.2968360  88.2318121  95.9604250  31.3731074
  89.4162647  95.9600955  30.4302647  87.9085451  93.1158073  31.4380340
  88.7704615  93.4412971  31.6976157  88.0935795  92.3289569  30.9253405
  98.1957501  94.1733210  41.3526250  98.9717891  94.6629663  41.6250867
  97.4705636  94.5991265  41.8098120 100.6330060  94.8860830  42.4100191
 101.2274551  94.6456566  41.6993499 100.7056644  94.1667960  43.0373727
  82.8527216 108.7294441  42.7243356  82.7181684 107.9694841  42.1581354
  82.4359278 109.4535340  42.2572144  93.9886179 103.9131364  31.7319931
  94.6922029 104.1181367  32.3477586  93.2648827 104.4808126  31.9969014
  94.8183989  99.6641225  37.8522201  94.7619190 100.1209777  37.0129833
  95.3712331  98.9031910  37.6745044  98.6288795  95.4530957  38.6772320
  98.3725729  95.0527593  39.5080528  98.0041663  96.1674751  38.5522460
 102.9401133  98.1927031  41.1843612 102.3800691  98.2620220  41.9575174
 102.3344636  98.0168015  40.4643108  86.0096342 109.6263758  42.9361798
  85.8928726 110.5709190  42.8340488  85.1888788 109.3237319  43.3247597
  95.8972876 104.3513893  33.7818391  96.7318480 103.9195092  33.5995866
  95.7357219 104.1795907  34.7095285  95.5518768 100.8546007  35.1474730
  95.4967572 100.6890278  34.2063174  94.9264824 101.5622040  35.3036920
  92.8664675 103.1594919  54.4728293  93.7355835 103.3335571  54.1114928
  92.3871427 103.9789335  54.3504022  87.0350856 110.2792020  46.1517727
  87.9378102 110.3115630  46.4684222  86.8088226 109.3492470  46.1664062
  88.7904458 109.0323006  42.8127805  87.8400089 109.0324868  42.6992178
  89.0936944 108.2855741  42.2963840 104.5257151 114.8683544  43.8773568
 105.1635561 114.7490292  43.1736908 104.4077994 115.8164388  43.9361520
 101.3346857 114.8210973  43.8135092 100.9965369 114.7052037  42.9255627
 102.2036626 114.4202138  43.7936098  97.1933673 116.6746449  39.8031983
  96.6298538 116.5836386  39.0348271  97.0786068 115.8546353  40.2834476
 101.8166640 115.9745824  49.7721298 101.8055281 115.5798623  48.9001801
 101.9787280 115.2411897  50.3655069  94.7398105 118.1697641  42.6416204
  95.5319397 117.8288465  42.2262503  94.9794755 118.2792616  43.5618357
 102.7733232 120.3417417  35.1146448 102.1221212 120.9271497  34.7280462
 103.5677595 120.8723612  35.1741486  96.6988859 117.4306554  35.5133583
  97.4719735 116.8835541  35.3746458  97.0514258 118.2950803  35.7248044
  98.5373902 118.7582936  48.7200482  98.2463768 119.6628567  48.6047148
  99.1730886 118.7999464  49.4344551  99.4630108 116.1359785  45.3101841
 100.0593681 115.9115807  44.5958804  99.5205080 115.3944530  45.9127289
  99.0355137 113.5899220  33.1452032  99.2880658 113.0680741  32.3835495
  98.0979696 113.4265365  33.2478716 104.0798420 112.5934998  40.9526776
 104.8661509 112.1754421  40.6017193 104.3437124 113.4981090  41.1208424
 104.2508497 118.0307849  35.6515432 103.6154330 118.1042475  36.3636337
 103.9205903 118.6201447  34.9734512 109.4806847 112.5310232  41.8559754
 110.2132019 111.9609448  42.0897584 108.7246202 112.1431832  42.2966260
  98.7551426 115.4927326  35.3476407  98.6387684 114.8172229  36.0157492
  98.8653685 115.0059700  34.5308560 101.0982967 114.9537473  39.0523097
 100.7341174 114.4268094  39.7636018 101.9550082 114.5635942  38.8789582
 107.0032267 106.2431806  46.3154363 106.6715592 107.1127217  46.0915578
 106.4077881 105.9268090  46.9948393 100.7388453 109.9827373  34.0484445
 100.9062856 110.8507609  34.4154916 100.5485623 110.1454654  33.1245734
 103.4963787 118.4444352  45.7150275 103.1964510 119.3469390  45.6066083
 103.1514846 118.1776535  46.5671428  96.9476268 114.8958148  41.7486980
  96.0226765 114.7634363  41.9564672  97.1960681 115.6752368  42.2456922
 106.8960930 110.9626892  43.3947713 105.9877808 110.8942300  43.1006474
 106.8448526 111.4398837  44.2229538 100.7177674 112.4385030  35.0331112
 100.5977300 112.8842081  35.8716592 100.0230263 112.7870348  34.4744650
  94.3085079 114.5391422  42.5830769  94.4377460 114.7925901  43.4970181
  93.6282531 115.1319130  42.2635424  98.4784566 125.2088672  38.6821243
  98.4008596 126.1596497  38.7609724  97.8746210 124.8634544  39.3396170
 100.9701796 112.3816537  51.3382610 100.1935130 112.9410458  51.3285475
 101.6092359 112.8673320  51.8597480 108.7622577 109.1643330  45.1725587
 108.1196957 109.4575863  44.5265381 108.2577505 109.0496251  45.9778783
 106.4162741 112.9106503  35.8611446 107.3280597 113.1433890  35.6859144
 105.9072388 113.4943548  35.2986525  99.2248169 115.1901991  50.9000577
  99.9662853 115.7287035  50.6235401  98.5185154 115.8168279  51.0572129
 104.7003508 117.3331131  49.4972739 105.1086864 116.8913542  48.7527371
 103.9780770 116.7583759  49.7506931 101.0534578 112.2703738  46.8706296
 101.8995773 112.6943152  47.0140945 100.9933216 111.6137362  47.5644859
 105.0232323 117.8932322  43.2525027 104.3941185 118.0578036  42.5501095
 104.6357985 118.3073931  44.0235991 108.9021555 118.8286760  40.6069391
 108.2172593 119.2085661  40.0566425 108.9865404 119.4382086  41.3401339
 104.2034024 109.9308106  48.5287469 103.9594955 110.6850167  47.9921745
 104.4793954 110.3093454  49.3634716 106.1572486 116.4746719  47.2064735
 106.3689382 117.1178479  46.5299116 106.1102235 115.6409035  46.7386665
 103.7598715 109.0864539  44.1101307 102.8983194 109.3845793  44.4018044
 103.7861150 109.3034938  43.1782340 100.5760285 117.6306730  40.5175113
 101.0398630 117.9094433  39.7279735 100.3117083 116.7290174  40.3348203
  97.4684366 117.1778211  43.4554876  98.0385723 117.6065480  42.8172360
  98.0592478 116.8960796  44.1539061  99.5129171 113.7529882  37.3264678
 100.2153214 114.2050926  37.7938604  99.1809799 113.1113701  37.9544571
  97.9609532 112.3441639  51.7015887  97.3308193 113.0257920  51.9351284
  97.8545620 112.2324721  50.7569025  93.2554505 112.0113435  42.6281811
  92.4653559 112.2670963  42.1521922  93.7465752 112.8261773  42.7333852
 107.2718314 119.3518674  45.3787092 108.0935758 118.9498861  45.0969774
 107.2680717 119.2486908  46.3303208  95.2069250 112.3758014  39.5865288
  94.4100413 112.4876708  40.1048784  94.9794842 112.7144666  38.7206178
 101.0374918 118.9002717  47.5347803 101.1019350 119.3623125  48.3705974
 100.3285842 118.2700082  47.6630112  91.5392208 112.2643925  45.0596802
  91.7900246 113.1490935  45.3254378  92.0751756 112.0848527  44.2871894
 115.3624307 115.6957423  41.7272064 114.6088016 115.1264821  41.5716068
 115.4971849 115.6620087  42.6742698 100.7522935 120.5670825  37.4026783
 100.6168610 121.4122361  37.8311631 101.2932748 120.7690103  36.6392717
  97.2390275 106.6462405  54.0641138  96.8457221 106.0928603  54.7388782
  98.0556415 106.9572983  54.4547656  94.2052333 118.0846263  37.9754708
  94.7176853 118.8789513  38.1260273  94.8575046 117.3872553  37.9088309
  96.0147217 121.2012019  40.0577461  96.1913846 122.1229984  39.8698445
  96.8104051 120.8870438  40.4871841 100.1558236 108.0620284  51.6561395
 100.8967949 108.6627437  51.5765857 100.3876159 107.3197922  51.0979437
  95.2999574 113.2476651  49.9339624  95.1853089 112.3461908  50.2346723
  94.4444092 113.4940348  49.5824441 102.3791412 121.1894391  51.5327125
 101.9355266 120.4030770  51.2148029 103.0408625 121.3773542  50.8671016
  97.1378533 122.7190193  46.0587804  97.6885958 122.5907256  45.2864797
  96.2990009 123.0185082  45.7082696 104.4772650 121.4697191  49.5608526
 104.4591125 122.2906072  49.0688795 105.3992570 121.3451267  49.7858667
 100.9345704 118.9841321  50.4032035 101.4674041 118.2229609  50.1731343
 100.4059785 118.6914973  51.1456189 104.1015399 104.0901387  45.9325676
 103.7579668 104.9803028  45.8564787 104.4694362 103.9003044  45.0695261
  92.1701250 116.4134917  38.7514279  93.0076472 116.8231926  38.5347986
  92.3479517 115.4734359  38.7214472 104.0665682 114.0809998  34.4398112
 103.5512305 114.8514603  34.6786499 103.7942990 113.4075134  35.0631173
 101.6512793 108.9259699  39.4983350 100.7954389 108.5366549  39.3188989
 102.0639744 109.0051659  38.6383135 103.1811939 106.4606042  43.8974910
 102.6776735 106.4236177  43.0842715 103.4742546 107.3698785  43.9571566
  99.4254825 106.5444772  42.9041091 100.2907822 106.3487580  42.5446981
  99.4932334 106.3155123  43.8310448 109.0399956 116.8342353  36.3751285
 108.2629399 116.4953512  35.9306447 109.7191437 116.8394976  35.7006250
 103.8551985 111.9537090  36.2657893 103.5502120 112.2683239  37.1168036
 104.8082427 112.0318510  36.3085226 102.2998417 118.1127313  37.9150847
 101.7719778 117.3780073  37.6024084 101.7985919 118.8901990  37.6690815
 107.2791263 116.3076334  43.0317893 106.6214937 116.9975595  43.1198022
 108.0831662 116.6972766  43.3751879  97.0317144 108.7746980  40.2757458
  97.6060896 108.5522161  39.5430651  97.6188127 108.8435674  41.0286059
 106.0896722 114.6620706  41.0821835 106.6028603 115.2950698  41.5843544
 106.7397945 114.0621902  40.7165195  97.3586731 110.8051441  34.2953343
  96.5224044 111.1426127  34.6162618  97.2191501 110.6700420  33.3580480
  99.3339812 105.6488228  39.0032528  98.6804224 105.3337246  38.3789142
  99.2920286 105.0263969  39.7292351 100.4451017 115.9307524  30.9185820
  99.5378079 115.6996777  31.1176969 100.9422049 115.1345143  31.1059801
 103.3519096 124.6405031  33.8382506 102.6780795 124.9436728  34.4467464
 103.7384918 125.4434111  33.4887963 102.5677552 112.1370162  43.3280175
 101.6500114 112.3585109  43.1701863 102.9837696 112.2116473  42.4691883
 103.3512600 113.5361578  38.4582855 104.0984419 114.0482975  38.1489978
 103.6204190 113.2145630  39.3187249 101.6239250 116.0320118  35.4409810
 100.7150470 115.7479151  35.5382280 101.6534334 116.4519197  34.5813117
 106.8558518 119.6426708  39.2100977 106.4020845 118.8017618  39.2666168
 106.2252484 120.2788106  39.5475757 105.7991437 110.5718694  40.4401645
 105.0614194 110.0596080  40.7711887 106.0518211 110.1319076  39.6284922
 105.2991457 121.4803205  40.1450795 105.5914431 122.0408262  39.4263161
 105.8090078 121.7731766  40.9003955 105.9003065 103.3494946  41.0343414
 106.2061941 102.4892309  40.7469329 106.6255669 103.9412566  40.8342408
  92.1927421 113.7525633  39.4225012  91.9951821 113.1594993  38.6976079
  91.6374085 113.4477843  40.1400951 100.1724144 113.6448739  41.5419605
 100.2272754 112.6922575  41.4662082  99.3615346 113.8008178  42.0260904
 101.3215338 117.5728862  32.7797888 100.8834768 116.8564721  32.3203526
 102.0625779 117.8004977  32.2182980  98.1116504 112.2625799  39.3009984
  97.2984370 112.5619969  39.7075176  98.6075498 111.8681488  40.0184466
 100.2625082 122.2583556  41.2344249 100.2201261 122.4844402  40.3052781
 101.1787781 122.0246930  41.3830050 103.7090716 112.7267623  48.1324878
 104.0640104 112.9539096  48.9919344 104.3562847 113.0586000  47.5102133
 109.4388453 115.8486059  38.8374207 109.3006351 116.0387655  37.9095396
 109.0824672 116.6105442  39.2942258  97.6030579 109.8344154  44.9171219
  98.2429958 109.6932913  44.2194182  96.7708110 109.5478668  44.5409821
 109.4657833 117.9162586  43.8485478 109.8994339 117.8237875  44.6968532
 110.1789413 117.8920087  43.2105494  98.3790883 119.1346585  41.0306211
  99.1731481 118.6396905  40.8288786  97.6682575 118.6064448  40.6673917
 103.1985727 121.5164680  45.3818579 103.2522750 122.0855617  46.1496295
 102.3300509 121.6866565  45.0172616  94.6873646 113.2789666  37.1065964
  93.7571235 113.2174122  37.3235926  94.7831118 112.7565619  36.3102605
  94.6059195 109.8044479  39.6944206  94.8666013 110.7189813  39.5853366
  95.4276368 109.3368922  39.8440819  96.0784121 111.2182236  46.8643030
  96.7507174 111.0099599  46.2155679  95.2513907 111.0204322  46.4248263
 110.3273382 117.9586287  46.3818364 110.5209272 118.8632097  46.6277639
 110.2274000 117.4993706  47.2156949 101.9809693 107.8444177  48.8808691
 101.3337608 108.5434127  48.7873168 102.7510708 108.2780321  49.2484939
 105.3888491 118.1093030  51.9559244 105.2373997 117.8803581  51.0389328
 105.3793170 119.0663631  51.9690589 102.1573827 115.6824942  46.9405511
 103.0865887 115.8336102  46.7674478 101.7364857 115.7708963  46.0854157
 100.9562159 119.7075607  44.7104049 100.8173245 119.3394391  45.5829987
 100.1676755 120.2223246  44.5388006 101.5510311 124.8084703  36.0529585
 101.7262067 124.3372746  36.8675208 100.8643099 125.4350469  36.2810846
 102.5067374 119.0857209  42.0992886 102.1717207 119.0457979  42.9950536
 102.0071320 118.4201925  41.6263297  96.4811618 114.4924839  47.6245467
  96.3431416 113.7605078  48.2257006  97.3916542 114.4033740  47.3429655
 105.4426566 116.4313244  32.3729946 104.8255736 115.7060072  32.2762999
 104.9743054 117.1922604  32.0297020  99.1093919 114.2044799  47.1129147
  99.8193537 113.5637991  47.0715766  99.0663227 114.4557694  48.0355328
 107.0980697 121.1412152  50.0335726 107.0393244 120.4571372  49.3666309
 107.5000216 121.8831142  49.5816352  97.8222853 111.1910017  48.9324787
  97.2860210 110.7400755  49.5846383  97.2339561 111.3255925  48.1895251
  96.1171396 127.9574066  42.8269445  96.3567994 128.5892590  43.5048464
  95.2740593 127.6062106  43.1134804  97.2325112 110.6498668  31.4951250
  96.3554578 110.5287469  31.1313497  97.7082865 109.8584746  31.2430139
 107.0998105 119.1051736  48.2649706 106.2124883 118.7677658  48.3876105
 107.6696656 118.3734767  48.5018471  88.7527252 115.4375828  41.5892757
  89.4398292 115.1237558  41.0013773  88.5975380 116.3417192  41.3160009
  93.5561974 110.3266024  46.0177781  93.4720163 109.7191694  45.2828191
  92.7344680 110.8175043  46.0187277 100.6299258 123.7653188  45.2310949
 100.5569430 124.5708160  45.7430254 100.1876651 123.9645154  44.4058971
 100.4189038 123.0024958  38.7413771  99.6356560 123.5446639  38.8351995
 101.1181783 123.5198938  39.1408012 103.7285688 108.8119588  41.3847976
 104.2254387 108.0589550  41.0649046 102.9572669 108.8483905  40.8191185
 111.5815445 114.5159953  43.0266268 111.5705321 115.3984669  42.6560201
 110.7132825 114.1631504  42.8320805 103.0897942 123.6640022  47.3869108
 103.8025914 124.2987487  47.3145009 102.5987970 123.7603888  46.5709110
 104.8115468 117.5691275  38.9586400 103.8771747 117.6892738  38.7891104
 104.9892137 116.6663742  38.6946409 100.3120657 110.9536971  41.1119661
  99.9418444 110.4008011  41.8000566 100.8079749 110.3495104  40.5594661
 108.1988020 113.4108594  39.4936434 108.6648472 114.2436586  39.4196736
 108.6495520 112.9453576  40.1981692  98.1409855 121.4134466  48.2074679
  98.8419315 122.0470949  48.3604073  97.6704970 121.7549197  47.4470318
 106.2664251 119.7552416  36.4922586 106.5424095 119.6409010  37.4016460
 105.3968750 119.3569901  36.4534759 106.1704683 105.7789181  43.5327335
 105.2567762 106.0093408  43.7009542 106.5997784 105.8627625  44.3841367
 105.9411141 113.9679073  46.0327229 105.2882591 114.2154981  45.3779682
 106.3191521 113.1543212  45.6989706 102.9018315 124.0038767  40.1355399
 103.0840709 123.1860422  40.5983152 103.7251301 124.2206459  39.6980289
 103.2360480 122.9306952  37.3970448 103.7648247 122.4199406  36.7840610
 103.4988700 122.6149482  38.2615981 101.9898714 114.7098884  52.5193266
 101.3139351 114.6093014  53.1895641 102.8126348 114.5538098  52.9829263
  93.7377573 120.9470821  45.1405781  94.3231010 120.2014509  45.2733686
  93.5402412 121.2574778  46.0242445  96.5916228 123.9822068  40.1568224
  95.9226604 124.4668196  39.6732264  96.4529098 124.2291289  41.0711602
  88.3295228 113.5176421  43.8610225  88.3679327 112.9840012  44.6547343
  87.8235521 112.9911627  43.2421202 100.7321497 126.0165812  46.7550882
 101.2839805 126.1797433  47.5199967 101.0727690 126.6070250  46.0830907
  95.7085990 108.3640962  47.3572767  95.7727317 109.2255793  46.9450164
  95.6453110 107.7514963  46.6245125  95.1838263 110.4364094  51.0045801
  95.8110302 110.0541172  51.6183325  94.3266182 110.2178296  51.3701494
 105.5832371 120.8427069  52.6099537 106.1272275 121.4557028  52.1154491
 105.0019216 121.4006648  53.1266550  91.9603805 112.2440523  36.9364156
  92.2557247 111.3351202  36.8831210  91.0591841 112.2228263  36.6145158
 103.8689884 123.9647787  43.7414564 103.7441024 123.1637527  43.2325510
 104.5268975 124.4593981  43.2528534  95.4898052 110.3196520  42.9191704
  94.7684638 110.9332488  42.7799178  96.2791308 110.8554285  42.8408350
 105.9324793 121.7656807  45.3694114 104.9855128 121.6462159  45.2972441
 106.2807566 120.8779306  45.4520376  98.2924366 107.6550946  49.1932356
  98.8158768 107.9013243  49.9558666  98.0736699 108.4870981  48.7735494
  93.6891647 109.9254621  37.0603481  93.3604353 109.0452000  36.8778587
  94.0431018 109.8702290  37.9479870 102.9371226 121.5609524  41.5698467
 102.7896188 120.6326231  41.7506037 103.7624719 121.5829614  41.0855542
  96.8033470 110.2127591  37.4278959  97.1429543 110.7413512  36.7057567
  97.2505591 110.5507997  38.2037525 106.5405348 122.3838082  42.6563339
 107.4651895 122.1780944  42.5187790 106.3720651 122.1354484  43.5652681
  99.4976911 108.5964641  46.8782027  99.1573731 107.7972455  47.2802707
  98.7915917 108.8966352  46.3058860 100.1493383 105.6813954  45.3309350
 100.9719452 105.2074432  45.2088240 100.3931446 106.4604438  45.8308036
  98.7901617 108.7102212  35.6272251  99.5109980 109.0883465  35.1235968
  98.1666921 109.4291089  35.7307229 102.9332740 109.4147361  36.5630584
 103.1496355 110.2971999  36.2619412 102.4526807 109.0233575  35.8336226
  97.6731962 112.3733075  43.1401328  97.5276542 112.6873378  44.0325610
  97.1957165 112.9917975  42.5872227  99.5328345 109.3635623  43.1882218
  99.5189913 108.4676716  42.8514516 100.2500773 109.3706286  43.8220504
 101.3854475 109.7972963  45.2335345 101.1272253 110.7190033  45.2319676
 100.8539516 109.4003397  45.9235810 106.3300664 122.9023750  38.0125431
 106.5037542 122.3370172  37.2599283 106.8229555 123.7024645  37.8304921
  92.1477624 114.9138419  46.0788990  91.6031092 115.6898227  46.2109264
  93.0256974 115.2609223  45.9208111  98.9365240 108.2450003  38.4569788
  99.0581152 107.3166649  38.6560676  98.6467283 108.2588689  37.5448104
 101.8056431 105.9304913  41.5936508 101.8278128 105.9944246  40.6388487
 102.2224490 105.0909422  41.7877014 112.1840055 115.6660173  39.6315731
 112.6271201 114.9167498  39.2334854 111.3066565 115.6570309  39.2489463
 107.3175836 122.2190514  35.1122329 108.0126741 122.8397207  35.3309644
 107.6598987 121.3685865  35.3874707  92.9343646 114.0408315  48.9719146
  92.1925382 114.1890951  49.5583777  92.6136390 114.3016581  48.1085896
 109.2167260 119.6690220  36.6409660 109.7418584 120.0077493  35.9158980
 109.1289612 118.7337235  36.4572794 100.8787308 123.5824293  48.7699536
 101.1874435 123.3373440  49.6422236 101.6762790 123.7870932  48.2818407
 100.9007920 125.7362203  41.0004913 100.4612911 125.2438582  41.6937770
 101.6516037 125.1935171  40.7596988  93.3800259 121.9273744  41.0029541
  94.2058279 121.6277516  40.6228185  93.0294311 121.1581366  41.4519330
  98.3481793 121.2800212  43.0727215  97.7261802 120.6170917  42.7729443
  99.0186659 121.3061344  42.3900862  91.5808864 119.8460070  41.9618475
  90.7440773 119.4182245  41.7802476  91.5532510 120.0392514  42.8989266
  98.4206320 109.7582000  52.6659721  98.4694475 110.6344123  52.2837490
  98.9628834 109.2159393  52.0931364 108.9061166 120.3023123  51.9460858
 108.1156709 120.2847262  51.4065357 108.6694520 120.8411417  52.7009894
 109.0259041 117.1515590  49.2593586 109.0757046 116.9865597  50.2009109
 108.9172964 116.2842849  48.8691467  97.9095299 119.8304136  36.5485675
  98.0583420 120.5139600  35.8952348  98.7161743 119.8109226  37.0635131
 106.3162803 113.1346518  50.5752893 107.2172666 112.9952983  50.2836891
 106.3910778 113.3000973  51.5151070 100.6505608 110.5113373  49.4206079
  99.7808918 110.8046939  49.1488668 100.8865089 111.0953818  50.1413343
 110.5277238 119.5712531  49.5035608 110.2362046 119.9342512  50.3399069
 109.9149369 118.8579540  49.3248940 111.7272920 117.1365411  42.0238178
 112.5619811 117.5755215  42.1875738 111.8632049 116.6604064  41.2046424
 108.7764426 114.6945146  47.9715666 109.2518547 114.8872792  47.1634517
 107.8529991 114.7504332  47.7259050  95.6647932 115.8569313  37.5546744
  95.4193974 114.9531643  37.7526954  95.8343847 115.8586464  36.6126222
 103.3544642 106.7292990  46.9371500 103.8726586 107.4654016  46.6117988
 102.9999775 107.0356983  47.7718259  94.9343580 111.5897671  35.0532906
  94.2412825 111.6642026  34.3972942  94.6895332 110.8258014  35.5754423
 103.6057236 103.1493272  42.4572396 103.8858990 102.4816461  43.0832823
 104.3907843 103.3422368  41.9447060 101.4090705 122.3252266  34.0197423
 100.8364672 122.9442453  33.5667895 101.9823499 122.8751628  34.5537345
 107.4766095 111.5710906  46.2043971 108.4283518 111.6709004  46.2256195
 107.3069545 110.7789175  46.7142056 105.4980474 108.6566489  46.3903372
 104.9030406 108.9371502  45.6949861 105.2130171 109.1460390  47.1620113
 104.6287965 122.6089416  35.1506005 105.5618638 122.5434978  35.3538880
 104.5411178 123.4445683  34.6920538 107.2575981 121.9255286  32.1109952
 107.1789613 121.5915150  33.0045710 108.0785648 122.4177054  32.1101425
 109.9554173 114.7917026  45.3186271 109.9230493 113.8533026  45.5045955
 110.5654796 114.8701062  44.5852096 101.7937503 113.6613079  31.3613475
 102.7396608 113.5319287  31.4301893 101.4151748 112.9227741  31.8382903
 110.1048661 111.5828069  45.3644554 109.5887710 110.7986526  45.1774483
 110.9888610 111.2546786  45.5291074 107.7659388 105.3269085  41.3240367
 107.5684209 105.0184173  42.2083699 108.3759094 106.0530724  41.4538297
 115.7730722 115.8533033  44.4592308 116.5034111 115.5918321  45.0200011
 115.1637668 115.1161755  44.4994376 113.8546020 113.9940895  45.0566759
 113.1279183 113.8596860  44.4483251 113.4393306 114.3017724  45.8623477
 101.6776196 117.7130825  52.8214132 102.5979205 117.8909424  53.0154179
 101.6425779 116.7686870  52.6693831  99.9780421 111.5863055  31.2968360
  99.0711876 111.2896168  31.3731074 100.2556402 111.2892873  30.4302647
  90.8958361 112.9069419  41.7467407  90.5761145 112.0534727  41.4541781
  90.3491789 113.1217997  42.5025374  94.6738269 115.6231860  45.4636913
  94.8924278 116.5548967  45.4824947  95.0864042 115.2639834  46.2491717
 101.5942486 106.1299945  37.4512602 100.7843215 105.7847030  37.8267848
 102.2826903 105.8207489  38.0400213 103.5233035 105.2077992  39.0736898
 104.0764073 105.6273445  39.7326921 103.7603121 104.2813740  39.1159854
  99.5466134 111.1965065  54.8539662  99.4462861 112.1459422  54.7851753
  99.3287676 110.8683304  53.9815732  98.7479205 108.4449990  31.4380340
  99.6098369 108.7704889  31.6976157  98.9329549 107.6581486  30.9253405
  90.7646621 116.5272330  43.7160528  90.0710092 116.1126283  43.2030483
  91.5119612 116.5692867  43.1193947 106.9011842 107.3178517  38.5815563
 106.3210511 107.9763321  38.1993615 106.6347774 106.4955861  38.1702980
 105.3515408 106.7183574  40.7836883 105.8515186 106.8300109  39.9751202
 105.9951016 106.4144627  41.4237691  99.4097404 114.6262204  53.6704724
  98.9264486 115.4262564  53.8768613  99.4958343 114.6370149  52.7172168
  92.6783363 116.4590584  41.5926543  92.6554052 116.5578271  40.6408426
  92.9884000 117.3055735  41.9143709  95.3370741 118.5166739  45.7073158
  96.2913995 118.4850681  45.6403089  95.1383265 118.0557363  46.5223384
  95.9270123 117.0867855  48.2743955  96.7463012 117.5811934  48.2978793
  96.2006931 116.1699823  48.2461523 105.6836720 109.4778607  37.6371911
 104.7962575 109.7628258  37.4192106 106.0990709 109.3172371  36.7899188
 109.0351256 109.5025128  41.3526250 109.8111646 109.9921581  41.6250867
 108.3099390 109.9283182  41.8098120 111.4723814 110.2152747  42.4100191
 112.0668305 109.9748483  41.6993499 111.5450398 109.4959878  43.0373727
  93.6920970 124.0586358  42.7243356  93.5575438 123.2986759  42.1581354
  93.2753032 124.7827258  42.2572144 104.8279933 119.2423282  31.7319931
 105.5315783 119.4473284  32.3477586 104.1042582 119.8100044  31.9969014
 105.6577743 114.9933143  37.8522201 105.6012945 115.4501695  37.0129833
 106.2106086 114.2323828  37.6745044 109.4682549 110.7822875  38.6772320
 109.2119484 110.3819511  39.5080528 108.8435417 111.4966669  38.5522460
 113.7794887 113.5218948  41.1843612 113.2194445 113.5912138  41.9575174
 113.1738391 113.3459933  40.4643108  96.8490096 124.9555675  42.9361798
  96.7322480 125.9001108  42.8340488  96.0282542 124.6529237  43.3247597
 106.7366631 119.6805811  33.7818391 107.5712235 119.2487010  33.5995866
 106.5750973 119.5087825  34.7095285 106.3912523 116.1837924  35.1474730
 106.3361327 116.0182196  34.2063174 105.7658578 116.8913957  35.3036920
  91.1805038 111.4205989  48.9736152  91.8263901 110.9104943  49.4623378
  90.9722189 112.1574670  49.5479578 103.7058430 118.4886836  54.4728293
 104.5749590 118.6627488  54.1114928 103.2265181 119.3081253  54.3504022
  99.7008648 105.6846033  34.7260049  99.6887318 106.6287873  34.8828319
 100.5932070 105.5016179  34.4319510  97.8744610 125.6083937  46.1517727
  98.7771857 125.6407547  46.4684222  97.6481980 124.6784388  46.1664062
  99.6298212 124.3614924  42.8127805  98.6793843 124.3616785  42.6992178
  99.9330698 123.6147658  42.2963840 103.5160768 102.2788810  38.9805985
 102.7493163 101.7247297  39.1262668 103.9271473 102.3510679  39.8420137
  95.5202529 108.5673606  53.0711167  96.3833990 108.2110411  53.2814491
  94.9467939 108.2287501  53.7586571 115.3650906 130.1975462  43.8773568
 116.0029316 130.0782209  43.1736908 115.2471749 131.1456306  43.9361520
 112.1740612 130.1502890  43.8135092 111.8359123 130.0343955  42.9255627
 113.0430380 129.7494055  43.7936098 108.0327428 132.0038367  39.8031983
 107.4692293 131.9128304  39.0348271 107.9179823 131.1838271  40.2834476
 112.6560395 131.3037742  49.7721298 112.6449036 130.9090540  48.9001801
 112.8181034 130.5703815  50.3655069 105.5791860 133.4989558  42.6416204
 106.3713151 133.1580383  42.2262503 105.8188510 133.6084533  43.5618357
 109.3767656 134.0874854  48.7200482 109.0857522 134.9920485  48.6047148
 110.0124640 134.1291381  49.4344551 110.3023863 131.4651702  45.3101841
 110.8987435 131.2407725  44.5958804 110.3598834 130.7236448  45.9127289
 114.9192174 127.9226916  40.9526776 115.7055263 127.5046339  40.6017193
 115.1830878 128.8273008  41.1208424 120.3200601 127.8602149  41.8559754
 121.0525773 127.2901366  42.0897584 119.5639957 127.4723750  42.2966260
 111.9376721 130.2829391  39.0523097 111.5734928 129.7560012  39.7636018
 112.7943837 129.8927860  38.8789582 117.8426022 121.5723723  46.3154363
 117.5109346 122.4419134  46.0915578 117.2471635 121.2560007  46.9948393
 107.7870023 130.2250066  41.7486980 106.8620519 130.0926280  41.9564672
 108.0354436 131.0044285  42.2456922 117.7354685 126.2918809  43.3947713
 116.8271562 126.2234218  43.1006474 117.6842281 126.7690754  44.2229538
 105.1478834 129.8683340  42.5830769 105.2771215 130.1217819  43.4970181
 104.4676285 130.4611048  42.2635424 111.8095551 127.7108455  51.3382610
 111.0328885 128.2702375  51.3285475 112.4486114 128.1965238  51.8597480
 119.6016331 124.4935248  45.1725587 118.9590712 124.7867781  44.5265381
 119.0971260 124.3788168  45.9778783 110.0641923 130.5193908  50.9000577
 110.8056607 131.0578952  50.6235401 109.3578909 131.1460197  51.0572129
 115.5397263 132.6623049  49.4972739 115.9480619 132.2205459  48.7527371
 114.8174524 132.0875676  49.7506931 111.8928333 127.5995656  46.8706296
 112.7389528 128.0235069  47.0140945 111.8326970 126.9429280  47.5644859
 115.0427778 125.2600024  48.5287469 114.7988710 126.0142085  47.9921745
 115.3187709 125.6385372  49.3634716 114.5992470 124.4156457  44.1101307
 113.7376949 124.7137711  44.4018044 114.6254904 124.6326856  43.1782340
 111.4154039 132.9598648  40.5175113 111.8792385 133.2386351  39.7279735
 111.1510837 132.0582092  40.3348203 108.3078120 132.5070129  43.4554876
 108.8779477 132.9357398  42.8172360 108.8986232 132.2252714  44.1539061
 110.3522925 129.0821800  37.3264678 111.0546969 129.5342844  37.7938604
 110.0203554 128.4405619  37.9544571 108.8003287 127.6733557  51.7015887
 108.1701947 128.3549837  51.9351284 108.6939375 127.5616638  50.7569025
 104.0948259 127.3405353  42.6281811 103.3047313 127.5962881  42.1521922
 104.5859507 128.1553690  42.7333852 106.0463005 127.7049932  39.5865288
 105.2494168 127.8168626  40.1048784 105.8188597 128.0436584  38.7206178
 111.8768672 134.2294635  47.5347803 111.9413105 134.6915042  48.3705974
 111.1679596 133.5992000  47.6630112 102.3785962 127.5935843  45.0596802
 102.6294001 128.4782853  45.3254378 102.9145511 127.4140445  44.2871894
 108.0784030 121.9754322  54.0641138 107.6850975 121.4220521  54.7388782
 108.8950170 122.2864901  54.4547656 105.0446087 133.4138181  37.9754708
 105.5570608 134.2081431  38.1260273 105.6968800 132.7164471  37.9088309
 110.9951991 123.3912202  51.6561395 111.7361704 123.9919355  51.5765857
 111.2269913 122.6489839  51.0979437 106.1393329 128.5768569  49.9339624
 106.0246844 127.6753826  50.2346723 105.2837846 128.8232266  49.5824441
 107.9772287 138.0482111  46.0587804 108.5279713 137.9199174  45.2864797
 107.1383763 138.3477000  45.7082696 111.7739458 134.3133239  50.4032035
 112.3067795 133.5521527  50.1731343 111.2453540 134.0206890  51.1456189
 114.9409153 119.4193304  45.9325676 114.5973423 120.3094946  45.8564787
 115.3088116 119.2294962  45.0695261 103.0095004 131.7426835  38.7514279
 103.8470226 132.1523843  38.5347986 103.1873272 130.8026277  38.7214472
 112.4906547 124.2551616  39.4983350 111.6348144 123.8658467  39.3188989
 112.9033499 124.3343577  38.6383135 114.0205694 121.7897960  43.8974910
 113.5170489 121.7528095  43.0842715 114.3136301 122.6990702  43.9571566
 110.2648580 121.8736689  42.9041091 111.1301576 121.6779498  42.5446981
 110.3326089 121.6447041  43.8310448 107.8710899 124.1038897  40.2757458
 108.4454651 123.8814079  39.5430651 108.4581881 124.1727592  41.0286059
 116.9290476 129.9912624  41.0821835 117.4422358 130.6242616  41.5843544
 117.5791700 129.3913820  40.7165195 110.1733567 120.9780146  39.0032528
 109.5197979 120.6629163  38.3789142 110.1314041 120.3555887  39.7292351
 113.4071307 127.4662080  43.3280175 112.4893868 127.6877027  43.1701863
 113.8231450 127.5408390  42.4691883 116.6385192 125.9010612  40.4401645
 115.9007949 125.3887998  40.7711887 116.8911965 125.4610993  39.6284922
 116.7396819 118.6786864  41.0343414 117.0455696 117.8184227  40.7469329
 117.4649424 119.2704484  40.8342408 103.0321175 129.0817550  39.4225012
 102.8345575 128.4886911  38.6976079 102.4767839 128.7769760  40.1400951
 111.0117899 128.9740657  41.5419605 111.0666509 128.0214493  41.4662082
 110.2009101 129.1300096  42.0260904 108.9510259 127.5917716  39.3009984
 108.1378124 127.8911887  39.7075176 109.4469253 127.1973405  40.0184466
 114.5484470 128.0559541  48.1324878 114.9033858 128.2831014  48.9919344
 115.1956602 128.3877918  47.5102133 108.4424334 125.1636072  44.9171219
 109.0823713 125.0224831  44.2194182 107.6101864 124.8770585  44.5409821
 109.2184637 134.4638502  41.0306211 110.0125236 133.9688823  40.8288786
 108.5076330 133.9356366  40.6673917 105.5267401 128.6081584  37.1065964
 104.5964989 128.5466040  37.3235926 105.6224873 128.0857537  36.3102605
 105.4452950 125.1336397  39.6944206 105.7059767 126.0481730  39.5853366
 106.2670122 124.6660840  39.8440819 106.9177875 126.5474154  46.8643030
 107.5900929 126.3391516  46.2155679 106.0907662 126.3496240  46.4248263
 112.8203447 123.1736095  48.8808691 112.1731362 123.8726045  48.7873168
 113.5904463 123.6072239  49.2484939 112.9967582 131.0116860  46.9405511
 113.9259642 131.1628020  46.7674478 112.5758612 131.1000881  46.0854157
 111.7955913 135.0367524  44.7104049 111.6566999 134.6686309  45.5829987
 111.0070510 135.5515164  44.5388006 113.3461129 134.4149127  42.0992886
 113.0110961 134.3749897  42.9950536 112.8465074 133.7493843  41.6263297
 107.3205373 129.8216757  47.6245467 107.1825170 129.0896996  48.2257006
 108.2310296 129.7325657  47.3429655 109.9487673 129.5336716  47.1129147
 110.6587292 128.8929909  47.0715766 109.9056981 129.7849611  48.0355328
 108.6616607 126.5201934  48.9324787 108.1253964 126.0692673  49.5846383
 108.0733316 126.6547843  48.1895251  99.5921006 130.7667745  41.5892757
 100.2792046 130.4529475  41.0013773  99.4369135 131.6709110  41.3160009
 104.3955728 125.6557942  46.0177781 104.3113917 125.0483612  45.2828191
 103.5738435 126.1466960  46.0187277 114.5679442 124.1411506  41.3847976
 115.0648142 123.3881468  41.0649046 113.7966424 124.1775822  40.8191185
 111.1514411 126.2828889  41.1119661 110.7812199 125.7299929  41.8000566
 111.6473503 125.6787022  40.5594661 117.0098437 121.1081099  43.5327335
 116.0961517 121.3385326  43.7009542 117.4391539 121.1919543  44.3841367
 116.7804896 129.2970991  46.0327229 116.1276346 129.5446898  45.3779682
 117.1585275 128.4835129  45.6989706 112.8292469 130.0390802  52.5193266
 112.1533106 129.9384931  53.1895641 113.6520102 129.8830016  52.9829263
 104.5771328 136.2762739  45.1405781 105.1624764 135.5306427  45.2733686
 104.3796166 136.5866695  46.0242445  99.1688982 128.8468339  43.8610225
  99.2073082 128.3131930  44.6547343  98.6629275 128.3203544  43.2421202
 106.5479745 123.6932879  47.3572767 106.6121071 124.5547710  46.9450164
 106.4846865 123.0806881  46.6245125 106.0232017 125.7656012  51.0045801
 106.6504056 125.3833089  51.6183325 105.1659936 125.5470214  51.3701494
 102.7997560 127.5732441  36.9364156 103.0951001 126.6643119  36.8831210
 101.8985596 127.5520180  36.6145158 106.3291807 125.6488438  42.9191704
 105.6078393 126.2624405  42.7799178 107.1185063 126.1846202  42.8408350
 109.1318121 122.9842864  49.1932356 109.6552522 123.2305161  49.9558666
 108.9130454 123.8162899  48.7735494 104.5285402 125.2546539  37.0603481
 104.1998108 124.3743918  36.8778587 104.8824772 125.1994207  37.9479870
 107.6427225 125.5419508  37.4278959 107.9823297 126.0705430  36.7057567
 108.0899345 125.8799915  38.2037525 110.3370666 123.9256559  46.8782027
 109.9967486 123.1264372  47.2802707 109.6309672 124.2258270  46.3058860
 110.9887137 121.0105872  45.3309350 111.8113207 120.5366350  45.2088240
 111.2325201 121.7896355  45.8308036 109.6295372 124.0394130  35.6272251
 110.3503734 124.4175383  35.1235968 109.0060676 124.7583007  35.7307229
 113.7726495 124.7439279  36.5630584 113.9890109 125.6263917  36.2619412
 113.2920562 124.3525492  35.8336226 108.5125716 127.7024992  43.1401328
 108.3670297 128.0165295  44.0325610 108.0350920 128.3209893  42.5872227
 110.3722099 124.6927540  43.1882218 110.3583668 123.7968634  42.8514516
 111.0894527 124.6998204  43.8220504 112.2248230 125.1264880  45.2335345
 111.9666008 126.0481951  45.2319676 111.6933270 124.7295315  45.9235810
 102.9871378 130.2430337  46.0788990 102.4424846 131.0190145  46.2109264
 103.8650728 130.5901141  45.9208111 109.7758995 123.5741920  38.4569788
 109.8974906 122.6458567  38.6560676 109.4861037 123.5880606  37.5448104
 112.6450185 121.2596831  41.5936508 112.6671882 121.3236164  40.6388487
 113.0618244 120.4201340  41.7877014 103.7737400 129.3700233  48.9719146
 103.0319136 129.5182868  49.5583777 103.4530144 129.6308499  48.1085896
 104.2194014 137.2565662  41.0029541 105.0452034 136.9569433  40.6228185
 103.8688066 136.4873284  41.4519330 109.1875547 136.6092130  43.0727215
 108.5655556 135.9462835  42.7729443 109.8580414 136.6353262  42.3900862
 102.4202619 135.1751988  41.9618475 101.5834527 134.7474162  41.7802476
 102.3926264 135.3684431  42.8989266 109.2600074 125.0873918  52.6659721
 109.3088230 125.9636041  52.2837490 109.8022589 124.5451311  52.0931364
 117.1556558 128.4638436  50.5752893 118.0566420 128.3244900  50.2836891
 117.2304532 128.6292890  51.5151070 111.4899363 125.8405290  49.4206079
 110.6202672 126.1338856  49.1488668 111.7258843 126.4245735  50.1413343
 106.5041687 131.1861231  37.5546744 106.2587729 130.2823561  37.7526954
 106.6737601 131.1878381  36.6126222 114.1938397 122.0584907  46.9371500
 114.7120341 122.7945934  46.6117988 113.8393530 122.3648900  47.7718259
 105.7737334 126.9189588  35.0532906 105.0806579 126.9933943  34.3972942
 105.5289086 126.1549932  35.5754423 114.4450991 118.4785190  42.4572396
 114.7252745 117.8108379  43.0832823 115.2301598 118.6714285  41.9447060
 118.3159849 126.9002824  46.2043971 119.2677272 127.0000921  46.2256195
 118.1463300 126.1081092  46.7142056 116.3374229 123.9858407  46.3903372
 115.7424161 124.2663420  45.6949861 116.0523925 124.4752308  47.1620113
 120.9442416 126.9119987  45.3644554 120.4281464 126.1278443  45.1774483
 121.8282364 126.5838703  45.5291074 118.6053142 120.6561002  41.3240367
 118.4077964 120.3476091  42.2083699 119.2152848 121.3822641  41.4538297
 112.5169950 133.0422743  52.8214132 113.4372960 133.2201342  53.0154179
 112.4819533 132.0978788  52.6693831 101.7352115 128.2361336  41.7467407
 101.4154900 127.3826644  41.4541781 101.1885544 128.4509914  42.5025374
 105.5132023 130.9523777  45.4636913 105.7318033 131.8840885  45.4824947
 105.9257797 130.5931752  46.2491717 112.4336241 121.4591862  37.4512602
 111.6236969 121.1138947  37.8267848 113.1220658 121.1499406  38.0400213
 114.3626789 120.5369909  39.0736898 114.9157828 120.9565363  39.7326921
 114.5996875 119.6105657  39.1159854 110.3859888 126.5256983  54.8539662
 110.2856615 127.4751340  54.7851753 110.1681430 126.1975222  53.9815732
 101.6040375 131.8564248  43.7160528 100.9103847 131.4418200  43.2030483
 102.3513366 131.8984784  43.1193947 117.7405596 122.6470434  38.5815563
 117.1604265 123.3055238  38.1993615 117.4741529 121.8247779  38.1702980
 116.1909163 122.0475492  40.7836883 116.6908941 122.1592027  39.9751202
 116.8344770 121.7436545  41.4237691 110.2491158 129.9554122  53.6704724
 109.7658240 130.7554482  53.8768613 110.3352097 129.9662067  52.7172168
 103.5177118 131.7882501  41.5926543 103.4947806 131.8870189  40.6408426
 103.8277754 132.6347652  41.9143709 106.1764496 133.8458656  45.7073158
 107.1307749 133.8142599  45.6403089 105.9777019 133.3849280  46.5223384
 106.7663878 132.4159773  48.2743955 107.5856767 132.9103851  48.2978793
 107.0400686 131.4991741  48.2461523 116.5230474 124.8070525  37.6371911
 115.6356329 125.0920175  37.4192106 116.9384463 124.6464288  36.7899188
 119.8745010 124.8317046  41.3526250 120.6505400 125.3213498  41.6250867
 119.1493144 125.2575100  41.8098120 122.3117569 125.5444665  42.4100191
 122.9062060 125.3040401  41.6993499 122.3844153 124.8251796  43.0373727
 104.5314725 139.3878276  42.7243356 104.3969193 138.6278677  42.1581354
 104.1146787 140.1119176  42.2572144 102.0198792 126.7497906  48.9736152
 102.6657656 126.2396860  49.4623378 101.8115943 127.4866588  49.5479578
 110.5402403 121.0137951  34.7260049 110.5281073 121.9579791  34.8828319
 111.4325825 120.8308096  34.4319510 114.3554522 117.6080728  38.9805985
 113.5886918 117.0539214  39.1262668 114.7665227 117.6802596  39.8420137
 106.3596283 123.8965523  53.0711167 107.2227745 123.5402328  53.2814491
 105.7861694 123.5579418  53.7586571  37.3428886   6.2205008  38.2572432
  36.8992740   5.4341387  37.9393336  38.0046100   6.4084158  37.5916322
  39.4410124   6.5007808  36.2853833  39.4228599   7.3216689  35.7934102
  40.3630044   6.3761883  36.5103974  35.8983178   4.0151937  37.1277341
  36.4311515   3.2540226  36.8976649  35.3697259   3.7225589  37.8701496
  45.2910856   2.9896903  33.1063670  45.4846746   3.8942714  33.3522945
  45.1911475   2.5304322  33.9402255  40.3525965   3.1403646  38.6804551
  40.2011471   2.9114198  37.7634635  40.3430645   4.0974248  38.6935896
  42.0618172   6.1722769  36.7581033  42.0030718   5.4881989  36.0911616
  42.4637690   6.9141759  36.3061659  42.0635579   4.1362353  34.9895013
  41.1762358   3.7988274  35.1121411  42.6334130   3.4045384  35.2263778
  38.0535416   8.6950639  34.1114414  38.7663388   9.3298104  34.0390316
  37.5625445   8.7914505  33.2954416  36.9536188  -0.2590499  39.2438573
  36.2776825  -0.3596370  39.9140948  37.7763822  -0.4151285  39.7074570
  35.6958971  11.0476428  33.4796189  36.2477279  11.2108050  34.2445274
  36.0365165  11.6380866  32.8076214  40.5469846   5.8737686  39.3344843
  41.0909750   6.4867644  38.8399798  39.9656690   6.4317264  39.8511856
  35.8424783   8.6134910  35.4944843  36.1511909   8.3684057  36.3667543
  36.6400265   8.8181548  35.0063713  43.8698640   5.3333740  38.6706164
  43.0794184   5.3157879  38.1310664  43.6331995   5.8722034  39.4255201
  43.9896515   2.1826206  35.9838893  44.0394520   2.0176214  36.9254416
  43.8810438   1.3153465  35.5936774  41.2800277  -1.8342866  37.2998200
  42.1810140  -1.9736401  37.0082197  41.3548252  -1.6688411  38.2396377
  45.4914712   4.6023148  36.2280914  45.1999520   4.9653128  37.0644375
  44.8786843   3.8890156  36.0494247  36.6413670   2.7441441  39.5459439
  37.5616680   2.9220040  39.7399485  36.6063253   1.7997487  39.3939138
  34.3734878  -0.3427179  40.3950030  33.8901960   0.4573181  40.6013920
  34.4595817  -0.3319235  39.4417474  38.6695904   3.5197453  41.1973600
  39.5387064   3.6938105  40.8360234  38.1902656   4.3391870  41.0749329
  50.3288380  15.2286079  30.6018874  50.9666790  15.1092826  29.8982214
  50.2109223  16.1766923  30.6606826  47.1378086  15.1813507  30.5380399
  46.7996598  15.0654571  29.6500934  48.0067854  14.7804672  30.5181405
  47.6197869  16.3348359  36.4966604  47.6086510  15.9401157  35.6247108
  47.7818509  15.6014431  37.0900376  40.5429334  18.5300175  29.3661510
  41.3350626  18.1890999  28.9507810  40.7825984  18.6395150  30.2863664
  48.5764461  20.7019951  21.8391755  47.9252440  21.2874031  21.4525769
  49.3708823  21.2326146  21.8986792  44.3405130  19.1185470  35.4445788
  44.0494996  20.0231101  35.3292455  44.9762115  19.1601998  36.1589858
  45.2661337  16.4962319  32.0347148  45.8624909  16.2718341  31.3204111
  45.3236309  15.7547064  32.6372596  49.8829648  12.9537533  27.6772082
  50.6692738  12.5356956  27.3262499  50.1468353  13.8583625  27.8453731
  55.2838076  12.8912766  28.5805061  56.0163248  12.3211983  28.8142890
  54.5277431  12.5034366  29.0211566  46.9014195  15.3140007  25.7768403
  46.5372403  14.7870628  26.4881325  47.7581311  14.9238476  25.6034889
  52.8063496   6.6034340  33.0399669  52.4746821   7.4729751  32.8160884
  52.2109109   6.2870624  33.7193700  49.2995015  18.8046886  32.4395582
  48.9995739  19.7071925  32.3311389  48.9546075  18.5379069  33.2916735
  42.7507497  15.2560683  28.4732287  41.8257993  15.1236897  28.6809978
  42.9991910  16.0354902  28.9702229  52.6992159  11.3229426  30.1193019
  51.7909037  11.2544834  29.8251780  52.6479755  11.8001371  30.9474845
  40.1116308  14.8993956  29.3076076  40.2408689  15.1528435  30.2215487
  39.4313759  15.4921664  28.9880731  44.2815795  25.5691206  25.4066550
  44.2039825  26.5199031  25.4855030  43.6777439  25.2237079  26.0641476
  46.7733025  12.7419072  38.0627917  45.9966359  13.3012992  38.0530781
  47.4123588  13.2275855  38.5842787  54.5653806   9.5245864  31.8970893
  53.9228186   9.8178398  31.2510688  54.0608734   9.4098785  32.7024090
  45.0279397  15.5504525  37.6245884  45.7694082  16.0889569  37.3480707
  44.3216383  16.1770814  37.7817436  50.5034737  17.6933665  36.2218045
  50.9118093  17.2516076  35.4772678  49.7811998  17.1186293  36.4752238
  46.8565807  12.6306272  33.5951602  47.7027002  13.0545686  33.7386251
  46.7964445  11.9739897  34.2890165  50.8263552  18.2534856  29.9770334
  50.1972414  18.4180570  29.2746402  50.4389214  18.6676466  30.7481298
  54.7052784  19.1889294  27.3314698  54.0203822  19.5688195  26.7811731
  54.7896633  19.7984621  28.0646646  50.0065252  10.2910641  35.2532776
  49.7626184  11.0452701  34.7167051  50.2825183  10.6695988  36.0880023
  51.9603715  16.8349253  33.9310041  52.1720610  17.4781013  33.2544422
  51.9133463  16.0011569  33.4631971  49.5629944   9.4467074  30.8346614
  48.7014423   9.7448327  31.1263351  49.5892379   9.6637472  29.9027646
  46.3791514  17.9909264  27.2420419  46.8429859  18.2696967  26.4525042
  46.1148312  17.0892709  27.0593510  43.2715595  17.5380746  30.1800182
  43.8416952  17.9668014  29.5417667  43.8623706  17.2563330  30.8784368
  43.7640761  12.7044173  38.4261194  43.1339422  13.3860454  38.6596591
  43.6576849  12.5927255  37.4814332  53.0749543  19.7121208  32.1032399
  53.8966987  19.3101396  31.8215080  53.0711946  19.6089443  33.0548515
  46.8406147  19.2605252  34.2593109  46.9050579  19.7225659  35.0951281
  46.1317070  18.6302617  34.3875419  37.3423437  12.6246460  31.7842109
  37.5931475  13.5093470  32.0499685  37.8782985  12.4451061  31.0117201
  61.1655536  16.0559957  28.4517370  60.4119245  15.4867355  28.2961375
  61.3003077  16.0222621  29.3988005  46.5554164  20.9273359  24.1272090
  46.4199839  21.7724895  24.5556937  47.0963977  21.1292637  23.3638023
  43.0421504   7.0064939  40.7886445  42.6488449   6.4531138  41.4634089
  43.8587644   7.3175517  41.1792962  41.8178446  21.5614553  26.7822768
  41.9945075  22.4832518  26.5943752  42.6135280  21.2472973  27.2117148
  45.9589465   8.4222818  38.3806701  46.6999178   9.0229971  38.3011164
  46.1907388   7.6800456  37.8224744  41.1030803  13.6079185  36.6584931
  40.9884318  12.7064443  36.9592030  40.2475321  13.8542882  36.3069748
  48.1822641  21.5496926  38.2572432  47.7386495  20.7633304  37.9393336
  48.8439854  21.7376076  37.5916322  42.9409762  23.0792727  32.7833110
  43.4917187  22.9509791  32.0110104  42.1021238  23.3787616  32.4328003
  50.2803879  21.8299726  36.2853833  50.2622354  22.6508607  35.7934102
  51.2023799  21.7053801  36.5103974  46.7376933  19.3443855  37.1277341
  47.2705270  18.5832143  36.8976649  46.2091014  19.0517507  37.8701496
  49.9046628   4.4503921  32.6570983  49.5610897   5.3405563  32.5810094
  50.2725590   4.2605579  31.7940568  48.9843168   6.8208576  30.6220216
  48.4807964   6.7838711  29.8088022  49.2773775   7.7301319  30.6816873
  54.8431185  17.1944887  23.0996592  54.0660627  16.8556046  22.6551754
  55.5222666  17.1997510  22.4251557  48.1029646  18.4729848  24.6396153
  47.5751007  17.7382607  24.3269391  47.6017148  19.2504524  24.3936122
  53.0822492  16.6678868  29.7563200  52.4246166  17.3578129  29.8443328
  53.8862891  17.0575300  30.0997186  51.8927950  15.0223241  27.8067141
  52.4059832  15.6553233  28.3088851  52.5429174  14.4224436  27.4410501
  49.1550325  25.0007565  20.5627812  48.4812023  25.3039262  21.1712770
  49.5416147  25.8036645  20.2133270  48.3708781  12.4972696  30.0525482
  47.4531343  12.7187643  29.8947170  48.7868925  12.5719007  29.1937189
  49.1543829  13.8964112  25.1828162  49.9015648  14.4085509  24.8735284
  49.4235418  13.5748165  26.0432556  52.6589747  20.0029242  25.9346284
  52.2052074  19.1620152  25.9911474  52.0283713  20.6390641  26.2721064
  51.6022666  10.9321228  27.1646951  50.8645423  10.4198614  27.4957194
  51.8549440  10.4921610  26.3530228  51.1022686  21.8405739  26.8696102
  51.3945660  22.4010796  26.1508468  51.6121306  22.1334300  27.6249261
  45.9755373  14.0051273  28.2664912  46.0303983  13.0525110  28.1907388
  45.1646575  14.1610712  28.7506210  46.0656311  22.6186090  27.9589555
  46.0232490  22.8446936  27.0298087  46.9819010  22.3849465  28.1075356
  49.5121945  13.0870157  34.8570185  49.8671332  13.3141631  35.7164650
  50.1594076  13.4188534  34.2347440  55.2419682  16.2088593  25.5619514
  55.1037580  16.3990189  24.6340703  54.8855901  16.9707976  26.0187565
  43.4061808  10.1946689  31.6416526  44.0461187  10.0535448  30.9439489
  42.5739338   9.9081202  31.2655128  55.2689061  18.2765120  30.5730785
  55.7025568  18.1840409  31.4213839  55.9820642  18.2522621  29.9350801
  44.1822112  19.4949119  27.7551518  44.9762710  18.9999439  27.5534093
  43.4713804  18.9666982  27.3919224  49.0016956  21.8767214  32.1063886
  49.0553978  22.4458151  32.8741602  48.1331738  22.0469100  31.7417923
  41.8815350  11.5784771  33.5888337  42.5538403  11.3702133  32.9400986
  41.0545136  11.3806857  33.1493569  56.1304611  18.3188821  33.1063670
  56.3240501  19.2234632  33.3522945  56.0305229  17.8596240  33.9402255
  47.7840922   8.2046712  35.6053998  47.1368837   8.9036661  35.5118474
  48.5541937   8.6382856  35.9730246  51.1919720  18.4695564  38.6804551
  51.0405226  18.2406115  37.7634635  51.1824399  19.4266165  38.6935896
  47.9605056  16.0427477  33.6650818  48.8897116  16.1938636  33.4919785
  47.5396086  16.1311497  32.8099464  46.7593388  20.0678141  31.4349355
  46.6204473  19.6996925  32.3075293  45.9707984  20.5825780  31.2633313
  47.3541540  25.1687237  22.7774892  47.5293295  24.6975281  23.5920514
  46.6674328  25.7953004  23.0056152  48.3098603  19.4459744  28.8238193
  47.9748435  19.4060514  29.7195843  47.8102549  18.7804460  28.3508603
  42.2842847  14.8527374  34.3490774  42.1462645  14.1207612  34.9502313
  43.1947770  14.7636274  34.0674962  44.9125148  14.5647333  33.8374454
  45.6224766  13.9240525  33.7961072  44.8694456  14.8160228  34.7600635
  52.9011926  21.5014686  36.7581033  52.8424472  20.8173906  36.0911616
  53.3031445  22.2433676  36.3061659  43.6254081  11.5512551  35.6570093
  43.0891439  11.1003289  36.3091690  43.0370790  11.6858460  34.9140558
  41.9202625  28.3176600  29.5514752  42.1599223  28.9495124  30.2293770
  41.0771821  27.9664640  29.8380111  52.9029333  19.4654270  34.9895013
  52.0156112  19.1280192  35.1121411  53.4727885  18.7337301  35.2263778
  39.3593203  10.6868559  32.7423088  39.2751391  10.0794228  32.0073498
  38.5375909  11.1777577  32.7432584  46.4330487  24.1255723  31.9556256
  46.3600658  24.9310694  32.4675560  45.9907880  24.3247688  31.1304277
  46.2220266  23.3627493  25.4659077  45.4387788  23.9049173  25.5597302
  46.9213012  23.8801472  25.8653319  57.3846674  14.8762488  29.7511574
  57.3736550  15.7587203  29.3805507  56.5164053  14.5234038  29.5566111
  48.8929170  24.0242557  34.1114414  49.6057143  24.6590021  34.0390316
  48.4019199  24.1206423  33.2954416  50.6146697  17.9293809  25.6831706
  49.6802976  18.0495272  25.5136410  50.7923366  17.0266276  25.4191716
  54.0019249  13.7711129  26.2181740  54.4679701  14.6039120  26.1442043
  54.4526749  13.3056110  26.9226999  43.9441084  21.7737000  34.9319985
  44.6450543  22.4073483  35.0849380  43.4736199  22.1151732  34.1715625
  52.0695480  20.1154950  23.2167892  52.3455324  20.0011544  24.1261766
  51.1999978  19.7172435  23.1780065  51.9735911   6.1391716  30.2572642
  51.0598991   6.3695942  30.4254849  52.4029013   6.2230160  31.1086674
  51.7442370  14.3281608  32.7572536  51.0913820  14.5757515  32.1024988
  52.1222750  13.5145746  32.4235013  48.7049544  24.3641301  26.8600706
  48.8871938  23.5462957  27.3228458  49.5282530  24.5808993  26.4225596
  49.0391709  23.2909486  24.1215754  49.5679476  22.7801940  23.5085917
  49.3019929  22.9752016  24.9861287  47.7929943  15.0701419  39.2438573
  47.1170580  14.9695548  39.9140948  48.6157577  14.9140632  39.7074570
  39.5408802  21.3073355  31.8651088  40.1262239  20.5617043  31.9978992
  39.3433640  21.6177312  32.7487752  42.3947457  24.3424603  26.8813530
  41.7257832  24.8270730  26.3977570  42.2560327  24.5893823  27.7956909
  46.5352726  26.3768346  33.4796189  47.0871034  26.5399968  34.2445274
  46.8758919  26.9672784  32.8076214  41.5117219   8.7243496  34.0818073
  41.5758545   9.5858327  33.6695471  41.4484339   8.1117498  33.3490432
  40.9869492  10.7966628  37.7291108  41.6141530  10.4143706  38.3428632
  40.1297410  10.5780830  38.0946800  51.3863600  21.2029604  39.3344843
  51.9303504  21.8159562  38.8399798  50.8050445  21.7609182  39.8511856
  49.6721113  24.3250322  30.4659871  49.5472253  23.5240061  29.9570816
  50.3300204  24.8196515  29.9773841  51.7356021  22.1259342  32.0939421
  50.7886357  22.0064693  32.0217748  52.0838795  21.2381840  32.1765682
  44.0955595   8.0153481  35.9177663  44.6189997   8.2615777  36.6803972
  43.8767928   8.8473515  35.4980800  48.7402455  21.9212058  28.2943773
  48.5927417  20.9928765  28.4751343  49.5655948  21.9432149  27.8100848
  52.3436577  22.7440617  29.3808646  53.2683124  22.5383478  29.2433097
  52.1751880  22.4957018  30.2897987  45.3008140   8.9567176  33.6027333
  44.9604960   8.1574989  34.0048013  44.5947146   9.2568887  33.0304167
  45.9524612   6.0416488  32.0554656  46.7750681   5.5676966  31.9333547
  46.1962675   6.8206972  32.5553343  43.4763190  12.7335609  29.8646635
  43.3307771  13.0475912  30.7570917  42.9988394  13.3520509  29.3117534
  45.3359573   9.7238157  29.9127525  45.3221142   8.8279250  29.5759823
  46.0532001   9.7308820  30.5465811  47.1885704  10.1575497  31.9580652
  46.9303482  11.0792568  31.9564982  46.6570744   9.7605931  32.6481116
  52.1331893  23.2626284  24.7370737  52.3068770  22.6972707  23.9844590
  52.6260784  24.0627179  24.5550227  37.9508853  15.2740953  32.8034296
  37.4062321  16.0500761  32.9354571  38.8288202  15.6211758  32.6453418
  57.9871284  16.0262707  26.3561037  58.4302430  15.2770032  25.9580160
  57.1097794  16.0172843  25.9734769  53.1207065  22.5793048  21.8367636
  53.8157970  23.1999741  22.0554950  53.4630215  21.7288400  22.1120014
  38.7374874  14.4010849  35.6964453  37.9956610  14.5493485  36.2829084
  38.4167619  14.6619115  34.8331202  55.0198488  20.0292754  23.3654966
  55.5449812  20.3680027  22.6404286  54.9320841  19.0939769  23.1818101
  46.6818537  23.9426828  35.4944843  46.9905664  23.6975974  36.3667543
  47.4794019  24.1473466  35.0063713  46.7039149  26.0964737  27.7250220
  46.2644139  25.6041116  28.4183076  47.4547266  25.5537705  27.4842295
  39.1831488  22.2876278  27.7274848  40.0089508  21.9880050  27.3473491
  38.8325540  21.5183901  28.1764636  44.1513021  21.6402746  29.7972521
  43.5293031  20.9773451  29.4974749  44.8217888  21.6663878  29.1146169
  37.3840093  20.2062605  28.6863781  36.5472001  19.7784779  28.5047783
  37.3563739  20.3995048  29.6234573  44.2237549  10.1184534  39.3905027
  44.2725704  10.9946657  39.0082797  44.7660063   9.5761927  38.8176671
  54.7092394  20.6625658  38.6706164  53.9187938  20.6449796  38.1310664
  54.4725749  21.2013951  39.4255201  54.8290270  17.5118124  35.9838893
  54.8788274  17.3468131  36.9254416  54.7204193  16.6445383  35.5936774
  52.1194032  13.4949052  37.2998200  53.0203895  13.3555517  37.0082197
  52.1942006  13.6603507  38.2396377  46.4536837  10.8715907  36.1451386
  45.5840147  11.1649473  35.8733975  46.6896318  11.4556352  36.8658650
  56.3308466  19.9315066  36.2280914  56.0393275  20.2945046  37.0644375
  55.7180598  19.2182074  36.0494247  57.5304149  17.4967945  28.7483485
  58.3651040  17.9357749  28.9121045  57.6663277  17.0206599  27.9291730
  54.5795655  15.0547680  34.6960972  55.0549776  15.2475326  33.8879824
  53.6561220  15.1106866  34.4504356  49.1575871   7.0895524  33.6616806
  49.6757815   7.8256551  33.3363295  48.8031004   7.3959517  34.4963565
  53.2797324  11.9313440  32.9289278  54.2314746  12.0311538  32.9501502
  53.1100774  11.1391709  33.4387362  51.3011703   9.0169023  33.1148679
  50.7061635   9.2974036  32.4195168  51.0161400   9.5062924  33.8865420
  50.4319194  22.9691950  21.8751312  51.3649867  22.9037512  22.0784187
  50.3442406  23.8048217  21.4165844  53.0607210  22.2857821  18.8355259
  52.9820842  21.9517684  19.7291017  53.8816877  22.7779589  18.8346731
  55.7585401  15.1519560  32.0431578  55.7261721  14.2135561  32.2291262
  56.3686025  15.2303597  31.3097403  55.9079890  11.9430603  32.0889861
  55.3918939  11.1589060  31.9019790  56.7919838  11.6149320  32.2536380
  53.5690617   5.6871619  28.0485674  53.3715438   5.3786707  28.9329006
  54.1790322   6.4133258  28.1783603  61.5761951  16.2135567  31.1837615
  62.3065340  15.9520855  31.7445318  60.9668897  15.4764289  31.2239683
  59.6577248  14.3543429  31.7812066  58.9310412  14.2199394  31.1728557
  59.2424535  14.6620258  32.5868784  47.4807425  18.0733359  39.5459439
  48.4010434  18.2511958  39.7399485  47.4457008  17.1289404  39.3939138
  40.4769497  15.9834394  32.1882220  40.6955507  16.9151502  32.2070254
  40.8895271  15.6242368  32.9737024  45.3497363  11.5567599  41.5784969
  45.2494090  12.5061956  41.5097060  45.1318905  11.2285838  40.7061039
  36.5677850  16.8874864  30.4405835  35.8741321  16.4728817  29.9275789
  37.3150841  16.9295401  29.8439254  45.2128633  14.9864738  40.3950030
  44.7295714  15.7865098  40.6013920  45.2989572  14.9972683  39.4417474
  41.1401970  18.8769273  32.4318464  42.0945224  18.8453215  32.3648396
  40.9414494  18.4159897  33.2468690  41.7301352  17.4470389  34.9989262
  42.5494241  17.9414468  35.0224099  42.0038160  16.5302357  34.9706829
  54.8382485   9.8627662  28.0771557  55.6142875  10.3524115  28.3496174
  54.1130619  10.2885717  28.5343426  57.2755043  10.5755282  29.1345497
  57.8699534  10.3351018  28.4238806  57.3481627   9.8562412  29.7619034
  39.4952199  24.4188893  29.4488662  39.3606667  23.6589293  28.8826660
  39.0784261  25.1429792  28.9817451  51.4608972  15.3535677  24.5767508
  51.4044174  15.8104229  23.7375140  52.0137315  14.5926362  24.3990350
  55.2713778  11.1425409  25.4017627  55.0150712  10.7422045  26.2325835
  54.6466646  11.8569203  25.2767766  59.5826116  13.8821482  27.9088919
  59.0225674  13.9514672  28.6820481  58.9769619  13.7062467  27.1888415
  42.6521325  25.3158210  29.6607105  42.5353709  26.2603642  29.5585795
  41.8313771  25.0131771  30.0492904  52.5397859  20.0408345  20.5063697
  53.3743463  19.6089544  20.3241172  52.3782202  19.8690359  21.4340592
  36.9836267  11.7808523  35.6981459  37.6295130  11.2707477  36.1868684
  36.7753418  12.5177205  36.2724884  49.5089659  18.8489370  41.1973600
  50.3780818  19.0230023  40.8360234  49.0296410  19.6683787  41.0749329
  43.6775839  25.9686471  32.8763033  44.5803086  26.0010082  33.1929528
  43.4513209  25.0386922  32.8909369  45.4329441  24.7217458  29.5373112
  44.4825072  24.7219320  29.4237484  45.7361927  23.9750193  29.0209146
  41.3233758   8.9276140  39.7956473  42.1865219   8.5712945  40.0059798
  40.7499168   8.5890035  40.4831878  61.1682134  30.5577996  30.6018874
  61.8060544  30.4384744  29.8982214  61.0502977  31.5058840  30.6606826
  57.9771841  30.5105424  30.5380399  57.6390352  30.3946489  29.6500934
  58.8461609  30.1096590  30.5181405  53.8358656  32.3640901  26.5277290
  53.2723522  32.2730838  25.7593578  53.7211051  31.5440805  27.0079782
  58.4591624  31.6640276  36.4966604  58.4480265  31.2693074  35.6247108
  58.6212263  30.9306349  37.0900376  51.3823088  33.8592092  29.3661510
  52.1744380  33.5182917  28.9507810  51.6219739  33.9687068  30.2863664
  59.4158215  36.0311869  21.8391755  58.7646195  36.6165949  21.4525769
  60.2102578  36.5618063  21.8986792  53.3413842  33.1201006  22.2378889
  54.1144718  32.5729993  22.0991765  53.6939241  33.9845255  22.4493351
  55.1798885  34.4477388  35.4445788  54.8888751  35.3523019  35.3292455
  55.8155869  34.4893916  36.1589858  56.1055092  31.8254237  32.0347148
  56.7018664  31.6010259  31.3204111  56.1630063  31.0838982  32.6372596
  55.6780120  29.2793672  19.8697339  55.9305641  28.7575193  19.1080802
  54.7404679  29.1159817  19.9724023  60.7223403  28.2829450  27.6772082
  61.5086492  27.8648873  27.3262499  60.9862107  29.1875542  27.8453731
  60.8933480  33.7202301  22.3760739  60.2579313  33.7936927  23.0881644
  60.5630887  34.3095899  21.6979818  66.1231830  28.2204683  28.5805061
  66.8557002  27.6503900  28.8142890  65.3671186  27.8326284  29.0211566
  55.3976409  31.1821778  22.0721714  55.2812667  30.5066681  22.7402798
  55.5078669  30.6954152  21.2553867  57.7407950  30.6431925  25.7768403
  57.3766157  30.1162546  26.4881325  58.5975066  30.2530394  25.6034889
  63.6457250  21.9326258  33.0399669  63.3140575  22.8021668  32.8160884
  63.0502864  21.6162542  33.7193700  57.3813437  25.6721825  20.7729752
  57.5487839  26.5402061  21.1400223  57.1910606  25.8349106  19.8491041
  60.1388770  34.1338804  32.4395582  59.8389493  35.0363842  32.3311389
  59.7939829  33.8670987  33.2916735  53.5901251  30.5852600  28.4732287
  52.6651748  30.4528814  28.6809978  53.8385665  31.3646820  28.9702229
  63.5385914  26.6521344  30.1193019  62.6302791  26.5836752  29.8251780
  63.4873510  27.1293289  30.9474845  57.3602658  28.1279482  21.7576419
  57.2402283  28.5736533  22.5961899  56.6655246  28.4764800  21.1989957
  50.9510062  30.2285874  29.3076076  51.0802444  30.4820353  30.2215487
  50.2707514  30.8213582  28.9880731  55.1209550  40.8983124  25.4066550
  55.0433579  41.8490949  25.4855030  54.5171193  40.5528996  26.0641476
  57.6126780  28.0710989  38.0627917  56.8360114  28.6304909  38.0530781
  58.2517343  28.5567772  38.5842787  65.4047560  24.8537782  31.8970893
  64.7621940  25.1470315  31.2510688  64.9002489  24.7390702  32.7024090
  63.0587724  28.6000955  22.5856753  63.9705580  28.8328342  22.4104450
  62.5497371  29.1837999  22.0231831  55.8673152  30.8796443  37.6245884
  56.6087836  31.4181487  37.3480707  55.1610137  31.5062731  37.7817436
  61.3428491  33.0225583  36.2218045  61.7511848  32.5807994  35.4772678
  60.6205753  32.4478211  36.4752238  57.6959562  27.9598190  33.5951602
  58.5420757  28.3837603  33.7386251  57.6358199  27.3031814  34.2890165
  61.6657306  33.5826774  29.9770334  61.0366169  33.7472488  29.2746402
  61.2782968  33.9968383  30.7481298  65.5446538  34.5181212  27.3314698
  64.8597576  34.8980113  26.7811731  65.6290387  35.1276538  28.0646646
  60.8459007  25.6202558  35.2532776  60.6019939  26.3744619  34.7167051
  61.1218937  25.9987906  36.0880023  62.7997470  32.1641171  33.9310041
  63.0114365  32.8072930  33.2544422  62.7527218  31.3303487  33.4631971
  60.4023699  24.7758991  30.8346614  59.5408178  25.0740245  31.1263351
  60.4286133  24.9929390  29.9027646  57.2185268  33.3201182  27.2420419
  57.6823614  33.5988885  26.4525042  56.9542066  32.4184626  27.0593510
  54.1109349  32.8672663  30.1800182  54.6810706  33.2959932  29.5417667
  54.7017461  32.5855248  30.8784368  56.1554154  29.4424334  24.0509984
  56.8578197  29.8945378  24.5183911  55.8234783  28.8008153  24.6789877
  54.6034516  28.0336091  38.4261194  53.9733176  28.7152372  38.6596591
  54.4970603  27.9219172  37.4814332  49.8979488  27.7007887  29.3527118
  49.1078542  27.9565415  28.8767229  50.3890735  28.5156225  29.4579158
  63.9143298  35.0413126  32.1032399  64.7360741  34.6393313  31.8215080
  63.9105700  34.9381360  33.0548515  51.8494233  28.0652466  26.3110595
  51.0525397  28.1771160  26.8294090  51.6219826  28.4039118  25.4451485
  57.6799901  34.5897169  34.2593109  57.7444334  35.0517577  35.0951281
  56.9710825  33.9594534  34.3875419  48.1817191  27.9538377  31.7842109
  48.4325229  28.8385387  32.0499685  48.7176739  27.7742979  31.0117201
  72.0049291  31.3851874  28.4517370  71.2512999  30.8159273  28.2961375
  72.1396832  31.3514539  29.3988005  57.3947919  36.2565277  24.1272090
  57.2593593  37.1016813  24.5556937  57.9357731  36.4584554  23.3638023
  53.8815258  22.3356857  40.7886445  53.4882204  21.7823055  41.4634089
  54.6981399  22.6467435  41.1792962  50.8477316  33.7740715  24.7000015
  51.3601837  34.5683965  24.8505579  51.5000029  33.0767005  24.6333616
  52.6572201  36.8906471  26.7822768  52.8338829  37.8124436  26.5943752
  53.4529034  36.5764890  27.2117148  56.7983219  23.7514736  38.3806701
  57.5392933  24.3521889  38.3011164  57.0301142  23.0092374  37.8224744
  51.9424557  28.9371103  36.6584931  51.8278072  28.0356360  36.9592030
  51.0869075  29.1834800  36.3069748  59.0216395  36.8788843  38.2572432
  58.5780249  36.0925222  37.9393336  59.6833609  37.0667994  37.5916322
  53.7803516  38.4084645  32.7833110  54.3310941  38.2801708  32.0110104
  52.9414992  38.7079534  32.4328003  61.1197633  37.1591643  36.2853833
  61.1016108  37.9800524  35.7934102  62.0417553  37.0345718  36.5103974
  57.5770687  34.6735773  37.1277341  58.1099024  33.9124061  36.8976649
  57.0484768  34.3809425  37.8701496  60.7440382  19.7795839  32.6570983
  60.4004652  20.6697480  32.5810094  61.1119345  19.5897496  31.7940568
  48.8126233  32.1029369  25.4759585  49.6501455  32.5126378  25.2593293
  48.9904501  31.1628811  25.4459779  60.7090665  29.7704450  21.1643418
  60.1937288  30.5409054  21.4031806  60.4367973  29.0969586  21.7876480
  58.2937776  24.6154151  26.2228657  57.4379372  24.2261001  26.0434295
  58.7064728  24.6946111  25.3628442  59.8236923  22.1500494  30.6220216
  59.3201718  22.1130629  29.8088022  60.1167530  23.0593237  30.6816873
  56.0679809  22.2339224  29.6286398  56.9332805  22.0382032  29.2692287
  56.1357317  22.0049575  30.5555755  65.6824939  32.5236804  23.0996592
  64.9054382  32.1847964  22.6551754  66.3616420  32.5289428  22.4251557
  60.4976968  27.6431542  22.9903199  60.1927104  27.9577691  23.8413343
  61.4507410  27.7212962  23.0330532  58.9423400  33.8021765  24.6396153
  58.4144762  33.0674525  24.3269391  58.4410903  34.5796442  24.3936122
  63.9216246  31.9970786  29.7563200  63.2639920  32.6870047  29.8443328
  64.7256645  32.3867218  30.0997186  53.6742128  24.4641431  27.0002765
  54.2485880  24.2416613  26.2675958  54.2613110  24.5330126  27.7531366
  62.7321705  30.3515158  27.8067141  63.2453587  30.9845150  28.3088851
  63.3822929  29.7516354  27.4410501  54.0011715  26.4945893  21.0198650
  53.1649027  26.8320579  21.3407925  53.8616484  26.3594872  20.0825787
  55.9764795  21.3382680  25.7277834  55.3229208  21.0231698  25.1034449
  55.9345269  20.7158421  26.4537657  57.0876000  31.6201975  17.6431126
  56.1803062  31.3891229  17.8422275  57.5847032  30.8239595  17.8305108
  59.9944079  40.3299483  20.5627812  59.3205778  40.6331179  21.1712770
  60.3809901  41.1328563  20.2133270  59.2102536  27.8264614  30.0525482
  58.2925097  28.0479561  29.8947170  59.6262679  27.9010924  29.1937189
  59.9937583  29.2256030  25.1828162  60.7409402  29.7377427  24.8735284
  60.2629173  28.9040082  26.0432556  58.2664234  31.7214570  22.1655116
  57.3575453  31.4373603  22.2627586  58.2959317  32.1413649  21.3058423
  63.4983501  35.3321160  25.9346284  63.0445828  34.4912070  25.9911474
  62.8677468  35.9682558  26.2721064  62.4416421  26.2613146  27.1646951
  61.7039177  25.7490532  27.4957194  62.6943194  25.8213527  26.3530228
  61.9416440  37.1697657  26.8696102  62.2339415  37.7302714  26.1508468
  62.4515061  37.4626218  27.6249261  62.5428048  19.0389398  27.7588721
  62.8486925  18.1786761  27.4714636  63.2680653  19.6307018  27.5587715
  48.8352404  29.4420084  26.1470319  48.6376804  28.8489445  25.4221385
  48.2799068  29.1372295  26.8646257  56.8149128  29.3343191  28.2664912
  56.8697737  28.3817027  28.1907388  56.0040330  29.4902630  28.7506210
  57.9640321  33.2623314  19.5043195  57.5259751  32.5459173  19.0448832
  58.7050762  33.4899429  18.9428286  54.7541488  27.9520251  26.0255291
  53.9409353  28.2514421  26.4320483  55.2500482  27.5575939  26.7429773
  56.9050065  37.9478008  27.9589555  56.8626244  38.1738854  27.0298087
  57.8212764  37.7141382  28.1075356  60.3515699  28.4162075  34.8570185
  60.7065087  28.6433548  35.7164650  60.9987830  28.7480452  34.2347440
  66.0813436  31.5380511  25.5619514  65.9431335  31.7282107  24.6340703
  65.7249655  32.2999894  26.0187565  54.2455562  25.5238606  31.6416526
  54.8854942  25.3827365  30.9439489  53.4133093  25.2373120  31.2655128
  66.1082816  33.6057038  30.5730785  66.5419322  33.5132327  31.4213839
  66.8214397  33.5814539  29.9350801  55.0215866  34.8241037  27.7551518
  55.8156465  34.3291357  27.5534093  54.3107559  34.2958900  27.3919224
  59.8410711  37.2059132  32.1063886  59.8947733  37.7750068  32.8741602
  58.9725492  37.3761017  31.7417923  51.3298630  28.9684118  23.8311271
  50.3996218  28.9068574  24.0481233  51.4256102  28.4460071  23.0347912
  51.2484179  25.4938931  26.4189512  51.5090996  26.4084264  26.3098673
  52.0701351  25.0263374  26.5686125  52.7209104  26.9076688  33.5888337
  53.3932158  26.6994050  32.9400986  51.8938891  26.7098774  33.1493569
  66.9698365  33.6480739  33.1063670  67.1634255  34.5526549  33.3522945
  66.8698984  33.1888158  33.9402255  58.6234676  23.5338629  35.6053998
  57.9762591  24.2328579  35.5118474  59.3935691  23.9674773  35.9730246
  62.0313474  33.7987481  38.6804551  61.8798980  33.5698033  37.7634635
  62.0218154  34.7558083  38.6935896  58.7998810  31.3719394  33.6650818
  59.7290870  31.5230554  33.4919785  58.3789840  31.4603415  32.8099464
  57.5987142  35.3970059  31.4349355  57.4598228  35.0288843  32.3075293
  56.8101738  35.9117698  31.2633313  58.1935294  40.4979155  22.7774892
  58.3687050  40.0267198  23.5920514  57.5068082  41.1244921  23.0056152
  59.1492357  34.7751661  28.8238193  58.8142190  34.7352431  29.7195843
  58.6496303  34.1096377  28.3508603  53.1236601  30.1819291  34.3490774
  52.9856399  29.4499530  34.9502313  54.0341525  30.0928191  34.0674962
  62.0851549  32.1207696  19.0975253  61.4680720  31.3954524  19.0008305
  61.6168037  32.8817056  18.7542327  55.7518902  29.8939251  33.8374454
  56.4618521  29.2532443  33.7961072  55.7088210  30.1452146  34.7600635
  63.7405681  36.8306604  36.7581033  63.6818227  36.1465824  36.0911616
  64.1425199  37.5725594  36.3061659  54.4647836  26.8804469  35.6570093
  53.9285193  26.4295207  36.3091690  53.8764544  27.0150377  34.9140558
  52.7596379  43.6468518  29.5514752  52.9992978  44.2787042  30.2293770
  51.9165576  43.2956558  29.8380111  53.8750095  26.3393120  18.2196557
  52.9979561  26.2181921  17.8558804  54.3507848  25.5479198  17.9675446
  63.7423088  34.7946188  34.9895013  62.8549867  34.4572110  35.1121411
  64.3121639  34.0629219  35.2263778  45.3952235  31.1270280  28.3138064
  46.0823275  30.8132010  27.7259079  45.2400364  32.0311644  28.0405315
  50.1986957  26.0160476  32.7423088  50.1145146  25.4086146  32.0073498
  49.3769664  26.5069495  32.7432584  57.2724241  39.4547640  31.9556256
  57.1994413  40.2602612  32.4675560  56.8301634  39.6539606  31.1304277
  57.0614021  38.6919410  25.4659077  56.2781543  39.2341091  25.5597302
  57.7606766  39.2093390  25.8653319  60.3710671  24.5014040  28.1093283
  60.8679371  23.7484002  27.7894353  59.5997653  24.5378356  27.5436492
  68.2240428  30.2054405  29.7511574  68.2130305  31.0879121  29.3805507
  67.3557808  29.8525956  29.5566111  59.7322925  39.3534474  34.1114414
  60.4450897  39.9881939  34.0390316  59.2412954  39.4498340  33.2954416
  61.4540452  33.2585727  25.6831706  60.5196731  33.3787189  25.5136410
  61.6317120  32.3558194  25.4191716  56.9545640  26.6431423  27.8364967
  56.5843427  26.0902463  28.5245873  57.4504732  26.0389556  27.2839967
  64.8413003  29.1003046  26.2181740  65.3073455  29.9331038  26.1442043
  65.2920504  28.6348028  26.9226999  54.7834838  37.1028918  34.9319985
  55.4844298  37.7365401  35.0849380  54.3129953  37.4443649  34.1715625
  62.9089234  35.4446868  23.2167892  63.1849078  35.3303462  24.1261766
  62.0393733  35.0464352  23.1780065  62.8129666  21.4683633  30.2572642
  61.8992746  21.6987860  30.4254849  63.2422767  21.5522077  31.1086674
  62.5836124  29.6573525  32.7572536  61.9307575  29.9049433  32.1024988
  62.9616504  28.8437663  32.4235013  59.5443298  39.6933218  26.8600706
  59.7265693  38.8754874  27.3228458  60.3676284  39.9100911  26.4225596
  59.8785464  38.6201404  24.1215754  60.4073230  38.1093858  23.5085917
  60.1413683  38.3043934  24.9861287  58.6323697  30.3993336  39.2438573
  57.9564334  30.2987466  39.9140948  59.4551331  30.2432550  39.7074570
  50.3802556  36.6365273  31.8651088  50.9655993  35.8908961  31.9978992
  50.1827395  36.9469230  32.7487752  53.2341212  39.6716520  26.8813530
  52.5651587  40.1562648  26.3977570  53.0954081  39.9185741  27.7956909
  44.9720211  29.2070873  30.5855531  45.0104311  28.6734464  31.3792649
  44.4660504  28.6806079  29.9666508  57.3746480  41.7060264  33.4796189
  57.9264788  41.8691885  34.2445274  57.7152674  42.2964702  32.8076214
  52.3510973  24.0535414  34.0818073  52.4152300  24.9150244  33.6695471
  52.2878094  23.4409415  33.3490432  51.8263246  26.1258546  37.7291108
  52.4535285  25.7435623  38.3428632  50.9691165  25.9072748  38.0946800
  62.2257355  36.5321521  39.3344843  62.7697259  37.1451480  38.8399798
  61.6444199  37.0901100  39.8511856  48.6028789  27.9334975  23.6609463
  48.8982230  27.0245654  23.6076516  47.7016825  27.9122715  23.3390465
  60.5114868  39.6542239  30.4659871  60.3866007  38.8531979  29.9570816
  61.1693959  40.1488433  29.9773841  52.1323036  26.0090972  29.6437011
  51.4109622  26.6226939  29.5044484  52.9216292  26.5448737  29.5653657
  62.5749776  37.4551259  32.0939421  61.6280111  37.3356611  32.0217748
  62.9232549  36.5673757  32.1765682  54.9349349  23.3445398  35.9177663
  55.4583751  23.5907695  36.6803972  54.7161683  24.1765433  35.4980800
  50.3316630  25.6149073  23.7848788  50.0029337  24.7346452  23.6023894
  50.6856001  25.5596742  24.6725177  59.5796209  37.2503976  28.2943773
  59.4321172  36.3220683  28.4751343  60.4049703  37.2724066  27.8100848
  53.4458454  25.9022043  24.1524265  53.7854526  26.4307964  23.4302874
  53.8930574  26.2402449  24.9282832  63.1830331  38.0732534  29.3808646
  64.1076879  37.8675396  29.2433097  63.0145634  37.8248935  30.2897987
  56.1401894  24.2859093  33.6027333  55.7998715  23.4866906  34.0048013
  55.4340901  24.5860804  33.0304167  56.7918366  21.3708406  32.0554656
  57.6144435  20.8968884  31.9333547  57.0356430  22.1498890  32.5553343
  55.4326601  24.3996664  22.3517558  56.1534963  24.7777917  21.8481275
  54.8091905  25.1185541  22.4552536  59.5757724  25.1041813  23.2875890
  59.7921338  25.9866451  22.9864719  59.0951791  24.7128027  22.5581532
  54.3156945  28.0627526  29.8646635  54.1701526  28.3767830  30.7570917
  53.8382149  28.6812427  29.3117534  56.1753328  25.0530074  29.9127525
  56.1614897  24.1571168  29.5759823  56.8925756  25.0600738  30.5465811
  58.0279459  25.4867415  31.9580652  57.7697236  26.4084485  31.9564982
  57.4964499  25.0897849  32.6481116  62.9725647  38.5918202  24.7370737
  63.1462525  38.0264624  23.9844590  63.4654539  39.3919097  24.5550227
  48.7902607  30.6032871  32.8034296  48.2456075  31.3792679  32.9354571
  49.6681957  30.9503675  32.6453418  55.5790224  23.9344455  25.1815095
  55.7006135  23.0061101  25.3805982  55.2892266  23.9483141  24.2693410
  58.4481414  21.6199365  28.3181815  58.4703111  21.6838698  27.3633794
  58.8649473  20.7803874  28.5122321  68.8265038  31.3554625  26.3561037
  69.2696184  30.6061950  25.9580160  67.9491549  31.3464761  25.9734769
  63.9600820  37.9084966  21.8367636  64.6551724  38.5291659  22.0554950
  64.3023970  37.0580317  22.1120014  49.5768629  29.7302767  35.6964453
  48.8350365  29.8785402  36.2829084  49.2561373  29.9911033  34.8331202
  65.8592243  35.3584672  23.3654966  66.3843567  35.6971944  22.6404286
  65.7714595  34.4231687  23.1818101  57.5212292  39.2718745  35.4944843
  57.8299418  39.0267892  36.3667543  58.3187774  39.4765384  35.0063713
  57.5432904  41.4256655  27.7250220  57.1037894  40.9333034  28.4183076
  58.2941021  40.8829623  27.4842295  50.0225243  37.6168196  27.7274848
  50.8483263  37.3171968  27.3473491  49.6719295  36.8475818  28.1764636
  54.9906776  36.9694664  29.7972521  54.3686785  36.3065369  29.4974749
  55.6611643  36.9955796  29.1146169  48.2233848  35.5354522  28.6863781
  47.3865756  35.1076697  28.5047783  48.1957493  35.7286966  29.6234573
  55.0631303  25.4476452  39.3905027  55.1119459  26.3238575  39.0082797
  55.6053817  24.9053845  38.8176671  65.5486149  35.9917575  38.6706164
  64.7581693  35.9741714  38.1310664  65.3119504  36.5305869  39.4255201
  65.6684024  32.8410042  35.9838893  65.7182029  32.6760049  36.9254416
  65.5597947  31.9737301  35.5936774  54.5520283  35.5198587  23.2730982
  54.7008403  36.2034052  22.6197655  55.3586726  35.5003677  23.7880438
  62.9587786  28.8240970  37.2998200  63.8597649  28.6847435  37.0082197
  63.0335761  28.9895425  38.2396377  57.2930592  26.2007824  36.1451386
  56.4233901  26.4941391  35.8733975  57.5290072  26.7848269  36.8658650
  67.1702221  35.2606983  36.2280914  66.8787029  35.6236964  37.0644375
  66.5574352  34.5473992  36.0494247  68.3697903  32.8259863  28.7483485
  69.2044795  33.2649667  28.9121045  68.5057032  32.3498516  27.9291730
  65.4189409  30.3839598  34.6960972  65.8943531  30.5767244  33.8879824
  64.4954974  30.4398784  34.4504356  52.3072916  31.5463765  24.2792051
  52.0618958  30.6426095  24.4772261  52.4768830  31.5480915  23.3371529
  59.9969626  22.4187441  33.6616806  60.5151569  23.1548468  33.3363295
  59.6424758  22.7251435  34.4963565  51.5768563  27.2792123  21.7778212
  50.8837808  27.3536478  21.1218248  51.3320315  26.5152466  22.2999729
  60.2482220  18.8387724  29.1817703  60.5283974  18.1710913  29.8078130
  61.0332827  19.0316820  28.6692367  58.0515688  38.0146718  20.7442729
  57.4789655  38.6336905  20.2913201  58.6248482  38.5646080  21.2782651
  64.1191078  27.2605358  32.9289278  65.0708501  27.3603456  32.9501502
  63.9494528  26.4683626  33.4387362  62.1405458  24.3460941  33.1148679
  61.5455390  24.6265954  32.4195168  61.8555154  24.8354842  33.8865420
  61.2712948  38.2983868  21.8751312  62.2043621  38.2329430  22.0784187
  61.1836161  39.1340135  21.4165844  63.9000965  37.6149738  18.8355259
  63.8214596  37.2809602  19.7291017  64.7210631  38.1071506  18.8346731
  66.5979156  30.4811478  32.0431578  66.5655476  29.5427478  32.2291262
  67.2079780  30.5595514  31.3097403  58.4362487  29.3507531  18.0858782
  59.3821591  29.2213739  18.1547200  58.0576732  28.6122193  18.5628210
  66.7473644  27.2722521  32.0889861  66.2312693  26.4880978  31.9019790
  67.6313593  26.9441238  32.2536380  64.4084371  21.0163537  28.0485674
  64.2109192  20.7078625  28.9329006  65.0184077  21.7425176  28.1783603
  72.4155706  31.5427484  31.1837615  73.1459094  31.2812773  31.7445318
  71.8062651  30.8056206  31.2239683  70.4971003  29.6835347  31.7812066
  69.7704166  29.5491312  31.1728557  70.0818290  29.9912176  32.5868784
  58.3201179  33.4025277  39.5459439  59.2404189  33.5803876  39.7399485
  58.2850762  32.4581322  39.3939138  56.6205404  27.2757507  18.0213667
  55.7136859  26.9790620  18.0976381  56.8981385  26.9787325  17.1547953
  47.5383344  28.5963870  28.4712713  47.2186129  27.7429179  28.1787087
  46.9916772  28.8112449  29.2270681  51.3163252  31.3126311  32.1882220
  51.5349262  32.2443419  32.2070254  51.7289026  30.9534286  32.9737024
  58.2367470  21.8194397  24.1757908  57.4268198  21.4741482  24.5513154
  58.9251887  21.5101940  24.7645520  60.1658018  20.8972444  25.7982205
  60.7189057  21.3167897  26.4572228  60.4028104  19.9708192  25.8405161
  56.1891117  26.8859517  41.5784969  56.0887844  27.8353874  41.5097060
  55.9712659  26.5577756  40.7061039  55.3904189  24.1344442  18.1625646
  56.2523353  24.4599341  18.4221464  55.5754533  23.3475938  17.6498712
  47.4071604  32.2166782  30.4405835  46.7135076  31.8020735  29.9275789
  48.1544595  32.2587318  29.8439254  63.5436825  23.0072969  25.3060869
  62.9635494  23.6657773  24.9238922  63.2772758  22.1850313  24.8948287
  61.9940391  22.4078026  27.5082190  62.4940170  22.5194561  26.6996508
  62.6375999  22.1039079  28.1482998  56.0522387  30.3156656  40.3950030
  55.5689469  31.1157016  40.6013920  56.1383326  30.3264601  39.4417474
  49.3208347  32.1485036  28.3171850  49.2979035  32.2472723  27.3653733
  49.6308983  32.9950186  28.6389016  51.9795725  34.2061191  32.4318464
  52.9338978  34.1745133  32.3648396  51.7808248  33.7451814  33.2468690
  52.5695107  32.7762307  34.9989262  53.3887996  33.2706385  35.0224099
  52.8431915  31.8594275  34.9706829  62.3261703  25.1673059  24.3617217
  61.4387558  25.4522710  24.1437412  62.7415692  25.0066822  23.5144494
  65.6776239  25.1919580  28.0771557  66.4536629  25.6816032  28.3496174
  64.9524373  25.6177634  28.5343426  68.1148798  25.9047199  29.1345497
  68.7093289  25.6642935  28.4238806  68.1875381  25.1854330  29.7619034
  50.3345953  39.7480810  29.4488662  50.2000421  38.9881211  28.8826660
  49.9178016  40.4721710  28.9817451  61.4704916  34.9317734  18.4565237
  62.1740767  35.1367736  19.0722893  60.7467565  35.4994496  18.7214321
  62.3002727  30.6827595  24.5767508  62.2437928  31.1396146  23.7375140
  62.8531069  29.9218280  24.3990350  66.1107533  26.4717327  25.4017627
  65.8544467  26.0713963  26.2325835  65.4860401  27.1861121  25.2767766
  70.4219871  29.2113400  27.9088919  69.8619428  29.2806589  28.6820481
  69.8163374  29.0354385  27.1888415  53.4915079  40.6450127  29.6607105
  53.3747463  41.5895560  29.5585795  52.6707526  40.3423689  30.0492904
  63.3791614  35.3700263  20.5063697  64.2137218  34.9381461  20.3241172
  63.2175957  35.1982277  21.4340592  63.0337506  31.8732376  21.8720037
  62.9786310  31.7076648  20.9308481  62.4083561  32.5808409  22.0282227
  47.8230021  27.1100441  35.6981459  48.4688885  26.5999395  36.1868684
  47.6147172  27.8469122  36.2724884  60.3483413  34.1781288  41.1973600
  61.2174573  34.3521940  40.8360234  59.8690165  34.9975705  41.0749329
  56.3433632  21.3740485  21.4505355  56.3312301  22.3182325  21.6073626
  57.2357053  21.1910631  21.1564816  54.5169593  41.2978389  32.8763033
  55.4196840  41.3301999  33.1929528  54.2906964  40.3678840  32.8909369
  56.2723195  40.0509376  29.5373112  55.3218826  40.0511237  29.4237484
  56.5755682  39.3042110  29.0209146  60.1585751  17.9683262  25.7051292
  59.3918147  17.4141749  25.8507974  60.5696456  18.0405131  26.5665444
  52.1627512  24.2568058  39.7956473  53.0258974  23.9004863  40.0059798
  51.5892923  23.9181953  40.4831878  72.0075889  45.8869914  30.6018874
  72.6454299  45.7676661  29.8982214  71.8896732  46.8350758  30.6606826
  68.8165595  45.8397342  30.5380399  68.4784107  45.7238407  29.6500934
  69.6855363  45.4388507  30.5181405  64.6752411  47.6932819  26.5277290
  64.1117276  47.6022755  25.7593578  64.5604806  46.8732723  27.0079782
  69.2985378  46.9932194  36.4966604  69.2874019  46.5984992  35.6247108
  69.4606018  46.2598266  37.0900376  62.2216843  49.1884010  29.3661510
  63.0138135  48.8474835  28.9507810  62.4613493  49.2978985  30.2863664
  70.2551970  51.3603786  21.8391755  69.6039949  51.9457867  21.4525769
  71.0496332  51.8909981  21.8986792  64.1807597  48.4492923  22.2378889
  64.9538473  47.9021910  22.0991765  64.5332996  49.3137173  22.4493351
  66.0192639  49.7769306  35.4445788  65.7282505  50.6814937  35.3292455
  66.6549624  49.8185833  36.1589858  66.9448846  47.1546154  32.0347148
  67.5412418  46.9302177  31.3204111  67.0023818  46.4130900  32.6372596
  66.5173875  44.6085590  19.8697339  66.7699395  44.0867111  19.1080802
  65.5798434  44.4451735  19.9724023  71.5617157  43.6121368  27.6772082
  72.3480247  43.1940791  27.3262499  71.8255862  44.5167460  27.8453731
  71.7327235  49.0494218  22.3760739  71.0973068  49.1228845  23.0881644
  71.4024641  49.6387817  21.6979818  76.9625585  43.5496601  28.5805061
  77.6950757  42.9795818  28.8142890  76.2064940  43.1618202  29.0211566
  66.2370163  46.5113695  22.0721714  66.1206421  45.8358599  22.7402798
  66.3472423  46.0246069  21.2553867  68.5801704  45.9723843  25.7768403
  68.2159912  45.4454464  26.4881325  69.4368820  45.5822312  25.6034889
  74.4851005  37.2618175  33.0399669  74.1534330  38.1313586  32.8160884
  73.8896618  36.9454459  33.7193700  68.2207191  41.0013742  20.7729752
  68.3881594  41.8693979  21.1400223  68.0304360  41.1641024  19.8491041
  70.9782524  49.4630721  32.4395582  70.6783248  50.3655760  32.3311389
  70.6333584  49.1962904  33.2916735  64.4295006  45.9144518  28.4732287
  63.5045502  45.7820732  28.6809978  64.6779419  46.6938737  28.9702229
  74.3779668  41.9813261  30.1193019  73.4696546  41.9128670  29.8251780
  74.3267264  42.4585206  30.9474845  68.1996412  43.4571400  21.7576419
  68.0796037  43.9028451  22.5961899  67.5049001  43.8056717  21.1989957
  61.7903817  45.5577792  29.3076076  61.9196198  45.8112270  30.2215487
  61.1101268  46.1505500  28.9880731  65.9603304  56.2275042  25.4066550
  65.8827334  57.1782867  25.4855030  65.3564948  55.8820914  26.0641476
  68.4520534  43.4002907  38.0627917  67.6753868  43.9596827  38.0530781
  69.0911097  43.8859690  38.5842787  76.2441315  40.1829700  31.8970893
  75.6015695  40.4762233  31.2510688  75.7396243  40.0682620  32.7024090
  73.8981478  43.9292873  22.5856753  74.8099334  44.1620260  22.4104450
  73.3891125  44.5129917  22.0231831  66.7066906  46.2088360  37.6245884
  67.4481591  46.7473404  37.3480707  66.0003892  46.8354649  37.7817436
  72.1822246  48.3517501  36.2218045  72.5905602  47.9099911  35.4772678
  71.4599507  47.7770128  36.4752238  68.5353316  43.2890108  33.5951602
  69.3814511  43.7129521  33.7386251  68.4751954  42.6323732  34.2890165
  72.5051061  48.9118691  29.9770334  71.8759923  49.0764406  29.2746402
  72.1176723  49.3260301  30.7481298  76.3840293  49.8473129  27.3314698
  75.6991331  50.2272031  26.7811731  76.4684142  50.4568456  28.0646646
  71.6852761  40.9494476  35.2532776  71.4413693  41.7036536  34.7167051
  71.9612692  41.3279824  36.0880023  73.6391224  47.4933088  33.9310041
  73.8508119  48.1364848  33.2544422  73.5920972  46.6595405  33.4631971
  71.2417453  40.1050909  30.8346614  70.3801932  40.4032162  31.1263351
  71.2679888  40.3221308  29.9027646  68.0579022  48.6493099  27.2420419
  68.5217368  48.9280802  26.4525042  67.7935821  47.7476544  27.0593510
  64.9503104  48.1964581  30.1800182  65.5204461  48.6251849  29.5417667
  65.5411215  47.9147166  30.8784368  66.9947909  44.7716252  24.0509984
  67.6971952  45.2237296  24.5183911  66.6628537  44.1300071  24.6789877
  65.4428270  43.3628008  38.4261194  64.8126931  44.0444289  38.6596591
  65.3364358  43.2511090  37.4814332  60.7373243  43.0299805  29.3527118
  59.9472296  43.2857333  28.8767229  61.2284490  43.8448142  29.4579158
  74.7537052  50.3705044  32.1032399  75.5754496  49.9685231  31.8215080
  74.7499455  50.2673278  33.0548515  62.6887988  43.3944384  26.3110595
  61.8919151  43.5063078  26.8294090  62.4613580  43.7331036  25.4451485
  68.5193656  49.9189087  34.2593109  68.5838088  50.3809494  35.0951281
  67.8104579  49.2886452  34.3875419  59.0210945  43.2830295  31.7842109
  59.2718984  44.1677305  32.0499685  59.5570494  43.1034896  31.0117201
  82.8443045  46.7143792  28.4517370  82.0906754  46.1451190  28.2961375
  82.9790586  46.6806457  29.3988005  68.2341673  51.5857194  24.1272090
  68.0987348  52.4308730  24.5556937  68.7751486  51.7876472  23.3638023
  64.7209013  37.6648774  40.7886445  64.3275958  37.1114973  41.4634089
  65.5375153  37.9759353  41.1792962  61.6871071  49.1032633  24.7000015
  62.1995591  49.8975883  24.8505579  62.3393783  48.4058923  24.6333616
  63.4965955  52.2198389  26.7822768  63.6732584  53.1416353  26.5943752
  64.2922789  51.9056808  27.2117148  67.6376974  39.0806653  38.3806701
  68.3786687  39.6813807  38.3011164  67.8694897  38.3384291  37.8224744
  62.7818312  44.2663021  36.6584931  62.6671827  43.3648278  36.9592030
  61.9262830  44.5126717  36.3069748  69.8610150  52.2080761  38.2572432
  69.4174004  51.4217140  37.9393336  70.5227363  52.3959911  37.5916322
  64.6197271  53.7376563  32.7833110  65.1704696  53.6093626  32.0110104
  63.7808747  54.0371452  32.4328003  71.9591388  52.4883561  36.2853833
  71.9409863  53.3092442  35.7934102  72.8811308  52.3637636  36.5103974
  68.4164442  50.0027690  37.1277341  68.9492779  49.2415979  36.8976649
  67.8878523  49.7101342  37.8701496  71.5834137  35.1087756  32.6570983
  71.2398406  35.9989398  32.5810094  71.9513099  34.9189414  31.7940568
  59.6519987  47.4321287  25.4759585  60.4895209  47.8418295  25.2593293
  59.8298255  46.4920729  25.4459779  71.5484419  45.0996367  21.1643418
  71.0331043  45.8700972  21.4031806  71.2761728  44.4261504  21.7876480
  69.1331531  39.9446068  26.2228657  68.2773127  39.5552919  26.0434295
  69.5458482  40.0238029  25.3628442  70.6630677  37.4792412  30.6220216
  70.1595473  37.4422547  29.8088022  70.9561284  38.3885154  30.6816873
  66.9073563  37.5631141  29.6286398  67.7726560  37.3673950  29.2692287
  66.9751072  37.3341493  30.5555755  76.5218694  47.8528722  23.0996592
  75.7448136  47.5139882  22.6551754  77.2010175  47.8581345  22.4251557
  71.3370723  42.9723460  22.9903199  71.0320858  43.2869609  23.8413343
  72.2901165  43.0504879  23.0330532  69.7817154  49.1313683  24.6396153
  69.2538516  48.3966442  24.3269391  69.2804657  49.9088359  24.3936122
  74.7610001  47.3262703  29.7563200  74.1033675  48.0161965  29.8443328
  75.5650400  47.7159135  30.0997186  64.5135882  39.7933349  27.0002765
  65.0879634  39.5708531  26.2675958  65.1006865  39.8622044  27.7531366
  73.5715459  45.6807076  27.8067141  74.0847341  46.3137068  28.3088851
  74.2216683  45.0808272  27.4410501  64.8405469  41.8237810  21.0198650
  64.0042781  42.1612497  21.3407925  64.7010239  41.6886790  20.0825787
  66.8158550  36.6674598  25.7277834  66.1622962  36.3523615  25.1034449
  66.7739024  36.0450339  26.4537657  67.9269755  46.9493893  17.6431126
  67.0196816  46.7183147  17.8422275  68.4240787  46.1531512  17.8305108
  70.8337834  55.6591400  20.5627812  70.1599532  55.9623097  21.1712770
  71.2203656  56.4620481  20.2133270  70.0496290  43.1556532  30.0525482
  69.1318852  43.3771479  29.8947170  70.4656434  43.2302842  29.1937189
  70.8331338  44.5547947  25.1828162  71.5803157  45.0669345  24.8735284
  71.1022927  44.2332000  26.0432556  69.1057988  47.0506488  22.1655116
  68.1969207  46.7665521  22.2627586  69.1353072  47.4705567  21.3058423
  74.3377256  50.6613078  25.9346284  73.8839583  49.8203987  25.9911474
  73.7071222  51.2974476  26.2721064  73.2810175  41.5905064  27.1646951
  72.5432932  41.0782450  27.4957194  73.5336949  41.1505445  26.3530228
  72.7810195  52.4989574  26.8696102  73.0733169  53.0594631  26.1508468
  73.2908815  52.7918135  27.6249261  73.3821802  34.3681316  27.7588721
  73.6880679  33.5078679  27.4714636  74.1074407  34.9598936  27.5587715
  59.6746158  44.7712002  26.1470319  59.4770558  44.1781363  25.4221385
  59.1192822  44.4664212  26.8646257  67.6542882  44.6635109  28.2664912
  67.7091492  43.7108945  28.1907388  66.8434084  44.8194548  28.7506210
  68.8034076  48.5915232  19.5043195  68.3653506  47.8751091  19.0448832
  69.5444517  48.8191347  18.9428286  65.5935242  43.2812168  26.0255291
  64.7803108  43.5806339  26.4320483  66.0894236  42.8867857  26.7429773
  67.7443820  53.2769925  27.9589555  67.7019999  53.5030772  27.0298087
  68.6606519  53.0433300  28.1075356  71.1909454  43.7453993  34.8570185
  71.5458841  43.9725466  35.7164650  71.8381585  44.0772370  34.2347440
  76.9207191  46.8672429  25.5619514  76.7825089  47.0574025  24.6340703
  76.5643409  47.6291812  26.0187565  65.0849317  40.8530524  31.6416526
  65.7248696  40.7119283  30.9439489  64.2526847  40.5665037  31.2655128
  76.9476570  48.9348956  30.5730785  77.3813077  48.8424245  31.4213839
  77.6608151  48.9106456  29.9350801  65.8609621  50.1532954  27.7551518
  66.6550219  49.6583274  27.5534093  65.1501313  49.6250817  27.3919224
  70.6804465  52.5351050  32.1063886  70.7341487  53.1041986  32.8741602
  69.8119247  52.7052935  31.7417923  62.1692384  44.2976036  23.8311271
  61.2389972  44.2360492  24.0481233  62.2649856  43.7751989  23.0347912
  62.0877933  40.8230849  26.4189512  62.3484751  41.7376182  26.3098673
  62.9095106  40.3555291  26.5686125  63.5602859  42.2368606  33.5888337
  64.2325912  42.0285968  32.9400986  62.7332645  42.0390692  33.1493569
  77.8092120  48.9772656  33.1063670  78.0028010  49.8818467  33.3522945
  77.7092738  48.5180075  33.9402255  69.4628431  38.8630547  35.6053998
  68.8156346  39.5620497  35.5118474  70.2329446  39.2966691  35.9730246
  72.8707229  49.1279399  38.6804551  72.7192735  48.8989951  37.7634635
  72.8611908  50.0850001  38.6935896  69.6392565  46.7011312  33.6650818
  70.5684625  46.8522471  33.4919785  69.2183595  46.7895333  32.8099464
  68.4380897  50.7261976  31.4349355  68.2991982  50.3580761  32.3075293
  67.6495493  51.2409616  31.2633313  69.0329049  55.8271073  22.7774892
  69.2080804  55.3559116  23.5920514  68.3461837  56.4536839  23.0056152
  69.9886112  50.1043579  28.8238193  69.6535944  50.0644349  29.7195843
  69.4890058  49.4388295  28.3508603  63.9630356  45.5111209  34.3490774
  63.8250154  44.7791448  34.9502313  64.8735279  45.4220109  34.0674962
  72.9245304  47.4499613  19.0975253  72.3074474  46.7246441  19.0008305
  72.4561792  48.2108974  18.7542327  66.5912656  45.2231168  33.8374454
  67.3012275  44.5824361  33.7961072  66.5481965  45.4744063  34.7600635
  74.5799435  52.1598522  36.7581033  74.5211981  51.4757742  36.0911616
  74.9818954  52.9017512  36.3061659  65.3041590  42.2096386  35.6570093
  64.7678947  41.7587125  36.3091690  64.7158299  42.3442295  34.9140558
  63.5990134  58.9760436  29.5514752  63.8386732  59.6078960  30.2293770
  62.7559330  58.6248476  29.8380111  64.7143849  41.6685038  18.2196557
  63.8373316  41.5473838  17.8558804  65.1901602  40.8771116  17.9675446
  74.5816842  50.1238106  34.9895013  73.6943621  49.7864027  35.1121411
  75.1515394  49.3921137  35.2263778  56.2345990  46.4562197  28.3138064
  56.9217029  46.1423927  27.7259079  56.0794118  47.3603562  28.0405315
  61.0380712  41.3452394  32.7423088  60.9538900  40.7378063  32.0073498
  60.2163418  41.8361412  32.7432584  68.1117996  54.7839558  31.9556256
  68.0388167  55.5894529  32.4675560  67.6695389  54.9831524  31.1304277
  67.9007775  54.0211328  25.4659077  67.1175297  54.5633008  25.5597302
  68.6000521  54.5385308  25.8653319  71.2104426  39.8305957  28.1093283
  71.7073125  39.0775920  27.7894353  70.4391407  39.8670274  27.5436492
  79.0634183  45.5346323  29.7511574  79.0524059  46.4171038  29.3805507
  78.1951562  45.1817874  29.5566111  70.5716679  54.6826392  34.1114414
  71.2844652  55.3173857  34.0390316  70.0806708  54.7790258  33.2954416
  72.2934206  48.5877645  25.6831706  71.3590485  48.7079107  25.5136410
  72.4710875  47.6850111  25.4191716  67.7939394  41.9723340  27.8364967
  67.4237182  41.4194381  28.5245873  68.2898487  41.3681474  27.2839967
  75.6806758  44.4294964  26.2181740  76.1467210  45.2622956  26.1442043
  76.1314258  43.9639946  26.9226999  65.6228593  52.4320835  34.9319985
  66.3238052  53.0657318  35.0849380  65.1523708  52.7735567  34.1715625
  73.7482989  50.7738785  23.2167892  74.0242833  50.6595380  24.1261766
  72.8787487  50.3756270  23.1780065  73.6523420  36.7975551  30.2572642
  72.7386500  37.0279778  30.4254849  74.0816522  36.8813995  31.1086674
  73.4229879  44.9865443  32.7572536  72.7701329  45.2341350  32.1024988
  73.8010259  44.1729581  32.4235013  70.3837053  55.0225136  26.8600706
  70.5659447  54.2046792  27.3228458  71.2070039  55.2392828  26.4225596
  70.7179218  53.9493321  24.1215754  71.2466985  53.4385776  23.5085917
  70.9807438  53.6335851  24.9861287  69.4717452  45.7285254  39.2438573
  68.7958089  45.6279383  39.9140948  70.2945086  45.5724468  39.7074570
  61.2196311  51.9657191  31.8651088  61.8049748  51.2200878  31.9978992
  61.0221149  52.2761147  32.7487752  64.0734966  55.0008438  26.8813530
  63.4045341  55.4854566  26.3977570  63.9347836  55.2477658  27.7956909
  55.8113966  44.5362791  30.5855531  55.8498065  44.0026381  31.3792649
  55.3054259  44.0097996  29.9666508  68.2140235  57.0352181  33.4796189
  68.7658543  57.1983803  34.2445274  68.5546428  57.6256619  32.8076214
  63.1904728  39.3827331  34.0818073  63.2546054  40.2442162  33.6695471
  63.1271848  38.7701333  33.3490432  62.6657001  41.4550464  37.7291108
  63.2929039  41.0727541  38.3428632  61.8084919  41.2364666  38.0946800
  73.0651109  51.8613439  39.3344843  73.6091013  52.4743397  38.8399798
  72.4837954  52.4193017  39.8511856  59.4422543  43.2626893  23.6609463
  59.7375984  42.3537571  23.6076516  58.5410579  43.2414632  23.3390465
  71.3508622  54.9834157  30.4659871  71.2259761  54.1823897  29.9570816
  72.0087713  55.4780350  29.9773841  62.9716790  41.3382889  29.6437011
  62.2503376  41.9518857  29.5044484  63.7610046  41.8740654  29.5653657
  73.4143530  52.7843177  32.0939421  72.4673866  52.6648528  32.0217748
  73.7626304  51.8965675  32.1765682  65.7743104  38.6737316  35.9177663
  66.2977506  38.9199612  36.6803972  65.5555437  39.5057351  35.4980800
  61.1710385  40.9440991  23.7848788  60.8423091  40.0638369  23.6023894
  61.5249756  40.8888659  24.6725177  70.4189964  52.5795893  28.2943773
  70.2714926  51.6512601  28.4751343  71.2443457  52.6015984  27.8100848
  64.2852208  41.2313960  24.1524265  64.6248281  41.7599882  23.4302874
  64.7324328  41.5694366  24.9282832  74.0224086  53.4024452  29.3808646
  74.9470633  53.1967313  29.2433097  73.8539389  53.1540853  30.2897987
  66.9795649  39.6151011  33.6027333  66.6392469  38.8158824  34.0048013
  66.2734655  39.9152722  33.0304167  67.6312121  36.7000323  32.0554656
  68.4538190  36.2260802  31.9333547  67.8750184  37.4790807  32.5553343
  66.2720355  39.7288582  22.3517558  66.9928718  40.1069835  21.8481275
  65.6485659  40.4477459  22.4552536  70.4151478  40.4333731  23.2875890
  70.6315092  41.3158369  22.9864719  69.9345545  40.0419944  22.5581532
  65.1550699  43.3919444  29.8646635  65.0095280  43.7059747  30.7570917
  64.6775903  44.0104344  29.3117534  67.0147082  40.3821992  29.9127525
  67.0008651  39.4863085  29.5759823  67.7319510  40.3892656  30.5465811
  68.8673213  40.8159332  31.9580652  68.6090991  41.7376403  31.9564982
  68.3358253  40.4189767  32.6481116  73.8119402  53.9210119  24.7370737
  73.9856279  53.3556542  23.9844590  74.3048293  54.7211014  24.5550227
  59.6296362  45.9324789  32.8034296  59.0849830  46.7084596  32.9354571
  60.5075711  46.2795593  32.6453418  66.4183978  39.2636372  25.1815095
  66.5399889  38.3353019  25.3805982  66.1286021  39.2775058  24.2693410
  69.2875169  36.9491283  28.3181815  69.3096865  37.0130616  27.3633794
  69.7043228  36.1095791  28.5122321  79.6658793  46.6846542  26.3561037
  80.1089939  45.9353868  25.9580160  78.7885303  46.6756679  25.9734769
  74.7994574  53.2376884  21.8367636  75.4945479  53.8583577  22.0554950
  75.1417724  52.3872235  22.1120014  60.4162383  45.0594685  35.6964453
  59.6744119  45.2077320  36.2829084  60.0955128  45.3202950  34.8331202
  76.6985997  50.6876589  23.3654966  77.2237321  51.0263862  22.6404286
  76.6108350  49.7523605  23.1818101  68.3606046  54.6010663  35.4944843
  68.6693173  54.3559810  36.3667543  69.1581528  54.8057301  35.0063713
  68.3826658  56.7548573  27.7250220  67.9431648  56.2624951  28.4183076
  69.1334775  56.2121540  27.4842295  60.8618997  52.9460113  27.7274848
  61.6877017  52.6463885  27.3473491  60.5113049  52.1767736  28.1764636
  65.8300530  52.2986582  29.7972521  65.2080540  51.6357287  29.4974749
  66.5005397  52.3247714  29.1146169  59.0627602  50.8646440  28.6863781
  58.2259510  50.4368614  28.5047783  59.0351248  51.0578883  29.6234573
  65.9025058  40.7768370  39.3905027  65.9513213  41.6530493  39.0082797
  66.4447572  40.2345763  38.8176671  76.3879903  51.3209493  38.6706164
  75.5975447  51.3033632  38.1310664  76.1513258  51.8597787  39.4255201
  76.5077778  48.1701959  35.9838893  76.5575783  48.0051967  36.9254416
  76.3991702  47.3029218  35.5936774  65.3914037  50.8490505  23.2730982
  65.5402158  51.5325969  22.6197655  66.1980481  50.8295595  23.7880438
  73.7981541  44.1532887  37.2998200  74.6991404  44.0139352  37.0082197
  73.8729515  44.3187342  38.2396377  68.1324346  41.5299742  36.1451386
  67.2627656  41.8233308  35.8733975  68.3683827  42.1140187  36.8658650
  78.0095975  50.5898901  36.2280914  77.7180784  50.9528881  37.0644375
  77.3968107  49.8765909  36.0494247  79.2091658  48.1551781  28.7483485
  80.0438549  48.5941585  28.9121045  79.3450786  47.6790434  27.9291730
  76.2583164  45.7131516  34.6960972  76.7337285  45.9059162  33.8879824
  75.3348729  45.7690701  34.4504356  63.1466670  46.8755683  24.2792051
  62.9012712  45.9718013  24.4772261  63.3162585  46.8772833  23.3371529
  70.8363380  37.7479359  33.6616806  71.3545324  38.4840386  33.3363295
  70.4818513  38.0543352  34.4963565  62.4162318  42.6084040  21.7778212
  61.7231563  42.6828395  21.1218248  62.1714070  41.8444384  22.2999729
  71.0875974  34.1679642  29.1817703  71.3677728  33.5002831  29.8078130
  71.8726581  34.3608737  28.6692367  68.8909443  53.3438636  20.7442729
  68.3183410  53.9628823  20.2913201  69.4642236  53.8937997  21.2782651
  74.9584833  42.5897276  32.9289278  75.9102255  42.6895373  32.9501502
  74.7888283  41.7975544  33.4387362  72.9799212  39.6752859  33.1148679
  72.3849144  39.9557872  32.4195168  72.6948909  40.1646760  33.8865420
  72.1106703  53.6275786  21.8751312  73.0437376  53.5621347  22.0784187
  72.0229915  54.4632052  21.4165844  74.7394719  52.9441656  18.8355259
  74.6608351  52.6101520  19.7291017  75.5604386  53.4363424  18.8346731
  77.4372910  45.8103395  32.0431578  77.4049230  44.8719396  32.2291262
  78.0473534  45.8887432  31.3097403  69.2756241  44.6799448  18.0858782
  70.2215346  44.5505656  18.1547200  68.8970486  43.9414110  18.5628210
  77.5867399  42.6014439  32.0889861  77.0706447  41.8172895  31.9019790
  78.4707347  42.2733155  32.2536380  75.2478126  36.3455454  28.0485674
  75.0502947  36.0370542  28.9329006  75.8577831  37.0717093  28.1783603
  83.2549460  46.8719402  31.1837615  83.9852849  46.6104690  31.7445318
  82.6456406  46.1348124  31.2239683  81.3364757  45.0127265  31.7812066
  80.6097921  44.8783230  31.1728557  80.9212044  45.3204093  32.5868784
  69.1594934  48.7317194  39.5459439  70.0797943  48.9095793  39.7399485
  69.1244517  47.7873240  39.3939138  67.4599158  42.6049425  18.0213667
  66.5530614  42.3082537  18.0976381  67.7375139  42.3079243  17.1547953
  58.3777099  43.9255788  28.4712713  58.0579883  43.0721096  28.1787087
  57.8310527  44.1404366  29.2270681  62.1557006  46.6418229  32.1882220
  62.3743016  47.5735337  32.2070254  62.5682780  46.2826203  32.9737024
  69.0761224  37.1486314  24.1757908  68.2661952  36.8033399  24.5513154
  69.7645641  36.8393858  24.7645520  71.0051772  36.2264361  25.7982205
  71.5582811  36.6459815  26.4572228  71.2421859  35.3000109  25.8405161
  67.0284872  42.2151435  41.5784969  66.9281599  43.1645792  41.5097060
  66.8106414  41.8869674  40.7061039  66.2297943  39.4636360  18.1625646
  67.0917107  39.7891258  18.4221464  66.4148287  38.6767856  17.6498712
  58.2465359  47.5458700  30.4405835  57.5528830  47.1312652  29.9275789
  58.9938350  47.5879236  29.8439254  74.3830579  38.3364886  25.3060869
  73.8029249  38.9949690  24.9238922  74.1166512  37.5142231  24.8948287
  72.8334146  37.7369944  27.5082190  73.3333924  37.8486479  26.6996508
  73.4769754  37.4330997  28.1482998  66.8916142  45.6448574  40.3950030
  66.4083223  46.4448934  40.6013920  66.9777081  45.6556519  39.4417474
  60.1602101  47.4776953  28.3171850  60.1372789  47.5764641  27.3653733
  60.4702738  48.3242104  28.6389016  62.8189479  49.5353108  32.4318464
  63.7732733  49.5037051  32.3648396  62.6202003  49.0743732  33.2468690
  63.4088861  48.1054224  34.9989262  64.2281750  48.5998303  35.0224099
  63.6825669  47.1886193  34.9706829  73.1655457  40.4964977  24.3617217
  72.2781313  40.7814627  24.1437412  73.5809447  40.3358740  23.5144494
  76.5169994  40.5211498  28.0771557  77.2930384  41.0107950  28.3496174
  75.7918128  40.9469552  28.5343426  78.9542552  41.2339117  29.1345497
  79.5487043  40.9934853  28.4238806  79.0269136  40.5146247  29.7619034
  61.1739708  55.0772728  29.4488662  61.0394176  54.3173129  28.8826660
  60.7571770  55.8013628  28.9817451  72.3098671  50.2609651  18.4565237
  73.0134521  50.4659654  19.0722893  71.5861320  50.8286413  18.7214321
  73.1396481  46.0119513  24.5767508  73.0831683  46.4688064  23.7375140
  73.6924824  45.2510197  24.3990350  76.9501287  41.8009245  25.4017627
  76.6938221  41.4005880  26.2325835  76.3254155  42.5153038  25.2767766
  81.2613625  44.5405318  27.9088919  80.7013183  44.6098507  28.6820481
  80.6557128  44.3646302  27.1888415  64.3308834  55.9742045  29.6607105
  64.2141218  56.9187477  29.5585795  63.5101280  55.6715606  30.0492904
  74.2185368  50.6992181  20.5063697  75.0530972  50.2673379  20.3241172
  74.0569711  50.5274194  21.4340592  73.8731261  47.2024294  21.8720037
  73.8180064  47.0368565  20.9308481  73.2477316  47.9100327  22.0282227
  58.6623776  42.4392358  35.6981459  59.3082639  41.9291312  36.1868684
  58.4540927  43.1761040  36.2724884  71.1877168  49.5073206  41.1973600
  72.0568327  49.6813858  40.8360234  70.7083919  50.3267623  41.0749329
  67.1827386  36.7032403  21.4505355  67.1706056  37.6474243  21.6073626
  68.0750808  36.5202548  21.1564816  65.3563348  56.6270307  32.8763033
  66.2590595  56.6593917  33.1929528  65.1300718  55.6970758  32.8909369
  67.1116950  55.3801293  29.5373112  66.1612581  55.3803155  29.4237484
  67.4149436  54.6334028  29.0209146  70.9979505  33.2975180  25.7051292
  70.2311901  32.7433666  25.8507974  71.4090210  33.3697048  26.5665444
  63.0021267  39.5859975  39.7956473  63.8652728  39.2296780  40.0059798
  62.4286677  39.2473870  40.4831878  82.8469643  61.2161832  30.6018874
  83.4848053  61.0968579  29.8982214  82.7290486  62.1642676  30.6606826
  79.6559350  61.1689260  30.5380399  79.3177861  61.0530325  29.6500934
  80.5249118  60.7680425  30.5181405  75.5146165  63.0224736  26.5277290
  74.9511031  62.9314673  25.7593578  75.3998560  62.2024641  27.0079782
  80.1379133  62.3224112  36.4966604  80.1267773  61.9276910  35.6247108
  80.2999772  61.5890184  37.0900376  73.0610597  64.5175928  29.3661510
  73.8531889  64.1766752  28.9507810  73.3007248  64.6270903  30.2863664
  81.0945724  66.6895704  21.8391755  80.4433704  67.2749784  21.4525769
  81.8890087  67.2201899  21.8986792  75.0201351  63.7784841  22.2378889
  75.7932227  63.2313828  22.0991765  75.3726750  64.6429090  22.4493351
  76.8586394  65.1061223  35.4445788  76.5676260  66.0106854  35.3292455
  77.4943378  65.1477751  36.1589858  77.7842601  62.4838072  32.0347148
  78.3806173  62.2594094  31.3204111  77.8417572  61.7422817  32.6372596
  77.3567629  59.9377507  19.8697339  77.6093150  59.4159028  19.1080802
  76.4192188  59.7743653  19.9724023  82.4010912  58.9413286  27.6772082
  83.1874001  58.5232709  27.3262499  82.6649616  59.8459378  27.8453731
  82.5720989  64.3786136  22.3760739  81.9366822  64.4520762  23.0881644
  82.2418396  64.9679735  21.6979818  87.8019339  58.8788519  28.5805061
  88.5344511  58.3087736  28.8142890  87.0458695  58.4910119  29.0211566
  77.0763918  61.8405613  22.0721714  76.9600176  61.1650517  22.7402798
  77.1866178  61.3537987  21.2553867  79.4195459  61.3015760  25.7768403
  79.0553666  60.7746381  26.4881325  80.2762575  60.9114229  25.6034889
  85.3244759  52.5910093  33.0399669  84.9928084  53.4605504  32.8160884
  84.7290373  52.2746377  33.7193700  79.0600946  56.3305660  20.7729752
  79.2275348  57.1985896  21.1400223  78.8698115  56.4932942  19.8491041
  81.8176279  64.7922639  32.4395582  81.5177002  65.6947678  32.3311389
  81.4727338  64.5254822  33.2916735  75.2688760  61.2436436  28.4732287
  74.3439257  61.1112650  28.6809978  75.5173174  62.0230655  28.9702229
  85.2173423  57.3105179  30.1193019  84.3090300  57.2420587  29.8251780
  85.1661019  57.7877124  30.9474845  79.0390167  58.7863317  21.7576419
  78.9189792  59.2320368  22.5961899  78.3442755  59.1348635  21.1989957
  72.6297571  60.8869709  29.3076076  72.7589953  61.1404188  30.2215487
  71.9495023  61.4797417  28.9880731  76.7997059  71.5566959  25.4066550
  76.7221088  72.5074784  25.4855030  76.1958702  71.2112832  26.0641476
  79.2914289  58.7294825  38.0627917  78.5147623  59.2888745  38.0530781
  79.9304852  59.2151608  38.5842787  87.0835069  55.5121617  31.8970893
  86.4409449  55.8054151  31.2510688  86.5789998  55.3974538  32.7024090
  84.7375233  59.2584791  22.5856753  85.6493089  59.4912177  22.4104450
  84.2284880  59.8421835  22.0231831  77.5460661  61.5380278  37.6245884
  78.2875345  62.0765322  37.3480707  76.8397646  62.1646567  37.7817436
  83.0216000  63.6809418  36.2218045  83.4299357  63.2391829  35.4772678
  82.2993262  63.1062046  36.4752238  79.3747071  58.6182025  33.5951602
  80.2208266  59.0421439  33.7386251  79.3145708  57.9615650  34.2890165
  83.3444815  64.2410609  29.9770334  82.7153678  64.4056323  29.2746402
  82.9570477  64.6552219  30.7481298  87.2234047  65.1765047  27.3314698
  86.5385085  65.5563948  26.7811731  87.3077896  65.7860374  28.0646646
  82.5246516  56.2786394  35.2532776  82.2807448  57.0328454  34.7167051
  82.8006446  56.6571741  36.0880023  84.4784979  62.8225006  33.9310041
  84.6901874  63.4656766  33.2544422  84.4314727  61.9887323  33.4631971
  82.0811208  55.4342827  30.8346614  81.2195687  55.7324080  31.1263351
  82.1073642  55.6513225  29.9027646  78.8972777  63.9785017  27.2420419
  79.3611123  64.2572720  26.4525042  78.6329575  63.0768462  27.0593510
  75.7896858  63.5256499  30.1800182  76.3598215  63.9543767  29.5417667
  76.3804970  63.2439083  30.8784368  77.8341663  60.1008170  24.0509984
  78.5365706  60.5529213  24.5183911  77.5022292  59.4591988  24.6789877
  76.2822025  58.6919926  38.4261194  75.6520685  59.3736207  38.6596591
  76.1758112  58.5803008  37.4814332  71.5766997  58.3591722  29.3527118
  70.7866051  58.6149251  28.8767229  72.0678244  59.1740060  29.4579158
  85.5930807  65.6996961  32.1032399  86.4148250  65.2977149  31.8215080
  85.5893209  65.5965196  33.0548515  73.5281742  58.7236301  26.3110595
  72.7312906  58.8354996  26.8294090  73.3007335  59.0622954  25.4451485
  79.3587410  65.2481005  34.2593109  79.4231843  65.7101412  35.0951281
  78.6498334  64.6178370  34.3875419  69.8604700  58.6122213  31.7842109
  70.1112738  59.4969223  32.0499685  70.3964248  58.4326814  31.0117201
  93.6836800  62.0435710  28.4517370  92.9300508  61.4743108  28.2961375
  93.8184341  62.0098374  29.3988005  79.0735428  66.9149112  24.1272090
  78.9381102  67.7600648  24.5556937  79.6145240  67.1168390  23.3638023
  72.5264825  64.4324550  24.7000015  73.0389346  65.2267800  24.8505579
  73.1787538  63.7350841  24.6333616  74.3359710  67.5490306  26.7822768
  74.5126338  68.4708271  26.5943752  75.1316543  67.2348726  27.2117148
  78.4770728  54.4098571  38.3806701  79.2180442  55.0105724  38.3011164
  78.7088651  53.6676209  37.8224744  73.6212066  59.5954938  36.6584931
  73.5065581  58.6940196  36.9592030  72.7656584  59.8418635  36.3069748
  80.7003904  67.5372679  38.2572432  80.2567758  66.7509057  37.9393336
  81.3621118  67.7251829  37.5916322  75.4591025  69.0668480  32.7833110
  76.0098450  68.9385544  32.0110104  74.6202501  69.3663369  32.4328003
  82.7985142  67.8175479  36.2853833  82.7803617  68.6384360  35.7934102
  83.7205062  67.6929554  36.5103974  79.2558196  65.3319608  37.1277341
  79.7886533  64.5707896  36.8976649  78.7272277  65.0393260  37.8701496
  82.4227891  50.4379674  32.6570983  82.0792161  51.3281316  32.5810094
  82.7906854  50.2481332  31.7940568  70.4913742  62.7613204  25.4759585
  71.3288964  63.1710213  25.2593293  70.6692010  61.8212647  25.4459779
  82.3878174  60.4288285  21.1643418  81.8724797  61.1992890  21.4031806
  82.1155482  59.7553421  21.7876480  79.9725285  55.2737986  26.2228657
  79.1166881  54.8844836  26.0434295  80.3852237  55.3529947  25.3628442
  81.5024432  52.8084329  30.6220216  80.9989227  52.7714464  29.8088022
  81.7955038  53.7177072  30.6816873  77.7467318  52.8923059  29.6286398
  78.6120314  52.6965868  29.2692287  77.8144826  52.6633411  30.5555755
  87.3612448  63.1820640  23.0996592  86.5841891  62.8431799  22.6551754
  88.0403929  63.1873263  22.4251557  82.1764477  58.3015377  22.9903199
  81.8714613  58.6161526  23.8413343  83.1294919  58.3796797  23.0330532
  80.6210909  64.4605601  24.6396153  80.0932271  63.7258360  24.3269391
  80.1198412  65.2380277  24.3936122  85.6003755  62.6554621  29.7563200
  84.9427429  63.3453882  29.8443328  86.4044154  63.0451053  30.0997186
  75.3529637  55.1225267  27.0002765  75.9273388  54.9000448  26.2675958
  75.9400619  55.1913961  27.7531366  84.4109214  61.0098994  27.8067141
  84.9241096  61.6428986  28.3088851  85.0610438  60.4100189  27.4410501
  75.6799224  57.1529728  21.0198650  74.8436536  57.4904414  21.3407925
  75.5403993  57.0178708  20.0825787  77.6552304  51.9966516  25.7277834
  77.0016717  51.6815533  25.1034449  77.6132778  51.3742256  26.4537657
  78.7663509  62.2785811  17.6431126  77.8590571  62.0475064  17.8422275
  79.2634541  61.4823430  17.8305108  81.6731588  70.9883318  20.5627812
  80.9993287  71.2915015  21.1712770  82.0597410  71.7912398  20.2133270
  80.8890045  58.4848449  30.0525482  79.9712606  58.7063396  29.8947170
  81.3050188  58.5594760  29.1937189  81.6725092  59.8839865  25.1828162
  82.4196911  60.3961262  24.8735284  81.9416682  59.5623918  26.0432556
  79.9451743  62.3798406  22.1655116  79.0362962  62.0957439  22.2627586
  79.9746826  62.7997484  21.3058423  85.1771010  65.9904995  25.9346284
  84.7233337  65.1495905  25.9911474  84.5464977  66.6266394  26.2721064
  84.1203930  56.9196981  27.1646951  83.3826686  56.4074367  27.4957194
  84.3730703  56.4797363  26.3530228  83.6203949  67.8281492  26.8696102
  83.9126924  68.3886549  26.1508468  84.1302570  68.1210053  27.6249261
  84.2215557  49.6973233  27.7588721  84.5274434  48.8370597  27.4714636
  84.9468162  50.2890853  27.5587715  70.5139913  60.1003920  26.1470319
  70.3164313  59.5073281  25.4221385  69.9586577  59.7956130  26.8646257
  78.4936637  59.9927026  28.2664912  78.5485246  59.0400863  28.1907388
  77.6827839  60.1486465  28.7506210  79.6427830  63.9207149  19.5043195
  79.2047260  63.2043008  19.0448832  80.3838271  64.1483264  18.9428286
  76.4328997  58.6104086  26.0255291  75.6196862  58.9098257  26.4320483
  76.9287991  58.2159775  26.7429773  78.5837574  68.6061843  27.9589555
  78.5413753  68.8322689  27.0298087  79.5000273  68.3725218  28.1075356
  82.0303208  59.0745911  34.8570185  82.3852596  59.3017384  35.7164650
  82.6775339  59.4064287  34.2347440  87.7600945  62.1964346  25.5619514
  87.6218844  62.3865942  24.6340703  87.4037164  62.9583729  26.0187565
  75.9243071  56.1822442  31.6416526  76.5642451  56.0411201  30.9439489
  75.0920602  55.8956955  31.2655128  87.7870325  64.2640873  30.5730785
  88.2206831  64.1716163  31.4213839  88.5001905  64.2398374  29.9350801
  76.7003375  65.4824872  27.7551518  77.4943974  64.9875192  27.5534093
  75.9895068  64.9542735  27.3919224  81.5198220  67.8642968  32.1063886
  81.5735242  68.4333904  32.8741602  80.6513001  68.0344853  31.7417923
  73.0086139  59.6267954  23.8311271  72.0783727  59.5652409  24.0481233
  73.1043611  59.1043906  23.0347912  72.9271688  56.1522767  26.4189512
  73.1878505  57.0668100  26.3098673  73.7488860  55.6847209  26.5686125
  74.3996613  57.5660524  33.5888337  75.0719666  57.3577886  32.9400986
  73.5726400  57.3682610  33.1493569  88.6485874  64.3064574  33.1063670
  88.8421764  65.2110385  33.3522945  88.5486493  63.8471993  33.9402255
  80.3022185  54.1922465  35.6053998  79.6550100  54.8912414  35.5118474
  81.0723200  54.6258609  35.9730246  83.7100983  64.4571317  38.6804551
  83.5586489  64.2281868  37.7634635  83.7005662  65.4141918  38.6935896
  80.4786319  62.0303230  33.6650818  81.4078379  62.1814389  33.4919785
  80.0577349  62.1187250  32.8099464  79.2774651  66.0553894  31.4349355
  79.1385737  65.6872678  32.3075293  78.4889247  66.5701533  31.2633313
  79.8722803  71.1562990  22.7774892  80.0474559  70.6851034  23.5920514
  79.1855591  71.7828757  23.0056152  80.8279866  65.4335497  28.8238193
  80.4929699  65.3936267  29.7195843  80.3283812  64.7680213  28.3508603
  74.8024110  60.8403127  34.3490774  74.6643908  60.1083366  34.9502313
  75.7129034  60.7512027  34.0674962  83.7639058  62.7791531  19.0975253
  83.1468229  62.0538359  19.0008305  83.2955546  63.5400891  18.7542327
  77.4306411  60.5523086  33.8374454  78.1406030  59.9116278  33.7961072
  77.3875719  60.8035981  34.7600635  85.4193190  67.4890439  36.7581033
  85.3605736  66.8049659  36.0911616  85.8212708  68.2309429  36.3061659
  76.1435345  57.5388304  35.6570093  75.6072702  57.0879042  36.3091690
  75.5552053  57.6734213  34.9140558  74.4383888  74.3052353  29.5514752
  74.6780487  74.9370877  30.2293770  73.5953085  73.9540393  29.8380111
  75.5537604  56.9976955  18.2196557  74.6767070  56.8765756  17.8558804
  76.0295357  56.2063034  17.9675446  85.4210597  65.4530023  34.9895013
  84.5337376  65.1155945  35.1121411  85.9909148  64.7213055  35.2263778
  67.0739744  61.7854115  28.3138064  67.7610784  61.4715845  27.7259079
  66.9187873  62.6895480  28.0405315  71.8774466  56.6744312  32.7423088
  71.7932655  56.0669981  32.0073498  71.0557173  57.1653330  32.7432584
  78.9511750  70.1131476  31.9556256  78.8781922  70.9186447  32.4675560
  78.5089143  70.3123441  31.1304277  78.7401530  69.3503246  25.4659077
  77.9569052  69.8924926  25.5597302  79.4394275  69.8677225  25.8653319
  82.0498180  55.1597875  28.1093283  82.5466880  54.4067837  27.7894353
  81.2785162  55.1962192  27.5436492  89.9027937  60.8638241  29.7511574
  89.8917814  61.7462956  29.3805507  89.0345317  60.5109791  29.5566111
  81.4110434  70.0118310  34.1114414  82.1238406  70.6465774  34.0390316
  80.9200462  70.1082176  33.2954416  83.1327961  63.9169562  25.6831706
  82.1984239  64.0371025  25.5136410  83.3104629  63.0142029  25.4191716
  78.6333149  57.3015258  27.8364967  78.2630936  56.7486299  28.5245873
  79.1292241  56.6973392  27.2839967  86.5200512  59.7586882  26.2181740
  86.9860964  60.5914873  26.1442043  86.9708013  59.2931863  26.9226999
  76.4622347  67.7612753  34.9319985  77.1631807  68.3949236  35.0849380
  75.9917462  68.1027485  34.1715625  84.5876743  66.1030703  23.2167892
  84.8636587  65.9887298  24.1261766  83.7181242  65.7048188  23.1780065
  84.4917175  52.1267469  30.2572642  83.5780255  52.3571695  30.4254849
  84.9210276  52.2105913  31.1086674  84.2623633  60.3157361  32.7572536
  83.6095084  60.5633268  32.1024988  84.6404013  59.5021499  32.4235013
  81.2230807  70.3517054  26.8600706  81.4053202  69.5338710  27.3228458
  82.0463793  70.5684746  26.4225596  81.5572973  69.2785239  24.1215754
  82.0860739  68.7677693  23.5085917  81.8201192  68.9627769  24.9861287
  80.3111206  61.0577172  39.2438573  79.6351843  60.9571301  39.9140948
  81.1338840  60.9016385  39.7074570  72.0590065  67.2949108  31.8651088
  72.6443502  66.5492796  31.9978992  71.8614904  67.6053065  32.7487752
  74.9128721  70.3300356  26.8813530  74.2439096  70.8146483  26.3977570
  74.7741590  70.5769576  27.7956909  66.6507720  59.8654708  30.5855531
  66.6891820  59.3318299  31.3792649  66.1448013  59.3389914  29.9666508
  79.0533989  72.3644099  33.4796189  79.6052297  72.5275721  34.2445274
  79.3940183  72.9548537  32.8076214  74.0298482  54.7119249  34.0818073
  74.0939809  55.5734080  33.6695471  73.9665603  54.0993251  33.3490432
  73.5050755  56.7842381  37.7291108  74.1322794  56.4019459  38.3428632
  72.6478674  56.5656583  38.0946800  83.9044864  67.1905357  39.3344843
  84.4484768  67.8035315  38.8399798  83.3231708  67.7484935  39.8511856
  70.2816298  58.5918811  23.6609463  70.5769739  57.6829489  23.6076516
  69.3804334  58.5706550  23.3390465  82.1902377  70.3126075  30.4659871
  82.0653516  69.5115814  29.9570816  82.8481468  70.8072268  29.9773841
  73.8110545  56.6674807  29.6437011  73.0897131  57.2810775  29.5044484
  74.6003801  57.2032572  29.5653657  84.2537285  68.1135095  32.0939421
  83.3067620  67.9940446  32.0217748  84.6020058  67.2257593  32.1765682
  76.6136858  54.0029234  35.9177663  77.1371260  54.2491530  36.6803972
  76.3949192  54.8349268  35.4980800  72.0104139  56.2732908  23.7848788
  71.6816846  55.3930287  23.6023894  72.3643510  56.2180577  24.6725177
  81.2583718  67.9087811  28.2943773  81.1108681  66.9804518  28.4751343
  82.0837212  67.9307902  27.8100848  75.1245963  56.5605878  24.1524265
  75.4642035  57.0891799  23.4302874  75.5718083  56.8986284  24.9282832
  84.8617840  68.7316370  29.3808646  85.7864388  68.5259231  29.2433097
  84.6933143  68.4832771  30.2897987  77.8189403  54.9442929  33.6027333
  77.4786224  54.1450742  34.0048013  77.1128410  55.2444640  33.0304167
  78.4705875  52.0292241  32.0554656  79.2931944  51.5552719  31.9333547
  78.7143939  52.8082725  32.5553343  77.1114110  55.0580500  22.3517558
  77.8322472  55.4361752  21.8481275  76.4879414  55.7769376  22.4552536
  81.2545233  55.7625649  23.2875890  81.4708847  56.6450286  22.9864719
  80.7739300  55.3711862  22.5581532  75.9944454  58.7211362  29.8646635
  75.8489035  59.0351665  30.7570917  75.5169658  59.3396262  29.3117534
  77.8540837  55.7113910  29.9127525  77.8402406  54.8155003  29.5759823
  78.5713265  55.7184574  30.5465811  79.7066968  56.1451250  31.9580652
  79.4484745  57.0668321  31.9564982  79.1752008  55.7481685  32.6481116
  84.6513156  69.2502037  24.7370737  84.8250034  68.6848460  23.9844590
  85.1442048  70.0502932  24.5550227  70.4690116  61.2616706  32.8034296
  69.9243584  62.0376514  32.9354571  71.3469466  61.6087511  32.6453418
  77.2577733  54.5928290  25.1815095  77.3793644  53.6644936  25.3805982
  76.9679775  54.6066976  24.2693410  80.1268923  52.2783200  28.3181815
  80.1490620  52.3422534  27.3633794  80.5436982  51.4387709  28.5122321
  90.5052547  62.0138460  26.3561037  90.9483693  61.2645785  25.9580160
  89.6279058  62.0048596  25.9734769  85.6388329  68.5668802  21.8367636
  86.3339233  69.1875494  22.0554950  85.9811479  67.7164153  22.1120014
  71.2556138  60.3886602  35.6964453  70.5137874  60.5369238  36.2829084
  70.9348882  60.6494868  34.8331202  87.5379752  66.0168507  23.3654966
  88.0631076  66.3555780  22.6404286  87.4502104  65.0815522  23.1818101
  79.1999801  69.9302581  35.4944843  79.5086927  69.6851727  36.3667543
  79.9975283  70.1349219  35.0063713  79.2220413  72.0840490  27.7250220
  78.7825403  71.5916869  28.4183076  79.9728530  71.5413458  27.4842295
  71.7012752  68.2752031  27.7274848  72.5270772  67.9755803  27.3473491
  71.3506804  67.5059654  28.1764636  76.6694285  67.6278499  29.7972521
  76.0474294  66.9649204  29.4974749  77.3399152  67.6539631  29.1146169
  69.9021357  66.1938358  28.6863781  69.0653265  65.7660532  28.5047783
  69.8745002  66.3870801  29.6234573  76.7418812  56.1060287  39.3905027
  76.7906968  56.9822410  39.0082797  77.2841326  55.5637680  38.8176671
  87.2273658  66.6501411  38.6706164  86.4369202  66.6325550  38.1310664
  86.9907013  67.1889704  39.4255201  87.3471533  63.4993877  35.9838893
  87.3969538  63.3343884  36.9254416  87.2385456  62.6321136  35.5936774
  76.2307792  66.1782423  23.2730982  76.3795912  66.8617887  22.6197655
  77.0374235  66.1587513  23.7880438  84.6375295  59.4824805  37.2998200
  85.5385158  59.3431270  37.0082197  84.7123270  59.6479260  38.2396377
  78.9718101  56.8591660  36.1451386  78.1021410  57.1525226  35.8733975
  79.2077581  57.4432105  36.8658650  88.8489730  65.9190819  36.2280914
  88.5574538  66.2820799  37.0644375  88.2361861  65.2057827  36.0494247
  90.0485412  63.4843698  28.7483485  90.8832304  63.9233502  28.9121045
  90.1844541  63.0082352  27.9291730  87.0976918  61.0423433  34.6960972
  87.5731040  61.2351080  33.8879824  86.1742483  61.0982619  34.4504356
  73.9860425  62.2047600  24.2792051  73.7406467  61.3009930  24.4772261
  74.1556339  62.2064751  23.3371529  81.6757135  53.0771277  33.6616806
  82.1939078  53.8132304  33.3363295  81.3212267  53.3835270  34.4963565
  73.2556072  57.9375958  21.7778212  72.5625317  58.0120313  21.1218248
  73.0107824  57.1736302  22.2999729  81.9269729  49.4971559  29.1817703
  82.2071482  48.8294748  29.8078130  82.7120336  49.6900655  28.6692367
  79.7303197  68.6730553  20.7442729  79.1577164  69.2920740  20.2913201
  80.3035991  69.2229915  21.2782651  85.7978587  57.9189193  32.9289278
  86.7496010  58.0187291  32.9501502  85.6282037  57.1267462  33.4387362
  83.8192967  55.0044776  33.1148679  83.2242899  55.2849789  32.4195168
  83.5342663  55.4938677  33.8865420  82.9500457  68.9567703  21.8751312
  83.8831130  68.8913265  22.0784187  82.8623670  69.7923970  21.4165844
  85.5788474  68.2733574  18.8355259  85.5002105  67.9393437  19.7291017
  86.3998140  68.7655342  18.8346731  88.2766665  61.1395313  32.0431578
  88.2442985  60.2011314  32.2291262  88.8867288  61.2179350  31.3097403
  80.1149996  60.0091366  18.0858782  81.0609100  59.8797574  18.1547200
  79.7364241  59.2706028  18.5628210  88.4261153  57.9306356  32.0889861
  87.9100202  57.1464813  31.9019790  89.3101102  57.6025073  32.2536380
  86.0871880  51.6747372  28.0485674  85.8896701  51.3662460  28.9329006
  86.6971586  52.4009011  28.1783603  94.0943215  62.2011320  31.1837615
  94.8246603  61.9396608  31.7445318  93.4850160  61.4640042  31.2239683
  92.1758512  60.3419182  31.7812066  91.4491675  60.2075147  31.1728557
  91.7605799  60.6496011  32.5868784  79.9988688  64.0609112  39.5459439
  80.9191698  64.2387711  39.7399485  79.9638271  63.1165157  39.3939138
  78.2992913  57.9341342  18.0213667  77.3924368  57.6374455  18.0976381
  78.5768894  57.6371160  17.1547953  69.2170853  59.2547706  28.4712713
  68.8973638  58.4013014  28.1787087  68.6704281  59.4696284  29.2270681
  72.9950761  61.9710147  32.1882220  73.2136771  62.9027255  32.2070254
  73.4076535  61.6118121  32.9737024  79.9154979  52.4778232  24.1757908
  79.1055707  52.1325317  24.5513154  80.6039396  52.1685776  24.7645520
  81.8445527  51.5556279  25.7982205  82.3976565  51.9751732  26.4572228
  82.0815613  50.6292027  25.8405161  77.8678626  57.5443352  41.5784969
  77.7675353  58.4937709  41.5097060  77.6500168  57.2161591  40.7061039
  77.0691697  54.7928278  18.1625646  77.9310861  55.1183176  18.4221464
  77.2542042  54.0059773  17.6498712  69.0859113  62.8750617  30.4405835
  68.3922585  62.4604570  29.9275789  69.8332104  62.9171154  29.8439254
  85.2224334  53.6656804  25.3060869  84.6423003  54.3241608  24.9238922
  84.9560267  52.8434149  24.8948287  83.6727900  53.0661862  27.5082190
  84.1727679  53.1778396  26.6996508  84.3163508  52.7622915  28.1482998
  77.7309896  60.9740491  40.3950030  77.2476978  61.7740851  40.6013920
  77.8170835  60.9848436  39.4417474  70.9995856  62.8068871  28.3171850
  70.9766544  62.9056558  27.3653733  71.3096492  63.6534022  28.6389016
  73.6583234  64.8645026  32.4318464  74.6126487  64.8328968  32.3648396
  73.4595757  64.4035650  33.2468690  74.2482616  63.4346142  34.9989262
  75.0675505  63.9290221  35.0224099  74.5219423  62.5178110  34.9706829
  84.0049212  55.8256894  24.3617217  83.1175067  56.1106545  24.1437412
  84.4203201  55.6650658  23.5144494  87.3563748  55.8503415  28.0771557
  88.1324138  56.3399868  28.3496174  86.6311882  56.2761470  28.5343426
  89.7936307  56.5631035  29.1345497  90.3880798  56.3226771  28.4238806
  89.8662890  55.8438165  29.7619034  72.0133462  70.4064646  29.4488662
  71.8787930  69.6465046  28.8826660  71.5965525  71.1305545  28.9817451
  83.1492425  65.5901569  18.4565237  83.8528276  65.7951572  19.0722893
  82.4255074  66.1578331  18.7214321  83.9790236  61.3411430  24.5767508
  83.9225437  61.7979982  23.7375140  84.5318578  60.5802115  24.3990350
  87.7895042  57.1301162  25.4017627  87.5331976  56.7297798  26.2325835
  87.1647910  57.8444956  25.2767766  92.1007379  59.8697235  27.9088919
  91.5406937  59.9390425  28.6820481  91.4950883  59.6938220  27.1888415
  75.1702588  71.3033963  29.6607105  75.0534972  72.2479395  29.5585795
  74.3495035  71.0007524  30.0492904  85.0579123  66.0284098  20.5063697
  85.8924727  65.5965297  20.3241172  84.8963466  65.8566112  21.4340592
  84.7125015  62.5316212  21.8720037  84.6573819  62.3660483  20.9308481
  84.0871070  63.2392244  22.0282227  69.5017530  57.7684276  35.6981459
  70.1476394  57.2583230  36.1868684  69.2934681  58.5052958  36.2724884
  82.0270922  64.8365123  41.1973600  82.8962082  65.0105776  40.8360234
  81.5477674  65.6559540  41.0749329  78.0221140  52.0324321  21.4505355
  78.0099810  52.9766160  21.6073626  78.9144562  51.8494466  21.1564816
  76.1957102  71.9562224  32.8763033  77.0984349  71.9885835  33.1929528
  75.9694473  71.0262675  32.8909369  77.9510704  70.7093211  29.5373112
  77.0006335  70.7095073  29.4237484  78.2543191  69.9625946  29.0209146
  81.8373260  48.6267097  25.7051292  81.0705656  48.0725584  25.8507974
  82.2483965  48.6988966  26.5665444  73.8415021  54.9151893  39.7956473
  74.7046483  54.5588698  40.0059798  73.2680432  54.5765788  40.4831878
  93.6863398  76.5453749  30.6018874  94.3241808  76.4260497  29.8982214
  93.5684241  77.4934593  30.6606826  90.4953104  76.4981177  30.5380399
  90.1571616  76.3822242  29.6500934  91.3642872  76.0972343  30.5181405
  86.3539920  78.3516654  26.5277290  85.7904785  78.2606591  25.7593578
  86.2392315  77.5316558  27.0079782  83.9004352  79.8467845  29.3661510
  84.6925644  79.5058670  28.9507810  84.1401002  79.9562821  30.2863664
  91.9339479  82.0187622  21.8391755  91.2827458  82.6041702  21.4525769
  92.7283841  82.5493817  21.8986792  85.8595106  79.1076759  22.2378889
  86.6325982  78.5605746  22.0991765  86.2120505  79.9721008  22.4493351
  88.6236355  77.8129990  32.0347148  89.2199927  77.5886012  31.3204111
  88.6811327  77.0714735  32.6372596  88.1961384  75.2669425  19.8697339
  88.4486904  74.7450946  19.1080802  87.2585943  75.1035570  19.9724023
  93.2404666  74.2705203  27.6772082  94.0267756  73.8524626  27.3262499
  93.5043371  75.1751295  27.8453731  93.4114744  79.7078054  22.3760739
  92.7760577  79.7812680  23.0881644  93.0812150  80.2971652  21.6979818
  98.6413094  74.2080436  28.5805061  99.3738266  73.6379653  28.8142890
  97.8852449  73.8202037  29.0211566  87.9157672  77.1697531  22.0721714
  87.7993930  76.4942434  22.7402798  88.0259932  76.6829905  21.2553867
  90.2589213  76.6307678  25.7768403  89.8947421  76.1038299  26.4881325
  91.1156329  76.2406147  25.6034889  96.1638514  67.9202011  33.0399669
  95.8321839  68.7897421  32.8160884  95.5684127  67.6038295  33.7193700
  89.8994700  71.6597578  20.7729752  90.0669103  72.5277814  21.1400223
  89.7091869  71.8224859  19.8491041  86.1082515  76.5728353  28.4732287
  85.1833011  76.4404567  28.6809978  86.3566928  77.3522573  28.9702229
  96.0567177  72.6397097  30.1193019  95.1484055  72.5712505  29.8251780
  96.0054773  73.1169042  30.9474845  89.8783921  74.1155235  21.7576419
  89.7583546  74.5612286  22.5961899  89.1836510  74.4640553  21.1989957
  83.4691326  76.2161627  29.3076076  83.5983707  76.4696106  30.2215487
  82.7888777  76.8089335  28.9880731  87.6390813  86.8858877  25.4066550
  87.5614843  87.8366702  25.4855030  87.0352457  86.5404749  26.0641476
  90.1308043  74.0586742  38.0627917  89.3541377  74.6180662  38.0530781
  90.7698606  74.5443525  38.5842787  97.9228824  70.8413535  31.8970893
  97.2803204  71.1346068  31.2510688  97.4183752  70.7266455  32.7024090
  95.5768987  74.5876708  22.5856753  96.4886843  74.8204095  22.4104450
  95.0678634  75.1713753  22.0231831  88.3854415  76.8672196  37.6245884
  89.1269100  77.4057240  37.3480707  87.6791401  77.4938484  37.7817436
  90.2140825  73.9473943  33.5951602  91.0602020  74.3713356  33.7386251
  90.1539463  73.2907567  34.2890165  94.1838570  79.5702527  29.9770334
  93.5547432  79.7348241  29.2746402  93.7964232  79.9844136  30.7481298
  98.0627802  80.5056965  27.3314698  97.3778840  80.8855866  26.7811731
  98.1471651  81.1152291  28.0646646  93.3640270  71.6078311  35.2532776
  93.1201202  72.3620372  34.7167051  93.6400201  71.9863659  36.0880023
  92.9204962  70.7634744  30.8346614  92.0589441  71.0615998  31.1263351
  92.9467397  70.9805143  29.9027646  89.7366531  79.3076935  27.2420419
  90.2004877  79.5864638  26.4525042  89.4723330  78.4060379  27.0593510
  86.6290613  78.8548416  30.1800182  87.1991970  79.2835685  29.5417667
  87.2198724  78.5731001  30.8784368  88.6735418  75.4300087  24.0509984
  89.3759461  75.8821131  24.5183911  88.3416046  74.7883906  24.6789877
  87.1215779  74.0211844  38.4261194  86.4914440  74.7028125  38.6596591
  87.0151867  73.9094925  37.4814332  82.4160751  73.6883640  29.3527118
  81.6259805  73.9441168  28.8767229  82.9071999  74.5031978  29.4579158
  96.4324561  81.0288879  32.1032399  97.2542005  80.6269066  31.8215080
  96.4286964  80.9257113  33.0548515  84.3675497  74.0528219  26.3110595
  83.5706660  74.1646913  26.8294090  84.1401089  74.3914871  25.4451485
  80.6998454  73.9414130  31.7842109  80.9506493  74.8261140  32.0499685
  81.2358003  73.7618732  31.0117201 104.5230554  77.3727628  28.4517370
 103.7694262  76.8035026  28.2961375 104.6578095  77.3390292  29.3988005
  89.9129182  82.2441030  24.1272090  89.7774857  83.0892566  24.5556937
  90.4538995  82.4460307  23.3638023  86.3996522  68.3232610  40.7886445
  86.0063467  67.7698808  41.4634089  87.2162662  68.6343188  41.1792962
  83.3658580  79.7616468  24.7000015  83.8783100  80.5559718  24.8505579
  84.0181292  79.0642758  24.6333616  85.1753464  82.8782224  26.7822768
  85.3520093  83.8000189  26.5943752  85.9710298  82.5640643  27.2117148
  89.3164483  69.7390489  38.3806701  90.0574196  70.3397642  38.3011164
  89.5482406  68.9968127  37.8224744  84.4605821  74.9246856  36.6584931
  84.3459336  74.0232113  36.9592030  83.6050339  75.1710553  36.3069748
  93.2621646  65.7671592  32.6570983  92.9185915  66.6573233  32.5810094
  93.6300608  65.5773249  31.7940568  81.3307496  78.0905122  25.4759585
  82.1682718  78.5002131  25.2593293  81.5085764  77.1504564  25.4459779
  93.2271928  75.7580203  21.1643418  92.7118552  76.5284807  21.4031806
  92.9549237  75.0845339  21.7876480  90.8119039  70.6029904  26.2228657
  89.9560636  70.2136754  26.0434295  91.2245991  70.6821864  25.3628442
  92.3418186  68.1376247  30.6220216  91.8382982  68.1006382  29.8088022
  92.6348793  69.0468990  30.6816873  88.5861072  68.2214977  29.6286398
  89.4514069  68.0257785  29.2692287  88.6538581  67.9925328  30.5555755
  98.2006203  78.5112557  23.0996592  97.4235645  78.1723717  22.6551754
  98.8797684  78.5165181  22.4251557  93.0158232  73.6307295  22.9903199
  92.7108367  73.9453444  23.8413343  93.9688674  73.7088715  23.0330532
  91.4604663  79.7897518  24.6396153  90.9326025  79.0550278  24.3269391
  90.9592166  80.5672195  24.3936122  96.4397509  77.9846539  29.7563200
  95.7821184  78.6745800  29.8443328  97.2437909  78.3742971  30.0997186
  86.1923391  70.4517185  27.0002765  86.7667143  70.2292366  26.2675958
  86.7794374  70.5205879  27.7531366  95.2502968  76.3390911  27.8067141
  95.7634850  76.9720903  28.3088851  95.9004192  75.7392107  27.4410501
  86.5192978  72.4821646  21.0198650  85.6830290  72.8196332  21.3407925
  86.3797748  72.3470625  20.0825787  88.4946059  67.3258433  25.7277834
  87.8410471  67.0107451  25.1034449  88.4526533  66.7034174  26.4537657
  89.6057264  77.6077728  17.6431126  88.6984325  77.3766982  17.8422275
  90.1028296  76.8115348  17.8305108  92.5125343  86.3175236  20.5627812
  91.8387041  86.6206932  21.1712770  92.8991164  87.1204316  20.2133270
  91.7283799  73.8140367  30.0525482  90.8106361  74.0355314  29.8947170
  92.1443943  73.8886677  29.1937189  92.5118847  75.2131783  25.1828162
  93.2590666  75.7253180  24.8735284  92.7810436  74.8915835  26.0432556
  90.7845497  77.7090323  22.1655116  89.8756716  77.4249356  22.2627586
  90.8140581  78.1289402  21.3058423  96.0164764  81.3196913  25.9346284
  95.5627092  80.4787823  25.9911474  95.3858731  81.9558311  26.2721064
  94.9597684  72.2488899  27.1646951  94.2220441  71.7366285  27.4957194
  95.2124458  71.8089281  26.3530228  94.4597704  83.1573410  26.8696102
  94.7520678  83.7178467  26.1508468  94.9696324  83.4501971  27.6249261
  95.0609311  65.0265151  27.7588721  95.3668188  64.1662514  27.4714636
  95.7861916  65.6182771  27.5587715  81.3533667  75.4295837  26.1470319
  81.1558067  74.8365198  25.4221385  80.7980331  75.1248048  26.8646257
  89.3330391  75.3218944  28.2664912  89.3879001  74.3692780  28.1907388
  88.5221593  75.4778383  28.7506210  90.4821585  79.2499067  19.5043195
  90.0441015  78.5334926  19.0448832  91.2232026  79.4775182  18.9428286
  87.2722751  73.9396004  26.0255291  86.4590617  74.2390174  26.4320483
  87.7681745  73.5451692  26.7429773  89.4231329  83.9353761  27.9589555
  89.3807508  84.1614607  27.0298087  90.3394028  83.7017135  28.1075356
  92.8696963  74.4037828  34.8570185  93.2246350  74.6309301  35.7164650
  93.5169094  74.7356205  34.2347440  98.5994700  77.5256264  25.5619514
  98.4612598  77.7157860  24.6340703  98.2430918  78.2875647  26.0187565
  86.7636826  71.5114359  31.6416526  87.4036205  71.3703118  30.9439489
  85.9314356  71.2248873  31.2655128  98.6264079  79.5932791  30.5730785
  99.0600586  79.5008080  31.4213839  99.3395660  79.5690292  29.9350801
  87.5397130  80.8116790  27.7551518  88.3337728  80.3167110  27.5534093
  86.8288822  80.2834653  27.3919224  92.3591974  83.1934885  32.1063886
  92.4128996  83.7625822  32.8741602  91.4906756  83.3636770  31.7417923
  83.8479893  74.9559871  23.8311271  82.9177481  74.8944327  24.0481233
  83.9437365  74.4335824  23.0347912  83.7665442  71.4814684  26.4189512
  84.0272260  72.3960017  26.3098673  84.5882615  71.0139127  26.5686125
  85.2390368  72.8952441  33.5888337  85.9113421  72.6869804  32.9400986
  84.4120154  72.6974527  33.1493569  91.1415940  69.5214382  35.6053998
  90.4943855  70.2204332  35.5118474  91.9116955  69.9550526  35.9730246
  91.3180074  77.3595147  33.6650818  92.2472134  77.5106307  33.4919785
  90.8971104  77.4479168  32.8099464  90.1168406  81.3845812  31.4349355
  89.9779491  81.0164596  32.3075293  89.3283002  81.8993451  31.2633313
  90.7116558  86.4854908  22.7774892  90.8868313  86.0142951  23.5920514
  90.0249346  87.1120674  23.0056152  91.6673621  80.7627414  28.8238193
  91.3323453  80.7228184  29.7195843  91.1677567  80.0972130  28.3508603
  85.6417865  76.1695044  34.3490774  85.5037663  75.4375283  34.9502313
  86.5522788  76.0803944  34.0674962  94.6032812  78.1083449  19.0975253
  93.9861983  77.3830277  19.0008305  94.1349301  78.8692809  18.7542327
  88.2700165  75.8815004  33.8374454  88.9799784  75.2408196  33.7961072
  88.2269474  76.1327899  34.7600635  86.9829099  72.8680222  35.6570093
  86.4466456  72.4170960  36.3091690  86.3945808  73.0026130  34.9140558
  85.2777643  89.6344271  29.5514752  85.5174241  90.2662795  30.2293770
  84.4346839  89.2832311  29.8380111  86.3931358  72.3268873  18.2196557
  85.5160825  72.2057674  17.8558804  86.8689111  71.5354951  17.9675446
  77.9133499  77.1146033  28.3138064  78.6004538  76.8007763  27.7259079
  77.7581627  78.0187397  28.0405315  82.7168221  72.0036229  32.7423088
  82.6326409  71.3961899  32.0073498  81.8950927  72.4945248  32.7432584
  89.5795284  84.6795163  25.4659077  88.7962806  85.2216844  25.5597302
  90.2788030  85.1969143  25.8653319  92.8891935  70.4889793  28.1093283
  93.3860634  69.7359755  27.7894353  92.1178916  70.5254109  27.5436492
  93.9721715  79.2461480  25.6831706  93.0377994  79.3662942  25.5136410
  94.1498384  78.3433947  25.4191716  89.4726903  72.6307176  27.8364967
  89.1024691  72.0778216  28.5245873  89.9685996  72.0265309  27.2839967
  97.3594267  75.0878799  26.2181740  97.8254719  75.9206791  26.1442043
  97.8101767  74.6223781  26.9226999  95.4270498  81.4322621  23.2167892
  95.7030342  81.3179215  24.1261766  94.5574996  81.0340105  23.1780065
  95.3310929  67.4559386  30.2572642  94.4174009  67.6863613  30.4254849
  95.7604031  67.5397830  31.1086674  95.1017388  75.6449278  32.7572536
  94.4488838  75.8925186  32.1024988  95.4797768  74.8313416  32.4235013
  92.0624562  85.6808971  26.8600706  92.2446956  84.8630627  27.3228458
  92.8857548  85.8976664  26.4225596  92.3966727  84.6077157  24.1215754
  92.9254494  84.0969611  23.5085917  92.6594947  84.2919687  24.9861287
  91.1504961  76.3869089  39.2438573  90.4745598  76.2863219  39.9140948
  91.9732595  76.2308303  39.7074570  85.7522475  85.6592273  26.8813530
  85.0832850  86.1438401  26.3977570  85.6135345  85.9061494  27.7956909
  77.4901475  75.1946626  30.5855531  77.5285574  74.6610217  31.3792649
  76.9841767  74.6681832  29.9666508  84.8692237  70.0411167  34.0818073
  84.9333563  70.9025997  33.6695471  84.8059357  69.4285168  33.3490432
  84.3444509  72.1134299  37.7291108  84.9716548  71.7311376  38.3428632
  83.4872428  71.8948501  38.0946800  81.1210052  73.9210728  23.6609463
  81.4163493  73.0121407  23.6076516  80.2198088  73.8998468  23.3390465
  93.0296131  85.6417992  30.4659871  92.9047270  84.8407732  29.9570816
  93.6875222  86.1364186  29.9773841  84.6504299  71.9966725  29.6437011
  83.9290885  72.6102693  29.5044484  85.4397555  72.5324490  29.5653657
  95.0931039  83.4427012  32.0939421  94.1461375  83.3232364  32.0217748
  95.4413813  82.5549510  32.1765682  87.4530613  69.3321151  35.9177663
  87.9765015  69.5783448  36.6803972  87.2342946  70.1641186  35.4980800
  82.8497894  71.6024826  23.7848788  82.5210600  70.7222205  23.6023894
  83.2037265  71.5472495  24.6725177  92.0977473  83.2379729  28.2943773
  91.9502435  82.3096436  28.4751343  92.9230966  83.2599819  27.8100848
  85.9639717  71.8897796  24.1524265  86.3035789  72.4183717  23.4302874
  86.4111837  72.2278202  24.9282832  95.7011595  84.0608287  29.3808646
  96.6258142  83.8551149  29.2433097  95.5326898  83.8124688  30.2897987
  88.6583158  70.2734846  33.6027333  88.3179978  69.4742659  34.0048013
  87.9522164  70.5736557  33.0304167  89.3099630  67.3584159  32.0554656
  90.1325699  66.8844637  31.9333547  89.5537693  68.1374643  32.5553343
  87.9507864  70.3872417  22.3517558  88.6716227  70.7653670  21.8481275
  87.3273168  71.1061294  22.4552536  92.0938987  71.0917566  23.2875890
  92.3102601  71.9742204  22.9864719  91.6133054  70.7003780  22.5581532
  86.8338208  74.0503279  29.8646635  86.6882789  74.3643583  30.7570917
  86.3563412  74.6688180  29.3117534  88.6934591  71.0405827  29.9127525
  88.6796160  70.1446921  29.5759823  89.4107019  71.0476491  30.5465811
  90.5460722  71.4743168  31.9580652  90.2878500  72.3960238  31.9564982
  90.0145762  71.0773602  32.6481116  95.4906911  84.5793955  24.7370737
  95.6643788  84.0140377  23.9844590  95.9835802  85.3794850  24.5550227
  81.3083871  76.5908624  32.8034296  80.7637339  77.3668432  32.9354571
  82.1863220  76.9379428  32.6453418  88.0971487  69.9220208  25.1815095
  88.2187398  68.9936854  25.3805982  87.8073530  69.9358894  24.2693410
  90.9662678  67.6075118  28.3181815  90.9884374  67.6714451  27.3633794
  91.3830737  66.7679627  28.5122321 101.3446302  77.3430378  26.3561037
 101.7877448  76.5937703  25.9580160 100.4672812  77.3340514  25.9734769
  96.4782083  83.8960719  21.8367636  97.1732988  84.5167412  22.0554950
  96.8205233  83.0456070  22.1120014  82.0949892  75.7178520  35.6964453
  81.3531628  75.8661155  36.2829084  81.7742637  75.9786786  34.8331202
  98.3773506  81.3460425  23.3654966  98.9024830  81.6847697  22.6404286
  98.2895859  80.4107440  23.1818101  90.0614167  87.4132408  27.7250220
  89.6219157  86.9208787  28.4183076  90.8122284  86.8705376  27.4842295
  82.5406506  83.6043949  27.7274848  83.3664526  83.3047721  27.3473491
  82.1900558  82.8351571  28.1764636  87.5088039  82.9570417  29.7972521
  86.8868049  82.2941122  29.4974749  88.1792906  82.9831549  29.1146169
  80.7415111  81.5230275  28.6863781  79.9047019  81.0952450  28.5047783
  80.7138757  81.7162719  29.6234573  87.5812567  71.4352205  39.3905027
  87.6300722  72.3114328  39.0082797  88.1235081  70.8929598  38.8176671
  87.0701546  81.5074340  23.2730982  87.2189667  82.1909805  22.6197655
  87.8767990  81.4879430  23.7880438  95.4769050  74.8116723  37.2998200
  96.3778913  74.6723188  37.0082197  95.5517024  74.9771178  38.2396377
  89.8111855  72.1883578  36.1451386  88.9415165  72.4817144  35.8733975
  90.0471336  72.7724023  36.8658650 100.8879167  78.8135616  28.7483485
 101.7226058  79.2525420  28.9121045 101.0238295  78.3374269  27.9291730
  84.8254179  77.5339518  24.2792051  84.5800221  76.6301848  24.4772261
  84.9950094  77.5356669  23.3371529  92.5150889  68.4063194  33.6616806
  93.0332833  69.1424221  33.3363295  92.1606022  68.7127188  34.4963565
  84.0949827  73.2667876  21.7778212  83.4019072  73.3412231  21.1218248
  83.8501579  72.5028219  22.2999729  92.7663483  64.8263477  29.1817703
  93.0465237  64.1586666  29.8078130  93.5514090  65.0192573  28.6692367
  90.5696952  84.0022471  20.7442729  89.9970919  84.6212658  20.2913201
  91.1429745  84.5521833  21.2782651  94.6586721  70.3336694  33.1148679
  94.0636653  70.6141707  32.4195168  94.3736418  70.8230595  33.8865420
  93.7894211  84.2859621  21.8751312  94.7224885  84.2205183  22.0784187
  93.7017424  85.1215888  21.4165844  96.4182228  83.6025491  18.8355259
  96.3395860  83.2685355  19.7291017  97.2391895  84.0947259  18.8346731
  90.9543750  75.3383284  18.0858782  91.9002855  75.2089492  18.1547200
  90.5757995  74.5997946  18.5628210  96.9265635  67.0039290  28.0485674
  96.7290456  66.6954378  28.9329006  97.5365340  67.7300929  28.1783603
 104.9336969  77.5303237  31.1837615 105.6640358  77.2688526  31.7445318
 104.3243915  76.7931959  31.2239683  90.8382443  79.3901030  39.5459439
  91.7585452  79.5679629  39.7399485  90.8032026  78.4457075  39.3939138
  89.1386667  73.2633260  18.0213667  88.2318123  72.9666373  18.0976381
  89.4162648  72.9663078  17.1547953  80.0564608  74.5839623  28.4712713
  79.7367392  73.7304932  28.1787087  79.5098036  74.7988202  29.2270681
  83.8344515  77.3002064  32.1882220  84.0530525  78.2319172  32.2070254
  84.2470289  76.9410039  32.9737024  90.7548733  67.8070150  24.1757908
  89.9449461  67.4617235  24.5513154  91.4433150  67.4977693  24.7645520
  92.6839281  66.8848197  25.7982205  93.2370320  67.3043650  26.4572228
  92.9209368  65.9583945  25.8405161  88.7072381  72.8735270  41.5784969
  88.6069107  73.8229627  41.5097060  88.4893923  72.5453509  40.7061039
  87.9085452  70.1220195  18.1625646  88.7704616  70.4475094  18.4221464
  88.0935796  69.3351691  17.6498712  79.9252868  78.2042535  30.4405835
  79.2316339  77.7896488  29.9275789  80.6725859  78.2463071  29.8439254
  96.0618088  68.9948722  25.3060869  95.4816758  69.6533526  24.9238922
  95.7954021  68.1726066  24.8948287  94.5121655  68.3953779  27.5082190
  95.0121433  68.5070314  26.6996508  95.1557263  68.0914832  28.1482998
  88.5703651  76.3032409  40.3950030  88.0870732  77.1032769  40.6013920
  88.6564590  76.3140354  39.4417474  81.8389610  78.1360789  28.3171850
  81.8160298  78.2348476  27.3653733  82.1490247  78.9825939  28.6389016
  94.8442966  71.1548812  24.3617217  93.9568821  71.4398463  24.1437412
  95.2596956  70.9942575  23.5144494  98.1957503  71.1795333  28.0771557
  98.9717893  71.6691785  28.3496174  97.4705637  71.6053387  28.5343426
 100.6330061  71.8922952  29.1345497 101.2274552  71.6518688  28.4238806
 100.7056645  71.1730083  29.7619034  82.8527217  85.7356563  29.4488662
  82.7181685  84.9756964  28.8826660  82.4359279  86.4597463  28.9817451
  93.9886180  80.9193487  18.4565237  94.6922030  81.1243489  19.0722893
  93.2648829  81.4870249  18.7214321  94.8183990  76.6703348  24.5767508
  94.7619192  77.1271899  23.7375140  95.3712333  75.9094033  24.3990350
  98.6288796  72.4593080  25.4017627  98.3725730  72.0589716  26.2325835
  98.0041664  73.1736874  25.2767766 102.9401134  75.1989153  27.9088919
 102.3800692  75.2682342  28.6820481 102.3344637  75.0230138  27.1888415
  86.0096343  86.6325880  29.6607105  85.8928727  87.5771313  29.5585795
  85.1888789  86.3299442  30.0492904  95.8972877  81.3576016  20.5063697
  96.7318481  80.9257214  20.3241172  95.7357220  81.1858030  21.4340592
  95.5518770  77.8608129  21.8720037  95.4967573  77.6952401  20.9308481
  94.9264825  78.5684162  22.0282227  80.3411285  73.0976194  35.6981459
  80.9870148  72.5875148  36.1868684  80.1328436  73.8344875  36.2724884
  88.8614895  67.3616238  21.4505355  88.8493565  68.3058078  21.6073626
  89.7538317  67.1786384  21.1564816  88.7904459  86.0385129  29.5373112
  87.8400090  86.0386990  29.4237484  89.0936945  85.2917863  29.0209146
  92.6767014  63.9559015  25.7051292  91.9099410  63.4017502  25.8507974
  93.0877719  64.0280884  26.5665444  84.6808776  70.2443811  39.7956473
  85.5440237  69.8880616  40.0059798  84.1074186  69.9057706  40.4831878
 104.5257152  91.8745667  30.6018874 105.1635562  91.7552414  29.8982214
 104.4077995  92.8226511  30.6606826 101.3346859  91.8273095  30.5380399
 100.9965370  91.7114160  29.6500934 102.2036627  91.4264260  30.5181405
  97.1933674  93.6808572  26.5277290  96.6298540  93.5898509  25.7593578
  97.0786069  92.8608476  27.0079782 101.8166642  92.9807947  36.4966604
 101.8055282  92.5860745  35.6247108 101.9787281  92.2474020  37.0900376
  94.7398106  95.1759763  29.3661510  95.5319398  94.8350588  28.9507810
  94.9794757  95.2854738  30.2863664 102.7733233  97.3479539  21.8391755
 102.1221213  97.9333620  21.4525769 103.5677596  97.8785734  21.8986792
  96.6988860  94.4368676  22.2378889  97.4719736  93.8897664  22.0991765
  97.0514259  95.3012926  22.4493351  98.5373903  95.7645059  35.4445788
  98.2463769  96.6690690  35.3292455  99.1730887  95.8061586  36.1589858
  99.4630110  93.1421907  32.0347148 100.0593682  92.9177930  31.3204111
  99.5205081  92.4006653  32.6372596  99.0355138  90.5961343  19.8697339
  99.2880659  90.0742864  19.1080802  98.0979697  90.4327488  19.9724023
 104.0798421  89.5997121  27.6772082 104.8661510  89.1816544  27.3262499
 104.3437125  90.5043213  27.8453731 104.2508498  95.0369971  22.3760739
 103.6154331  95.1104598  23.0881644 103.9205905  95.6263570  21.6979818
 109.4806848  89.5372354  28.5805061 110.2132020  88.9671571  28.8142890
 108.7246204  89.1493955  29.0211566  98.7551427  92.4989449  22.0721714
  98.6387685  91.8234352  22.7402798  98.8653687  92.0121822  21.2553867
 101.0982968  91.9599596  25.7768403 100.7341175  91.4330217  26.4881325
 101.9550084  91.5698065  25.6034889 107.0032268  83.2493928  33.0399669
 106.6715593  84.1189339  32.8160884 106.4077882  82.9330212  33.7193700
 100.7388455  86.9889495  20.7729752 100.9062857  87.8569732  21.1400223
 100.5485624  87.1516777  19.8491041 103.4963788  95.4506474  32.4395582
 103.1964511  96.3531513  32.3311389 103.1514847  95.1838657  33.2916735
  96.9476269  91.9020271  28.4732287  96.0226766  91.7696485  28.6809978
  97.1960683  92.6814490  28.9702229 106.8960932  87.9689014  30.1193019
 105.9877809  87.9004423  29.8251780 106.8448528  88.4460959  30.9474845
 100.7177676  89.4447153  21.7576419 100.5977301  89.8904204  22.5961899
 100.0230264  89.7932470  21.1989957  94.3085080  91.5453545  29.3076076
  94.4377462  91.7988024  30.2215487  93.6282532  92.1381253  28.9880731
  98.4784568 102.2150795  25.4066550  98.4008597 103.1658620  25.4855030
  97.8746211 101.8696667  26.0641476 100.9701797  89.3878660  38.0627917
 100.1935132  89.9472580  38.0530781 101.6092361  89.8735443  38.5842787
 108.7622578  86.1705453  31.8970893 108.1196958  86.4637986  31.2510688
 108.2577507  86.0558373  32.7024090 106.4162742  89.9168626  22.5856753
 107.3280598  90.1496013  22.4104450 105.9072389  90.5005670  22.0231831
  99.2248170  92.1964113  37.6245884  99.9662854  92.7349157  37.3480707
  98.5185155  92.8230402  37.7817436 104.7003509  94.3393254  36.2218045
 105.1086865  93.8975664  35.4772678 103.9780771  93.7645881  36.4752238
 101.0534579  89.2765861  33.5951602 101.8995775  89.7005274  33.7386251
 100.9933217  88.6199485  34.2890165 105.0232324  94.8994444  29.9770334
 104.3941187  95.0640159  29.2746402 104.6357986  95.3136054  30.7481298
 108.9021556  95.8348882  27.3314698 108.2172594  96.2147784  26.7811731
 108.9865405  96.4444209  28.0646646 104.2034025  86.9370229  35.2532776
 103.9594957  87.6912289  34.7167051 104.4793955  87.3155577  36.0880023
 106.1572488  93.4808841  33.9310041 106.3689383  94.1240601  33.2544422
 106.1102236  92.6471158  33.4631971 103.7598717  86.0926662  30.8346614
 102.8983196  86.3907916  31.1263351 103.7861151  86.3097061  29.9027646
 100.5760286  94.6368853  27.2420419 101.0398632  94.9156556  26.4525042
 100.3117084  93.7352297  27.0593510  97.4684367  94.1840334  30.1800182
  98.0385724  94.6127602  29.5417667  98.0592479  93.9022919  30.8784368
  99.5129172  90.7592005  24.0509984 100.2153215  91.2113049  24.5183911
  99.1809801  90.1175824  24.6789877  93.2554506  89.0175558  29.3527118
  92.4653560  89.2733086  28.8767229  93.7465753  89.8323895  29.4579158
 107.2718316  96.3580797  32.1032399 108.0935759  95.9560984  31.8215080
 107.2680718  96.2549031  33.0548515  95.2069251  89.3820137  26.3110595
  94.4100415  89.4938831  26.8294090  94.9794844  89.7206789  25.4451485
 101.0374919  95.9064840  34.2593109 101.1019352  96.3685247  35.0951281
 100.3285843  95.2762205  34.3875419  91.5392209  89.2706048  31.7842109
  91.7900247  90.1553058  32.0499685  92.0751757  89.0910650  31.0117201
 115.3624309  92.7019545  28.4517370 114.6088017  92.1326943  28.2961375
 115.4971850  92.6682210  29.3988005 100.7522937  97.5732948  24.1272090
 100.6168611  98.4184483  24.5556937 101.2932749  97.7752225  23.3638023
  94.2052334  95.0908386  24.7000015  94.7176855  95.8851636  24.8505579
  94.8575047  94.3934676  24.6333616  96.0147219  98.2074142  26.7822768
  96.1913847  99.1292107  26.5943752  96.8104052  97.8932561  27.2117148
 102.3791413  98.1956514  38.2572432 101.9355267  97.4092893  37.9393336
 103.0408627  98.3835665  37.5916322  97.1378534  99.7252316  32.7833110
  97.6885959  99.5969379  32.0110104  96.2990010 100.0247205  32.4328003
 104.4772651  98.4759314  36.2853833 104.4591126  99.2968195  35.7934102
 105.3992571  98.3513389  36.5103974 100.9345705  95.9903443  37.1277341
 101.4674042  95.2291732  36.8976649 100.4059786  95.6977095  37.8701496
 104.1015400  81.0963509  32.6570983 103.7579670  81.9865151  32.5810094
 104.4694363  80.9065167  31.7940568  92.1701251  93.4197040  25.4759585
  93.0076473  93.8294048  25.2593293  92.3479519  92.4796482  25.4459779
 104.0665683  91.0872120  21.1643418 103.5512306  91.8576725  21.4031806
 103.7942991  90.4137257  21.7876480 101.6512794  85.9321821  26.2228657
 100.7954390  85.5428672  26.0434295 102.0639746  86.0113782  25.3628442
 103.1811941  83.4668165  30.6220216 102.6776736  83.4298300  29.8088022
 103.4742547  84.3760907  30.6816873  99.4254826  83.5506894  29.6286398
 100.2907823  83.3549703  29.2692287  99.4932335  83.3217246  30.5555755
 109.0399957  93.8404475  23.0996592 108.2629400  93.5015635  22.6551754
 109.7191438  93.8457098  22.4251557 103.8551986  88.9599213  22.9903199
 103.5502122  89.2745362  23.8413343 104.8082428  89.0380632  23.0330532
 102.2998418  95.1189436  24.6396153 101.7719780  94.3842195  24.3269391
 101.7985921  95.8964112  24.3936122 107.2791264  93.3138456  29.7563200
 106.6214938  94.0037718  29.8443328 108.0831663  93.7034888  30.0997186
  97.0317146  85.7809102  27.0002765  97.6060897  85.5584284  26.2675958
  97.6188128  85.8497797  27.7531366 106.0896723  91.6682829  27.8067141
 106.6028605  92.3012821  28.3088851 106.7397947  91.0684025  27.4410501
  97.3586733  87.8113563  21.0198650  96.5224045  88.1488250  21.3407925
  97.2191502  87.6762543  20.0825787  99.3339813  82.6550351  25.7277834
  98.6804226  82.3399368  25.1034449  99.2920287  82.0326092  26.4537657
 100.4451018  92.9369646  17.6431126  99.5378080  92.7058900  17.8422275
 100.9422050  92.1407265  17.8305108 103.3519097 101.6467153  20.5627812
 102.6780796 101.9498850  21.1712770 103.7384919 102.4496234  20.2133270
 102.5677554  89.1432285  30.0525482 101.6500115  89.3647232  29.8947170
 102.9837697  89.2178595  29.1937189 103.3512601  90.5423700  25.1828162
 104.0984420  91.0545098  24.8735284 103.6204191  90.2207753  26.0432556
 101.6239252  93.0382241  22.1655116 100.7150471  92.7541274  22.2627586
 101.6534335  93.4581320  21.3058423 106.8558519  96.6488831  25.9346284
 106.4020846  95.8079740  25.9911474 106.2252486  97.2850229  26.2721064
 105.7991439  87.5780817  27.1646951 105.0614195  87.0658203  27.4957194
 106.0518212  87.1381198  26.3530228 105.2991458  98.4865327  26.8696102
 105.5914433  99.0470384  26.1508468 105.8090079  98.7793888  27.6249261
 105.9003066  80.3557069  27.7588721 106.2061943  79.4954432  27.4714636
 106.6255671  80.9474689  27.5587715  92.1927422  90.7587755  26.1470319
  91.9951822  90.1657116  25.4221385  91.6374086  90.4539965  26.8646257
 100.1724146  90.6510862  28.2664912 100.2272755  89.6984698  28.1907388
  99.3615348  90.8070301  28.7506210 101.3215339  94.5790985  19.5043195
 100.8834769  93.8626844  19.0448832 102.0625780  94.8067100  18.9428286
  98.1116506  89.2687921  26.0255291  97.2984371  89.5682092  26.4320483
  98.6075500  88.8743610  26.7429773 100.2625083  99.2645678  27.9589555
 100.2201262  99.4906525  27.0298087 101.1787782  99.0309053  28.1075356
 103.7090717  89.7329746  34.8570185 104.0640105  89.9601219  35.7164650
 104.3562848  90.0648123  34.2347440 109.4388454  92.8548182  25.5619514
 109.3006353  93.0449778  24.6340703 109.0824673  93.6167565  26.0187565
  97.6030580  86.8406277  31.6416526  98.2429960  86.6995036  30.9439489
  96.7708111  86.5540790  31.2655128 109.4657834  94.9224709  30.5730785
 109.8994340  94.8299998  31.4213839 110.1789414  94.8982209  29.9350801
  98.3790884  96.1408707  27.7551518  99.1731483  95.6459027  27.5534093
  97.6682577  95.6126570  27.3919224 103.1985729  98.5226803  32.1063886
 103.2522751  99.0917739  32.8741602 102.3300510  98.6928688  31.7417923
  94.6873648  90.2851789  23.8311271  93.7571236  90.2236245  24.0481233
  94.7831120  89.7627742  23.0347912  94.6059197  86.8106602  26.4189512
  94.8666014  87.7251935  26.3098673  95.4276369  86.3431044  26.5686125
  96.0784122  88.2244359  33.5888337  96.7507175  88.0161721  32.9400986
  95.2513909  88.0266445  33.1493569 110.3273383  94.9648409  33.1063670
 110.5209273  95.8694220  33.3522945 110.2274001  94.5055828  33.9402255
 101.9809694  84.8506300  35.6053998 101.3337609  85.5496250  35.5118474
 102.7510709  85.2842444  35.9730246 105.3888492  95.1155152  38.6804551
 105.2373998  94.8865704  37.7634635 105.3793171  96.0725754  38.6935896
 102.1573828  92.6887065  33.6650818 103.0865888  92.8398225  33.4919785
 101.7364858  92.7771086  32.8099464 100.9562160  96.7137729  31.4349355
 100.8173246  96.3456514  32.3075293 100.1676756  97.2285369  31.2633313
 101.5510312 101.8146826  22.7774892 101.7262068 101.3434869  23.5920514
 100.8643100 102.4412592  23.0056152 102.5067375  96.0919332  28.8238193
 102.1717208  96.0520102  29.7195843 102.0071321  95.4264048  28.3508603
  96.4811619  91.4986962  34.3490774  96.3431417  90.7667201  34.9502313
  97.3916543  91.4095862  34.0674962 105.4426567  93.4375366  19.0975253
 104.8255738  92.7122195  19.0008305 104.9743055  94.1984727  18.7542327
  99.1093920  91.2106921  33.8374454  99.8193538  90.5700114  33.7961072
  99.0663228  91.4619816  34.7600635 107.0980699  98.1474275  36.7581033
 107.0393245  97.4633495  36.0911616 107.5000217  98.8893265  36.3061659
  96.1171397 104.9636189  29.5514752  96.3567996 105.5954713  30.2293770
  95.2740594 104.6124229  29.8380111  97.2325113  87.6560791  18.2196557
  96.3554579  87.5349591  17.8558804  97.7082866  86.8646869  17.9675446
 107.0998106  96.1113859  34.9895013 106.2124885  95.7739780  35.1121411
 107.6696657  95.3796890  35.2263778  88.7527253  92.4437950  28.3138064
  89.4398293  92.1299680  27.7259079  88.5975382  93.3479315  28.0405315
  93.5561975  87.3328147  32.7423088  93.4720164  86.7253817  32.0073498
  92.7344682  87.8237165  32.7432584 100.6299259 100.7715311  31.9556256
 100.5569431 101.5770282  32.4675560 100.1876652 100.9707277  31.1304277
 100.4189039 100.0087081  25.4659077  99.6356561 100.5508761  25.5597302
 101.1181784 100.5261061  25.8653319 103.7285689  85.8181710  28.1093283
 104.2254389  85.0651673  27.7894353 102.9572671  85.8546027  27.5436492
 111.5815446  91.5222076  29.7511574 111.5705323  92.4046791  29.3805507
 110.7132826  91.1693627  29.5566111 103.0897943 100.6702145  34.1114414
 103.8025915 101.3049610  34.0390316 102.5987971 100.7666011  33.2954416
 104.8115470  94.5753398  25.6831706 103.8771748  94.6954860  25.5136410
 104.9892138  93.6725864  25.4191716 100.3120658  87.9599093  27.8364967
  99.9418445  87.4070134  28.5245873 100.8079750  87.3557227  27.2839967
 108.1988021  90.4170717  26.2181740 108.6648473  91.2498709  26.1442043
 108.6495522  89.9515699  26.9226999  98.1409856  98.4196588  34.9319985
  98.8419316  99.0533071  35.0849380  97.6704971  98.7611320  34.1715625
 106.2664252  96.7614538  23.2167892 106.5424096  96.6471133  24.1261766
 105.3968751  96.3632023  23.1780065 106.1704684  82.7851304  30.2572642
 105.2567764  83.0155531  30.4254849 106.5997785  82.8689748  31.1086674
 105.9411142  90.9741196  32.7572536 105.2882593  91.2217103  32.1024988
 106.3191522  90.1605334  32.4235013 102.9018316 101.0100889  26.8600706
 103.0840711 100.1922545  27.3228458 103.7251302 101.2268581  26.4225596
 103.2360482  99.9369074  24.1215754 103.7648248  99.4261529  23.5085917
 103.4988701  99.6211604  24.9861287 101.9898715  91.7161007  39.2438573
 101.3139352  91.6155136  39.9140948 102.8126349  91.5600221  39.7074570
  93.7377574  97.9532944  31.8651088  94.3231011  97.2076631  31.9978992
  93.5402413  98.2636900  32.7487752  96.5916230 100.9884191  26.8813530
  95.9226605 101.4730319  26.3977570  96.4529099 101.2353411  27.7956909
 100.7321498 103.0227934  33.4796189 101.2839806 103.1859556  34.2445274
 101.0727692 103.6132372  32.8076214  95.7085991  85.3703084  34.0818073
  95.7727318  86.2317915  33.6695471  95.6453112  84.7577086  33.3490432
 105.5832373  97.8489192  39.3344843 106.1272277  98.4619150  38.8399798
 105.0019217  98.4068770  39.8511856  91.9603807  89.2502646  23.6609463
  92.2557248  88.3413324  23.6076516  91.0591843  89.2290385  23.3390465
 103.8689886 100.9709910  30.4659871 103.7441025 100.1699650  29.9570816
 104.5268977 101.4656103  29.9773841  95.4898054  87.3258642  29.6437011
  94.7684639  87.9394610  29.5044484  96.2791310  87.8616407  29.5653657
 105.9324794  98.7718930  32.0939421 104.9855129  98.6524281  32.0217748
 106.2807567  97.8841428  32.1765682  93.6891648  86.9316744  23.7848788
  93.3604354  86.0514122  23.6023894  94.0431019  86.8764412  24.6725177
 102.9371227  98.5671646  28.2943773 102.7896190  97.6388354  28.4751343
 103.7624721  98.5891737  27.8100848  96.8033471  87.2189713  24.1524265
  97.1429544  87.7475635  23.4302874  97.2505592  87.5570119  24.9282832
 106.5405349  99.3900205  29.3808646 107.4651897  99.1843066  29.2433097
 106.3720652  99.1416606  30.2897987  99.4976912  85.6026764  33.6027333
  99.1573733  84.8034577  34.0048013  98.7915919  85.9028475  33.0304167
 100.1493384  82.6876076  32.0554656 100.9719453  82.2136555  31.9333547
 100.3931448  83.4666560  32.5553343  98.7901619  85.7164335  22.3517558
  99.5109981  86.0945588  21.8481275  98.1666923  86.4353212  22.4552536
 102.9332742  86.4209484  23.2875890 103.1496356  87.3034122  22.9864719
 102.4526809  86.0295697  22.5581532  97.6731963  89.3795197  29.8646635
  97.5276544  89.6935500  30.7570917  97.1957167  89.9980097  29.3117534
  99.5328346  86.3697745  29.9127525  99.5189915  85.4738838  29.5759823
 100.2500774  86.3768409  30.5465811 101.3854476  86.8035085  31.9580652
 101.1272254  87.7252156  31.9564982 100.8539517  86.4065520  32.6481116
 106.3300665  99.9085872  24.7370737 106.5037543  99.3432295  23.9844590
 106.8229556 100.7086767  24.5550227  98.9365242  85.2512125  25.1815095
  99.0581153  84.3228772  25.3805982  98.6467284  85.2650811  24.2693410
 101.8056432  82.9367036  28.3181815 101.8278129  83.0006369  27.3633794
 102.2224491  82.0971544  28.5122321 112.1840056  92.6722295  26.3561037
 112.6271202  91.9229621  25.9580160 111.3066567  92.6632432  25.9734769
 107.3175838  99.2252637  21.8367636 108.0126742  99.8459330  22.0554950
 107.6598988  98.3747988  22.1120014 109.2167261  96.6752342  23.3654966
 109.7418585  97.0139615  22.6404286 109.1289613  95.7399358  23.1818101
 100.8787310 100.5886416  35.4944843 101.1874436 100.3435563  36.3667543
 101.6762792 100.7933055  35.0063713 100.9007922 102.7424326  27.7250220
 100.4612912 102.2500704  28.4183076 101.6516039 102.1997293  27.4842295
  93.3800261  98.9335867  27.7274848  94.2058280  98.6339638  27.3473491
  93.0294313  98.1643489  28.1764636  98.3481794  98.2862335  29.7972521
  97.7261803  97.6233040  29.4974749  99.0186661  98.3123467  29.1146169
  91.5808866  96.8522193  28.6863781  90.7440774  96.4244367  28.5047783
  91.5532511  97.0454636  29.6234573 108.9061167  97.3085246  38.6706164
 108.1156711  97.2909385  38.1310664 108.6694521  97.8473540  39.4255201
 109.0259042  94.1577712  35.9838893 109.0757047  93.9927720  36.9254416
 108.9172965  93.2904971  35.5936774  97.9095301  96.8366258  23.2730982
  98.0583421  97.5201722  22.6197655  98.7161744  96.8171348  23.7880438
 106.3162804  90.1408640  37.2998200 107.2172667  90.0015105  37.0082197
 106.3910779  90.3063095  38.2396377 100.6505610  87.5175495  36.1451386
  99.7808919  87.8109061  35.8733975 100.8865090  88.1015940  36.8658650
 110.5277239  96.5774654  36.2280914 110.2362047  96.9404634  37.0644375
 109.9149370  95.8641662  36.0494247 111.7272921  94.1427534  28.7483485
 112.5619813  94.5817338  28.9121045 111.8632050  93.6666187  27.9291730
 108.7764427  91.7007269  34.6960972 109.2518549  91.8934915  33.8879824
 107.8529992  91.7566454  34.4504356  95.6647934  92.8631436  24.2792051
  95.4193976  91.9593766  24.4772261  95.8343848  92.8648586  23.3371529
 103.3544644  83.7355112  33.6616806 103.8726587  84.4716139  33.3363295
 102.9999776  84.0419105  34.4963565  94.9343581  88.5959793  21.7778212
  94.2412826  88.6704148  21.1218248  94.6895333  87.8320137  22.2999729
 103.6057238  80.1555395  29.1817703 103.8858991  79.4878584  29.8078130
 104.3907845  80.3484490  28.6692367 101.4090706  99.3314389  20.7442729
 100.8364673  99.9504576  20.2913201 101.9823500  99.8813750  21.2782651
 107.4766096  88.5773029  32.9289278 108.4283519  88.6771126  32.9501502
 107.3069546  87.7851297  33.4387362 105.4980476  85.6628612  33.1148679
 104.9030408  85.9433625  32.4195168 105.2130172  86.1522513  33.8865420
 104.6287966  99.6151539  21.8751312 105.5618639  99.5497100  22.0784187
 104.5411179 100.4507806  21.4165844 107.2575983  98.9317409  18.8355259
 107.1789614  98.5977273  19.7291017 108.0785649  99.4239177  18.8346731
 109.9554174  91.7979148  32.0431578 109.9230494  90.8595149  32.2291262
 110.5654797  91.8763185  31.3097403 101.7937505  90.6675201  18.0858782
 102.7396609  90.5381409  18.1547200 101.4151750  89.9289863  18.5628210
 110.1048662  88.5890192  32.0889861 109.5887711  87.8048648  31.9019790
 110.9888611  88.2608908  32.2536380 107.7659389  82.3331207  28.0485674
 107.5684210  82.0246296  28.9329006 108.3759095  83.0592846  28.1783603
 115.7730724  92.8595155  31.1837615 116.5034112  92.5980443  31.7445318
 115.1637669  92.1223877  31.2239683 113.8546021  91.0003018  31.7812066
 113.1279184  90.8658983  31.1728557 113.4393308  91.3079846  32.5868784
 101.6776197  94.7192947  39.5459439 102.5979207  94.8971546  39.7399485
 101.6425780  93.7748993  39.3939138  99.9780422  88.5925178  18.0213667
  99.0711877  88.2958290  18.0976381 100.2556403  88.2954996  17.1547953
  90.8958362  89.9131541  28.4712713  90.5761147  89.0596849  28.1787087
  90.3491790  90.1280119  29.2270681  94.6738270  92.6293982  32.1882220
  94.8924280  93.5611090  32.2070254  95.0864044  92.2701956  32.9737024
 101.5942488  83.1362067  24.1757908 100.7843216  82.7909152  24.5513154
 102.2826904  82.8269611  24.7645520 103.5233036  82.2140114  25.7982205
 104.0764074  82.6335568  26.4572228 103.7603122  81.2875862  25.8405161
  98.7479206  85.4512113  18.1625646  99.6098370  85.7767011  18.4221464
  98.9329551  84.6643609  17.6498712  90.7646622  93.5334453  30.4405835
  90.0710094  93.1188405  29.9275789  91.5119613  93.5754989  29.8439254
 106.9011843  84.3240639  25.3060869 106.3210512  84.9825443  24.9238922
 106.6347776  83.5017984  24.8948287 105.3515409  83.7245697  27.5082190
 105.8515188  83.8362232  26.6996508 105.9951017  83.4206750  28.1482998
  99.4097405  91.6324327  40.3950030  98.9264487  92.4324687  40.6013920
  99.4958344  91.6432272  39.4417474  92.6783365  93.4652706  28.3171850
  92.6554053  93.5640394  27.3653733  92.9884001  94.3117857  28.6389016
  95.3370743  95.5228861  32.4318464  96.2913996  95.4912804  32.3648396
  95.1383266  95.0619485  33.2468690  95.9270125  94.0929977  34.9989262
  96.7463014  94.5874056  35.0224099  96.2006932  93.1761946  34.9706829
 105.6836721  86.4840730  24.3617217 104.7962576  86.7690380  24.1437412
 106.0990710  86.3234493  23.5144494 109.0351257  86.5087251  28.0771557
 109.8111647  86.9983703  28.3496174 108.3099391  86.9345305  28.5343426
 111.4723816  87.2214870  29.1345497 112.0668307  86.9810606  28.4238806
 111.5450399  86.5022001  29.7619034  93.6920971 101.0648481  29.4488662
  93.5575439 100.3048882  28.8826660  93.2753034 101.7889381  28.9817451
 104.8279934  96.2485404  18.4565237 105.5315785  96.4535407  19.0722893
 104.1042583  96.8162166  18.7214321 105.6577745  91.9995266  24.5767508
 105.6012946  92.4563817  23.7375140 106.2106087  91.2385950  24.3990350
 109.4682551  87.7884998  25.4017627 109.2119485  87.3881633  26.2325835
 108.8435419  88.5028791  25.2767766 113.7794888  90.5281071  27.9088919
 113.2194446  90.5974260  28.6820481 113.1738392  90.3522055  27.1888415
  96.8490097 101.9617798  29.6607105  96.7322481 102.9063230  29.5585795
  96.0282544 101.6591359  30.0492904 106.7366632  96.6867934  20.5063697
 107.5712236  96.2549132  20.3241172 106.5750975  96.5149947  21.4340592
 106.3912524  93.1900047  21.8720037 106.3361328  93.0244318  20.9308481
 105.7658579  93.8976080  22.0282227 103.7058431  95.4948959  41.1973600
 104.5749591  95.6689611  40.8360234 103.2265183  96.3143376  41.0749329
  99.7008649  82.6908156  21.4505355  99.6887319  83.6349996  21.6073626
 100.5932071  82.5078301  21.1564816  97.8744611 102.6146060  32.8763033
  98.7771858 102.6469670  33.1929528  97.6481981 101.6846511  32.8909369
  99.6298213 101.3677046  29.5373112  98.6793844 101.3678908  29.4237484
  99.9330700 100.6209781  29.0209146 103.5160769  79.2850933  25.7051292
 102.7493165  78.7309419  25.8507974 103.9271474  79.3572801  26.5665444
 115.3650907 107.2037585  30.6018874 116.0029317 107.0844332  29.8982214
 115.2471750 108.1518429  30.6606826 112.1740613 107.1565013  30.5380399
 111.8359125 107.0406078  29.6500934 113.0430381 106.7556178  30.5181405
 108.0327429 109.0100489  26.5277290 107.4692294 108.9190426  25.7593578
 107.9179824 108.1900394  27.0079782 112.6560396 108.3099865  36.4966604
 112.6449037 107.9152663  35.6247108 112.8181036 107.5765937  37.0900376
 105.5791861 110.5051681  29.3661510 106.3713153 110.1642505  28.9507810
 105.8188511 110.6146656  30.2863664 109.3767657 111.0936976  35.4445788
 109.0857523 111.9982607  35.3292455 110.0124642 111.1353504  36.1589858
 110.3023864 108.4713825  32.0347148 110.8987436 108.2469847  31.3204111
 110.3598836 107.7298570  32.6372596 114.9192175 104.9289039  27.6772082
 115.7055265 104.5108462  27.3262499 115.1830880 105.8335131  27.8453731
 120.3200603 104.8664272  28.5805061 121.0525774 104.2963489  28.8142890
 119.5639958 104.4785872  29.0211566 111.9376722 107.2891513  25.7768403
 111.5734929 106.7622134  26.4881325 112.7943838 106.8989982  25.6034889
 117.8426023  98.5785846  33.0399669 117.5109348  99.4481257  32.8160884
 117.2471636  98.2622130  33.7193700 114.3357542 110.7798392  32.4395582
 114.0358266 111.6823431  32.3311389 113.9908602 110.5130575  33.2916735
 107.7870024 107.2312189  28.4732287 106.8620520 107.0988403  28.6809978
 108.0354437 108.0106408  28.9702229 117.7354686 103.2980932  30.1193019
 116.8271564 103.2296340  29.8251780 117.6842282 103.7752877  30.9474845
 105.1478835 106.8745462  29.3076076 105.2771216 107.1279941  30.2215487
 104.4676286 107.4673170  28.9880731 111.8095552 104.7170578  38.0627917
 111.0328886 105.2764498  38.0530781 112.4486115 105.2027361  38.5842787
 119.6016333 101.4997370  31.8970893 118.9590713 101.7929904  31.2510688
 119.0971261 101.3850291  32.7024090 110.0641924 107.5256031  37.6245884
 110.8056609 108.0641075  37.3480707 109.3578910 108.1522320  37.7817436
 115.5397264 109.6685171  36.2218045 115.9480620 109.2267582  35.4772678
 114.8174525 109.0937799  36.4752238 111.8928334 104.6057778  33.5951602
 112.7389529 105.0297192  33.7386251 111.8326972 103.9491403  34.2890165
 115.8626079 110.2286362  29.9770334 115.2334941 110.3932076  29.2746402
 115.4751741 110.6427972  30.7481298 115.0427779 102.2662147  35.2532776
 114.7988711 103.0204207  34.7167051 115.3187710 102.6447494  36.0880023
 116.9966242 108.8100759  33.9310041 117.2083137 109.4532519  33.2544422
 116.9495990 107.9763076  33.4631971 114.5992471 101.4218580  30.8346614
 113.7376950 101.7199833  31.1263351 114.6254906 101.6388979  29.9027646
 111.4154040 109.9660770  27.2420419 111.8792386 110.2448473  26.4525042
 111.1510839 109.0644215  27.0593510 108.3078122 109.5132252  30.1800182
 108.8779479 109.9419520  29.5417667 108.8986233 109.2314836  30.8784368
 110.3522927 106.0883923  24.0509984 111.0546970 106.5404966  24.5183911
 110.0203555 105.4467741  24.6789877 108.8003288 104.6795679  38.4261194
 108.1701949 105.3611960  38.6596591 108.6939376 104.5678761  37.4814332
 104.0948260 104.3467475  29.3527118 103.3047314 104.6025004  28.8767229
 104.5859508 105.1615813  29.4579158 118.1112070 111.6872714  32.1032399
 118.9329514 111.2852902  31.8215080 118.1074473 111.5840949  33.0548515
 106.0463006 104.7112054  26.3110595 105.2494169 104.8230749  26.8294090
 105.8188598 105.0498707  25.4451485 111.8768673 111.2356758  34.2593109
 111.9413106 111.6977165  35.0951281 111.1679597 110.6054123  34.3875419
 102.3785963 104.5997966  31.7842109 102.6294002 105.4844976  32.0499685
 102.9145512 104.4202567  31.0117201 108.0784031  98.9816445  40.7886445
 107.6850976  98.4282644  41.4634089 108.8950171  99.2927024  41.1792962
 105.0446089 110.4200303  24.7000015 105.5570609 111.2143553  24.8505579
 105.6968801 109.7226594  24.6333616 110.9951992 100.3974324  38.3806701
 111.7361705 100.9981477  38.3011164 111.2269915  99.6551962  37.8224744
 106.1393330 105.5830691  36.6584931 106.0246845 104.6815949  36.9592030
 105.2837848 105.8294388  36.3069748 113.2185168 113.5248432  38.2572432
 112.7749022 112.7384810  37.9393336 113.8802381 113.7127582  37.5916322
 107.9772289 115.0544233  32.7833110 108.5279714 114.9261297  32.0110104
 107.1383765 115.3539122  32.4328003 115.3166406 113.8051232  36.2853833
 115.2984881 114.6260113  35.7934102 116.2386326 113.6805307  36.5103974
 111.7739460 111.3195361  37.1277341 112.3067797 110.5583649  36.8976649
 111.2453541 111.0269013  37.8701496 114.9409155  96.4255427  32.6570983
 114.5973424  97.3157069  32.5810094 115.3088117  96.2357085  31.7940568
 103.0095005 108.7488958  25.4759585 103.8470227 109.1585966  25.2593293
 103.1873273 107.8088400  25.4459779 112.4906548 101.2613739  26.2228657
 111.6348145 100.8720589  26.0434295 112.9033500 101.3405700  25.3628442
 114.0205695  98.7960082  30.6220216 113.5170491  98.7590217  29.8088022
 114.3136302  99.7052825  30.6816873 110.2648581  98.8798812  29.6286398
 111.1301578  98.6841621  29.2692287 110.3326090  98.6509164  30.5555755
 118.1185018 108.6430374  29.7563200 117.4608693 109.3329635  29.8443328
 118.9225418 109.0326806  30.0997186 107.8710900 101.1101020  27.0002765
 108.4454652 100.8876201  26.2675958 108.4581882 101.1789714  27.7531366
 116.9290477 106.9974747  27.8067141 117.4422359 107.6304739  28.3088851
 117.5791701 106.3975942  27.4410501 110.1733568  97.9842269  25.7277834
 109.5197980  97.6691286  25.1034449 110.1314042  97.3618009  26.4537657
 113.4071308 104.4724202  30.0525482 112.4893870 104.6939149  29.8947170
 113.8231452 104.5470513  29.1937189 116.6385193 102.9072734  27.1646951
 115.9007950 102.3950120  27.4957194 116.8911967 102.4673116  26.3530228
 116.7396820  95.6848986  27.7588721 117.0455697  94.8246350  27.4714636
 117.4649425  96.2766606  27.5587715 103.0321176 106.0879673  26.1470319
 102.8345576 105.4949034  25.4221385 102.4767840 105.7831883  26.8646257
 111.0117900 105.9802779  28.2664912 111.0666510 105.0276616  28.1907388
 110.2009102 106.1362218  28.7506210 108.9510260 104.5979839  26.0255291
 108.1378126 104.8974010  26.4320483 109.4469254 104.2035528  26.7429773
 114.5484472 105.0621664  34.8570185 114.9033859 105.2893137  35.7164650
 115.1956603 105.3940040  34.2347440 108.4424335 102.1698195  31.6416526
 109.0823714 102.0286954  30.9439489 107.6101865 101.8832708  31.2655128
 109.2184639 111.4700625  27.7551518 110.0125237 110.9750945  27.5534093
 108.5076331 110.9418488  27.3919224 114.0379483 113.8518721  32.1063886
 114.0916505 114.4209657  32.8741602 113.1694265 114.0220606  31.7417923
 105.5267402 105.6143707  23.8311271 104.5964990 105.5528162  24.0481233
 105.6224874 105.0919660  23.0347912 105.4452951 102.1398520  26.4189512
 105.7059769 103.0543853  26.3098673 106.2670124 101.6722962  26.5686125
 106.9177877 103.5536277  33.5888337 107.5900930 103.3453639  32.9400986
 106.0907663 103.3558363  33.1493569 121.1667138 110.2940327  33.1063670
 121.3603028 111.1986138  33.3522945 121.0667756 109.8347746  33.9402255
 112.8203449 100.1798218  35.6053998 112.1731364 100.8788167  35.5118474
 113.5904464 100.6134362  35.9730246 116.2282246 110.4447070  38.6804551
 116.0767753 110.2157622  37.7634635 116.2186926 111.4017671  38.6935896
 112.9967583 108.0178983  33.6650818 113.9259643 108.1690142  33.4919785
 112.5758613 108.1063003  32.8099464 111.7955915 112.0429647  31.4349355
 111.6567000 111.6748431  32.3075293 111.0070511 112.5577286  31.2633313
 113.3461130 111.4211250  28.8238193 113.0110962 111.3812020  29.7195843
 112.8465076 110.7555966  28.3508603 107.3205374 106.8278880  34.3490774
 107.1825172 106.0959119  34.9502313 108.2310297 106.7387780  34.0674962
 109.9487674 106.5398839  33.8374454 110.6587293 105.8992031  33.7961072
 109.9056983 106.7911734  34.7600635 117.9374453 113.4766192  36.7581033
 117.8786999 112.7925413  36.0911616 118.3393972 114.2185182  36.3061659
 108.6616608 103.5264057  35.6570093 108.1253965 103.0754795  36.3091690
 108.0733317 103.6609966  34.9140558 117.9391860 111.4405776  34.9895013
 117.0518639 111.1031698  35.1121411 118.5090411 110.7088808  35.2263778
  99.5921008 107.7729868  28.3138064 100.2792047 107.4591598  27.7259079
  99.4369136 108.6771233  28.0405315 104.3955730 102.6620065  32.7423088
 104.3113918 102.0545734  32.0073498 103.5738436 103.1529083  32.7432584
 111.4693014 116.1007229  31.9556256 111.3963185 116.9062200  32.4675560
 111.0270407 116.2999194  31.1304277 114.5679444 101.1473628  28.1093283
 115.0648143 100.3943590  27.7894353 113.7966425 101.1837945  27.5436492
 122.4209201 106.8513994  29.7511574 122.4099077 107.7338709  29.3805507
 121.5526580 106.4985545  29.5566111 113.9291697 115.9994063  34.1114414
 114.6419670 116.6341528  34.0390316 113.4381726 116.0957929  33.2954416
 111.1514412 103.2891011  27.8364967 110.7812200 102.7362052  28.5245873
 111.6473505 102.6849145  27.2839967 108.9803611 113.7488506  34.9319985
 109.6813070 114.3824989  35.0849380 108.5098726 114.0903238  34.1715625
 117.0098438  98.1143222  30.2572642 116.0961518  98.3447448  30.4254849
 117.4391540  98.1981666  31.1086674 116.7804897 106.3033114  32.7572536
 116.1276347 106.5509021  32.1024988 117.1585277 105.4897252  32.4235013
 112.8292470 107.0452925  39.2438573 112.1533107 106.9447054  39.9140948
 113.6520104 106.8892138  39.7074570 104.5771329 113.2824861  31.8651088
 105.1624766 112.5368549  31.9978992 104.3796167 113.5928818  32.7487752
  99.1688984 105.8530461  30.5855531  99.2073083 105.3194052  31.3792649
  98.6629276 105.3265667  29.9666508 111.5715253 118.3519852  33.4796189
 112.1233561 118.5151474  34.2445274 111.9121446 118.9424290  32.8076214
 106.5479746 100.6995002  34.0818073 106.6121072 101.5609833  33.6695471
 106.4846866 100.0869004  33.3490432 106.0232018 102.7718134  37.7291108
 106.6504057 102.3895212  38.3428632 105.1659937 102.5532336  38.0946800
 116.4226127 113.1781110  39.3344843 116.9666031 113.7911068  38.8399798
 115.8412972 113.7360688  39.8511856 102.7997561 104.5794564  23.6609463
 103.0951002 103.6705242  23.6076516 101.8985597 104.5582303  23.3390465
 106.3291808 102.6550560  29.6437011 105.6078394 103.2686528  29.5044484
 107.1185064 103.1908325  29.5653657 116.7718548 114.1010848  32.0939421
 115.8248884 113.9816199  32.0217748 117.1201321 113.2133346  32.1765682
 109.1318122  99.9904987  35.9177663 109.6552524 100.2367283  36.6803972
 108.9130455 100.8225021  35.4980800 104.5285403 102.2608661  23.7848788
 104.1998109 101.3806040  23.6023894 104.8824774 102.2056330  24.6725177
 107.6427226 102.5481631  24.1524265 107.9823298 103.0767552  23.4302874
 108.0899346 102.8862037  24.9282832 110.3370667 100.9318682  33.6027333
 109.9967487 100.1326495  34.0048013 109.6309673 101.2320393  33.0304167
 110.9887139  98.0167994  32.0554656 111.8113208  97.5428472  31.9333547
 111.2325202  98.7958478  32.5553343 109.6295373 101.0456253  22.3517558
 110.3503736 101.4237505  21.8481275 109.0060677 101.7645129  22.4552536
 113.7726496 101.7501402  23.2875890 113.9890110 102.6326039  22.9864719
 113.2920563 101.3587615  22.5581532 108.5125717 104.7087115  29.8646635
 108.3670298 105.0227418  30.7570917 108.0350921 105.3272015  29.3117534
 110.3722100 101.6989663  29.9127525 110.3583669 100.8030756  29.5759823
 111.0894528 101.7060327  30.5465811 112.2248231 102.1327003  31.9580652
 111.9666009 103.0544074  31.9564982 111.6933271 101.7357438  32.6481116
 102.9871380 107.2492459  32.8034296 102.4424848 108.0252267  32.9354571
 103.8650729 107.5963264  32.6453418 109.7758996 100.5804043  25.1815095
 109.8974907  99.6520689  25.3805982 109.4861039 100.5942729  24.2693410
 112.6450187  98.2658954  28.3181815 112.6671883  98.3298287  27.3633794
 113.0618246  97.4263462  28.5122321 103.7737401 106.3762355  35.6964453
 103.0319137 106.5244991  36.2829084 103.4530146 106.6370621  34.8331202
 111.7181064 115.9178334  35.4944843 112.0268190 115.6727480  36.3667543
 112.5156546 116.1224972  35.0063713 104.2194015 114.2627784  27.7274848
 105.0452035 113.9631556  27.3473491 103.8688067 113.4935407  28.1764636
 109.1875548 113.6154252  29.7972521 108.5655558 112.9524957  29.4974749
 109.8580415 113.6415384  29.1146169 102.4202620 112.1814111  28.6863781
 101.5834528 111.7536285  28.5047783 102.3926266 112.3746554  29.6234573
 109.2600076 102.0936040  39.3905027 109.3088231 102.9698163  39.0082797
 109.8022590 101.5513434  38.8176671 119.7454921 112.6377164  38.6706164
 118.9550465 112.6201303  38.1310664 119.5088276 113.1765457  39.4255201
 119.8652796 109.4869630  35.9838893 119.9150801 109.3219638  36.9254416
 119.7566720 108.6196889  35.5936774 117.1556559 105.4700558  37.2998200
 118.0566422 105.3307023  37.0082197 117.2304533 105.6355013  38.2396377
 111.4899364 102.8467413  36.1451386 110.6202674 103.1400979  35.8733975
 111.7258845 103.4307858  36.8658650 121.3670993 111.9066572  36.2280914
 121.0755802 112.2696552  37.0644375 120.7543125 111.1933580  36.0494247
 119.6158182 107.0299186  34.6960972 120.0912303 107.2226833  33.8879824
 118.6923747 107.0858372  34.4504356 106.5041688 108.1923353  24.2792051
 106.2587730 107.2885683  24.4772261 106.6737603 108.1940504  23.3371529
 114.1938398  99.0647030  33.6616806 114.7120342  99.8008057  33.3363295
 113.8393531  99.3711023  34.4963565 105.7737336 103.9251711  21.7778212
 105.0806581 103.9996066  21.1218248 105.5289088 103.1612055  22.2999729
 114.4450992  95.4847312  29.1817703 114.7252746  94.8170501  29.8078130
 115.2301599  95.6776408  28.6692367 118.3159851 103.9064946  32.9289278
 119.2677273 104.0063044  32.9501502 118.1463301 103.1143215  33.4387362
 116.3374230 100.9920530  33.1148679 115.7424162 101.2725542  32.4195168
 116.0523927 101.4814430  33.8865420 120.7947928 107.1271066  32.0431578
 120.7624248 106.1887067  32.2291262 121.4048552 107.2055103  31.3097403
 120.9442417 103.9182109  32.0889861 120.4281465 103.1340566  31.9019790
 121.8282365 103.5900826  32.2536380 118.6053144  97.6623125  28.0485674
 118.4077965  97.3538213  28.9329006 119.2152849  98.3884764  28.1783603
 126.6124478 108.1887073  31.1837615 127.3427867 107.9272361  31.7445318
 126.0031424 107.4515795  31.2239683 124.6939775 106.3294935  31.7812066
 123.9672939 106.1950900  31.1728557 124.2787062 106.6371764  32.5868784
 112.5169952 110.0484865  39.5459439 113.4372961 110.2263464  39.7399485
 112.4819535 109.1040910  39.3939138 101.7352117 105.2423459  28.4712713
 101.4154901 104.3888767  28.1787087 101.1885545 105.4572037  29.2270681
 105.5132024 107.9585900  32.1882220 105.7318034 108.8903008  32.2070254
 105.9257798 107.5993874  32.9737024 112.4336242  98.4653985  24.1757908
 111.6236970  98.1201070  24.5513154 113.1220659  98.1561529  24.7645520
 114.3626790  97.5432032  25.7982205 114.9157829  97.9627485  26.4572228
 114.5996877  96.6167780  25.8405161 110.3859890 103.5319106  41.5784969
 110.2856616 104.4813462  41.5097060 110.1681432 103.2037344  40.7061039
 101.6040377 108.8626370  30.4405835 100.9103848 108.4480323  29.9275789
 102.3513368 108.9046907  29.8439254 117.7405597  99.6532557  25.3060869
 117.1604266 100.3117361  24.9238922 117.4741530  98.8309902  24.8948287
 116.1909164  99.0537615  27.5082190 116.6908942  99.1654149  26.6996508
 116.8344772  98.7498668  28.1482998 110.2491160 106.9616244  40.3950030
 109.7658241 107.7616604  40.6013920 110.3352099 106.9724189  39.4417474
 103.5177119 108.7944624  28.3171850 103.4947807 108.8932311  27.3653733
 103.8277756 109.6409775  28.6389016 106.1764497 110.8520779  32.4318464
 107.1307751 110.8204721  32.3648396 105.9777021 110.3911403  33.2468690
 106.7663879 109.4221895  34.9989262 107.5856768 109.9165974  35.0224099
 107.0400687 108.5053863  34.9706829 116.5230475 101.8132647  24.3617217
 115.6356330 102.0982298  24.1437412 116.9384465 101.6526411  23.5144494
 119.8745012 101.8379168  28.0771557 120.6505402 102.3275621  28.3496174
 119.1493146 102.2637223  28.5343426 122.3117570 102.5506788  29.1345497
 122.9062061 102.3102524  28.4238806 122.3844154 101.8313918  29.7619034
 104.5314726 116.3940399  29.4488662 104.3969194 115.6340799  28.8826660
 104.1146788 117.1181298  28.9817451 107.6883852 117.2909716  29.6607105
 107.5716236 118.2355148  29.5585795 106.8676298 116.9883277  30.0492904
 102.0198793 103.7560029  35.6981459 102.6657657 103.2458983  36.1868684
 101.8115945 104.4928711  36.2724884 114.5452186 110.8240876  41.1973600
 115.4143345 110.9981529  40.8360234 114.0658937 111.6435293  41.0749329
 110.5402404  98.0200074  21.4505355 110.5281074  98.9641914  21.6073626
 111.4325826  97.8370219  21.1564816 108.7138366 117.9437977  32.8763033
 109.6165613 117.9761588  33.1929528 108.4875736 117.0138428  32.8909369
 114.3554523  94.6142850  25.7051292 113.5886919  94.0601337  25.8507974
 114.7665228  94.6864719  26.5665444 106.3596284 100.9027646  39.7956473
 107.2227746 100.5464451  40.0059798 105.7861695 100.5641541  40.4831878
 122.6489306 120.0462495  38.0627917 121.8722641 120.6056415  38.0530781
 123.2879870 120.5319278  38.5842787 119.6397043 120.0087597  38.4261194
 119.0095703 120.6903878  38.6596591 119.5333130 119.8970678  37.4814332
 118.9177785 114.3108363  40.7886445 118.5244731 113.7574561  41.4634089
 119.7343926 114.6218941  41.1792962 121.8345746 115.7266242  38.3806701
 122.5755460 116.3273395  38.3011164 122.0663669 114.9843880  37.8224744
 116.9787084 120.9122609  36.6584931 116.8640599 120.0107866  36.9592030
 116.1231602 121.1586306  36.3069748 123.6597203 115.5090135  35.6053998
 123.0125118 116.2080085  35.5118474 124.4298218 115.9426279  35.9730246
 119.5010363 118.8555975  35.6570093 118.9647720 118.4046713  36.3091690
 118.9127071 118.9901883  34.9140558 115.2349484 117.9911982  32.7423088
 115.1507673 117.3837652  32.0073498 114.4132191 118.4821001  32.7432584
 123.6686224 122.3744842  39.2438573 122.9926861 122.2738972  39.9140948
 124.4913858 122.2184056  39.7074570 117.3873500 116.0286920  34.0818073
 117.4514827 116.8901751  33.6695471 117.3240621 115.4160921  33.3490432
 116.8625773 118.1010052  37.7291108 117.4897812 117.7187129  38.3428632
 116.0053692 117.8824254  38.0946800 119.9711876 115.3196904  35.9177663
 120.4946278 115.5659201  36.6803972 119.7524210 116.1516939  35.4980800
 114.6131156 121.7054273  35.6964453 113.8712892 121.8536909  36.2829084
 114.2923900 121.9662539  34.8331202 120.0993830 117.4227958  39.3905027
 120.1481986 118.2990081  39.0082797 120.6416344 116.8805351  38.8176671
 122.3293119 118.1759331  36.1451386 121.4596428 118.4692897  35.8733975
 122.5652599 118.7599776  36.8658650 121.2253644 118.8611023  41.5784969
 121.1250371 119.8105380  41.5097060 121.0075186 118.5329262  40.7061039
 121.0884914 122.2908162  40.3950030 120.6051996 123.0908522  40.6013920
 121.1745853 122.3016107  39.4417474 112.8592548 119.0851947  35.6981459
 113.5051412 118.5750901  36.1868684 112.6509699 119.8220628  36.2724884
 117.1990039 116.2319564  39.7956473 118.0621501 115.8756369  40.0059798
 116.6255450 115.8933459  40.4831878  59.0216396  13.8850966  24.9817738
  58.5780251  13.0987344  24.6638643  59.6833610  14.0730116  24.3161629
  61.1197634  14.1653766  23.0099140  61.1016110  14.9862647  22.5179409
  62.0417554  14.0407841  23.2349281  57.5770689  11.6797895  23.8522648
  58.1099025  10.9186184  23.6221956  57.0484770  11.3871547  24.5946802
  66.9698367  10.6542861  19.8308977  67.1634257  11.5588672  20.0768252
  66.8698985  10.1950280  20.6647562  62.0313475  10.8049604  25.4049858
  61.8798982  10.5760156  24.4879941  62.0218155  11.7620205  25.4181203
  63.7405682  13.8368727  23.4826340  63.6818228  13.1527947  22.8156923
  64.1425200  14.5787717  23.0306966  63.7423089  11.8008311  21.7140319
  62.8549868  11.4634232  21.8366718  64.3121640  11.0691342  21.9509085
  59.7322926  16.3596597  20.8359721  60.4450898  16.9944062  20.7635623
  59.2412955  16.4560463  20.0199723  58.6323699   7.4055459  25.9683879
  57.9564336   7.3049588  26.6386255  59.4551333   7.2494673  26.4319877
  57.3746482  18.7122386  20.2041495  57.9264790  18.8754008  20.9690581
  57.7152675  19.3026824  19.5321520  62.2257356  13.5383644  26.0590150
  62.7697260  14.1513602  25.5645105  61.6444201  14.0963222  26.5757163
  57.5212293  16.2780868  22.2190150  57.8299419  16.0330015  23.0912849
  58.3187775  16.4827506  21.7309020  65.5486150  12.9979698  25.3951471
  64.7581694  12.9803837  24.8555970  65.3119505  13.5367992  26.1500508
  65.6684025   9.8472164  22.7084200  65.7182030   9.6822172  23.6499722
  65.5597949   8.9799423  22.3182080  62.9587788   5.8303092  24.0243506
  63.8597650   5.6909557  23.7327504  63.0335762   5.9957547  24.9641684
  67.1702222  12.2669106  22.9526221  66.8787030  12.6299086  23.7889682
  66.5574353  11.5536114  22.7739553  58.3201181  10.4087399  26.2704745
  59.2404190  10.5865998  26.4644792  58.2850764   9.4643445  26.1184445
  56.0522388   7.3218779  27.1195337  55.5689470   8.1219139  27.3259226
  56.1383327   7.3326723  26.1662781  60.3483414  11.1843411  27.9218906
  61.2174574  11.3584063  27.5605541  59.8690166  12.0037828  27.7994636
  72.0075890  22.8932037  17.3264181  72.6454300  22.7738784  16.6227521
  71.8896733  23.8412881  17.3852133  68.8165597  22.8459465  17.2625706
  68.4784108  22.7300529  16.3746240  69.6855365  22.4450630  17.2426712
  69.2985379  23.9994316  23.2211911  69.2874020  23.6047115  22.3492415
  69.4606019  23.2660389  23.8145683  62.2216844  26.1946133  16.0906817
  63.0138136  25.8536957  15.6753116  62.4613494  26.3041108  17.0108970
  70.2551971  28.3665909   8.5637061  69.6039951  28.9519989   8.1771075
  71.0496334  28.8972104   8.6232099  66.0192641  26.7831428  22.1691095
  65.7282507  27.6877059  22.0537761  66.6549625  26.8247956  22.8835165
  66.9448847  24.1608277  18.7592455  67.5412420  23.9364299  18.0449418
  67.0023819  23.4193022  19.3617903  71.5617159  20.6183490  14.4017389
  72.3480248  20.2002914  14.0507806  71.8255863  21.5229583  14.5699037
  76.9625586  20.5558724  15.3050367  77.6950758  19.9857940  15.5388197
  76.2064942  20.1680324  15.7456873  68.5801706  22.9785965  12.5013710
  68.2159913  22.4516586  13.2126631  69.4368821  22.5884434  12.3280195
  74.4851006  14.2680298  19.7644976  74.1534331  15.1375709  19.5406191
  73.8896620  13.9516582  20.4439006  70.9782526  26.4692844  19.1640889
  70.6783249  27.3717883  19.0556696  70.6333585  26.2025027  20.0162042
  64.4295007  22.9206641  15.1977593  63.5045504  22.7882855  15.4055285
  64.6779420  23.7000860  15.6947536  74.3779670  18.9875384  16.8438326
  73.4696547  18.9190792  16.5497087  74.3267265  19.4647329  17.6720152
  61.7903818  22.5639914  16.0321382  61.9196199  22.8174393  16.9460794
  61.1101270  23.1567622  15.7126037  65.9603306  33.2337164  12.1311856
  65.8827335  34.1844989  12.2100337  65.3564949  32.8883037  12.7886783
  68.4520535  20.4065030  24.7873223  67.6753869  20.9658950  24.7776088
  69.0911098  20.8921813  25.3088093  76.2441316  17.1891822  18.6216200
  75.6015696  17.4824356  17.9755995  75.7396244  17.0744743  19.4269397
  66.7066908  23.2150483  24.3491190  67.4481592  23.7535527  24.0726014
  66.0003893  23.8416772  24.5062742  72.1822247  25.3579623  22.9463352
  72.5905603  24.9162034  22.2017984  71.4599509  24.7832251  23.1997545
  68.5353317  20.2952230  20.3196909  69.3814512  20.7191644  20.4631558
  68.4751955  19.6385854  21.0135472  72.5051062  25.9180814  16.7015641
  71.8759924  26.0826528  15.9991709  72.1176724  26.3322424  17.4726605
  76.3840294  26.8535252  14.0560005  75.6991332  27.2334153  13.5057038
  76.4684143  27.4630579  14.7891952  71.6852763  17.9556598  21.9778082
  71.4413694  18.7098659  21.4412358  71.9612693  18.3341946  22.8125330
  73.6391225  24.4995211  20.6555348  73.8508121  25.1426971  19.9789729
  73.5920974  23.6657527  20.1877278  71.2417454  17.1113032  17.5591920
  70.3801933  17.4094285  17.8508658  71.2679889  17.3283430  16.6272953
  68.0579024  25.6555222  13.9665726  68.5217369  25.9342925  13.1770348
  67.7935822  24.7538667  13.7838817  64.9503105  25.2026704  16.9045489
  65.5204462  25.6313972  16.2662974  65.5411217  24.9209288  17.6029675
  65.4428271  20.3690131  25.1506500  64.8126932  21.0506412  25.3841897
  65.3364359  20.2573213  24.2059639  74.7537053  27.3767166  18.8277705
  75.5754497  26.9747354  18.5460387  74.7499456  27.2735400  19.7793821
  68.5193657  26.9251210  20.9838416  68.5838089  27.3871617  21.8196588
  67.8104581  26.2948575  21.1120726  59.0210947  20.2892418  18.5087415
  59.2718985  21.1739427  18.7744991  59.5570495  20.1097019  17.7362507
  82.8443046  23.7205915  15.1762677  82.0906755  23.1513313  15.0206681
  82.9790588  23.6868579  16.1233312  68.2341674  28.5919317  10.8517396
  68.0987349  29.4370853  11.2802244  68.7751487  28.7938595  10.0883330
  64.7209014  14.6710897  27.5131751  64.3275960  14.1177095  28.1879396
  65.5375154  14.9821475  27.9038269  63.4965957  29.2260511  13.5068074
  63.6732585  30.1478476  13.3189058  64.2922790  28.9118931  13.9362454
  67.6376975  16.0868776  25.1052008  68.3786688  16.6875929  25.0256470
  67.8694898  15.3446414  24.5470051  62.7818313  21.2725143  23.3830238
  62.6671828  20.3710401  23.6837337  61.9262831  21.5188840  23.0315054
  69.8610151  29.2142884  24.9817738  69.4174005  28.4279262  24.6638643
  70.5227364  29.4022034  24.3161629  64.6197272  30.7438685  19.5078417
  65.1704697  30.6155749  18.7355411  63.7808748  31.0433574  19.1573310
  71.9591389  29.4945684  23.0099140  71.9409864  30.3154565  22.5179409
  72.8811309  29.3699759  23.2349281  68.4164443  27.0089813  23.8522648
  68.9492780  26.2478101  23.6221956  67.8878524  26.7163465  24.5946802
  71.5834138  12.1149879  19.3816290  71.2398407  13.0051521  19.3055400
  71.9513101  11.9251537  18.5185875  70.6630678  14.4854534  17.3465523
  70.1595474  14.4484669  16.5333328  70.9561285  15.3947277  17.4062180
  76.5218695  24.8590845   9.8241898  75.7448138  24.5202004   9.3797060
  77.2010176  24.8643468   9.1496863  69.7817156  26.1375805  11.3641460
  69.2538517  25.4028565  11.0514697  69.2804658  26.9150482  11.1181428
  74.7610002  24.3324826  16.4808506  74.1033676  25.0224087  16.5688635
  75.5650401  24.7221258  16.8242493  73.5715461  22.6869199  14.5312448
  74.0847342  23.3199190  15.0334158  74.2216684  22.0870394  14.1655808
  70.8337835  32.6653523   7.2873119  70.1599534  32.9685220   7.8958077
  71.2203657  33.4682603   6.9378576  70.0496291  20.1618654  16.7770789
  69.1318853  20.3833601  16.6192477  70.4656435  20.2364965  15.9182496
  70.8331339  21.5610070  11.9073469  71.5803158  22.0731467  11.5980591
  71.1022929  21.2394123  12.7677862  74.3377257  27.6675200  12.6591591
  73.8839584  26.8266110  12.7156781  73.7071223  28.3036598  12.9966371
  73.2810176  18.5967186  13.8892258  72.5432933  18.0844572  14.2202501
  73.5336950  18.1567568  13.0775535  72.7810196  29.5051697  13.5941409
  73.0733170  30.0656754  12.8753774  73.2908817  29.7980258  14.3494568
  67.6542883  21.6697231  14.9910218  67.7091493  20.7171068  14.9152695
  66.8434085  21.8256670  15.4751517  67.7443821  30.2832048  14.6834862
  67.7020000  30.5092894  13.7543394  68.6606520  30.0495422  14.8320663
  71.1909455  20.7516115  21.5815491  71.5458843  20.9787589  22.4409957
  71.8381586  21.0834492  20.9592746  76.9207192  23.8734551  12.2864820
  76.7825091  24.0636147  11.3586009  76.5643411  24.6353934  12.7432871
  65.0849318  17.8592646  18.3661832  65.7248697  17.7181406  17.6684796
  64.2526849  17.5727160  17.9900434  76.9476572  25.9411078  17.2976092
  77.3813078  25.8486367  18.1459146  77.6608152  25.9168579  16.6596108
  65.8609622  27.1595077  14.4796825  66.6550220  26.6645397  14.2779400
  65.1501314  26.6312940  14.1164530  70.6804466  29.5413172  18.8309192
  70.7341489  30.1104109  19.5986908  69.8119248  29.7115057  18.4663229
  63.5602860  19.2430729  20.3133644  64.2325913  19.0348091  19.6646292
  62.7332646  19.0452815  19.8738876  77.8092121  25.9834779  19.8308977
  78.0028011  26.8880589  20.0768252  77.7092739  25.5242198  20.6647562
  69.4628432  15.8692670  22.3299304  68.8156347  16.5682619  22.2363781
  70.2329447  16.3028813  22.6975553  72.8707230  26.1341522  25.4049858
  72.7192736  25.9052073  24.4879941  72.8611909  27.0912123  25.4181203
  69.6392566  23.7073434  20.3896124  70.5684626  23.8584594  20.2165091
  69.2183596  23.7957455  19.5344771  68.4380898  27.7324099  18.1594662
  68.2991984  27.3642883  19.0320600  67.6495494  28.2471738  17.9878620
  69.0329050  32.8333195   9.5020198  69.2080806  32.3621239  10.3165821
  68.3461838  33.4598962   9.7301459  69.9886113  27.1105702  15.5483500
  69.6535946  27.0706472  16.4441149  69.4890059  26.4450417  15.0753910
  63.9630357  22.5173332  21.0736081  63.8250155  21.7853570  21.6747620
  64.8735281  22.4282232  20.7920268  66.5912658  22.2293291  20.5619760
  67.3012276  21.5886483  20.5206379  66.5481966  22.4806186  21.4845941
  74.5799436  29.1660644  23.4826340  74.5211983  28.4819864  22.8156923
  74.9818955  29.9079634  23.0306966  65.3041592  19.2158509  22.3815400
  64.7678949  18.7649247  23.0336996  64.7158300  19.3504418  21.6385864
  63.5990135  35.9822558  16.2760058  63.8386733  36.6141082  16.9539077
  62.7559332  35.6310598  16.5625418  74.5816844  27.1300228  21.7140319
  73.6943622  26.7926150  21.8366718  75.1515395  26.3983259  21.9509085
  61.0380713  18.3514517  19.4668394  60.9538902  17.7440186  18.7318804
  60.2163419  18.8423535  19.4677891  68.1117997  31.7901681  18.6801562
  68.0388169  32.5956652  19.1920867  67.6695390  31.9893646  17.8549584
  67.9007777  31.0273451  12.1904384  67.1175299  31.5695131  12.2842609
  68.6000522  31.5447430  12.5898625  79.0634184  22.5408446  16.4756881
  79.0524060  23.4233161  16.1050814  78.1951564  22.1879996  16.2811418
  70.5716681  31.6888515  20.8359721  71.2844653  32.3235979  20.7635623
  70.0806709  31.7852381  20.0199723  72.2934208  25.5939767  12.4077013
  71.3590486  25.7141230  12.2381717  72.4710876  24.6912234  12.1437023
  75.6806759  21.4357087  12.9427047  76.1467211  22.2685078  12.8687350
  76.1314259  20.9702068  13.6472305  65.6228594  29.4382958  21.6565292
  66.3238054  30.0719441  21.8094686  65.1523709  29.7797690  20.8960931
  73.7482990  27.7800908   9.9413199  74.0242834  27.6657502  10.8507073
  72.8787489  27.3818393   9.9025372  73.6523422  13.8037674  16.9817948
  72.7386501  14.0341900  17.1500155  74.0816523  13.8876118  17.8331981
  73.4229880  21.9927566  19.4817842  72.7701330  22.2403473  18.8270295
  73.8010260  21.1791704  19.1480320  70.3837054  32.0287259  13.5846013
  70.5659449  31.2108915  14.0473765  71.2070040  32.2454951  13.1470903
  70.7179219  30.9555444  10.8461061  71.2466986  30.4447898  10.2331223
  70.9807439  30.6397974  11.7106594  69.4717453  22.7347377  25.9683879
  68.7958090  22.6341506  26.6386255  70.2945087  22.5786590  26.4319877
  61.2196312  28.9719313  18.5896395  61.8049749  28.2263001  18.7224299
  61.0221151  29.2823270  19.4733059  64.0734967  32.0070560  13.6058837
  63.4045343  32.4916688  13.1222877  63.9347837  32.2539781  14.5202216
  68.2140236  34.0414304  20.2041495  68.7658544  34.2045926  20.9690581
  68.5546429  34.6318742  19.5321520  63.1904729  16.3889454  20.8063380
  63.2546056  17.2504285  20.3940778  63.1271849  15.7763455  20.0735739
  62.6657002  18.4612586  24.4536414  63.2929041  18.0789664  25.0673939
  61.8084921  18.2426788  24.8192107  73.0651110  28.8675562  26.0590150
  73.6091014  29.4805520  25.5645105  72.4837955  29.4255140  26.5757163
  71.3508623  31.9896280  17.1905178  71.2259763  31.1886019  16.6816123
  72.0087714  32.4842473  16.7019148  73.4143532  29.7905300  18.8184728
  72.4673867  29.6710651  18.7463054  73.7626305  28.9027798  18.9010989
  65.7743105  15.6799439  22.6422970  66.2977507  15.9261735  23.4049279
  65.5555438  16.5119473  22.2226107  70.4189965  29.5858016  15.0189080
  70.2714927  28.6574723  15.1996650  71.2443458  29.6078107  14.5346155
  74.0224087  30.4086575  16.1053953  74.9470634  30.2029436  15.9678404
  73.8539390  30.1602976  17.0143294  66.9795650  16.6213134  20.3272640
  66.6392470  15.8220947  20.7293320  66.2734656  16.9214844  19.7549473
  67.6312122  13.7062446  18.7799963  68.4538191  13.2322924  18.6578853
  67.8750185  14.4852930  19.2798649  65.1550701  20.3981567  16.5891942
  65.0095281  20.7121870  17.4816223  64.6775904  21.0166467  16.0362840
  67.0147084  17.3884115  16.6372831  67.0008652  16.4925208  16.3005129
  67.7319512  17.3954778  17.2711117  68.8673214  17.8221455  18.6825959
  68.6090992  18.7438526  18.6810289  68.3358255  17.4251889  19.3726423
  73.8119403  30.9272242  11.4616044  73.9856281  30.3618665  10.7089897
  74.3048294  31.7273137  11.2795534  59.6296363  22.9386911  19.5279603
  59.0849831  23.7146719  19.6599877  60.5075713  23.2857716  19.3698724
  79.6658794  23.6908665  13.0806344  80.1089940  22.9415990  12.6825467
  78.7885304  23.6818801  12.6980076  74.7994576  30.2439006   8.5612942
  75.4945480  30.8645699   8.7800257  75.1417726  29.3934358   8.8365320
  60.4162385  22.0656807  22.4209760  59.6744121  22.2139443  23.0074390
  60.0955129  22.3265073  21.5576509  76.6985999  27.6938712  10.0900273
  77.2237323  28.0325985   9.3649593  76.6108351  26.7585727   9.9063408
  68.3606047  31.6072786  22.2190150  68.6693174  31.3621932  23.0912849
  69.1581529  31.8119424  21.7309020  68.3826659  33.7610695  14.4495526
  67.9431650  33.2687074  15.1428383  69.1334776  33.2183663  14.2087602
  60.8618998  29.9522236  14.4520154  61.6877018  29.6526008  14.0718798
  60.5113050  29.1829859  14.9009943  65.8300532  29.3048704  16.5217828
  65.2080541  28.6419409  16.2220056  66.5005398  29.3309836  15.8391476
  59.0627603  27.8708563  15.4109088  58.2259512  27.4430737  15.2293089
  59.0351249  28.0641006  16.3479879  65.9025059  17.7830492  26.1150334
  65.9513215  18.6592615  25.7328104  66.4447573  17.2407885  25.5421977
  76.3879905  28.3271616  25.3951471  75.5975448  28.3095754  24.8555970
  76.1513259  28.8659909  26.1500508  76.5077780  25.1764082  22.7084200
  76.5575785  25.0114089  23.6499722  76.3991703  24.3091341  22.3182080
  73.7981542  21.1595010  24.0243506  74.6991405  21.0201475  23.7327504
  73.8729517  21.3249465  24.9641684  68.1324347  18.5361865  22.8696693
  67.2627657  18.8295431  22.5979281  68.3683828  19.1202310  23.5903956
  78.0095977  27.5961023  22.9526221  77.7180785  27.9591004  23.7889682
  77.3968108  26.8828032  22.7739553  79.2091659  25.1613903  15.4728791
  80.0438550  25.6003707  15.6366352  79.3450788  24.6852556  14.6537037
  76.2583165  22.7193638  21.4206279  76.7337286  22.9121284  20.6125131
  75.3348730  22.7752824  21.1749663  70.8363381  14.7541482  20.3862113
  71.3545325  15.4902509  20.0608602  70.4818514  15.0605475  21.2208872
  74.9584834  19.5959398  19.6534585  75.9102257  19.6957496  19.6746809
  74.7888284  18.8037667  20.1632669  72.9799213  16.6814981  19.8393986
  72.3849145  16.9619994  19.1440474  72.6948910  17.1708882  20.6110727
  72.1106704  30.6337908   8.5996618  73.0437377  30.5683470   8.8029494
  72.0229917  31.4694175   8.1411151  74.7394720  29.9503779   5.5600566
  74.6608352  29.6163642   6.4536324  75.5604387  30.4425546   5.5592038
  77.4372912  22.8165518  18.7676884  77.4049232  21.8781519  18.9536568
  78.0473535  22.8949555  18.0342709  77.5867400  19.6076561  18.8135168
  77.0706449  18.8235018  18.6265096  78.4707349  19.2795278  18.9781687
  75.2478127  13.3517577  14.7730980  75.0502948  13.0432665  15.6574312
  75.8577833  14.0779216  14.9028910  83.2549461  23.8781525  17.9082921
  83.9852850  23.6166813  18.4690625  82.6456407  23.1410247  17.9484989
  81.3364759  22.0189387  18.5057372  80.6097922  21.8845352  17.8973864
  80.9212045  22.3266216  19.3114090  69.1594935  25.7379317  26.2704745
  70.0797944  25.9157916  26.4644792  69.1244518  24.7935362  26.1184445
  62.1557008  23.6480352  18.9127527  62.3743017  24.5797459  18.9315560
  62.5682781  23.2888326  19.6982330  67.0284873  19.2213557  28.3030275
  66.9281600  20.1707914  28.2342367  66.8106415  18.8931796  27.4306346
  58.2465360  24.5520822  17.1651142  57.5528831  24.1374775  16.6521096
  58.9938351  24.5941359  16.5684561  66.8916143  22.6510696  27.1195337
  66.4083225  23.4511056  27.3259226  66.9777082  22.6618641  26.1662781
  62.8189480  26.5415231  19.1563771  63.7732734  26.5099173  19.0893702
  62.6202004  26.0805855  19.9713997  63.4088863  25.1116347  21.7234569
  64.2281752  25.6060426  21.7469406  63.6825670  24.1948315  21.6952136
  76.5169995  17.5273620  14.8016863  77.2930385  18.0170073  15.0741480
  75.7918129  17.9531674  15.2588733  78.9542554  18.2401240  15.8590804
  79.5487044  17.9996975  15.1484112  79.0269137  17.5208370  16.4864340
  61.1739709  32.0834850  16.1733969  61.0394177  31.3235251  15.6071967
  60.7571771  32.8075750  15.7062758  73.1396482  23.0181635  11.3012814
  73.0831684  23.4750187  10.4620447  73.6924825  22.2572320  11.1235657
  76.9501288  18.8071367  12.1262934  76.6938223  18.4068003  12.9571141
  76.3254156  19.5215161  12.0013073  81.2613626  21.5467440  14.6334225
  80.7013184  21.6160630  15.4065787  80.6557130  21.3708425  13.9133721
  64.3308835  32.9804167  16.3852411  64.2141219  33.9249600  16.2831102
  63.5101281  32.6777729  16.7738211  74.2185370  27.7054303   7.2309004
  75.0530974  27.2735502   7.0486479  74.0569713  27.5336317   8.1585899
  58.6623777  19.4454481  22.4226766  59.3082640  18.9353435  22.9113991
  58.4540928  20.1823163  22.9970191  71.1877169  26.5135328  27.9218906
  72.0568329  26.6875981  27.5605541  70.7083920  27.3329745  27.7994636
  65.3563349  33.6332429  19.6008340  66.2590596  33.6656040  19.9174835
  65.1300719  32.7032880  19.6154676  67.1116951  32.3863416  16.2618418
  66.1612582  32.3865278  16.1482791  67.4149437  31.6396150  15.7454453
  63.0021268  16.5922098  26.5201780  63.8652729  16.2358903  26.7305104
  62.4286678  16.2535993  27.2077184  82.8469645  38.2223954  17.3264181
  83.4848055  38.1030702  16.6227521  82.7290488  39.1704798  17.3852133
  79.6559351  38.1751382  17.2625706  79.3177863  38.0592447  16.3746240
  80.5249119  37.7742547  17.2426712  75.5146167  40.0286859  13.2522597
  74.9511032  39.9376796  12.4838884  75.3998562  39.2086763  13.7325089
  80.1379134  39.3286234  23.2211911  80.1267775  38.9339032  22.3492415
  80.2999773  38.5952307  23.8145683  73.0610599  41.5238050  16.0906817
  73.8531891  41.1828875  15.6753116  73.3007249  41.6333025  17.0108970
  81.0945725  43.6957827   8.5637061  80.4433705  44.2811907   8.1771075
  81.8890088  44.2264021   8.6232099  75.0201353  40.7846964   8.9624196
  75.7932229  40.2375951   8.8237072  75.3726751  41.6491213   9.1738657
  76.8586395  42.1123346  22.1691095  76.5676261  43.0168977  22.0537761
  77.4943379  42.1539874  22.8835165  77.7842602  39.4900194  18.7592455
  78.3806174  39.2656217  18.0449418  77.8417574  38.7484940  19.3617903
  77.3567630  36.9439630   6.5942646  77.6093151  36.4221151   5.8326109
  76.4192189  36.7805775   6.6969329  82.4010913  35.9475408  14.4017389
  83.1874002  35.5294831  14.0507806  82.6649618  36.8521500  14.5699037
  82.5720991  41.3848258   9.1006046  81.9366824  41.4582885   9.8126950
  82.2418397  41.9741857   8.4225125  87.8019340  35.8850641  15.3050367
  88.5344512  35.3149858  15.5388197  87.0458696  35.4972242  15.7456873
  77.0763919  38.8467736   8.7967021  76.9600177  38.1712639   9.4648105
  77.1866179  38.3600110   7.9799174  79.4195460  38.3077883  12.5013710
  79.0553667  37.7808504  13.2126631  80.2762576  37.9176352  12.3280195
  85.3244761  29.5972215  19.7644976  84.9928085  30.4667626  19.5406191
  84.7290374  29.2808499  20.4439006  79.0600947  33.3367783   7.4975058
  79.2275349  34.2048019   7.8645529  78.8698116  33.4995064   6.5736348
  81.8176280  41.7984761  19.1640889  81.5177003  42.7009800  19.0556696
  81.4727340  41.5316945  20.0162042  75.2688762  38.2498558  15.1977593
  74.3439258  38.1174772  15.4055285  75.5173175  39.0292778  15.6947536
  85.2173424  34.3167302  16.8438326  84.3090301  34.2482710  16.5497087
  85.1661020  34.7939247  17.6720152  79.0390168  35.7925440   8.4821725
  78.9189793  36.2382491   9.3207206  78.3442756  36.1410758   7.9235263
  72.6297573  37.8931832  16.0321382  72.7589954  38.1466311  16.9460794
  71.9495024  38.4859540  15.7126037  76.7997060  48.5629082  12.1311856
  76.7221090  49.5136907  12.2100337  76.1958704  48.2174954  12.7886783
  79.2914290  35.7356947  24.7873223  78.5147624  36.2950867  24.7776088
  79.9304853  36.2213730  25.3088093  87.0835070  32.5183740  18.6216200
  86.4409451  32.8116273  17.9755995  86.5789999  32.4036660  19.4269397
  84.7375234  36.2646913   9.3102059  85.6493090  36.4974300   9.1349757
  84.2284881  36.8483957   8.7477138  77.5460662  38.5442401  24.3491190
  78.2875346  39.0827445  24.0726014  76.8397648  39.1708689  24.5062742
  83.0216002  40.6871541  22.9463352  83.4299358  40.2453952  22.2017984
  82.2993263  40.1124169  23.1997545  79.3747072  35.6244148  20.3196909
  80.2208267  36.0483561  20.4631558  79.3145709  34.9677772  21.0135472
  83.3444816  41.2472732  16.7015641  82.7153679  41.4118446  15.9991709
  82.9570478  41.6614341  17.4726605  87.2234048  42.1827170  14.0560005
  86.5385086  42.5626071  13.5057038  87.3077898  42.7922496  14.7891952
  82.5246517  33.2848516  21.9778082  82.2807449  34.0390577  21.4412358
  82.8006448  33.6633864  22.8125330  84.4784980  39.8287129  20.6555348
  84.6901875  40.4718888  19.9789729  84.4314728  38.9949445  20.1877278
  82.0811209  32.4404949  17.5591920  81.2195688  32.7386203  17.8508658
  82.1073643  32.6575348  16.6272953  78.8972778  40.9847140  13.9665726
  79.3611124  41.2634843  13.1770348  78.6329576  40.0830584  13.7838817
  75.7896859  40.5318621  16.9045489  76.3598216  40.9605890  16.2662974
  76.3804971  40.2501206  17.6029675  77.8341664  37.1070292  10.7755291
  78.5365708  37.5591336  11.2429217  77.5022293  36.4654111  11.4035184
  76.2822026  35.6982049  25.1506500  75.6520686  36.3798330  25.3841897
  76.1758114  35.5865130  24.2059639  71.5766998  35.3653845  16.0772425
  70.7866052  35.6211373  15.6012535  72.0678246  36.1802183  16.1824465
  85.5930808  42.7059084  18.8277705  86.4148252  42.3039271  18.5460387
  85.5893211  42.6027318  19.7793821  73.5281744  35.7298424  13.0355901
  72.7312907  35.8417118  13.5539397  73.3007336  36.0685076  12.1696792
  79.3587411  42.2543127  20.9838416  79.4231844  42.7163534  21.8196588
  78.6498335  41.6240492  21.1120726  69.8604701  35.6184335  18.5087415
  70.1112740  36.5031345  18.7744991  70.3964250  35.4388937  17.7362507
  93.6836801  39.0497832  15.1762677  92.9300509  38.4805231  15.0206681
  93.8184342  39.0160497  16.1233312  79.0735429  43.9211235  10.8517396
  78.9381104  44.7662770  11.2802244  79.6145241  44.1230512  10.0883330
  75.5602769  30.0002815  27.5131751  75.1669714  29.4469013  28.1879396
  76.3768909  30.3113393  27.9038269  72.5264826  41.4386673  11.4245321
  73.0389347  42.2329923  11.5750886  73.1787539  40.7412963  11.3578923
  74.3359711  44.5552429  13.5068074  74.5126339  45.4770394  13.3189058
  75.1316545  44.2410848  13.9362454  78.4770730  31.4160694  25.1052008
  79.2180443  32.0167847  25.0256470  78.7088652  30.6738331  24.5470051
  73.6212068  36.6017061  23.3830238  73.5065583  35.7002318  23.6837337
  72.7656585  36.8480758  23.0315054  80.7003905  44.5434801  24.9817738
  80.2567759  43.7571180  24.6638643  81.3621119  44.7313952  24.3161629
  75.4591026  46.0730603  19.5078417  76.0098452  45.9447666  18.7355411
  74.6202502  46.3725492  19.1573310  82.7985143  44.8237601  23.0099140
  82.7803619  45.6446482  22.5179409  83.7205063  44.6991676  23.2349281
  79.2558198  42.3381731  23.8522648  79.7886534  41.5770019  23.6221956
  78.7272279  42.0455382  24.5946802  82.4227892  27.4441797  19.3816290
  82.0792162  28.3343438  19.3055400  82.7906855  27.2543454  18.5185875
  70.4913743  39.7675327  12.2004892  71.3288965  40.1772335  11.9838600
  70.6692011  38.8274769  12.1705086  82.3878175  37.4350408   7.8888725
  81.8724799  38.2055012   8.1277112  82.1155484  36.7615544   8.5121786
  79.9725286  32.2800109  12.9473963  79.1166883  31.8906959  12.7679602
  80.3852238  32.3592069  12.0873749  81.5024433  29.8146452  17.3465523
  80.9989228  29.7776587  16.5333328  81.7955040  30.7239195  17.4062180
  77.7467319  29.8985182  16.3531705  78.6120316  29.7027990  15.9937594
  77.8144828  29.6695533  17.2801061  87.3612449  40.1882762   9.8241898
  86.5841892  39.8493922   9.3797060  88.0403930  40.1935386   9.1496863
  82.1764478  35.3077500   9.7148506  81.8714614  35.6223649  10.5658649
  83.1294921  35.3858920   9.7575839  80.6210910  41.4667723  11.3641460
  80.0932272  40.7320483  11.0514697  80.1198413  42.2442399  11.1181428
  85.6003756  39.6616744  16.4808506  84.9427431  40.3516005  16.5688635
  86.4044155  40.0513176  16.8242493  75.3529638  32.1287389  13.7248071
  75.9273390  31.9062571  12.9921264  75.9400620  32.1976084  14.4776673
  84.4109215  38.0161116  14.5312448  84.9241097  38.6491108  15.0334158
  85.0610439  37.4162312  14.1655808  75.6799225  34.1591850   7.7443957
  74.8436537  34.4966537   8.0653231  75.5403995  34.0240830   6.8071094
  77.6552306  29.0028638  12.4523141  77.0016718  28.6877656  11.8279756
  77.6132780  28.3804379  13.1782964  78.7663510  39.2847933   4.3676433
  77.8590572  39.0537187   4.5667582  79.2634542  38.4885553   4.5550415
  81.6731589  47.9945441   7.2873119  80.9993288  48.2977137   7.8958077
  82.0597411  48.7974521   6.9378576  80.8890046  35.4910572  16.7770789
  79.9712607  35.7125519  16.6192477  81.3050190  35.5656882  15.9182496
  81.6725094  36.8901988  11.9073469  82.4196913  37.4023385  11.5980591
  81.9416683  36.5686040  12.7677862  79.9451744  39.3860528   8.8900423
  79.0362963  39.1019561   8.9872893  79.9746828  39.8059607   8.0303730
  85.1771011  42.9967118  12.6591591  84.7233338  42.1558028  12.7156781
  84.5464978  43.6328516  12.9966371  84.1203931  33.9259104  13.8892258
  83.3826688  33.4136490  14.2202501  84.3730704  33.4859485  13.0775535
  83.6203951  44.8343614  13.5941409  83.9126925  45.3948672  12.8753774
  84.1302571  45.1272175  14.3494568  84.2215558  26.7035356  14.4834027
  84.5274435  25.8432719  14.1959942  84.9468163  27.2952976  14.2833021
  70.5139914  37.1066042  12.8715625  70.3164314  36.5135403  12.1466692
  69.9586578  36.8018253  13.5891564  78.4936638  36.9989149  14.9910218
  78.5485248  36.0462985  14.9152695  77.6827840  37.1548588  15.4751517
  79.6427832  40.9269272   6.2288502  79.2047262  40.2105131   5.7694139
  80.3838273  41.1545387   5.6673593  76.4328998  35.6166209  12.7500597
  75.6196863  35.9160379  13.1565789  76.9287992  35.2221897  13.4675080
  78.5837576  45.6123966  14.6834862  78.5413754  45.8384812  13.7543394
  79.5000275  45.3787340  14.8320663  82.0303209  36.0808033  21.5815491
  82.3852597  36.3079506  22.4409957  82.6775341  36.4126410  20.9592746
  87.7600946  39.2026469  12.2864820  87.6218845  39.3928065  11.3586009
  87.4037165  39.9645852  12.7432871  75.9243073  33.1884564  18.3661832
  76.5642452  33.0473323  17.6684796  75.0920603  32.9019078  17.9900434
  87.7870326  41.2702996  17.2976092  88.2206833  41.1778285  18.1459146
  88.5001907  41.2460496  16.6596108  76.7003376  42.4886995  14.4796825
  77.4943975  41.9937315  14.2779400  75.9895069  41.9604858  14.1164530
  81.5198221  44.8705090  18.8309192  81.5735243  45.4396026  19.5986908
  80.6513002  45.0406975  18.4663229  73.0086140  36.6330076  10.5556577
  72.0783728  36.5714532  10.7726540  73.1043612  36.1106029   9.7593219
  72.9271689  33.1584889  13.1434819  73.1878506  34.0730222  13.0343980
  73.7488861  32.6909332  13.2931432  74.3996614  34.5722646  20.3133644
  75.0719668  34.3640008  19.6646292  73.5726401  34.3744732  19.8738876
  88.6485876  41.3126697  19.8308977  88.8421766  42.2172507  20.0768252
  88.5486494  40.8534116  20.6647562  80.3022186  31.1984587  22.3299304
  79.6550101  31.8974537  22.2363781  81.0723202  31.6320731  22.6975553
  83.7100984  41.4633439  25.4049858  83.5586491  41.2343991  24.4879941
  83.7005664  42.4204041  25.4181203  80.4786321  39.0365352  20.3896124
  81.4078381  39.1876512  20.2165091  80.0577351  39.1249373  19.5344771
  79.2774652  43.0616017  18.1594662  79.1385738  42.6934801  19.0320600
  78.4889249  43.5763656  17.9878620  79.8722804  48.1625113   9.5020198
  80.0474560  47.6913156  10.3165821  79.1855592  48.7890879   9.7301459
  80.8279868  42.4397619  15.5483500  80.4929700  42.3998389  16.4441149
  80.3283813  41.7742335  15.0753910  74.8024112  37.8465249  21.0736081
  74.6643910  37.1145488  21.6747620  75.7129035  37.7574149  20.7920268
  83.7639059  39.7853654   5.8220559  83.1468230  39.0600482   5.7253612
  83.2955548  40.5463014   5.4787633  77.4306412  37.5585209  20.5619760
  78.1406031  36.9178401  20.5206379  77.3875720  37.8098103  21.4845941
  85.4193191  44.4952562  23.4826340  85.3605737  43.8111782  22.8156923
  85.8212709  45.2371552  23.0306966  76.1435346  34.5450426  22.3815400
  75.6072703  34.0941165  23.0336996  75.5552055  34.6796335  21.6385864
  74.4383890  51.3114476  16.2760058  74.6780488  51.9433000  16.9539077
  73.5953086  50.9602516  16.5625418  75.5537605  34.0039078   4.9441863
  74.6767071  33.8827879   4.5804110  76.0295358  33.2125156   4.6920752
  85.4210598  42.4592146  21.7140319  84.5337377  42.1218068  21.8366718
  85.9909149  41.7275177  21.9509085  67.0739745  38.7916238  15.0383371
  67.7610785  38.4777968  14.4504386  66.9187874  39.6957602  14.7650622
  71.8774467  33.6806434  19.4668394  71.7932656  33.0732104  18.7318804
  71.0557174  34.1715453  19.4677891  78.9511752  47.1193598  18.6801562
  78.8781923  47.9248570  19.1920867  78.5089145  47.3185564  17.8549584
  78.7401531  46.3565368  12.1904384  77.9569053  46.8987048  12.2842609
  79.4394276  46.8739348  12.5898625  82.0498181  32.1659998  14.8338589
  82.5466881  31.4129960  14.5139660  81.2785163  32.2024314  14.2681799
  89.9027939  37.8700363  16.4756881  89.8917815  38.7525079  16.1050814
  89.0345318  37.5171914  16.2811418  81.4110435  47.0180432  20.8359721
  82.1238407  47.6527897  20.7635623  80.9200464  47.1144298  20.0199723
  83.1327962  40.9231685  12.4077013  82.1984241  41.0433147  12.2381717
  83.3104630  40.0204152  12.1437023  78.6333150  34.3077381  14.5610274
  78.2630938  33.7548421  15.2491180  79.1292243  33.7035514  14.0085274
  86.5200513  36.7649004  12.9427047  86.9860966  37.5976996  12.8687350
  86.9708014  36.2993986  13.6472305  76.4622349  44.7674876  21.6565292
  77.1631808  45.4011359  21.8094686  75.9917464  45.1089607  20.8960931
  84.5876744  43.1092826   9.9413199  84.8636588  42.9949420  10.8507073
  83.7181243  42.7110310   9.9025372  84.4917176  29.1329591  16.9817948
  83.5780256  29.3633818  17.1500155  84.9210278  29.2168035  17.8331981
  84.2623635  37.3219483  19.4817842  83.6095085  37.5695391  18.8270295
  84.6404015  36.5083621  19.1480320  81.2230808  47.3579176  13.5846013
  81.4053203  46.5400832  14.0473765  82.0463795  47.5746869  13.1470903
  81.5572974  46.2847361  10.8461061  82.0860740  45.7739816  10.2331223
  81.8201194  45.9689892  11.7106594  80.3111208  38.0639294  25.9683879
  79.6351845  37.9633424  26.6386255  81.1338842  37.9078508  26.4319877
  72.0590067  44.3011231  18.5896395  72.6443504  43.5554919  18.7224299
  71.8614905  44.6115187  19.4733059  74.9128722  47.3362478  13.6058837
  74.2439097  47.8208606  13.1222877  74.7741592  47.5831699  14.5202216
  66.6507721  36.8716831  17.3100838  66.6891821  36.3380422  18.1037956
  66.1448014  36.3452037  16.6911815  79.0533991  49.3706222  20.2041495
  79.6052299  49.5337843  20.9690581  79.3940184  49.9610660  19.5321520
  74.0298484  31.7181371  20.8063380  74.0939810  32.5796202  20.3940778
  73.9665604  31.1055373  20.0735739  73.5050756  33.7904504  24.4536414
  74.1322795  33.4081581  25.0673939  72.6478675  33.5718706  24.8192107
  83.9044865  44.1967479  26.0590150  84.4484769  44.8097437  25.5645105
  83.3231710  44.7547058  26.5757163  70.2816299  35.5980933  10.3854769
  70.5769740  34.6891612  10.3321823  69.3804335  35.5768673  10.0635772
  82.1902378  47.3188197  17.1905178  82.0653517  46.5177937  16.6816123
  82.8481469  47.8134391  16.7019148  73.8110546  33.6736930  16.3682318
  73.0897132  34.2872897  16.2289791  74.6003802  34.2094695  16.2898964
  84.2537286  45.1197217  18.8184728  83.3067622  45.0002568  18.7463054
  84.6020059  44.2319715  18.9010989  76.6136860  31.0091356  22.6422970
  77.1371261  31.2553653  23.4049279  76.3949193  31.8411391  22.2226107
  72.0104141  33.2795031  10.5094094  71.6816847  32.3992410  10.3269200
  72.3643511  33.2242699  11.3970484  81.2583719  44.9149934  15.0189080
  81.1108682  43.9866641  15.1996650  82.0837213  44.9370024  14.5346155
  75.1245964  33.5668001  10.8769572  75.4642036  34.0953922  10.1548180
  75.5718084  33.9048407  11.6528139  84.8617841  45.7378492  16.1053953
  85.7864389  45.5321354  15.9678404  84.6933145  45.4894893  17.0143294
  77.8189405  31.9505051  20.3272640  77.4786225  31.1512864  20.7293320
  77.1128411  32.2506762  19.7549473  78.4705876  29.0354364  18.7799963
  79.2931946  28.5614842  18.6578853  78.7143940  29.8144848  19.2798649
  77.1114111  32.0642622   9.0762865  77.8322473  32.4423875   8.5726582
  76.4879415  32.7831499   9.1797843  81.2545234  32.7687771  10.0121197
  81.4708848  33.6512409   9.7110025  80.7739301  32.3773985   9.2826839
  75.9944455  35.7273484  16.5891942  75.8489036  36.0413787  17.4816223
  75.5169659  36.3458385  16.0362840  77.8540838  32.7176032  16.6372831
  77.8402407  31.8217126  16.3005129  78.5713266  32.7246696  17.2711117
  79.7066969  33.1513373  18.6825959  79.4484747  34.0730443  18.6810289
  79.1752009  32.7543807  19.3726423  84.6513158  46.2564160  11.4616044
  84.8250035  45.6910582  10.7089897  85.1442049  47.0565055  11.2795534
  70.4690117  38.2678829  19.5279603  69.9243585  39.0438637  19.6599877
  71.3469467  38.6149633  19.3698724  77.2577734  31.5990413  11.9060401
  77.3793645  30.6707059  12.1051289  76.9679776  31.6129099  10.9938717
  80.1268924  29.2845323  15.0427121  80.1490621  29.3484656  14.0879101
  80.5436983  28.4449832  15.2367627  90.5052549  39.0200583  13.0806344
  90.9483695  38.2707908  12.6825467  89.6279059  39.0110719  12.6980076
  85.6388330  45.5730924   8.5612942  86.3339235  46.1937617   8.7800257
  85.9811480  44.7226275   8.8365320  71.2556139  37.3948725  22.4209760
  70.5137875  37.5431360  23.0074390  70.9348883  37.6556991  21.5576509
  87.5379753  43.0230630  10.0900273  88.0631077  43.3617902   9.3649593
  87.4502106  42.0877645   9.9063408  79.1999802  46.9364703  22.2190150
  79.5086928  46.6913850  23.0912849  79.9975284  47.1411342  21.7309020
  79.2220414  49.0902613  14.4495526  78.7825404  48.5978992  15.1428383
  79.9728531  48.5475581  14.2087602  71.7012753  45.2814154  14.4520154
  72.5270773  44.9817926  14.0718798  71.3506805  44.5121776  14.9009943
  76.6694286  44.6340622  16.5217828  76.0474295  43.9711327  16.2220056
  77.3399153  44.6601754  15.8391476  69.9021358  43.2000480  15.4109088
  69.0653266  42.7722655  15.2293089  69.8745003  43.3932924  16.3479879
  76.7418814  33.1122410  26.1150334  76.7906969  33.9884533  25.7328104
  77.2841328  32.5699803  25.5421977  87.2273659  43.6563533  25.3951471
  86.4369203  43.6387672  24.8555970  86.9907014  44.1951827  26.1500508
  87.3471534  40.5056000  22.7084200  87.3969539  40.3406007  23.6499722
  87.2385458  39.6383259  22.3182080  76.2307793  43.1844545   9.9976289
  76.3795913  43.8680010   9.3442961  77.0374236  43.1649635  10.5125744
  84.6375297  36.4886928  24.0243506  85.5385159  36.3493393  23.7327504
  84.7123271  36.6541383  24.9641684  78.9718102  33.8653782  22.8696693
  78.1021411  34.1587348  22.5979281  79.2077582  34.4494227  23.5903956
  88.8489731  42.9252941  22.9526221  88.5574539  43.2882922  23.7889682
  88.2361862  42.2119949  22.7739553  90.0485413  40.4905821  15.4728791
  90.8832305  40.9295625  15.6366352  90.1844542  40.0144474  14.6537037
  87.0976919  38.0485556  21.4206279  87.5731041  38.2413202  20.6125131
  86.1742485  38.1044742  21.1749663  73.9860426  39.2109723  11.0037357
  73.7406468  38.3072053  11.2017568  74.1556340  39.2126873  10.0616835
  81.6757136  30.0833399  20.3862113  82.1939080  30.8194426  20.0608602
  81.3212269  30.3897393  21.2208872  73.2556073  34.9438081   8.5023519
  72.5625318  35.0182436   7.8463555  73.0107825  34.1798424   9.0245036
  81.9269730  26.5033682  15.9063010  82.2071484  25.8356871  16.5323436
  82.7120337  26.6962778  15.3937673  79.7303198  45.6792676   7.4688036
  79.1577166  46.2982863   7.0158508  80.3035992  46.2292037   8.0027958
  85.7978588  34.9251316  19.6534585  86.7496011  35.0249414  19.6746809
  85.6282039  34.1329584  20.1632669  83.8192968  32.0106899  19.8393986
  83.2242900  32.2911912  19.1440474  83.5342664  32.5000800  20.6110727
  82.9500458  45.9629826   8.5996618  83.8831131  45.8975388   8.8029494
  82.8623671  46.7986093   8.1411151  85.5788475  45.2795696   5.5600566
  85.5002106  44.9455560   6.4536324  86.3998142  45.7717464   5.5592038
  88.2766666  38.1457436  18.7676884  88.2442986  37.2073436  18.9536568
  88.8867290  38.2241472  18.0342709  80.1149997  37.0153489   4.8104088
  81.0609102  36.8859697   4.8792506  79.7364242  36.2768150   5.2873517
  88.4261155  34.9368479  18.8135168  87.9100203  34.1526936  18.6265096
  89.3101103  34.6087196  18.9781687  86.0871882  28.6809495  14.7730980
  85.8896703  28.3724583  15.6574312  86.6971587  29.4071133  14.9028910
  94.0943216  39.2073442  17.9082921  94.8246604  38.9458731  18.4690625
  93.4850161  38.4702164  17.9484989  92.1758513  37.3481305  18.5057372
  91.4491677  37.2137270  17.8973864  91.7605800  37.6558134  19.3114090
  79.9988689  41.0671235  26.2704745  80.9191699  41.2449834  26.4644792
  79.9638273  40.1227280  26.1184445  78.2992914  34.9403465   4.7458974
  77.3924370  34.6436578   4.8221687  78.5768895  34.6433283   3.8793260
  69.2170854  36.2609828  15.1958020  68.8973639  35.4075137  14.9032394
  68.6704283  36.4758406  15.9515987  72.9950762  38.9772269  18.9127527
  73.2136772  39.9089377  18.9315560  73.4076536  38.6180244  19.6982330
  79.9154980  29.4840355  10.9003215  79.1055708  29.1387440  11.2758461
  80.6039397  29.1747898  11.4890827  81.8445528  28.5618401  12.5227512
  82.3976567  28.9813855  13.1817535  82.0815614  27.6354150  12.5650468
  77.8678627  34.5505475  28.3030275  77.7675354  35.4999832  28.2342367
  77.6500169  34.2223714  27.4306346  77.0691699  31.7990400   4.8870953
  77.9310863  32.1245298   5.1466770  77.2542043  31.0121896   4.3744019
  69.0859115  39.8812740  17.1651142  68.3922586  39.4666693  16.6521096
  69.8332106  39.9233276  16.5684561  85.2224335  30.6718927  12.0306176
  84.6423004  31.3303731  11.6484228  84.9560268  29.8496271  11.6193593
  83.6727902  30.0723984  14.2327496  84.1727680  30.1840519  13.4241815
  84.3163510  29.7685037  14.8728305  77.7309897  37.9802614  27.1195337
  77.2476979  38.7802974  27.3259226  77.8170836  37.9910559  26.1662781
  70.9995857  39.8130994  15.0417157  70.9766545  39.9118681  14.0899040
  71.3096494  40.6596144  15.3634323  73.6583235  41.8707149  19.1563771
  74.6126488  41.8391091  19.0893702  73.4595758  41.4097772  19.9713997
  74.2482617  40.4408265  21.7234569  75.0675506  40.9352343  21.7469406
  74.5219425  39.5240233  21.6952136  84.0049213  32.8319017  11.0862524
  83.1175068  33.1168668  10.8682719  84.4203202  32.6712780  10.2389801
  87.3563749  32.8565538  14.8016863  88.1324139  33.3461990  15.0741480
  86.6311884  33.2823592  15.2588733  89.7936308  33.5693157  15.8590804
  90.3880799  33.3288893  15.1484112  89.8662892  32.8500288  16.4864340
  72.0133464  47.4126768  16.1733969  71.8787932  46.6527169  15.6071967
  71.5965526  48.1367668  15.7062758  83.1492427  42.5963692   5.1810544
  83.8528277  42.8013694   5.7968200  82.4255075  43.1640454   5.4459628
  83.9790237  38.3473553  11.3012814  83.9225438  38.8042104  10.4620447
  84.5318579  37.5864238  11.1235657  87.7895043  34.1363285  12.1262934
  87.5331977  33.7359920  12.9571141  87.1647911  34.8507079  12.0013073
  92.1007381  36.8759358  14.6334225  91.5406939  36.9452547  15.4065787
  91.4950884  36.7000343  13.9133721  75.1702590  48.3096085  16.3852411
  75.0534974  49.2541518  16.2831102  74.3495036  48.0069647  16.7738211
  85.0579124  43.0346221   7.2309004  85.8924728  42.6027419   7.0486479
  84.8963467  42.8628235   8.1585899  84.7125016  39.5378334   8.5965343
  84.6573820  39.3722606   7.6553788  84.0871072  40.2454367   8.7527533
  69.5017531  34.7746399  22.4226766  70.1476395  34.2645353  22.9113991
  69.2934682  35.5115080  22.9970191  82.0270923  41.8427246  27.9218906
  82.8962083  42.0167898  27.5605541  81.5477675  42.6621663  27.7994636
  78.0221142  29.0386443   8.1750662  78.0099812  29.9828283   8.3318933
  78.9144564  28.8556589   7.8810123  76.1957104  48.9624347  19.6008340
  77.0984350  48.9947957  19.9174835  75.9694474  48.0324798  19.6154676
  77.9510706  47.7155334  16.2618418  77.0006337  47.7157195  16.1482791
  78.2543192  46.9688068  15.7454453  81.8373261  25.6329220  12.4296599
  81.0705657  25.0787707  12.5753281  82.2483966  25.7051089  13.2910750
  73.8415022  31.9214016  26.5201780  74.7046484  31.5650820  26.7305104
  73.2680433  31.5827910  27.2077184  93.6863399  53.5515872  17.3264181
  94.3241809  53.4322619  16.6227521  93.5684242  54.4996716  17.3852133
  90.4953105  53.5043300  17.2625706  90.1571617  53.3884365  16.3746240
  91.3642874  53.1034465  17.2426712  86.3539921  55.3578776  13.2522597
  85.7904786  55.2668713  12.4838884  86.2392316  54.5378681  13.7325089
  90.9772888  54.6578152  23.2211911  90.9661529  54.2630950  22.3492415
  91.1393528  53.9244224  23.8145683  83.9004353  56.8529968  16.0906817
  84.6925645  56.5120793  15.6753116  84.1401003  56.9624943  17.0108970
  91.9339480  59.0249744   8.5637061  91.2827460  59.6103825   8.1771075
  92.7283843  59.5555939   8.6232099  85.8595107  56.1138881   8.9624196
  86.6325983  55.5667868   8.8237072  86.2120506  56.9783131   9.1738657
  87.6980150  57.4415264  22.1691095  87.4070016  58.3460894  22.0537761
  88.3337134  57.4831791  22.8835165  88.6236356  54.8192112  18.7592455
  89.2199929  54.5948135  18.0449418  88.6811328  54.0776858  19.3617903
  88.1961385  52.2731547   6.5942646  88.4486906  51.7513069   5.8326109
  87.2585944  52.1097693   6.6969329  93.2404668  51.2767326  14.4017389
  94.0267757  50.8586749  14.0507806  93.5043372  52.1813418  14.5699037
  93.4114745  56.7140176   9.1006046  92.7760578  56.7874803   9.8126950
  93.0812151  57.3033775   8.4225125  98.6413095  51.2142559  15.3050367
  99.3738267  50.6441776  15.5388197  97.8852451  50.8264159  15.7456873
  87.9157674  54.1759653   8.7967021  87.7993932  53.5004557   9.4648105
  88.0259934  53.6892027   7.9799174  90.2589215  53.6369801  12.5013710
  89.8947422  53.1100421  13.2126631  91.1156330  53.2468270  12.3280195
  96.1638515  44.9264133  19.7644976  95.8321840  45.7959544  19.5406191
  95.5684129  44.6100417  20.4439006  89.8994702  48.6659700   7.4975058
  90.0669104  49.5339937   7.8645529  89.7091871  48.8286982   6.5736348
  92.6570035  57.1276679  19.1640889  92.3570758  58.0301718  19.0556696
  92.3121094  56.8608862  20.0162042  86.1082516  53.5790476  15.1977593
  85.1833013  53.4466690  15.4055285  86.3566929  54.3584695  15.6947536
  96.0567178  49.6459219  16.8438326  95.1484056  49.5774628  16.5497087
  96.0054774  50.1231164  17.6720152  89.8783922  51.1217358   8.4821725
  89.7583548  51.5674408   9.3207206  89.1836511  51.4702675   7.9235263
  83.4691327  53.2223750  16.0321382  83.5983708  53.4758228  16.9460794
  82.7888779  53.8151458  15.7126037  87.6390815  63.8920999  12.1311856
  87.5614844  64.8428825  12.2100337  87.0352458  63.5466872  12.7886783
  90.1308044  51.0648865  24.7873223  89.3541378  51.6242785  24.7776088
  90.7698607  51.5505648  25.3088093  97.9228825  47.8475658  18.6216200
  97.2803205  48.1408191  17.9755995  97.4183753  47.7328578  19.4269397
  95.5768989  51.5938831   9.3102059  96.4886845  51.8266218   9.1349757
  95.0678636  52.1775875   8.7477138  88.3854417  53.8734318  24.3491190
  89.1269101  54.4119362  24.0726014  87.6791402  54.5000607  24.5062742
  93.8609756  56.0163459  22.9463352  94.2693112  55.5745869  22.2017984
  93.1387018  55.4416086  23.1997545  90.2140826  50.9536065  20.3196909
  91.0602021  51.3775479  20.4631558  90.1539464  50.2969690  21.0135472
  94.1838571  56.5764649  16.7015641  93.5547433  56.7410363  15.9991709
  93.7964233  56.9906259  17.4726605  98.0627803  57.5119087  14.0560005
  97.3778841  57.8917989  13.5057038  98.1471652  58.1214414  14.7891952
  93.3640272  48.6140434  21.9778082  93.1201203  49.3682494  21.4412358
  93.6400202  48.9925781  22.8125330  95.3178734  55.1579046  20.6555348
  95.5295630  55.8010806  19.9789729  95.2708483  54.3241363  20.1877278
  92.9204963  47.7696867  17.5591920  92.0589442  48.0678120  17.8508658
  92.9467398  47.9867266  16.6272953  89.7366533  56.3139057  13.9665726
  90.2004878  56.5926760  13.1770348  89.4723331  55.4122502  13.7838817
  86.6290614  55.8610539  16.9045489  87.1991971  56.2897807  16.2662974
  87.2198726  55.5793124  17.6029675  88.6735419  52.4362210  10.7755291
  89.3759462  52.8883253  11.2429217  88.3416047  51.7946029  11.4035184
  87.1215780  51.0273966  25.1506500  86.4914441  51.7090247  25.3841897
  87.0151868  50.9157048  24.2059639  82.4160753  50.6945762  16.0772425
  81.6259807  50.9503291  15.6012535  82.9072000  51.5094100  16.1824465
  96.4324562  58.0351002  18.8277705  97.2542006  57.6331189  18.5460387
  96.4286965  57.9319236  19.7793821  84.3675498  51.0590342  13.0355901
  83.5706661  51.1709036  13.5539397  84.1401090  51.3976994  12.1696792
  90.1981166  57.5835045  20.9838416  90.2625598  58.0455452  21.8196588
  89.4892090  56.9532410  21.1120726  80.6998456  50.9476253  18.5087415
  80.9506494  51.8323263  18.7744991  81.2358004  50.7680854  17.7362507
 104.5230555  54.3789750  15.1762677 103.7694264  53.8097148  15.0206681
 104.6578097  54.3452415  16.1233312  89.9129183  59.2503152  10.8517396
  89.7774858  60.0954688  11.2802244  90.4538996  59.4522430  10.0883330
  86.3996523  45.3294732  27.5131751  86.0063469  44.7760931  28.1879396
  87.2162663  45.6405311  27.9038269  83.3658581  56.7678590  11.4245321
  83.8783101  57.5621841  11.5750886  84.0181294  56.0704881  11.3578923
  85.1753466  59.8844347  13.5068074  85.3520094  60.8062311  13.3189058
  85.9710299  59.5702766  13.9362454  89.3164484  46.7452611  25.1052008
  90.0574197  47.3459765  25.0256470  89.5482407  46.0030249  24.5470051
  84.4605822  51.9308979  23.3830238  84.3459337  51.0294236  23.6837337
  83.6050340  52.1772675  23.0315054  91.5397660  59.8726719  24.9817738
  91.0961514  59.0863097  24.6638643  92.2014873  60.0605869  24.3161629
  86.2984781  61.4022521  19.5078417  86.8492206  61.2739584  18.7355411
  85.4596257  61.7017410  19.1573310  93.6378898  60.1529519  23.0099140
  93.6197373  60.9738400  22.5179409  94.5598818  60.0283594  23.2349281
  90.0951952  57.6673648  23.8522648  90.6280289  56.9061937  23.6221956
  89.5666033  57.3747300  24.5946802  93.2621647  42.7733714  19.3816290
  92.9185916  43.6635356  19.3055400  93.6300610  42.5835372  18.5185875
  81.3307498  55.0967245  12.2004892  82.1682720  55.5064253  11.9838600
  81.5085765  54.1566687  12.1705086  93.2271930  52.7642325   7.8888725
  92.7118553  53.5346930   8.1277112  92.9549238  52.0907462   8.5121786
  90.8119041  47.6092026  12.9473963  89.9560637  47.2198877  12.7679602
  91.2245993  47.6883987  12.0873749  92.3418187  45.1438369  17.3465523
  91.8382983  45.1068505  16.5333328  92.6348794  46.0531112  17.4062180
  88.5861073  45.2277099  16.3531705  89.4514070  45.0319908  15.9937594
  88.6538582  44.9987451  17.2801061  98.2006204  55.5174680   9.8241898
  97.4235647  55.1785840   9.3797060  98.8797685  55.5227303   9.1496863
  93.0158233  50.6369418   9.7148506  92.7108368  50.9515567  10.5658649
  93.9688675  50.7150837   9.7575839  91.4604665  56.7959641  11.3641460
  90.9326026  56.0612400  11.0514697  90.9592167  57.5734317  11.1181428
  96.4397511  54.9908661  16.4808506  95.7821185  55.6807923  16.5688635
  97.2437910  55.3805093  16.8242493  86.1923392  47.4579307  13.7248071
  86.7667144  47.2354489  12.9921264  86.7794375  47.5268002  14.4776673
  95.2502970  53.3453034  14.5312448  95.7634851  53.9783026  15.0334158
  95.9004193  52.7454230  14.1655808  86.5192979  49.4883768   7.7443957
  85.6830292  49.8258455   8.0653231  86.3797749  49.3532748   6.8071094
  88.4946060  44.3320556  12.4523141  87.8410472  44.0169573  11.8279756
  88.4526534  43.7096296  13.1782964  89.6057265  54.6139851   4.3676433
  88.6984327  54.3829105   4.5667582  90.1028297  53.8177470   4.5550415
  92.5125344  63.3237358   7.2873119  91.8387043  63.6269055   7.8958077
  92.8991166  64.1266439   6.9378576  91.7283800  50.8202490  16.7770789
  90.8106362  51.0417437  16.6192477  92.1443944  50.8948800  15.9182496
  92.5118848  52.2193905  11.9073469  93.2590667  52.7315302  11.5980591
  92.7810438  51.8977958  12.7677862  90.7845498  54.7152446   8.8900423
  89.8756718  54.4311479   8.9872893  90.8140582  55.1351525   8.0303730
  96.0164766  58.3259035  12.6591591  95.5627093  57.4849945  12.7156781
  95.3858732  58.9620434  12.9966371  94.9597685  49.2551021  13.8892258
  94.2220442  48.7428408  14.2202501  95.2124459  48.8151403  13.0775535
  94.4597705  60.1635532  13.5941409  94.7520679  60.7240589  12.8753774
  94.9696326  60.4564093  14.3494568  95.0609313  42.0327273  14.4834027
  95.3668189  41.1724637  14.1959942  95.7861917  42.6244894  14.2833021
  81.3533669  52.4357960  12.8715625  81.1558069  51.8427321  12.1466692
  80.7980333  52.1310170  13.5891564  89.3330392  52.3281067  14.9910218
  89.3879002  51.3754903  14.9152695  88.5221594  52.4840506  15.4751517
  90.4821586  56.2561190   6.2288502  90.0441016  55.5397049   5.7694139
  91.2232027  56.4837304   5.6673593  87.2722752  50.9458126  12.7500597
  86.4590618  51.2452297  13.1565789  87.7681746  50.5513815  13.4675080
  89.4231330  60.9415883  14.6834862  89.3807509  61.1676730  13.7543394
  90.3394029  60.7079258  14.8320663  92.8696964  51.4099951  21.5815491
  93.2246352  51.6371424  22.4409957  93.5169095  51.7418328  20.9592746
  98.5994701  54.5318387  12.2864820  98.4612600  54.7219983  11.3586009
  98.2430920  55.2937769  12.7432871  86.7636827  48.5176482  18.3661832
  87.4036206  48.3765241  17.6684796  85.9314358  48.2310995  17.9900434
  98.6264081  56.5994914  17.2976092  99.0600587  56.5070203  18.1459146
  99.3395661  56.5752414  16.6596108  87.5397131  57.8178912  14.4796825
  88.3337729  57.3229232  14.2779400  86.8288823  57.2896775  14.1164530
  92.3591975  60.1997008  18.8309192  92.4128998  60.7687944  19.5986908
  91.4906757  60.3698893  18.4663229  83.8479894  51.9621994  10.5556577
  82.9177483  51.9006449  10.7726540  83.9437366  51.4397947   9.7593219
  83.7665443  48.4876807  13.1434819  84.0272261  49.4022140  13.0343980
  84.5882616  48.0201249  13.2931432  85.2390369  49.9014564  20.3133644
  85.9113422  49.6931926  19.6646292  84.4120155  49.7036650  19.8738876
  99.4879630  56.6418614  19.8308977  99.6815520  57.5464425  20.0768252
  99.3880248  56.1826033  20.6647562  91.1415941  46.5276505  22.3299304
  90.4943856  47.2266455  22.2363781  91.9116956  46.9612649  22.6975553
  94.5494739  56.7925357  25.4049858  94.3980245  56.5635909  24.4879941
  94.5399418  57.7495958  25.4181203  91.3180075  54.3657270  20.3896124
  92.2472135  54.5168429  20.2165091  90.8971105  54.4541291  19.5344771
  90.1168407  58.3907934  18.1594662  89.9779493  58.0226719  19.0320600
  89.3283003  58.9055574  17.9878620  90.7116559  63.4917031   9.5020198
  90.8868315  63.0205074  10.3165821  90.0249347  64.1182797   9.7301459
  91.6673622  57.7689537  15.5483500  91.3323455  57.7290307  16.4441149
  91.1677568  57.1034253  15.0753910  85.6417866  53.1757167  21.0736081
  85.5037664  52.4437406  21.6747620  86.5522790  53.0866067  20.7920268
  94.6032814  55.1145571   5.8220559  93.9861984  54.3892399   5.7253612
  94.1349302  55.8754932   5.4787633  88.2700167  52.8877126  20.5619760
  88.9799785  52.2470318  20.5206379  88.2269475  53.1390021  21.4845941
  96.2586945  59.8244480  23.4826340  96.1999492  59.1403700  22.8156923
  96.6606464  60.5663470  23.0306966  86.9829101  49.8742344  22.3815400
  86.4466458  49.4233083  23.0336996  86.3945809  50.0088253  21.6385864
  85.2777644  66.6406393  16.2760058  85.5174242  67.2724918  16.9539077
  84.4346841  66.2894433  16.5625418  86.3931360  49.3330996   4.9441863
  85.5160826  49.2119796   4.5804110  86.8689113  48.5417074   4.6920752
  96.2604353  57.7884064  21.7140319  95.3731131  57.4509985  21.8366718
  96.8302904  57.0567095  21.9509085  77.9133500  54.1208155  15.0383371
  78.6004540  53.8069885  14.4504386  77.7581628  55.0249520  14.7650622
  82.7168222  49.0098352  19.4668394  82.6326411  48.4024021  18.7318804
  81.8950928  49.5007370  19.4677891  89.7905506  62.4485516  18.6801562
  89.7175678  63.2540487  19.1920867  89.3482899  62.6477482  17.8549584
  89.5795286  61.6857286  12.1904384  88.7962808  62.2278966  12.2842609
  90.2788031  62.2031266  12.5898625  92.8891936  47.4951915  14.8338589
  93.3860635  46.7421878  14.5139660  92.1178917  47.5316232  14.2681799
 100.7421693  53.1992281  16.4756881 100.7311569  54.0816996  16.1050814
  99.8739073  52.8463832  16.2811418  92.2504190  62.3472350  20.8359721
  92.9632162  62.9819815  20.7635623  91.7594218  62.4436216  20.0199723
  93.9721717  56.2523603  12.4077013  93.0377995  56.3725065  12.2381717
  94.1498385  55.3496069  12.1437023  89.4726905  49.6369298  14.5610274
  89.1024692  49.0840339  15.2491180  89.9685997  49.0327432  14.0085274
  97.3594268  52.0940922  12.9427047  97.8254720  52.9268913  12.8687350
  97.8101768  51.6285903  13.6472305  87.3016103  60.0966793  21.6565292
  88.0025563  60.7303276  21.8094686  86.8311218  60.4381525  20.8960931
  95.4270499  58.4384743   9.9413199  95.7030343  58.3241338  10.8507073
  94.5574998  58.0402228   9.9025372  95.3310931  44.4621509  16.9817948
  94.4174010  44.6925736  17.1500155  95.7604032  44.5459953  17.8331981
  95.1017389  52.6511401  19.4817842  94.4488839  52.8987308  18.8270295
  95.4797769  51.8375539  19.1480320  92.0624563  62.6871094  13.5846013
  92.2446958  61.8692750  14.0473765  92.8857549  62.9038786  13.1470903
  92.3966728  61.6139279  10.8461061  92.9254495  61.1031734  10.2331223
  92.6594948  61.2981809  11.7106594  91.1504962  53.3931212  25.9683879
  90.4745599  53.2925341  26.6386255  91.9732596  53.2370426  26.4319877
  82.8983821  59.6303148  18.5896395  83.4837258  58.8846836  18.7224299
  82.7008660  59.9407105  19.4733059  85.7522476  62.6654396  13.6058837
  85.0832852  63.1500523  13.1222877  85.6135346  62.9123616  14.5202216
  77.4901476  52.2008749  17.3100838  77.5285575  51.6672339  18.1037956
  76.9841769  51.6743954  16.6911815  89.8927745  64.6998139  20.2041495
  90.4446053  64.8629761  20.9690581  90.2333938  65.2902577  19.5321520
  84.8692238  47.0473289  20.8063380  84.9333565  47.9088120  20.3940778
  84.8059358  46.4347291  20.0735739  84.3444511  49.1196422  24.4536414
  84.9716550  48.7373499  25.0673939  83.4872430  48.9010624  24.8192107
  94.7438619  59.5259397  26.0590150  95.2878523  60.1389355  25.5645105
  94.1625464  60.0838975  26.5757163  81.1210054  50.9272851  10.3854769
  81.4163495  50.0183529  10.3321823  80.2198089  50.9060590  10.0635772
  93.0296132  62.6480115  17.1905178  92.9047272  61.8469855  16.6816123
  93.6875223  63.1426308  16.7019148  84.6504301  49.0028847  16.3682318
  83.9290886  49.6164815  16.2289791  85.4397556  49.5386612  16.2898964
  95.0931041  60.4489135  18.8184728  94.1461376  60.3294486  18.7463054
  95.4413814  59.5611633  18.9010989  87.4530614  46.3383274  22.6422970
  87.9765016  46.5845570  23.4049279  87.2342947  47.1703309  22.2226107
  82.8497895  48.6086948  10.5094094  82.5210601  47.7284327  10.3269200
  83.2037266  48.5534617  11.3970484  92.0977474  60.2441851  15.0189080
  91.9502436  59.3158559  15.1996650  92.9230967  60.2661942  14.5346155
  85.9639718  48.8959918  10.8769572  86.3035791  49.4245840  10.1548180
  86.4111839  49.2340324  11.6528139  95.7011596  61.0670410  16.1053953
  96.6258143  60.8613271  15.9678404  95.5326899  60.8186811  17.0143294
  88.6583159  47.2796969  20.3272640  88.3179979  46.4804782  20.7293320
  87.9522165  47.5798680  19.7549473  89.3099631  44.3646281  18.7799963
  90.1325700  43.8906760  18.6578853  89.5537694  45.1436765  19.2798649
  87.9507865  47.3934540   9.0762865  88.6716228  47.7715793   8.5726582
  87.3273170  48.1123417   9.1797843  92.0938988  48.0979689  10.0121197
  92.3102603  48.9804327   9.7110025  91.6133055  47.7065902   9.2826839
  86.8338210  51.0565402  16.5891942  86.6882790  51.3705705  17.4816223
  86.3563413  51.6750302  16.0362840  88.6934593  48.0467950  16.6372831
  88.6796161  47.1509043  16.3005129  89.4107021  48.0538614  17.2711117
  90.5460723  48.4805290  18.6825959  90.2878501  49.4022361  18.6810289
  90.0145764  48.0835725  19.3726423  95.4906912  61.5856077  11.4616044
  95.6643790  61.0202500  10.7089897  95.9835803  62.3856972  11.2795534
  81.3083872  53.5970746  19.5279603  80.7637340  54.3730554  19.6599877
  82.1863222  53.9441551  19.3698724  88.0971488  46.9282330  11.9060401
  88.2187400  45.9998977  12.1051289  87.8073531  46.9421016  10.9938717
  90.9662679  44.6137241  15.0427121  90.9884376  44.6776574  14.0879101
  91.3830738  43.7741749  15.2367627 101.3446303  54.3492500  13.0806344
 101.7877449  53.5999826  12.6825467 100.4672813  54.3402637  12.6980076
  96.4782085  60.9022842   8.5612942  97.1732989  61.5229534   8.7800257
  96.8205235  60.0518193   8.8365320  82.0949894  52.7240643  22.4209760
  81.3531630  52.8723278  23.0074390  81.7742638  52.9848908  21.5576509
  98.3773508  58.3522547  10.0900273  98.9024832  58.6909820   9.3649593
  98.2895860  57.4169563   9.9063408  90.0393556  62.2656621  22.2190150
  90.3480683  62.0205768  23.0912849  90.8369038  62.4703259  21.7309020
  90.0614168  64.4194531  14.4495526  89.6219159  63.9270909  15.1428383
  90.8122285  63.8767498  14.2087602  82.5406507  60.6106071  14.4520154
  83.3664527  60.3109843  14.0718798  82.1900559  59.8413694  14.9009943
  87.5088041  59.9632540  16.5217828  86.8868050  59.3003245  16.2220056
  88.1792907  59.9893672  15.8391476  80.7415112  58.5292398  15.4109088
  79.9047021  58.1014572  15.2293089  80.7138758  58.7224841  16.3479879
  87.5812568  48.4414328  26.1150334  87.6300723  49.3176451  25.7328104
  88.1235082  47.8991721  25.5421977  98.0667414  58.9855451  25.3951471
  97.2762957  58.9679590  24.8555970  97.8300768  59.5243745  26.1500508
  98.1865289  55.8347917  22.7084200  98.2363294  55.6697925  23.6499722
  98.0779212  54.9675176  22.3182080  87.0701547  58.5136463   9.9976289
  87.2189668  59.1971927   9.3442961  87.8767991  58.4941553  10.5125744
  95.4769051  51.8178845  24.0243506  96.3778914  51.6785310  23.7327504
  95.5517026  51.9833300  24.9641684  89.8111856  49.1945700  22.8696693
  88.9415166  49.4879266  22.5979281  90.0471337  49.7786145  23.5903956
  99.6883486  58.2544859  22.9526221  99.3968294  58.6174839  23.7889682
  99.0755617  57.5411867  22.7739553 100.8879168  55.8197739  15.4728791
 101.7226059  56.2587543  15.6366352 101.0238297  55.3436392  14.6537037
  97.9370674  53.3777473  21.4206279  98.4124795  53.5705120  20.6125131
  97.0136239  53.4336659  21.1749663  84.8254180  54.5401641  11.0037357
  84.5800222  53.6363971  11.2017568  84.9950095  54.5418791  10.0616835
  92.5150890  45.4125317  20.3862113  93.0332834  46.1486344  20.0608602
  92.1606023  45.7189310  21.2208872  84.0949828  50.2729998   8.5023519
  83.4019073  50.3474353   7.8463555  83.8501580  49.5090342   9.0245036
  92.7663484  41.8325600  15.9063010  93.0465238  41.1648789  16.5323436
  93.5514091  42.0254695  15.3937673  90.5696953  61.0084593   7.4688036
  89.9970920  61.6274781   7.0158508  91.1429747  61.5583955   8.0027958
  96.6372343  50.2543234  19.6534585  97.5889766  50.3541331  19.6746809
  96.4675793  49.4621502  20.1632669  94.6586722  47.3398817  19.8393986
  94.0636654  47.6203829  19.1440474  94.3736419  47.8292718  20.6110727
  93.7894213  61.2921744   8.5996618  94.7224886  61.2267305   8.8029494
  93.7017426  62.1278010   8.1411151  96.4182229  60.6087614   5.5600566
  96.3395861  60.2747478   6.4536324  97.2391896  61.1009382   5.5592038
  99.1160421  53.4749353  18.7676884  99.0836741  52.5365354  18.9536568
  99.7261044  53.5533390  18.0342709  90.9543751  52.3445406   4.8104088
  91.9002856  52.2151614   4.8792506  90.5757996  51.6060068   5.2873517
  99.2654909  50.2660397  18.8135168  98.7493958  49.4818853  18.6265096
 100.1494858  49.9379113  18.9781687  96.9265636  44.0101412  14.7730980
  96.7290457  43.7016500  15.6574312  97.5365342  44.7363051  14.9028910
 104.9336970  54.5365360  17.9082921 105.6640359  54.2750648  18.4690625
 104.3243916  53.7994082  17.9484989 103.0152268  52.6773223  18.5057372
 102.2885431  52.5429188  17.8973864 102.5999554  52.9850051  19.3114090
  90.8382444  56.3963152  26.2704745  91.7585453  56.5741751  26.4644792
  90.8032027  55.4519198  26.1184445  89.1386669  50.2695383   4.7458974
  88.2318124  49.9728495   4.8221687  89.4162650  49.9725201   3.8793260
  80.0564609  51.5901746  15.1958020  79.7367393  50.7367054  14.9032394
  79.5098037  51.8050324  15.9515987  83.8344517  54.3064187  18.9127527
  84.0530526  55.2381295  18.9315560  84.2470290  53.9472161  19.6982330
  90.7548734  44.8132272  10.9003215  89.9449463  44.4679357  11.2758461
  91.4433151  44.5039816  11.4890827  92.6839283  43.8910319  12.5227512
  93.2370321  44.3105773  13.1817535  92.9209369  42.9646067  12.5650468
  88.7072382  49.8797393  28.3030275  88.6069109  50.8291750  28.2342367
  88.4893924  49.5515632  27.4306346  87.9085453  47.1282318   4.8870953
  88.7704617  47.4537216   5.1466770  88.0935797  46.3413814   4.3744019
  79.9252869  55.2104657  17.1651142  79.2316340  54.7958610  16.6521096
  80.6725860  55.2525194  16.5684561  96.0618090  46.0010844  12.0306176
  95.4816759  46.6595648  11.6484228  95.7954022  45.1788189  11.6193593
  94.5121656  45.4015902  14.2327496  95.0121434  45.5132437  13.4241815
  95.1557264  45.0976955  14.8728305  88.5703652  53.3094532  27.1195337
  88.0870734  54.1094892  27.3259226  88.6564591  53.3202476  26.1662781
  81.8389612  55.1422911  15.0417157  81.8160300  55.2410599  14.0899040
  82.1490248  55.9888062  15.3634323  84.4976989  57.1999066  19.1563771
  85.4520243  57.1683009  19.0893702  84.2989513  56.7389690  19.9713997
  85.0876372  55.7700182  21.7234569  85.9069261  56.2644261  21.7469406
  85.3613179  54.8532150  21.6952136  94.8442968  48.1610935  11.0862524
  93.9568823  48.4460585  10.8682719  95.2596957  48.0004698  10.2389801
  98.1957504  48.1857456  14.8016863  98.9717894  48.6753908  15.0741480
  97.4705638  48.6115510  15.2588733 100.6330062  48.8985075  15.8590804
 101.2274553  48.6580811  15.1484112 100.7056646  48.1792205  16.4864340
  82.8527218  62.7418686  16.1733969  82.7181686  61.9819087  15.6071967
  82.4359280  63.4659586  15.7062758  93.9886181  57.9255609   5.1810544
  94.6922031  58.1305612   5.7968200  93.2648830  58.4932371   5.4459628
  94.8183991  53.6765471  11.3012814  94.7619193  54.1334022  10.4620447
  95.3712334  52.9156155  11.1235657  98.6288797  49.4655202  12.1262934
  98.3725732  49.0651838  12.9571141  98.0041665  50.1798996  12.0013073
 102.9401135  52.2051276  14.6334225 102.3800693  52.2744465  15.4065787
 102.3344639  52.0292260  13.9133721  86.0096344  63.6388003  16.3852411
  85.8928728  64.5833435  16.2831102  85.1888790  63.3361564  16.7738211
  95.8972879  58.3638139   7.2309004  96.7318483  57.9319337   7.0486479
  95.7357222  58.1920152   8.1585899  95.5518771  54.8670252   8.5965343
  95.4967575  54.7014523   7.6553788  94.9264826  55.5746285   8.7527533
  80.3411286  50.1038316  22.4226766  80.9870149  49.5937270  22.9113991
  80.1328437  50.8406998  22.9970191  92.8664678  57.1719164  27.9218906
  93.7355838  57.3459816  27.5605541  92.3871429  57.9913581  27.7994636
  88.8614896  44.3678361   8.1750662  88.8493566  45.3120201   8.3318933
  89.7538318  44.1848506   7.8810123  87.0350858  64.2916265  19.6008340
  87.9378105  64.3239875  19.9174835  86.8088228  63.3616716  19.6154676
  88.7904460  63.0447251  16.2618418  87.8400091  63.0449113  16.1482791
  89.0936946  62.2979986  15.7454453  92.6767016  40.9621137  12.4296599
  91.9099412  40.4079624  12.5753281  93.0877721  41.0343006  13.2910750
  84.6808777  47.2505933  26.5201780  85.5440238  46.8942738  26.7305104
  84.1074187  46.9119828  27.2077184 104.5257154  68.8807790  17.3264181
 105.1635564  68.7614537  16.6227521 104.4077997  69.8288634  17.3852133
 101.3346860  68.8335218  17.2625706 100.9965371  68.7176282  16.3746240
 102.2036628  68.4326383  17.2426712  97.1933676  70.6870694  13.2522597
  96.6298541  70.5960631  12.4838884  97.0786071  69.8670599  13.7325089
 101.8166643  69.9870069  23.2211911 101.8055284  69.5922868  22.3492415
 101.9787282  69.2536142  23.8145683  94.7398108  72.1821886  16.0906817
  95.5319400  71.8412710  15.6753116  94.9794758  72.2916861  17.0108970
 102.7733234  74.3541662   8.5637061 102.1221214  74.9395742   8.1771075
 103.5677597  74.8847857   8.6232099  96.6988862  71.4430799   8.9624196
  97.4719738  70.8959786   8.8237072  97.0514260  72.3075048   9.1738657
  98.5373904  72.7707181  22.1691095  98.2463770  73.6752812  22.0537761
  99.1730888  72.8123709  22.8835165  99.4630111  70.1484030  18.7592455
 100.0593683  69.9240052  18.0449418  99.5205082  69.4068775  19.3617903
  99.0355139  67.6023465   6.5942646  99.2880660  67.0804986   5.8326109
  98.0979698  67.4389611   6.6969329 104.0798422  66.6059243  14.4017389
 104.8661511  66.1878667  14.0507806 104.3437127  67.5105336  14.5699037
 104.2508500  72.0432094   9.1006046 103.6154333  72.1166720   9.8126950
 103.9205906  72.6325693   8.4225125 109.4806849  66.5434477  15.3050367
 110.2132021  65.9733694  15.5388197 108.7246205  66.1556077  15.7456873
  98.7551428  69.5051571   8.7967021  98.6387686  68.8296474   9.4648105
  98.8653688  69.0183945   7.9799174 101.0982969  68.9661718  12.5013710
 100.7341176  68.4392339  13.2126631 101.9550085  68.5760187  12.3280195
 107.0032270  60.2556051  19.7644976 106.6715594  61.1251462  19.5406191
 106.4077883  59.9392335  20.4439006 100.7388456  63.9951618   7.4975058
 100.9062858  64.8631854   7.8645529 100.5485625  64.1578900   6.5736348
 103.4963789  72.4568597  19.1640889 103.1964512  73.3593636  19.0556696
 103.1514849  72.1900780  20.0162042  96.9476271  68.9082394  15.1977593
  96.0226767  68.7758608  15.4055285  97.1960684  69.6876613  15.6947536
 106.8960933  64.9751137  16.8438326 105.9877810  64.9066545  16.5497087
 106.8448529  65.4523082  17.6720152 100.7177677  66.4509275   8.4821725
 100.5977302  66.8966326   9.3207206 100.0230265  66.7994593   7.9235263
  94.3085082  68.5515667  16.0321382  94.4377463  68.8050146  16.9460794
  93.6282533  69.1443375  15.7126037  98.4784569  79.2212917  12.1311856
  98.4008599  80.1720742  12.2100337  97.8746213  78.8758790  12.7886783
 100.9701799  66.3940783  24.7873223 100.1935133  66.9534703  24.7776088
 101.6092362  66.8797566  25.3088093 108.7622579  63.1767575  18.6216200
 108.1196960  63.4700109  17.9755995 108.2577508  63.0620496  19.4269397
 106.4162743  66.9230749   9.3102059 107.3280599  67.1558135   9.1349757
 105.9072390  67.5067793   8.7477138  99.2248171  69.2026236  24.3491190
  99.9662855  69.7411280  24.0726014  98.5185157  69.8292525  24.5062742
 104.7003511  71.3455376  22.9463352 105.1086867  70.9037787  22.2017984
 103.9780772  70.7708004  23.1997545 101.0534581  66.2827983  20.3196909
 101.8995776  66.7067397  20.4631558 100.9933218  65.6261607  21.0135472
 105.0232325  71.9056567  16.7015641 104.3941188  72.0702281  15.9991709
 104.6357987  72.3198177  17.4726605 108.9021557  72.8411005  14.0560005
 108.2172595  73.2209906  13.5057038 108.9865407  73.4506332  14.7891952
 104.2034026  63.9432352  21.9778082 103.9594958  64.6974412  21.4412358
 104.4793957  64.3217699  22.8125330 106.1572489  70.4870964  20.6555348
 106.3689384  71.1302724  19.9789729 106.1102237  69.6533280  20.1877278
 103.7598718  63.0988785  17.5591920 102.8983197  63.3970038  17.8508658
 103.7861152  63.3159183  16.6272953 100.5760287  71.6430975  13.9665726
 101.0398633  71.9218678  13.1770348 100.3117085  70.7414420  13.7838817
  97.4684368  71.1902457  16.9045489  98.0385725  71.6189725  16.2662974
  98.0592480  70.9085041  17.6029675  99.5129173  67.7654127  10.7755291
 100.2153217  68.2175171  11.2429217  99.1809802  67.1237946  11.4035184
  97.9609535  66.3565884  25.1506500  97.3308195  67.0382165  25.3841897
  97.8545623  66.2448966  24.2059639  93.2554507  66.0237680  16.0772425
  92.4653561  66.2795209  15.6012535  93.7465755  66.8386018  16.1824465
 107.2718317  73.3642919  18.8277705 108.0935761  72.9623107  18.5460387
 107.2680720  73.2611153  19.7793821  95.2069253  66.3882259  13.0355901
  94.4100416  66.5000954  13.5539397  94.9794845  66.7268912  12.1696792
 101.0374920  72.9126963  20.9838416 101.1019353  73.3747370  21.8196588
 100.3285844  72.2824328  21.1120726  91.5392210  66.2768171  18.5087415
  91.7900249  67.1615181  18.7744991  92.0751759  66.0972772  17.7362507
 115.3624310  69.7081668  15.1762677 114.6088018  69.1389066  15.0206681
 115.4971851  69.6744332  16.1233312 100.7522938  74.5795070  10.8517396
 100.6168613  75.4246606  11.2802244 101.2932750  74.7814348  10.0883330
  97.2390278  60.6586650  27.5131751  96.8457223  60.1052849  28.1879396
  98.0556418  60.9697228  27.9038269  94.2052335  72.0970508  11.4245321
  94.7176856  72.8913758  11.5750886  94.8575048  71.3996799  11.3578923
  96.0147220  75.2136264  13.5068074  96.1913848  76.1354229  13.3189058
  96.8104054  74.8994684  13.9362454 100.1558239  62.0744529  25.1052008
 100.8967952  62.6751682  25.0256470 100.3876161  61.3322167  24.5470051
  95.2999577  67.2600896  23.3830238  95.1853092  66.3586154  23.6837337
  94.4444094  67.5064593  23.0315054 102.3791414  75.2018637  24.9817738
 101.9355268  74.4155015  24.6638643 103.0408628  75.3897787  24.3161629
  97.1378535  76.7314438  19.5078417  97.6885961  76.6031502  18.7355411
  96.2990011  77.0309327  19.1573310 104.4772652  75.4821437  23.0099140
 104.4591128  76.3030318  22.5179409 105.3992572  75.3575512  23.2349281
 100.9345707  72.9965566  23.8522648 101.4674043  72.2353854  23.6221956
 100.4059788  72.7039218  24.5946802 104.1015401  58.1025632  19.3816290
 103.7579671  58.9927274  19.3055400 104.4694364  57.9127290  18.5185875
  92.1701252  70.4259162  12.2004892  93.0076474  70.8356171  11.9838600
  92.3479520  69.4858605  12.1705086 104.0665684  68.0934243   7.8888725
 103.5512308  68.8638848   8.1277112 103.7942993  67.4199379   8.5121786
 101.6512795  62.9383944  12.9473963 100.7954392  62.5490794  12.7679602
 102.0639747  63.0175905  12.0873749 103.1811942  60.4730287  17.3465523
 102.6776737  60.4360422  16.5333328 103.4742549  61.3823030  17.4062180
  99.4254828  60.5569017  16.3531705 100.2907825  60.3611826  15.9937594
  99.4932337  60.3279369  17.2801061 109.0399958  70.8466598   9.8241898
 108.2629401  70.5077757   9.3797060 109.7191439  70.8519221   9.1496863
 103.8551987  65.9661335   9.7148506 103.5502123  66.2807484  10.5658649
 104.8082429  66.0442755   9.7575839 102.2998419  72.1251559  11.3641460
 101.7719781  71.3904318  11.0514697 101.7985922  72.9026235  11.1181428
 107.2791265  70.3200579  16.4808506 106.6214940  71.0099840  16.5688635
 108.0831664  70.7097011  16.8242493  97.0317147  62.7871225  13.7248071
  97.6060899  62.5646406  12.9921264  97.6188129  62.8559919  14.4776673
 106.0896724  68.6744952  14.5312448 106.6028606  69.3074944  15.0334158
 106.7397948  68.0746147  14.1655808  97.3586734  64.8175686   7.7443957
  96.5224046  65.1550372   8.0653231  97.2191504  64.6824666   6.8071094
  99.3339815  59.6612474  12.4523141  98.6804227  59.3461491  11.8279756
  99.2920289  59.0388214  13.1782964 100.4451019  69.9431769   4.3676433
  99.5378081  69.7121022   4.5667582 100.9422051  69.1469388   4.5550415
 103.3519098  78.6529276   7.2873119 102.6780797  78.9560973   7.8958077
 103.7384920  79.4558356   6.9378576 102.5677555  66.1494407  16.7770789
 101.6500116  66.3709354  16.6192477 102.9837699  66.2240718  15.9182496
 103.3512603  67.5485823  11.9073469 104.0984422  68.0607220  11.5980591
 103.6204192  67.2269876  12.7677862 101.6239253  70.0444364   8.8900423
 100.7150472  69.7603396   8.9872893 101.6534337  70.4643442   8.0303730
 106.8558520  73.6550953  12.6591591 106.4020847  72.8141863  12.7156781
 106.2252487  74.2912352  12.9966371 105.7991440  64.5842939  13.8892258
 105.0614197  64.0720325  14.2202501 106.0518213  64.1443321  13.0775535
 105.2991459  75.4927450  13.5941409 105.5914434  76.0532507  12.8753774
 105.8090080  75.7856011  14.3494568 105.9003067  57.3619191  14.4834027
 106.2061944  56.5016555  14.1959942 106.6255672  57.9536811  14.2833021
  92.1927423  67.7649878  12.8715625  91.9951823  67.1719238  12.1466692
  91.6374087  67.4602088  13.5891564 100.1724147  67.6572984  14.9910218
 100.2272757  66.7046821  14.9152695  99.3615349  67.8132423  15.4751517
 101.3215341  71.5853107   6.2288502 100.8834771  70.8688966   5.7694139
 102.0625782  71.8129222   5.6673593  98.1116507  66.2750044  12.7500597
  97.2984372  66.5744215  13.1565789  98.6075501  65.8805733  13.4675080
 100.2625085  76.2707801  14.6834862 100.2201263  76.4968647  13.7543394
 101.1787784  76.0371176  14.8320663 103.7090718  66.7391868  21.5815491
 104.0640106  66.9663342  22.4409957 104.3562850  67.0710245  20.9592746
 109.4388455  69.8610304  12.2864820 109.3006354  70.0511900  11.3586009
 109.0824674  70.6229687  12.7432871  97.6030582  63.8468400  18.3661832
  98.2429961  63.7057159  17.6684796  96.7708112  63.5602913  17.9900434
 109.4657835  71.9286831  17.2976092 109.8994342  71.8362120  18.1459146
 110.1789416  71.9044332  16.6596108  98.3790885  73.1470830  14.4796825
  99.1731484  72.6521150  14.2779400  97.6682578  72.6188693  14.1164530
 103.1985730  75.5288925  18.8309192 103.2522752  76.0979862  19.5986908
 102.3300511  75.6990810  18.4663229  94.6873649  67.2913912  10.5556577
  93.7571237  67.2298367  10.7726540  94.7831121  66.7689864   9.7593219
  94.6059198  63.8168724  13.1434819  94.8666015  64.7314058  13.0343980
  95.4276370  63.3493167  13.2931432  96.0784123  65.2306482  20.3133644
  96.7507177  65.0223844  19.6646292  95.2513910  65.0328568  19.8738876
 110.3273385  71.9710532  19.8308977 110.5209275  72.8756343  20.0768252
 110.2274003  71.5117951  20.6647562 101.9809695  61.8568423  22.3299304
 101.3337610  62.5558372  22.2363781 102.7510711  62.2904567  22.6975553
 105.3888493  72.1217275  25.4049858 105.2374000  71.8927826  24.4879941
 105.3793173  73.0787876  25.4181203 102.1573830  69.6949187  20.3896124
 103.0865890  69.8460347  20.2165091 101.7364860  69.7833208  19.5344771
 100.9562161  73.7199852  18.1594662 100.8173247  73.3518636  19.0320600
 100.1676758  74.2347491  17.9878620 101.5510313  78.8208948   9.5020198
 101.7262069  78.3496992  10.3165821 100.8643101  79.4474715   9.7301459
 102.5067377  73.0981455  15.5483500 102.1717209  73.0582225  16.4441149
 102.0071322  72.4326171  15.0753910  96.4811621  68.5049085  21.0736081
  96.3431418  67.7729323  21.6747620  97.3916544  68.4157985  20.7920268
 105.4426568  70.4437489   5.8220559 104.8255739  69.7184317   5.7253612
 104.9743057  71.2046849   5.4787633  99.1093921  68.2169044  20.5619760
  99.8193540  67.5762236  20.5206379  99.0663229  68.4681939  21.4845941
 107.0980700  75.1536397  23.4826340 107.0393246  74.4695617  22.8156923
 107.5000218  75.8955387  23.0306966  97.8222855  65.2034262  22.3815400
  97.2860212  64.7525000  23.0336996  97.2339564  65.3380171  21.6385864
  96.1171399  81.9698311  16.2760058  96.3567997  82.6016835  16.9539077
  95.2740595  81.6186351  16.5625418  97.2325114  64.6622913   4.9441863
  96.3554580  64.5411714   4.5804110  97.7082867  63.8708992   4.6920752
 107.0998107  73.1175981  21.7140319 106.2124886  72.7801903  21.8366718
 107.6696658  72.3859012  21.9509085  88.7527254  69.4500073  15.0383371
  89.4398294  69.1361803  14.4504386  88.5975383  70.3541438  14.7650622
  93.5561976  64.3390270  19.4668394  93.4720165  63.7315939  18.7318804
  92.7344683  64.8299288  19.4677891 100.6299261  77.7777434  18.6801562
 100.5569432  78.5832405  19.1920867 100.1876654  77.9769399  17.8549584
 100.4189040  77.0149204  12.1904384  99.6356562  77.5570884  12.2842609
 101.1181785  77.5323183  12.5898625 103.7285690  62.8243833  14.8338589
 104.2254390  62.0713795  14.5139660 102.9572672  62.8608150  14.2681799
 111.5815448  68.5284199  16.4756881 111.5705324  69.4108914  16.1050814
 110.7132827  68.1755749  16.2811418 103.0897944  77.6764268  20.8359721
 103.8025916  78.3111732  20.7635623 102.5987973  77.7728134  20.0199723
 104.8115471  71.5815520  12.4077013 103.8771750  71.7016983  12.2381717
 104.9892139  70.6787987  12.1437023 100.3120659  64.9661216  14.5610274
  99.9418447  64.4132256  15.2491180 100.8079752  64.3619350  14.0085274
 108.1988022  67.4232840  12.9427047 108.6648475  68.2560831  12.8687350
 108.6495523  66.9577821  13.6472305  98.1409858  75.4258711  21.6565292
  98.8419317  76.0595194  21.8094686  97.6704973  75.7673443  20.8960931
 106.2664253  73.7676661   9.9413199 106.5424097  73.6533255  10.8507073
 105.3968752  73.3694146   9.9025372 106.1704685  59.7913427  16.9817948
 105.2567765  60.0217653  17.1500155 106.5997787  59.8751871  17.8331981
 105.9411144  67.9803319  19.4817842 105.2882594  68.2279226  18.8270295
 106.3191523  67.1667457  19.1480320 102.9018317  78.0163012  13.5846013
 103.0840712  77.1984668  14.0473765 103.7251303  78.2330704  13.1470903
 103.2360483  76.9431197  10.8461061 103.7648249  76.4323651  10.2331223
 103.4988703  76.6273727  11.7106594 101.9898717  68.7223130  25.9683879
 101.3139354  68.6217259  26.6386255 102.8126350  68.5662343  26.4319877
  93.7377576  74.9595066  18.5896395  94.3231013  74.2138754  18.7224299
  93.5402414  75.2699023  19.4733059  96.5916231  77.9946314  13.6058837
  95.9226606  78.4792441  13.1222877  96.4529101  78.2415534  14.5202216
  88.3295230  67.5300666  17.3100838  88.3679330  66.9964257  18.1037956
  87.8235523  67.0035872  16.6911815 100.7321499  80.0290057  20.2041495
 101.2839808  80.1921679  20.9690581 101.0727693  80.6194495  19.5321520
  95.7085993  62.3765207  20.8063380  95.7727319  63.2380038  20.3940778
  95.6453113  61.7639208  20.0735739  95.1838265  64.4488339  24.4536414
  95.8110304  64.0665417  25.0673939  94.3266184  64.2302541  24.8192107
 105.5832374  74.8551315  26.0590150 106.1272278  75.4681273  25.5645105
 105.0019219  75.4130893  26.5757163  91.9603808  66.2564769  10.3854769
  92.2557249  65.3475447  10.3321823  91.0591844  66.2352508  10.0635772
 103.8689887  77.9772033  17.1905178 103.7441026  77.1761772  16.6816123
 104.5268978  78.4718226  16.7019148  95.4898055  64.3320765  16.3682318
  94.7684641  64.9456733  16.2289791  96.2791311  64.8678530  16.2898964
 105.9324795  75.7781053  18.8184728 104.9855131  75.6586404  18.7463054
 106.2807568  74.8903551  18.9010989  98.2924369  61.6675192  22.6422970
  98.8158770  61.9137488  23.4049279  98.0736702  62.4995226  22.2226107
  93.6891650  63.9378866  10.5094094  93.3604356  63.0576245  10.3269200
  94.0431020  63.8826535  11.3970484 102.9371228  75.5733769  15.0189080
 102.7896191  74.6450476  15.1996650 103.7624722  75.5953860  14.5346155
  96.8033473  64.2251836  10.8769572  97.1429545  64.7537757  10.1548180
  97.2505593  64.5632242  11.6528139 106.5405350  76.3962328  16.1053953
 107.4651898  76.1905189  15.9678404 106.3720654  76.1478729  17.0143294
  99.4976914  62.6088887  20.3272640  99.1573734  61.8096700  20.7293320
  98.7915920  62.9090598  19.7549473 100.1493385  59.6938199  18.7799963
 100.9719455  59.2198677  18.6578853 100.3931449  60.4728683  19.2798649
  98.7901620  62.7226458   9.0762865  99.5109982  63.1007710   8.5726582
  98.1666924  63.4415334   9.1797843 102.9332743  63.4271607  10.0121197
 103.1496357  64.3096244   9.7110025 102.4526810  63.0357820   9.2826839
  97.6731964  66.3857320  16.5891942  97.5276545  66.6997623  17.4816223
  97.1957168  67.0042220  16.0362840  99.5328347  63.3759868  16.6372831
  99.5189916  62.4800961  16.3005129 100.2500775  63.3830531  17.2711117
 101.3854478  63.8097208  18.6825959 101.1272256  64.7314279  18.6810289
 100.8539518  63.4127642  19.3726423 106.3300667  76.9147995  11.4616044
 106.5037544  76.3494418  10.7089897 106.8229558  77.7148890  11.2795534
  92.1477626  68.9262664  19.5279603  91.6031094  69.7022472  19.6599877
  93.0256976  69.2733469  19.3698724  98.9365243  62.2574248  11.9060401
  99.0581154  61.3290894  12.1051289  98.6467285  62.2712934  10.9938717
 101.8056433  59.9429158  15.0427121 101.8278130  60.0068492  14.0879101
 102.2224492  59.1033667  15.2367627 112.1840058  69.6784418  13.0806344
 112.6271204  68.9291743  12.6825467 111.3066568  69.6694554  12.6980076
 107.3175839  76.2314759   8.5612942 108.0126744  76.8521452   8.7800257
 107.6598989  75.3810111   8.8365320  92.9343648  68.0532560  22.4209760
  92.1925384  68.2015196  23.0074390  92.6136392  68.3140826  21.5576509
 109.2167262  73.6814465  10.0900273 109.7418586  74.0201738   9.3649593
 109.1289615  72.7461480   9.9063408 100.8787311  77.5948539  22.2190150
 101.1874437  77.3497685  23.0912849 101.6762793  77.7995177  21.7309020
 100.9007923  79.7486448  14.4495526 100.4612913  79.2562827  15.1428383
 101.6516040  79.2059416  14.2087602  93.3800262  75.9397989  14.4520154
  94.2058282  75.6401761  14.0718798  93.0294314  75.1705612  14.9009943
  98.3481795  75.2924457  16.5217828  97.7261804  74.6295162  16.2220056
  99.0186662  75.3185589  15.8391476  91.5808867  73.8584316  15.4109088
  90.7440775  73.4306490  15.2293089  91.5532512  74.0516759  16.3479879
  98.4206323  63.7706245  26.1150334  98.4694478  64.6468368  25.7328104
  98.9628837  63.2283638  25.5421977 108.9061168  74.3147369  25.3951471
 108.1156712  74.2971507  24.8555970 108.6694523  74.8535662  26.1500508
 109.0259043  71.1639835  22.7084200 109.0757048  70.9989842  23.6499722
 108.9172967  70.2967094  22.3182080  97.9095302  73.8428381   9.9976289
  98.0583422  74.5263845   9.3442961  98.7161745  73.8233471  10.5125744
 106.3162806  67.1470763  24.0243506 107.2172668  67.0077228  23.7327504
 106.3910780  67.3125218  24.9641684 100.6505611  64.5237618  22.8696693
  99.7808920  64.8171184  22.5979281 100.8865091  65.1078063  23.5903956
 110.5277240  73.5836777  22.9526221 110.2362048  73.9466757  23.7889682
 109.9149371  72.8703785  22.7739553 111.7272922  71.1489656  15.4728791
 112.5619814  71.5879460  15.6366352 111.8632051  70.6728310  14.6537037
 108.7764428  68.7069391  21.4206279 109.2518550  68.8997037  20.6125131
 107.8529994  68.7628577  21.1749663  95.6647935  69.8693558  11.0037357
  95.4193977  68.9655888  11.2017568  95.8343849  69.8710709  10.0616835
 103.3544645  60.7417235  20.3862113 103.8726589  61.4778262  20.0608602
 102.9999778  61.0481228  21.2208872  94.9343582  65.6021916   8.5023519
  94.2412827  65.6766271   7.8463555  94.6895334  64.8382260   9.0245036
 103.6057239  57.1617517  15.9063010 103.8858993  56.4940706  16.5323436
 104.3907846  57.3546613  15.3937673 101.4090707  76.3376511   7.4688036
 100.8364675  76.9566698   7.0158508 101.9823501  76.8875873   8.0027958
 107.4766097  65.5835151  19.6534585 108.4283520  65.6833249  19.6746809
 107.3069548  64.7913420  20.1632669 105.4980477  62.6690734  19.8393986
 104.9030409  62.9495747  19.1440474 105.2130173  63.1584635  20.6110727
 104.6287967  76.6213661   8.5996618 105.5618640  76.5559223   8.8029494
 104.5411180  77.4569928   8.1411151 107.2575984  75.9379532   5.5600566
 107.1789615  75.6039395   6.4536324 108.0785651  76.4301300   5.5592038
 109.9554175  68.8041271  18.7676884 109.9230495  67.8657272  18.9536568
 110.5654799  68.8825308  18.0342709 101.7937506  67.6737324   4.8104088
 102.7396611  67.5443532   4.8792506 101.4151751  66.9351986   5.2873517
 110.1048664  65.5952314  18.8135168 109.5887712  64.8110771  18.6265096
 110.9888612  65.2671031  18.9781687 107.7659390  59.3393330  14.7730980
 107.5684212  59.0308418  15.6574312 108.3759096  60.0654969  14.9028910
 115.7730725  69.8657278  17.9082921 116.5034113  69.6042566  18.4690625
 115.1637670  69.1286000  17.9484989 113.8546022  68.0065140  18.5057372
 113.1279186  67.8721105  17.8973864 113.4393309  68.3141969  19.3114090
 101.6776198  71.7255070  26.2704745 102.5979208  71.9033669  26.4644792
 101.6425782  70.7811115  26.1184445  99.9780423  65.5987300   4.7458974
  99.0711878  65.3020413   4.8221687 100.2556404  65.3017118   3.8793260
  90.8958363  66.9193664  15.1958020  90.5761148  66.0658972  14.9032394
  90.3491792  67.1342242  15.9515987  94.6738271  69.6356105  18.9127527
  94.8924281  70.5673212  18.9315560  95.0864045  69.2764079  19.6982330
 101.5942489  60.1424190  10.9003215 100.7843217  59.7971275  11.2758461
 102.2826906  59.8331734  11.4890827 103.5233037  59.2202237  12.5227512
 104.0764076  59.6397690  13.1817535 103.7603123  58.2937985  12.5650468
  99.5466136  65.2089310  28.3030275  99.4462863  66.1583667  28.2342367
  99.3287678  64.8807549  27.4306346  98.7479208  62.4574236   4.8870953
  99.6098372  62.7829134   5.1466770  98.9329552  61.6705731   4.3744019
  90.7646623  70.5396575  17.1651142  90.0710095  70.1250528  16.6521096
  91.5119614  70.5817112  16.5684561 106.9011844  61.3302762  12.0306176
 106.3210513  61.9887566  11.6484228 106.6347777  60.5080107  11.6193593
 105.3515411  60.7307820  14.2327496 105.8515189  60.8424354  13.4241815
 105.9951018  60.4268873  14.8728305  99.4097406  68.6386449  27.1195337
  98.9264488  69.4386809  27.3259226  99.4958345  68.6494394  26.1662781
  92.6783366  70.4714829  15.0417157  92.6554054  70.5702516  14.0899040
  92.9884003  71.3179980  15.3634323  95.3370744  72.5290984  19.1563771
  96.2913997  72.4974926  19.0893702  95.1383267  72.0681608  19.9713997
  95.9270126  71.0992100  21.7234569  96.7463015  71.5936179  21.7469406
  96.2006934  70.1824068  21.6952136 105.6836722  63.4902852  11.0862524
 104.7962577  63.7752503  10.8682719 106.0990711  63.3296616  10.2389801
 109.0351258  63.5149373  14.8016863 109.8111648  64.0045826  15.0741480
 108.3099393  63.9407428  15.2588733 111.4723817  64.2276993  15.8590804
 112.0668308  63.9872729  15.1484112 111.5450401  63.5084123  16.4864340
  93.6920973  78.0710603  16.1733969  93.5575441  77.3111004  15.6071967
  93.2753035  78.7951503  15.7062758 104.8279936  73.2547527   5.1810544
 105.5315786  73.4597530   5.7968200 104.1042584  73.8224289   5.4459628
 105.6577746  69.0057388  11.3012814 105.6012947  69.4625940  10.4620447
 106.2106088  68.2448073  11.1235657 109.4682552  64.7947120  12.1262934
 109.2119486  64.3943756  12.9571141 108.8435420  65.5090914  12.0013073
 113.7794890  67.5343193  14.6334225 113.2194448  67.6036383  15.4065787
 113.1738393  67.3584178  13.9133721  96.8490099  78.9679921  16.3852411
  96.7322483  79.9125353  16.2831102  96.0282545  78.6653482  16.7738211
 106.7366633  73.6930056   7.2309004 107.5712237  73.2611255   7.0486479
 106.5750976  73.5212070   8.1585899 106.3912525  70.1962170   8.5965343
 106.3361329  70.0306441   7.6553788 105.7658581  70.9038202   8.7527533
  91.1805040  65.4330234  22.4226766  91.8263904  64.9229188  22.9113991
  90.9722191  66.1698916  22.9970191 103.7058432  72.5011081  27.9218906
 104.5749592  72.6751734  27.5605541 103.2265184  73.3205498  27.7994636
  99.7008651  59.6970279   8.1750662  99.6887321  60.6412118   8.3318933
 100.5932073  59.5140424   7.8810123  97.8744613  79.6208182  19.6008340
  98.7771859  79.6531793  19.9174835  97.6481983  78.6908633  19.6154676
  99.6298215  78.3739169  16.2618418  98.6793846  78.3741031  16.1482791
  99.9330701  77.6271904  15.7454453 103.5160770  56.2913055  12.4296599
 102.7493166  55.7371542  12.5753281 103.9271475  56.3634924  13.2910750
  95.5202531  62.5797851  26.5201780  96.3833993  62.2234656  26.7305104
  94.9467942  62.2411746  27.2077184 115.3650908  84.2099707  17.3264181
 116.0029318  84.0906455  16.6227521 115.2471751  85.1580551  17.3852133
 112.1740614  84.1627135  17.2625706 111.8359126  84.0468200  16.3746240
 113.0430383  83.7618301  17.2426712 108.0327430  86.0162612  13.2522597
 107.4692295  85.9252549  12.4838884 107.9179825  85.1962516  13.7325089
 112.6560397  85.3161987  23.2211911 112.6449038  84.9214785  22.3492415
 112.8181037  84.5828060  23.8145683 105.5791862  87.5113803  16.0906817
 106.3713154  87.1704628  15.6753116 105.8188512  87.6208778  17.0108970
 109.3767659  88.0999099  22.1691095 109.0857525  89.0044730  22.0537761
 110.0124643  88.1415627  22.8835165 110.3023865  85.4775947  18.7592455
 110.8987438  85.2531970  18.0449418 110.3598837  84.7360693  19.3617903
 114.9192177  81.9351161  14.4017389 115.7055266  81.5170584  14.0507806
 115.1830881  82.8397253  14.5699037 120.3200604  81.8726394  15.3050367
 121.0525776  81.3025611  15.5388197 119.5639960  81.4847995  15.7456873
 111.9376724  84.2953636  12.5013710 111.5734931  83.7684257  13.2126631
 112.7943839  83.9052105  12.3280195 117.8426024  75.5847968  19.7644976
 117.5109349  76.4543379  19.5406191 117.2471638  75.2684252  20.4439006
 114.3357544  87.7860514  19.1640889 114.0358267  88.6885553  19.0556696
 113.9908603  87.5192698  20.0162042 107.7870025  84.2374311  15.1977593
 106.8620522  84.1050525  15.4055285 108.0354438  85.0168531  15.6947536
 117.7354687  80.3043055  16.8438326 116.8271565  80.2358463  16.5497087
 117.6842283  80.7815000  17.6720152 105.1478836  83.8807585  16.0321382
 105.2771217  84.1342064  16.9460794 104.4676288  84.4735293  15.7126037
 111.8095553  81.7232700  24.7873223 111.0328887  82.2826620  24.7776088
 112.4486116  82.2089483  25.3088093 119.6016334  78.5059493  18.6216200
 118.9590714  78.7992026  17.9755995 119.0971262  78.3912413  19.4269397
 110.0641926  84.5318154  24.3491190 110.8056610  85.0703198  24.0726014
 109.3578911  85.1584442  24.5062742 115.5397265  86.6747294  22.9463352
 115.9480621  86.2329705  22.2017984 114.8174527  86.0999922  23.1997545
 111.8928335  81.6119901  20.3196909 112.7389530  82.0359314  20.4631558
 111.8326973  80.9553525  21.0135472 115.8626080  87.2348485  16.7015641
 115.2334942  87.3994199  15.9991709 115.4751742  87.6490094  17.4726605
 115.0427781  79.2724269  21.9778082 114.7988712  80.0266330  21.4412358
 115.3187711  79.6509617  22.8125330 116.9966243  85.8162882  20.6555348
 117.2083139  86.4594641  19.9789729 116.9495992  84.9825198  20.1877278
 114.5992472  78.4280702  17.5591920 113.7376951  78.7261956  17.8508658
 114.6254907  78.6451101  16.6272953 111.4154042  86.9722893  13.9665726
 111.8792387  87.2510596  13.1770348 111.1510840  86.0706337  13.7838817
 108.3078123  86.5194374  16.9045489 108.8779480  86.9481643  16.2662974
 108.8986235  86.2376959  17.6029675 110.3522928  83.0946045  10.7755291
 111.0546971  83.5467089  11.2429217 110.0203556  82.4529864  11.4035184
 108.8003289  81.6857802  25.1506500 108.1701950  82.3674083  25.3841897
 108.6939377  81.5740883  24.2059639 104.0948262  81.3529598  16.0772425
 103.3047316  81.6087126  15.6012535 104.5859509  82.1677936  16.1824465
 118.1112071  88.6934837  18.8277705 118.9329515  88.2915024  18.5460387
 118.1074474  88.5903071  19.7793821 106.0463007  81.7174177  13.0355901
 105.2494170  81.8292871  13.5539397 105.8188599  82.0560829  12.1696792
 111.8768675  88.2418880  20.9838416 111.9413107  88.7039288  21.8196588
 111.1679599  87.6116245  21.1120726 102.3785965  81.6060088  18.5087415
 102.6294003  82.4907098  18.7744991 102.9145513  81.4264690  17.7362507
 108.0784032  75.9878568  27.5131751 107.6850978  75.4344766  28.1879396
 108.8950172  76.2989146  27.9038269 105.0446090  87.4262426  11.4245321
 105.5570610  88.2205676  11.5750886 105.6968803  86.7288716  11.3578923
 110.9951993  77.4036447  25.1052008 111.7361706  78.0043600  25.0256470
 111.2269916  76.6614085  24.5470051 106.1393331  82.5892814  23.3830238
 106.0246846  81.6878071  23.6837337 105.2837849  82.8356511  23.0315054
 113.2185169  90.5310554  24.9817738 112.7749023  89.7446933  24.6638643
 113.8802382  90.7189705  24.3161629 107.9772290  92.0606356  19.5078417
 108.5279715  91.9323419  18.7355411 107.1383766  92.3601245  19.1573310
 115.3166407  90.8113354  23.0099140 115.2984882  91.6322235  22.5179409
 116.2386327  90.6867429  23.2349281 111.7739461  88.3257484  23.8522648
 112.3067798  87.5645772  23.6221956 111.2453542  88.0331136  24.5946802
 114.9409156  73.4317550  19.3816290 114.5973425  74.3219191  19.3055400
 115.3088119  73.2419207  18.5185875 103.0095007  85.7551080  12.2004892
 103.8470229  86.1648088  11.9838600 103.1873274  84.8150522  12.1705086
 112.4906550  78.2675862  12.9473963 111.6348146  77.8782712  12.7679602
 112.9033501  78.3467822  12.0873749 114.0205696  75.8022205  17.3465523
 113.5170492  75.7652340  16.5333328 114.3136303  76.7114948  17.4062180
 110.2648582  75.8860935  16.3531705 111.1301579  75.6903743  15.9937594
 110.3326091  75.6571286  17.2801061 118.1185020  85.6492497  16.4808506
 117.4608694  86.3391758  16.5688635 118.9225419  86.0388929  16.8242493
 107.8710901  78.1163142  13.7248071 108.4454653  77.8938324  12.9921264
 108.4581884  78.1851837  14.4776673 116.9290479  84.0036869  14.5312448
 117.4422360  84.6366861  15.0334158 117.5791702  83.4038065  14.1655808
 110.1733569  74.9904391  12.4523141 109.5197981  74.6753409  11.8279756
 110.1314043  74.3680132  13.1782964 113.4071309  81.4786325  16.7770789
 112.4893871  81.7001272  16.6192477 113.8231453  81.5532635  15.9182496
 116.6385194  79.9134857  13.8892258 115.9007951  79.4012243  14.2202501
 116.8911968  79.4735238  13.0775535 116.7396822  72.6911109  14.4834027
 117.0455698  71.8308472  14.1959942 117.4649426  73.2828729  14.2833021
 103.0321178  83.0941795  12.8715625 102.8345578  82.5011156  12.1466692
 102.4767842  82.7894006  13.5891564 111.0117901  82.9864902  14.9910218
 111.0666511  82.0338738  14.9152695 110.2009103  83.1424341  15.4751517
 108.9510261  81.6041962  12.7500597 108.1378127  81.9036132  13.1565789
 109.4469255  81.2097650  13.4675080 114.5484473  82.0683786  21.5815491
 114.9033861  82.2955259  22.4409957 115.1956604  82.4002163  20.9592746
 108.4424336  79.1760317  18.3661832 109.0823715  79.0349076  17.6684796
 107.6101867  78.8894831  17.9900434 109.2184640  88.4762748  14.4796825
 110.0125238  87.9813068  14.2779400 108.5076332  87.9480611  14.1164530
 114.0379484  90.8580843  18.8309192 114.0916507  91.4271779  19.5986908
 113.1694266  91.0282728  18.4663229 105.5267403  82.6205829  10.5556577
 104.5964992  82.5590285  10.7726540 105.6224875  82.0981782   9.7593219
 105.4452952  79.1460642  13.1434819 105.7059770  80.0605975  13.0343980
 106.2670125  78.6785085  13.2931432 106.9177878  80.5598399  20.3133644
 107.5900931  80.3515761  19.6646292 106.0907664  80.3620485  19.8738876
 121.1667139  87.3002450  19.8308977 121.3603029  88.2048260  20.0768252
 121.0667757  86.8409869  20.6647562 112.8203450  77.1860340  22.3299304
 112.1731365  77.8850290  22.2363781 113.5904465  77.6196484  22.6975553
 116.2282248  87.4509192  25.4049858 116.0767754  87.2219744  24.4879941
 116.2186927  88.4079794  25.4181203 112.9967584  85.0241105  20.3896124
 113.9259644  85.1752265  20.2165091 112.5758614  85.1125126  19.5344771
 111.7955916  89.0491770  18.1594662 111.6567002  88.6810554  19.0320600
 111.0070512  89.5639409  17.9878620 113.3461131  88.4273372  15.5483500
 113.0110964  88.3874142  16.4441149 112.8465077  87.7618088  15.0753910
 107.3205375  83.8341002  21.0736081 107.1825173  83.1021241  21.6747620
 108.2310299  83.7449902  20.7920268 109.9487676  83.5460962  20.5619760
 110.6587294  82.9054154  20.5206379 109.9056984  83.7973856  21.4845941
 117.9374454  90.4828315  23.4826340 117.8787001  89.7987535  22.8156923
 118.3393973  91.2247305  23.0306966 108.6616610  80.5326180  22.3815400
 108.1253967  80.0816918  23.0336996 108.0733318  80.6672088  21.6385864
 117.9391862  88.4467899  21.7140319 117.0518640  88.1093821  21.8366718
 118.5090413  87.7150930  21.9509085  99.5921009  84.7791991  15.0383371
 100.2792049  84.4653721  14.4504386  99.4369137  85.6833355  14.7650622
 104.3955731  79.6682187  19.4668394 104.3113920  79.0607857  18.7318804
 103.5738437  80.1591206  19.4677891 111.4693015  93.1069351  18.6801562
 111.3963187  93.9124323  19.1920867 111.0270408  93.3061317  17.8549584
 114.5679445  78.1535751  14.8338589 115.0648144  77.4005713  14.5139660
 113.7966426  78.1900067  14.2681799 122.4209202  83.8576116  16.4756881
 122.4099078  84.7400832  16.1050814 121.5526582  83.5047667  16.2811418
 113.9291699  93.0056185  20.8359721 114.6419671  93.6403650  20.7635623
 113.4381727  93.1020051  20.0199723 111.1514414  80.2953134  14.5610274
 110.7812201  79.7424174  15.2491180 111.6473506  79.6911267  14.0085274
 108.9803612  90.7550629  21.6565292 109.6813072  91.3887112  21.8094686
 108.5098727  91.0965360  20.8960931 117.0098440  75.1205344  16.9817948
 116.0961519  75.3509571  17.1500155 117.4391541  75.2043788  17.8331981
 116.7804898  83.3095236  19.4817842 116.1276348  83.5571144  18.8270295
 117.1585278  82.4959374  19.1480320 112.8292471  84.0515047  25.9683879
 112.1533108  83.9509177  26.6386255 113.6520105  83.8954261  26.4319877
 104.5771330  90.2886984  18.5896395 105.1624767  89.5430672  18.7224299
 104.3796169  90.5990941  19.4733059  99.1688985  82.8592584  17.3100838
  99.2073084  82.3256175  18.1037956  98.6629278  82.3327790  16.6911815
 111.5715254  95.3581975  20.2041495 112.1233562  95.5213596  20.9690581
 111.9121447  95.9486413  19.5321520 106.5479747  77.7057125  20.8063380
 106.6121074  78.5671955  20.3940778 106.4846867  77.0931126  20.0735739
 106.0232020  79.7780257  24.4536414 106.6504059  79.3957334  25.0673939
 105.1659939  79.5594459  24.8192107 116.4226128  90.1843232  26.0590150
 116.9666032  90.7973191  25.5645105 115.8412973  90.7422811  26.5757163
 102.7997562  81.5856686  10.3854769 103.0951004  80.6767365  10.3321823
 101.8985598  81.5644426  10.0635772 106.3291809  79.6612683  16.3682318
 105.6078395  80.2748650  16.2289791 107.1185065  80.1970448  16.2898964
 116.7718550  91.1072970  18.8184728 115.8248885  90.9878322  18.7463054
 117.1201323  90.2195468  18.9010989 109.1318123  76.9967109  22.6422970
 109.6552525  77.2429406  23.4049279 108.9130456  77.8287144  22.2226107
 104.5285404  79.2670784  10.5094094 104.1998110  78.3868163  10.3269200
 104.8824775  79.2118453  11.3970484 107.6427227  79.5543754  10.8769572
 107.9823300  80.0829675  10.1548180 108.0899348  79.8924160  11.6528139
 110.3370668  77.9380804  20.3272640 109.9967488  77.1388617  20.7293320
 109.6309674  78.2382515  19.7549473 110.9887140  75.0230117  18.7799963
 111.8113209  74.5490595  18.6578853 111.2325203  75.8020601  19.2798649
 109.6295374  78.0518375   9.0762865 110.3503737  78.4299628   8.5726582
 109.0060679  78.7707252   9.1797843 113.7726497  78.7563524  10.0121197
 113.9890112  79.6388162   9.7110025 113.2920564  78.3649738   9.2826839
 108.5125719  81.7149237  16.5891942 108.3670299  82.0289540  17.4816223
 108.0350922  82.3334138  16.0362840 110.3722102  78.7051785  16.6372831
 110.3583670  77.8092879  16.3005129 111.0894530  78.7122449  17.2711117
 112.2248232  79.1389126  18.6825959 111.9666010  80.0606196  18.6810289
 111.6933273  78.7419560  19.3726423 102.9871381  84.2554582  19.5279603
 102.4424849  85.0314390  19.6599877 103.8650731  84.6025386  19.3698724
 109.7758997  77.5866166  11.9060401 109.8974909  76.6582812  12.1051289
 109.4861040  77.6004852  10.9938717 112.6450188  75.2721076  15.0427121
 112.6671885  75.3360409  14.0879101 113.0618247  74.4325585  15.2367627
 103.7737403  83.3824478  22.4209760 103.0319139  83.5307113  23.0074390
 103.4530147  83.6432744  21.5576509 111.7181065  92.9240456  22.2190150
 112.0268192  92.6789603  23.0912849 112.5156547  93.1287095  21.7309020
 104.2194016  91.2689907  14.4520154 105.0452036  90.9693679  14.0718798
 103.8688068  90.4997529  14.9009943 109.1875550  90.6216375  16.5217828
 108.5655559  89.9587080  16.2220056 109.8580416  90.6477507  15.8391476
 102.4202621  89.1876233  15.4109088 101.5834530  88.7598408  15.2293089
 102.3926267  89.3808677  16.3479879 109.2600077  79.0998163  26.1150334
 109.3088232  79.9760286  25.7328104 109.8022591  78.5575556  25.5421977
 119.7454923  89.6439286  25.3951471 118.9550466  89.6263425  24.8555970
 119.5088277  90.1827580  26.1500508 119.8652798  86.4931753  22.7084200
 119.9150803  86.3281760  23.6499722 119.7566721  85.6259012  22.3182080
 117.1556560  82.4762681  24.0243506 118.0566423  82.3369146  23.7327504
 117.2304535  82.6417136  24.9641684 111.4899365  79.8529535  22.8696693
 110.6202675  80.1463102  22.5979281 111.7258846  80.4369980  23.5903956
 121.3670995  88.9128694  22.9526221 121.0755803  89.2758675  23.7889682
 120.7543126  88.1995702  22.7739553 119.6158183  84.0361309  21.4206279
 120.0912304  84.2288955  20.6125131 118.6923748  84.0920495  21.1749663
 106.5041689  85.1985476  11.0037357 106.2587731  84.2947806  11.2017568
 106.6737604  85.2002626  10.0616835 114.1938399  76.0709152  20.3862113
 114.7120343  76.8070179  20.0608602 113.8393532  76.3773146  21.2208872
 105.7737337  80.9313834   8.5023519 105.0806582  81.0058189   7.8463555
 105.5289089  80.1674177   9.0245036 114.4450993  72.4909435  15.9063010
 114.7252747  71.8232624  16.5323436 115.2301600  72.6838531  15.3937673
 118.3159852  80.9127069  19.6534585 119.2677275  81.0125167  19.6746809
 118.1463302  80.1205337  20.1632669 116.3374231  77.9982652  19.8393986
 115.7424163  78.2787665  19.1440474 116.0523928  78.4876553  20.6110727
 120.7947930  84.1333189  18.7676884 120.7624250  83.1949189  18.9536568
 121.4048553  84.2117225  18.0342709 120.9442418  80.9244232  18.8135168
 120.4281467  80.1402689  18.6265096 121.8282367  80.5962949  18.9781687
 118.6053145  74.6685248  14.7730980 118.4077966  74.3600336  15.6574312
 119.2152851  75.3946887  14.9028910 126.6124479  85.1949195  17.9082921
 127.3427868  84.9334484  18.4690625 126.0031425  84.4577917  17.9484989
 124.6939777  83.3357058  18.5057372 123.9672940  83.2013023  17.8973864
 124.2787063  83.6433887  19.3114090 112.5169953  87.0546988  26.2704745
 113.4372962  87.2325587  26.4644792 112.4819536  86.1103033  26.1184445
 101.7352118  82.2485581  15.1958020 101.4154902  81.3950890  14.9032394
 101.1885546  82.4634160  15.9515987 105.5132026  84.9648022  18.9127527
 105.7318035  85.8965130  18.9315560 105.9257799  84.6055997  19.6982330
 112.4336243  75.4716108  10.9003215 111.6236972  75.1263193  11.2758461
 113.1220660  75.1623651  11.4890827 114.3626792  74.5494154  12.5227512
 114.9157830  74.9689608  13.1817535 114.5996878  73.6229903  12.5650468
 110.3859891  80.5381228  28.3030275 110.2856618  81.4875585  28.2342367
 110.1681433  80.2099467  27.4306346 101.6040378  85.8688493  17.1651142
 100.9103849  85.4542446  16.6521096 102.3513369  85.9109029  16.5684561
 117.7405599  76.6594680  12.0306176 117.1604268  77.3179484  11.6484228
 117.4741531  75.8372024  11.6193593 116.1909165  76.0599737  14.2327496
 116.6908943  76.1716272  13.4241815 116.8344773  75.7560790  14.8728305
 110.2491161  83.9678367  27.1195337 109.7658243  84.7678727  27.3259226
 110.3352100  83.9786312  26.1662781 103.5177120  85.8006747  15.0417157
 103.4947809  85.8994434  14.0899040 103.8277757  86.6471897  15.3634323
 106.1764498  87.8582902  19.1563771 107.1307752  87.8266844  19.0893702
 105.9777022  87.3973525  19.9713997 106.7663881  86.4284018  21.7234569
 107.5856769  86.9228096  21.7469406 107.0400688  85.5115986  21.6952136
 116.5230477  78.8194770  11.0862524 115.6356332  79.1044421  10.8682719
 116.9384466  78.6588533  10.2389801 119.8745013  78.8441291  14.8016863
 120.6505403  79.3337743  15.0741480 119.1493147  79.2699345  15.2588733
 122.3117571  79.5568910  15.8590804 122.9062062  79.3164646  15.1484112
 122.3844155  78.8376041  16.4864340 104.5314727  93.4002521  16.1733969
 104.3969195  92.6402922  15.6071967 104.1146789  94.1243421  15.7062758
 107.6883853  94.2971838  16.3852411 107.5716237  95.2417271  16.2831102
 106.8676299  93.9945400  16.7738211 102.0198795  80.7622152  22.4226766
 102.6657658  80.2521106  22.9113991 101.8115946  81.4990833  22.9970191
 114.5452187  87.8302999  27.9218906 115.4143347  88.0043651  27.5605541
 114.0658938  88.6497416  27.7994636 110.5402405  75.0262196   8.1750662
 110.5281075  75.9704036   8.3318933 111.4325827  74.8432342   7.8810123
 108.7138367  94.9500100  19.6008340 109.6165614  94.9823710  19.9174835
 108.4875737  94.0200551  19.6154676 114.3554525  71.6204973  12.4296599
 113.5886920  71.0663460  12.5753281 114.7665230  71.6926842  13.2910750
 106.3596286  77.9089769  26.5201780 107.2227747  77.5526574  26.7305104
 105.7861696  77.5703663  27.2077184 122.6489308  97.0524618  24.7873223
 121.8722642  97.6118538  24.7776088 123.2879871  97.5381401  25.3088093
 119.6397044  97.0149719  25.1506500 119.0095704  97.6966000  25.3841897
 119.5333132  96.9032801  24.2059639 118.9177787  91.3170485  27.5131751
 118.5244732  90.7636684  28.1879396 119.7343927  91.6281064  27.9038269
 121.8345748  92.7328364  25.1052008 122.5755461  93.3335518  25.0256470
 122.0663670  91.9906002  24.5470051 116.9787086  97.9184732  23.3830238
 116.8640601  97.0169989  23.6837337 116.1231603  98.1648428  23.0315054
 123.6597204  92.5152258  22.3299304 123.0125119  93.2142208  22.2363781
 124.4298220  92.9488402  22.6975553 119.5010364  95.8618097  22.3815400
 118.9647721  95.4108836  23.0336996 118.9127073  95.9964006  21.6385864
 115.2349485  94.9974105  19.4668394 115.1507674  94.3899774  18.7318804
 114.4132192  95.4883123  19.4677891 123.6686226  99.3806965  25.9683879
 122.9926863  99.2801094  26.6386255 124.4913859  99.2246179  26.4319877
 117.3873502  93.0349042  20.8063380 117.4514828  93.8963873  20.3940778
 117.3240622  92.4223044  20.0735739 116.8625774  95.1072175  24.4536414
 117.4897813  94.7249252  25.0673939 116.0053693  94.8886377  24.8192107
 119.9711878  92.3259027  22.6422970 120.4946279  92.5721323  23.4049279
 119.7524211  93.1579062  22.2226107 114.6131157  98.7116396  22.4209760
 113.8712893  98.8599031  23.0074390 114.2923901  98.9724661  21.5576509
 120.0993831  94.4290081  26.1150334 120.1481987  95.3052204  25.7328104
 120.6416346  93.8867474  25.5421977 122.3293120  95.1821453  22.8696693
 121.4596429  95.4755019  22.5979281 122.5652600  95.7661898  23.5903956
 121.2253645  95.8673146  28.3030275 121.1250372  96.8167503  28.2342367
 121.0075187  95.5391385  27.4306346 121.0884915  99.2970285  27.1195337
 120.6051997 100.0970645  27.3259226 121.1745854  99.3078230  26.1662781
 112.8592549  96.0914069  22.4226766 113.5051413  95.5813023  22.9113991
 112.6509700  96.8282751  22.9970191 117.1990040  93.2381686  26.5201780
 118.0621502  92.8818491  26.7305104 116.6255451  92.8995581  27.2077184
  80.7003907  21.5496924  11.7063045  80.2567761  20.7633302  11.3883949
  81.3621120  21.7376074  11.0406936  82.7985145  21.8299724   9.7344446
  82.7803620  22.6508605   9.2424715  83.7205065  21.7053799   9.9594587
  79.2558199  19.3443853  10.5767955  79.7886536  18.5832141  10.3467263
  78.7272280  19.0517505  11.3192109  88.6485877  18.3188819   6.5554284
  88.8421767  19.2234630   6.8013559  88.5486495  17.8596238   7.3892869
  83.7100986  18.4695562  12.1295164  83.5586492  18.2406114  11.2125248
  83.7005665  19.4266163  12.1426509  85.4193192  21.5014685  10.2071646
  85.3605738  20.8173905   9.5402229  85.8212711  22.2433675   9.7552272
  85.4210599  19.4654268   8.4385626  84.5337378  19.1280190   8.5612025
  85.9909151  18.7337300   8.6754391  81.4110436  24.0242555   7.5605028
  82.1238409  24.6590020   7.4880929  80.9200465  24.1206421   6.7445030
  80.3111209  15.0701417  12.6929186  79.6351846  14.9695546  13.3631561
  81.1338843  14.9140631  13.1565183  79.0533992  26.3768344   6.9286802
  79.6052300  26.5399966   7.6935887  79.3940185  26.9672782   6.2566827
  83.9044866  21.2029602  12.7835456  84.4484770  21.8159560  12.2890411
  83.3231711  21.7609180  13.3002469  79.1999803  23.9426826   8.9435456
  79.5086930  23.6975973   9.8158156  79.9975285  24.1473464   8.4554327
  87.2273660  20.6625656  12.1196778  86.4369204  20.6449795  11.5801277
  86.9907015  21.2013950  12.8745814  87.3471536  17.5118122   9.4329506
  87.3969540  17.3468130  10.3745029  87.2385459  16.6445381   9.0427387
  84.6375298  13.4949050  10.7488813  85.5385161  13.3555515  10.4572811
  84.7123272  13.6603505  11.6886990  88.8489732  19.9315064   9.6771528
  88.5574541  20.2945044  10.5134989  88.2361864  19.2182072   9.4984860
  79.9988691  18.0733357  12.9950052  80.9191700  18.2511956  13.1890099
  79.9638274  17.1289403  12.8429751  77.7309899  14.9864737  13.8440644
  77.2476980  15.7865097  14.0504533  77.8170838  14.9972681  12.8908088
  82.0270925  18.8489369  14.6464213  82.8962084  19.0230021  14.2850848
  81.5477676  19.6683785  14.5239942  93.6863400  30.5577995   4.0509488
  94.3241810  30.4384742   3.3472828  93.5684243  31.5058839   4.1097440
  90.4953107  30.5105423   3.9871012  90.1571618  30.3946487   3.0991547
  91.3642875  30.1096588   3.9672018  90.9772890  31.6640274   9.9457218
  90.9661530  31.2693073   9.0737721  91.1393529  30.9306347  10.5390989
  83.9004354  33.8592091   2.8152124  84.6925646  33.5182915   2.3998423
  84.1401005  33.9687066   3.7354277  91.9339481  36.0311867  -4.7117632
  91.2827461  36.6165947  -5.0983618  92.7283844  36.5618062  -4.6522594
  87.6980151  34.4477386   8.8936402  87.4070017  35.3523017   8.7783068
  88.3337135  34.4893914   9.6080471  88.6236358  31.8254235   5.4837761
  89.2199930  31.6010257   4.7694724  88.6811329  31.0838980   6.0863209
  90.2589216  30.6431923  -0.7740983  89.8947423  30.1162544  -0.0628062
  91.1156332  30.2530392  -0.9474498  96.1638516  21.9326256   6.4890283
  95.8321841  22.8021667   6.2651498  95.5684130  21.6162540   7.1684313
  92.6570036  34.1338802   5.8886195  92.3570759  35.0363841   5.7802003
  92.3121095  33.8670985   6.7407348  86.1082517  30.5852599   1.9222900
  85.1833014  30.4528813   2.1300592  86.3566931  31.3646818   2.4192842
  96.0567180  26.6521342   3.5683633  95.1484057  26.5836750   3.2742394
  96.0054776  27.1293287   4.3965458  83.4691328  30.2285872   2.7566689
  83.5983710  30.4820351   3.6706101  82.7888780  30.8213580   2.4371344
  87.6390816  40.8983122  -1.1442837  87.5614845  41.8490947  -1.0654356
  87.0352459  40.5528995  -0.4867911  90.1308046  28.0710987  11.5118530
  89.3541380  28.6304908  11.5021395  90.7698609  28.5567770  12.0333400
  88.3854418  30.8796441  11.0736497  89.1269102  31.4181485  10.7971321
  87.6791403  31.5062730  11.2308049  93.8609757  33.0225581   9.6708659
  94.2693114  32.5807992   8.9263291  93.1387019  32.4478209   9.9242851
  90.2140828  27.9598188   7.0442215  91.0602023  28.3837602   7.1876864
  90.1539465  27.3031812   7.7380779  94.1838572  33.5826772   3.4260947
  93.5547435  33.7472486   2.7237015  93.7964234  33.9968382   4.1971911
  98.0627804  34.5181210   0.7805311  97.3778842  34.8980111   0.2302344
  98.1471653  35.1276536   1.5137259  93.3640273  25.6202556   8.7023389
  93.1201205  26.3744617   8.1657665  93.6400203  25.9987904   9.5370636
  95.3178736  32.1641169   7.3800655  95.5295631  32.8072929   6.7035036
  95.2708484  31.3303485   6.9122585  92.9204965  24.7758989   4.2837227
  92.0589444  25.0740243   4.5753964  92.9467399  24.9929388   3.3518259
  89.7366534  33.3201180   0.6911032  90.2004880  33.5988883  -0.0984345
  89.4723332  32.4184625   0.5084123  86.6290615  32.8672662   3.6290796
  87.1991972  33.2959930   2.9908280  87.2198727  32.5855246   4.3274981
  87.1215782  28.0336089  11.8751807  86.4914442  28.7152370  12.1087204
  87.0151869  27.9219171  10.9304945  96.4324564  35.0413124   5.5523012
  97.2542007  34.6393312   5.2705694  96.4286966  34.9381358   6.5039128
  90.1981167  34.5897168   7.7083723  90.2625600  35.0517575   8.5441894
  89.4892091  33.9594532   7.8366032  80.6998457  27.9538376   5.2332722
  80.9506495  28.8385385   5.4990298  81.2358005  27.7742977   4.4607814
  89.9129185  36.2565275  -2.4237297  89.7774859  37.1016811  -1.9952449
  90.4538997  36.4584553  -3.1871363  86.3996524  22.3356855  14.2377058
  86.0063470  21.7823053  14.9124702  87.2162665  22.6467433  14.6283576
  85.1753467  36.8906469   0.2313381  85.3520095  37.8124434   0.0434365
  85.9710300  36.5764889   0.6607761  89.3164485  23.7514734  11.8297315
  90.0574199  24.3521887  11.7501777  89.5482408  23.0092372  11.2715357
  84.4605823  28.9371101  10.1075544  84.3459338  28.0356358  10.4082643
  83.6050341  29.1834798   9.7560361  91.5397661  36.8788842  11.7063045
  91.0961515  36.0925220  11.3883949  92.2014875  37.0667992  11.0406936
  86.2984782  38.4084643   6.2323723  86.8492207  38.2801706   5.4600717
  85.4596258  38.7079532   5.8818616  93.6378899  37.1591641   9.7344446
  93.6197374  37.9800523   9.2424715  94.5598819  37.0345717   9.9594587
  90.0951953  34.6735771  10.5767955  90.6280290  33.9124059  10.3467263
  89.5666034  34.3809423  11.3192109  92.3418189  22.1500492   4.0710830
  91.8382984  22.1130627   3.2578635  92.6348795  23.0593235   4.1307486
  91.4604666  33.8021763  -1.9113233  90.9326028  33.0674523  -2.2239996
  90.9592169  34.5796440  -2.1573265  96.4397512  31.9970784   3.2053813
  95.7821186  32.6870045   3.2933942  97.2437911  32.3867216   3.5487799
  92.5125345  40.3299481  -5.9881574  91.8387044  40.6331178  -5.3796616
  92.8991167  41.1328561  -6.3376117  91.7283802  27.8264612   3.5016095
  90.8106363  28.0479559   3.3437783  92.1443945  27.9010923   2.6427802
  96.0164767  35.3321158  -0.6163103  95.5627094  34.4912068  -0.5597912
  95.3858734  35.9682556  -0.2788323  94.4597706  37.1697655   0.3186715
  94.7520681  37.7302712  -0.4000919  94.9696327  37.4626216   1.0739875
  89.3330394  29.3343189   1.7155525  89.3879003  28.3817026   1.6398002
  88.5221596  29.4902628   2.1996823  89.4231331  37.9478006   1.4080169
  89.3807510  38.1738852   0.4788701  90.3394030  37.7141380   1.5565970
  92.8696965  28.4162073   8.3060798  93.2246353  28.6433547   9.1655264
  93.5169096  28.7480450   7.6838053  86.7636828  25.5238604   5.0907139
  87.4036208  25.3827364   4.3930102  85.9314359  25.2373118   4.7145741
  98.6264082  33.6057036   4.0221398  99.0600588  33.5132325   4.8704452
  99.3395662  33.5814537   3.3841414  87.5397132  34.8241035   1.2042131
  88.3337731  34.3291355   1.0024706  86.8288825  34.2958898   0.8409837
  92.3591977  37.2059130   5.5554499  92.4128999  37.7750067   6.3232215
  91.4906758  37.3761015   5.1908536  85.2390370  26.9076687   7.0378950
  85.9113423  26.6994049   6.3891599  84.4120157  26.7098773   6.5984182
  99.4879631  33.6480737   6.5554284  99.6815521  34.5526547   6.8013559
  99.3880250  33.1888156   7.3892869  91.1415942  23.5338628   9.0544611
  90.4943857  24.2328577   8.9609087  91.9116957  23.9674771   9.4220859
  94.5494740  33.7987480  12.1295164  94.3980246  33.5698031  11.2125248
  94.5399419  34.7558081  12.1426509  91.3180076  31.3719392   7.1141431
  92.2472136  31.5230552   6.9410398  90.8971106  31.4603413   6.2590077
  90.1168408  35.3970057   4.8839968  89.9779494  35.0288841   5.7565907
  89.3283004  35.9117696   4.7123926  90.7116560  40.4979153  -3.7734495
  90.8868316  40.0267196  -2.9588872  90.0249348  41.1244919  -3.5453234
  91.6673623  34.7751660   2.2728806  91.3323456  34.7352429   3.1686456
  91.1677569  34.1096375   1.7999216  85.6417867  30.1819290   7.7981387
  85.5037665  29.4499528   8.3992926  86.5522791  30.0928190   7.5165575
  88.2700168  29.8939249   7.2865067  88.9799787  29.2532441   7.2451685
  88.2269476  30.1452144   8.2091248  96.2586947  36.8306602  10.2071646
  96.1999493  36.1465822   9.5402229  96.6606465  37.5725592   9.7552272
  86.9829102  26.8804467   9.1060706  86.4466459  26.4295205   9.7582303
  86.3945810  27.0150376   8.3631171  85.2777645  43.6468516   3.0005365
  85.5174244  44.2787040   3.6784384  84.4346842  43.2956556   3.2870724
  96.2604354  34.7946186   8.4385626  95.3731133  34.4572108   8.5612025
  96.8302905  34.0629217   8.6754391  82.7168223  26.0160474   6.1913701
  82.6326412  25.4086144   5.4564111  81.8950930  26.5069493   6.1923197
  89.7905507  39.4547639   5.4046869  89.7175679  40.2602610   5.9166174
  89.3482900  39.6539604   4.5794890  89.5795287  38.6919409  -1.0850309
  88.7962809  39.2341089  -0.9912085  90.2788032  39.2093388  -0.6856068
  92.2504191  39.3534473   7.5605028  92.9632163  39.9881937   7.4880929
  91.7594219  39.4498339   6.7445030  93.9721718  33.2585725  -0.8677681
  93.0377996  33.3787188  -1.0372976  94.1498386  32.3558192  -1.1317671
  87.3016104  37.1028916   8.3810599  88.0025564  37.7365399   8.5339993
  86.8311219  37.4443648   7.6206238  95.1017390  29.6573523   6.2063149
  94.4488841  29.9049431   5.5515602  95.4797770  28.8437662   5.8725626
  92.0624564  39.6933217   0.3091319  92.2446959  38.8754873   0.7719072
  92.8857550  39.9100909  -0.1283791  92.3966730  38.6201402  -2.4293632
  92.9254496  38.1093856  -3.0423470  92.6594949  38.3043932  -1.5648099
  91.1504963  30.3993335  12.6929186  90.4745600  30.2987464  13.3631561
  91.9732597  30.2432548  13.1565183  82.8983822  36.6365271   5.3141701
  83.4837259  35.8908959   5.4469605  82.7008661  36.9469228   6.1978365
  85.7522478  39.6716518   0.3304144  85.0832853  40.1562646  -0.1531816
  85.6135347  39.9185739   1.2447522  89.8927746  41.7060262   6.9286802
  90.4446054  41.8691883   7.6935887  90.2333940  42.2964700   6.2566827
  84.8692239  24.0535412   7.5308687  84.9333566  24.9150243   7.1186084
  84.8059360  23.4409413   6.7981045  84.3444512  26.1258544  11.1781721
  84.9716551  25.7435622  11.7919245  83.4872431  25.9072746  11.5437413
  94.7438621  36.5321519  12.7835456  95.2878525  37.1451478  12.2890411
  94.1625465  37.0901098  13.3002469  93.0296134  39.6542237   3.9150484
  92.9047273  38.8531977   3.4061430  93.6875225  40.1488431   3.4264454
  95.0931042  37.4551258   5.5430034  94.1461377  37.3356609   5.4708361
  95.4413815  36.5673756   5.6256296  87.4530615  23.3445396   9.3668276
  87.9765017  23.5907693  10.1294585  87.2342949  24.1765431   8.9471413
  92.0977475  37.2503974   1.7434386  91.9502438  36.3220681   1.9241957
  92.9230969  37.2724064   1.2591462  95.7011597  38.0732533   2.8299259
  96.6258145  37.8675394   2.6923710  95.5326900  37.8248934   3.7388601
  88.6583160  24.2859092   7.0517947  88.3179981  23.4866905   7.4538627
  87.9522167  24.5860802   6.4794780  89.3099632  21.3708404   5.5045270
  90.1325701  20.8968882   5.3824160  89.5537696  22.1498888   6.0043956
  86.8338211  28.0627525   3.3137248  86.6882792  28.3767828   4.2061530
  86.3563415  28.6812425   2.7608147  88.6934594  25.0530073   3.3618138
  88.6796163  24.1571166   3.0250436  89.4107022  25.0600736   3.9956424
  90.5460725  25.4867413   5.4071265  90.2878502  26.4084483   5.4055596
  90.0145765  25.0897847   6.0971729  95.4906913  38.5918200  -1.8138649
  95.6643791  38.0264622  -2.5664797  95.9835805  39.3919095  -1.9959159
  81.3083873  30.6032869   6.2524910  80.7637341  31.3792677   6.3845184
  82.1863223  30.9503674   6.0944031  82.0949895  29.7302765   9.1455066
  81.3531631  29.8785401   9.7319697  81.7742639  29.9911031   8.2821816
  90.0393558  39.2718744   8.9435456  90.3480684  39.0267890   9.8158156
  90.8369040  39.4765382   8.4554327  90.0614170  41.4256653   1.1740833
  89.6219160  40.9333032   1.8673690  90.8122287  40.8829621   0.9332908
  82.5406509  37.6168194   1.1765461  83.3664529  37.3171966   0.7964105
  82.1900561  36.8475816   1.6255250  87.5088042  36.9694662   3.2463135
  86.8868051  36.3065367   2.9465362  88.1792909  36.9955794   2.5636782
  80.7415114  35.5354521   2.1354395  79.9047022  35.1076695   1.9538396
  80.7138759  35.7286964   3.0725186  87.5812569  25.4476450  12.8395641
  87.6300725  26.3238573  12.4573410  88.1235083  24.9053843  12.2667284
  98.0667415  35.9917574  12.1196778  97.2762959  35.9741712  11.5801277
  97.8300770  36.5305867  12.8745814  98.1865290  32.8410040   9.4329506
  98.2363295  32.6760047  10.3745029  98.0779213  31.9737299   9.0427387
  95.4769052  28.8240968  10.7488813  96.3778915  28.6847433  10.4572811
  95.5517027  28.9895423  11.6886990  89.8111858  26.2007823   9.5941999
  88.9415167  26.4941389   9.3224588  90.0471338  26.7848268  10.3149263
  99.6883487  35.2606981   9.6771528  99.3968295  35.6236962  10.5134989
  99.0755618  34.5473990   9.4984860  97.9370675  30.3839596   8.1451586
  98.4124797  30.5767242   7.3370437  97.0136240  30.4398782   7.8994969
  92.5150892  22.4187440   7.1107420  93.0332835  23.1548467   6.7853908
  92.1606024  22.7251433   7.9454179  96.6372344  27.2605356   6.3779891
  97.5889767  27.3603454   6.3992115  96.4675794  26.4683625   6.8877976
  94.6586724  24.3460939   6.5639292  94.0636656  24.6265952   5.8685781
  94.3736420  24.8354840   7.3356033  99.1160422  30.4811476   5.4922191
  99.0836742  29.5427477   5.6781875  99.7261046  30.5595513   4.7588016
  90.8382445  33.4025275  12.9950052  91.7585455  33.5803874  13.1890099
  90.8032028  32.4581320  12.8429751  83.8344518  31.3126310   5.6372833
  84.0530528  32.2443417   5.6560867  84.2470292  30.9534284   6.4227637
  88.7072383  26.8859515  15.0275582  88.6069110  27.8353872  14.9587673
  88.4893925  26.5577754  14.1551652  79.9252870  32.2166780   3.8896448
  79.2316342  31.8020733   3.3766403  80.6725861  32.2587317   3.2929867
  88.5703653  30.3156654  13.8440644  88.0870735  31.1157014  14.0504533
  88.6564592  30.3264599  12.8908088  84.4976991  34.2061189   5.8809078
  85.4520244  34.1745131   5.8139009  84.2989514  33.7451813   6.6959303
  85.0876373  32.7762305   8.4479875  85.9069262  33.2706384   8.4714713
  85.3613180  31.8594273   8.4197443  82.8527219  39.7480808   2.8979275
  82.7181687  38.9881209   2.3317273  82.4359282  40.4721708   2.4308064
  86.0096345  40.6450125   3.1097718  85.8928729  41.5895558   3.0076408
  85.1888792  40.3423687   3.4983517  80.3411287  27.1100439   9.1472072
  80.9870151  26.5999393   9.6359297  80.1328438  27.8469120   9.7215498
  92.8664679  34.1781286  14.6464213  93.7355839  34.3521939  14.2850848
  92.3871431  34.9975703  14.5239942  87.0350859  41.2978387   6.3253647
  87.9378106  41.3301998   6.6420141  86.8088230  40.3678838   6.3399982
  88.7904461  40.0509374   2.9863725  87.8400092  40.0511235   2.8728097
  89.0936948  39.3042108   2.4699760  84.6808778  24.2568056  13.2447087
  85.5440240  23.9004861  13.4550411  84.1074189  23.9181951  13.9322491
 104.5257155  45.8869912   4.0509488 105.1635565  45.7676660   3.3472828
 104.4077998  46.8350756   4.1097440 101.3346861  45.8397340   3.9871012
 100.9965373  45.7238405   3.0991547 102.2036629  45.4388505   3.9672018
  97.1933677  47.6932817  -0.0232097  96.6298542  47.6022754  -0.7915809
  97.0786072  46.8732721   0.4570396 101.8166644  46.9932192   9.9457218
 101.8055285  46.5984990   9.0737721 101.9787284  46.2598265  10.5390989
  94.7398109  49.1884008   2.8152124  95.5319401  48.8474833   2.3998423
  94.9794759  49.2978983   3.7354277 102.7733236  51.3603784  -4.7117632
 102.1221215  51.9457865  -5.0983618 103.5677598  51.8909979  -4.6522594
  96.6988863  48.4492922  -4.3130498  97.4719739  47.9021909  -4.4517622
  97.0514262  49.3137171  -4.1016036  98.5373905  49.7769304   8.8936402
  98.2463771  50.6814935   8.7783068  99.1730890  49.8185831   9.6080471
  99.4630112  47.1546152   5.4837761 100.0593684  46.9302175   4.7694724
  99.5205084  46.4130898   6.0863209  98.7551429  46.5113694  -4.4787673
  98.6387687  45.8358597  -3.8106588  98.8653689  46.0246068  -5.2955520
 101.0982970  45.9723841  -0.7740983 100.7341178  45.4454462  -0.0628062
 101.9550086  45.5822310  -0.9474498 107.0032271  37.2618173   6.4890283
 106.6715596  38.1313584   6.2651498 106.4077884  36.9454457   7.1684313
 103.4963790  49.4630719   5.8886195 103.1964514  50.3655758   5.7802003
 103.1514850  49.1962903   6.7407348  96.9476272  45.9144516   1.9222900
  96.0226768  45.7820730   2.1300592  97.1960685  46.6938735   2.4192842
 106.8960934  41.9813260   3.5683633 105.9877812  41.9128668   3.2742394
 106.8448530  42.4585205   4.3965458  94.3085083  45.5577790   2.7566689
  94.4377464  45.8112269   3.6706101  93.6282534  46.1505498   2.4371344
  98.4784570  56.2275040  -1.1442837  98.4008600  57.1782865  -1.0654356
  97.8746214  55.8820912  -0.4867911 100.9701800  43.4002905  11.5118530
 100.1935134  43.9596825  11.5021395 101.6092363  43.8859688  12.0333400
  99.2248172  46.2088359  11.0736497  99.9662857  46.7473402  10.7971321
  98.5185158  46.8354647  11.2308049 104.7003512  48.3517499   9.6708659
 105.1086868  47.9099910   8.9263291 103.9780773  47.7770127   9.9242851
 101.0534582  43.2890106   7.0442215 101.8995777  43.7129519   7.1876864
 100.9933220  42.6323730   7.7380779 105.0232327  48.9118690   3.4260947
 104.3941189  49.0764404   2.7237015 104.6357989  49.3260299   4.1971911
 108.9021559  49.8473127   0.7805311 108.2172597  50.2272029   0.2302344
 108.9865408  50.4568454   1.5137259 104.2034027  40.9494474   8.7023389
 103.9594959  41.7036535   8.1657665 104.4793958  41.3279822   9.5370636
 106.1572490  47.4933086   7.3800655 106.3689385  48.1364846   6.7035036
 106.1102238  46.6595403   6.9122585 103.7598719  40.1050907   4.2837227
 102.8983198  40.4032161   4.5753964 103.7861154  40.3221306   3.3518259
 100.5760288  48.6493098   0.6911032 101.0398634  48.9280801  -0.0984345
 100.3117087  47.7476542   0.5084123  97.4684370  48.1964579   3.6290796
  98.0385727  48.6251848   2.9908280  98.0592481  47.9147164   4.3274981
  99.5129175  44.7716250  -2.4999402 100.2153218  45.2237294  -2.0325476
  99.1809803  44.1300069  -1.8719509  97.9609536  43.3628007  11.8751807
  97.3308197  44.0444288  12.1087204  97.8545624  43.2511088  10.9304945
  93.2554508  43.0299803   2.8017731  92.4653562  43.2857331   2.3257842
  93.7465756  43.8448141   2.9069772 107.2718318  50.3705042   5.5523012
 108.0935762  49.9685229   5.2705694 107.2680721  50.2673276   6.5039128
  95.2069254  43.3944382  -0.2398792  94.4100417  43.5063076   0.2784704
  94.9794846  43.7331034  -1.1057902 101.0374922  49.9189085   7.7083723
 101.1019354  50.3809492   8.5441894 100.3285845  49.2886450   7.8366032
  91.5392211  43.2830293   5.2332722  91.7900250  44.1677303   5.4990298
  92.0751760  43.1034895   4.4607814 100.7522939  51.5857193  -2.4237297
 100.6168614  52.4308728  -1.9952449 101.2932752  51.7876470  -3.1871363
  97.2390279  37.6648773  14.2377058  96.8457224  37.1114971  14.9124702
  98.0556419  37.9759351  14.6283576  94.2052337  49.1032631  -1.8509372
  94.7176857  49.8975881  -1.7003807  94.8575049  48.4058921  -1.9175771
  96.0147221  52.2198387   0.2313381  96.1913850  53.1416352   0.0434365
  96.8104055  51.9056806   0.6607761 100.1558240  39.0806652  11.8297315
 100.8967953  39.6813805  11.7501777 100.3876163  38.3384289  11.2715357
  95.2999578  44.2663019  10.1075544  95.1853093  43.3648276  10.4082643
  94.4444096  44.5126716   9.7560361 102.3791416  52.2080759  11.7063045
 101.9355270  51.4217138  11.3883949 103.0408629  52.3959910  11.0406936
  97.1378537  53.7376561   6.2323723  97.6885962  53.6093624   5.4600717
  96.2990013  54.0371450   5.8818616 104.4772654  52.4883559   9.7344446
 104.4591129  53.3092440   9.2424715 105.3992574  52.3637634   9.9594587
 100.9345708  50.0027689  10.5767955 101.4674045  49.2415977  10.3467263
 100.4059789  49.7101340  11.3192109  92.1701253  47.4321285  -1.0749802
  93.0076475  47.8418293  -1.2916094  92.3479521  46.4920727  -1.1049608
 103.1811943  37.4792410   4.0710830 102.6776739  37.4422545   3.2578635
 103.4742550  38.3885152   4.1307486  99.4254829  37.5631139   3.0777011
 100.2907826  37.3673948   2.7182901  99.4932338  37.3341491   4.0046368
 102.2998420  49.1313681  -1.9113233 101.7719782  48.3966441  -2.2239996
 101.7985923  49.9088357  -2.1573265 107.2791266  47.3262702   3.2053813
 106.6214941  48.0161963   3.2933942 108.0831666  47.7159134   3.5487799
  97.0317148  39.7933347   0.4493378  97.6060900  39.5708529  -0.2833429
  97.6188131  39.8622042   1.2021979 103.3519100  55.6591399  -5.9881574
 102.6780798  55.9623095  -5.3796616 103.7384921  56.4620479  -6.3376117
 102.5677556  43.1556530   3.5016095 101.6500118  43.3771477   3.3437783
 102.9837700  43.2302840   2.6427802 106.8558522  50.6613076  -0.6163103
 106.4020849  49.8203986  -0.5597912 106.2252488  51.2974474  -0.2788323
 105.2991461  52.4989572   0.3186715 105.5914435  53.0594630  -0.4000919
 105.8090081  52.7918133   1.0739875  92.1927424  44.7712000  -0.4039068
  91.9951824  44.1781361  -1.1288002  91.6374088  44.4664211   0.3136871
 100.1724148  44.6635107   1.7155525 100.2272758  43.7108943   1.6398002
  99.3615350  44.8194546   2.1996823  98.1116508  43.2812167  -0.5254096
  97.2984374  43.5806337  -0.1188904  98.6075502  42.8867855   0.1920386
 100.2625086  53.2769924   1.4080169 100.2201265  53.5030770   0.4788701
 101.1787785  53.0433298   1.5565970 103.7090720  43.7453991   8.3060798
 104.0640107  43.9725464   9.1655264 104.3562851  44.0772368   7.6838053
  97.6030583  40.8530522   5.0907139  98.2429962  40.7119281   4.3930102
  96.7708113  40.5665035   4.7145741 109.4657836  48.9348954   4.0221398
 109.8994343  48.8424243   4.8704452 110.1789417  48.9106454   3.3841414
  98.3790887  50.1532953   1.2042131  99.1731485  49.6583273   1.0024706
  97.6682579  49.6250816   0.8409837 103.1985731  52.5351048   5.5554499
 103.2522753  53.1041984   6.3232215 102.3300513  52.7052933   5.1908536
  94.6873650  44.2976034  -2.7198116  93.7571238  44.2360490  -2.5028154
  94.7831122  43.7751987  -3.5161475  94.6059199  40.8230847  -0.1319874
  94.8666017  41.7376180  -0.2410714  95.4276372  40.3555290   0.0176738
  96.0784125  42.2368604   7.0378950  96.7507178  42.0285966   6.3891599
  95.2513911  42.0390690   6.5984182 110.3273386  48.9772655   6.5554284
 110.5209276  49.8818465   6.8013559 110.2274004  48.5180074   7.3892869
 101.9809697  38.8630545   9.0544611 101.3337612  39.5620495   8.9609087
 102.7510712  39.2966689   9.4220859 105.3888495  49.1279397  12.1295164
 105.2374001  48.8989949  11.2125248 105.3793174  50.0849999  12.1426509
 102.1573831  46.7011310   7.1141431 103.0865891  46.8522470   6.9410398
 101.7364861  46.7895331   6.2590077 100.9562163  50.7261975   4.8839968
 100.8173248  50.3580759   5.7565907 100.1676759  51.2409614   4.7123926
 101.5510315  55.8271071  -3.7734495 101.7262070  55.3559114  -2.9588872
 100.8643103  56.4536837  -3.5453234 102.5067378  50.1043577   2.2728806
 102.1717210  50.0644347   3.1686456 102.0071324  49.4388293   1.7999216
  96.4811622  45.5111207   7.7981387  96.3431420  44.7791446   8.3992926
  97.3916545  45.4220107   7.5165575  99.1093922  45.2231167   7.2865067
  99.8193541  44.5824359   7.2451685  99.0663231  45.4744061   8.2091248
 107.0980701  52.1598520  10.2071646 107.0393247  51.4757740   9.5402229
 107.5000220  52.9017510   9.7552272  97.8222856  42.2096384   9.1060706
  97.2860213  41.7587123   9.7582303  97.2339565  42.3442293   8.3631171
  96.1171400  58.9760434   3.0005365  96.3567998  59.6078958   3.6784384
  95.2740596  58.6248474   3.2870724 107.0998108  50.1238104   8.4385626
 106.2124887  49.7864026   8.5612025 107.6696659  49.3921135   8.6754391
  88.7527256  46.4562196   1.7628677  89.4398295  46.1423926   1.1749693
  88.5975384  47.3603560   1.4895929  93.5561978  41.3452392   6.1913701
  93.4720166  40.7378062   5.4564111  92.7344684  41.8361410   6.1923197
 100.6299262  54.7839556   5.4046869 100.5569433  55.5894528   5.9166174
 100.1876655  54.9831522   4.5794890 100.4189041  54.0211326  -1.0850309
  99.6356563  54.5633006  -0.9912085 101.1181787  54.5385306  -0.6856068
 103.0897945  54.6826390   7.5605028 103.8025918  55.3173855   7.4880929
 102.5987974  54.7790256   6.7445030 104.8115472  48.5877643  -0.8677681
 103.8771751  48.7079105  -1.0372976 104.9892141  47.6850110  -1.1317671
 100.3120660  41.9723339   1.2855581  99.9418448  41.4194379   1.9736486
 100.8079753  41.3681472   0.7330581  98.1409859  52.4320834   8.3810599
  98.8419318  53.0657317   8.5339993  97.6704974  52.7735565   7.6206238
 105.9411145  44.9865441   6.2063149 105.2882595  45.2341349   5.5515602
 106.3191525  44.1729579   5.8725626 102.9018319  55.0225134   0.3091319
 103.0840713  54.2046790   0.7719072 103.7251305  55.2392827  -0.1283791
 103.2360484  53.9493319  -2.4293632 103.7648251  53.4385774  -3.0423470
 103.4988704  53.6335850  -1.5648099 101.9898718  45.7285252  12.6929186
 101.3139355  45.6279382  13.3631561 102.8126352  45.5724466  13.1565183
  93.7377577  51.9657189   5.3141701  94.3231014  51.2200877   5.4469605
  93.5402415  52.2761145   6.1978365  96.5916232  55.0008436   0.3304144
  95.9226607  55.4854564  -0.1531816  96.4529102  55.2477657   1.2447522
  88.3295232  44.5362789   4.0346144  88.3679331  44.0026380   4.8283263
  87.8235524  44.0097994   3.4157122 100.7321501  57.0352180   6.9286802
 101.2839809  57.1983801   7.6935887 101.0727694  57.6256617   6.2566827
  95.7085994  39.3827329   7.5308687  95.7727320  40.2442160   7.1186084
  95.6453114  38.7701331   6.7981045  95.1838267  41.4550462  11.1781721
  95.8110305  41.0727539  11.7919245  94.3266185  41.2364664  11.5437413
 105.5832375  51.8613437  12.7835456 106.1272279  52.4743395  12.2890411
 105.0019220  52.4193016  13.3002469  91.9603809  43.2626891  -2.8899924
  92.2557250  42.3537570  -2.9432871  91.0591845  43.2414631  -3.2118922
 103.8689888  54.9834155   3.9150484 103.7441027  54.1823895   3.4061430
 104.5268979  55.4780349   3.4264454  95.4898056  41.3382888   3.0927624
  94.7684642  41.9518855   2.9535098  96.2791312  41.8740652   3.0144270
 105.9324796  52.7843175   5.5430034 104.9855132  52.6648526   5.4708361
 106.2807570  51.8965673   5.6256296  98.2924370  38.6737314   9.3668276
  98.8158772  38.9199611  10.1294585  98.0736703  39.5057349   8.9471413
  93.6891651  40.9440989  -2.7660599  93.3604357  40.0638368  -2.9485493
  94.0431022  40.8888657  -1.8784210 102.9371230  52.5795891   1.7434386
 102.7896192  51.6512599   1.9241957 103.7624723  52.6015982   1.2591462
  96.8033474  41.2313959  -2.3985121  97.1429547  41.7599880  -3.1206513
  97.2505594  41.5694365  -1.6226555 106.5405352  53.4024450   2.8299259
 107.4651899  53.1967312   2.6923710 106.3720655  53.1540851   3.7388601
  99.4976915  39.6151009   7.0517947  99.1573735  38.8158822   7.4538627
  98.7915921  39.9152720   6.4794780 100.1493387  36.7000322   5.5045270
 100.9719456  36.2260800   5.3824160 100.3931450  37.4790805   6.0043956
  97.6731965  43.3919442   3.3137248  97.5276546  43.7059745   4.2061530
  97.1957169  44.0104343   2.7608147  99.5328348  40.3821990   3.3618138
  99.5189917  39.4863084   3.0250436 100.2500776  40.3892654   3.9956424
 101.3854479  40.8159331   5.4071265 101.1272257  41.7376401   5.4055596
 100.8539519  40.4189765   6.0971729 106.3300668  53.9210118  -1.8138649
 106.5037545  53.3556540  -2.5664797 106.8229559  54.7211013  -1.9959159
  92.1477628  45.9324787   6.2524910  91.6031096  46.7084595   6.3845184
  93.0256977  46.2795591   6.0944031  92.9343649  45.0594683   9.1455066
  92.1925385  45.2077318   9.7319697  92.6136394  45.3202949   8.2821816
 100.8787312  54.6010661   8.9435456 101.1874439  54.3559808   9.8158156
 101.6762794  54.8057300   8.4554327 100.9007924  56.7548571   1.1740833
 100.4612914  56.2624950   1.8673690 101.6516041  56.2121539   0.9332908
  93.3800263  52.9460112   1.1765461  94.2058283  52.6463884   0.7964105
  93.0294315  52.1767734   1.6255250  98.3481796  52.2986580   3.2463135
  97.7261806  51.6357285   2.9465362  99.0186663  52.3247712   2.5636782
  91.5808868  50.8646438   2.1354395  90.7440776  50.4368613   1.9538396
  91.5532514  51.0578882   3.0725186  98.4206324  40.7768368  12.8395641
  98.4694479  41.6530491  12.4573410  98.9628838  40.2345761  12.2667284
 108.9061169  51.3209491  12.1196778 108.1156713  51.3033630  11.5801277
 108.6694524  51.8597785  12.8745814 109.0259044  48.1701958   9.4329506
 109.0757049  48.0051965  10.3745029 108.9172968  47.3029217   9.0427387
  97.9095303  50.8490503  -3.2778405  98.0583424  51.5325968  -3.9311732
  98.7161747  50.8295593  -2.7628949 106.3162807  44.1532886  10.7488813
 107.2172670  44.0139350  10.4572811 106.3910781  44.3187340  11.6886990
 100.6505612  41.5299740   9.5941999  99.7808922  41.8233306   9.3224588
 100.8865093  42.1140185  10.3149263 110.5277241  50.5898899   9.6771528
 110.2362050  50.9528880  10.5134989 109.9149373  49.8765907   9.4984860
 108.7764430  45.7131514   8.1451586 109.2518551  45.9059160   7.3370437
 107.8529995  45.7690700   7.8994969  95.6647936  46.8755681  -2.2717336
  95.4193978  45.9718011  -2.0737126  95.8343851  46.8772831  -3.2137858
 103.3544646  37.7479357   7.1107420 103.8726590  38.4840384   6.7853908
 102.9999779  38.0543351   7.9454179  94.9343584  42.6084039  -4.7731174
  94.2412829  42.6828393  -5.4291139  94.6895336  41.8444382  -4.2509658
 101.4090709  53.3438634  -5.8066657 100.8364676  53.9628821  -6.2596186
 101.9823502  53.8937995  -5.2726735 107.4766099  42.5897274   6.3779891
 108.4283521  42.6895371   6.3992115 107.3069549  41.7975542   6.8877976
 105.4980478  39.6752857   6.5639292 104.9030410  39.9557870   5.8685781
 105.2130175  40.1646758   7.3356033 109.9554176  45.8103394   5.4922191
 109.9230496  44.8719394   5.6781875 110.5654800  45.8887430   4.7588016
 101.6776200  48.7317193  12.9950052 102.5979209  48.9095792  13.1890099
 101.6425783  47.7873238  12.8429751  90.8958365  43.9255786   1.9203327
  90.5761149  43.0721094   1.6277701  90.3491793  44.1404364   2.6761294
  94.6738272  46.6418227   5.6372833  94.8924282  47.5735335   5.6560867
  95.0864046  46.2826202   6.4227637  99.5466138  42.2151433  15.0275582
  99.4462864  43.1645790  14.9587673  99.3287680  41.8869672  14.1551652
  90.7646625  47.5458698   3.8896448  90.0710096  47.1312651   3.3766403
  91.5119616  47.5879234   3.2929867  99.4097408  45.6448572  13.8440644
  98.9264489  46.4448932  14.0504533  99.4958347  45.6556517  12.8908088
  92.6783367  47.4776952   1.7662463  92.6554055  47.5764639   0.8144346
  92.9884004  48.3242102   2.0879629  95.3370745  49.5353107   5.8809078
  96.2913999  49.5037049   5.8139009  95.1383269  49.0743730   6.6959303
  95.9270127  48.1054223   8.4479875  96.7463016  48.5998301   8.4714713
  96.2006935  47.1886191   8.4197443  93.6920974  55.0772726   2.8979275
  93.5575442  54.3173127   2.3317273  93.2753036  55.8013626   2.4308064
  96.8490100  55.9742043   3.1097718  96.7322484  56.9187476   3.0076408
  96.0282546  55.6715605   3.4983517  91.1805042  42.4392357   9.1472072
  91.8263905  41.9291310   9.6359297  90.9722193  43.1761038   9.7215498
 103.7058434  49.5073204  14.6464213 104.5749593  49.6813856  14.2850848
 103.2265185  50.3267621  14.5239942  97.8744614  56.6270305   6.3253647
  98.7771861  56.6593915   6.6420141  97.6481984  55.6970756   6.3399982
  99.6298216  55.3801292   2.9863725  98.6793847  55.3803153   2.8728097
  99.9330702  54.6334026   2.4699760  95.5202533  39.5859974  13.2447087
  96.3833994  39.2296778  13.4550411  94.9467943  39.2473868  13.9322491
 115.3650909  61.2161830   4.0509488 116.0029319  61.0968577   3.3472828
 115.2471752  62.1642674   4.1097440 112.1740616  61.1689258   3.9871012
 111.8359127  61.0530323   3.0991547 113.0430384  60.7680423   3.9672018
 108.0327431  63.0224734  -0.0232097 107.4692297  62.9314671  -0.7915809
 107.9179826  62.2024639   0.4570396 112.6560399  62.3224110   9.9457218
 112.6449039  61.9276908   9.0737721 112.8181038  61.5890182  10.5390989
 105.5791863  64.5175926   2.8152124 106.3713155  64.1766751   2.3998423
 105.8188514  64.6270901   3.7354277 109.3767660  65.1061222   8.8936402
 109.0857526  66.0106852   8.7783068 110.0124644  65.1477749   9.6080471
 110.3023867  62.4838070   5.4837761 110.8987439  62.2594092   4.7694724
 110.3598838  61.7422816   6.0863209 111.9376725  61.3015758  -0.7740983
 111.5734932  60.7746379  -0.0628062 112.7943841  60.9114228  -0.9474498
 117.8426025  52.5910091   6.4890283 117.5109350  53.4605502   6.2651498
 117.2471639  52.2746375   7.1684313 114.3357545  64.7922637   5.8886195
 114.0358268  65.6947676   5.7802003 113.9908604  64.5254820   6.7407348
 107.7870026  61.2436434   1.9222900 106.8620523  61.1112648   2.1300592
 108.0354440  62.0230653   2.4192842 117.7354689  57.3105177   3.5683633
 116.8271566  57.2420586   3.2742394 117.6842285  57.7877122   4.3965458
 105.1478837  60.8869707   2.7566689 105.2771219  61.1404186   3.6706101
 104.4676289  61.4797415   2.4371344 111.8095555  58.7294823  11.5118530
 111.0328889  59.2888743  11.5021395 112.4486118  59.2151606  12.0333400
 110.0641927  61.5380276  11.0736497 110.8056611  62.0765320  10.7971321
 109.3578912  62.1646565  11.2308049 115.5397266  63.6809417   9.6708659
 115.9480622  63.2391827   8.9263291 114.8174528  63.1062044   9.9242851
 111.8928337  58.6182023   7.0442215 112.7389532  59.0421437   7.1876864
 111.8326974  57.9615648   7.7380779 115.8626081  64.2410607   3.4260947
 115.2334944  64.4056321   2.7237015 115.4751743  64.6552217   4.1971911
 115.0427782  56.2786392   8.7023389 114.7988714  57.0328452   8.1657665
 115.3187712  56.6571739   9.5370636 116.9966245  62.8225004   7.3800655
 117.2083140  63.4656764   6.7035036 116.9495993  61.9887321   6.9122585
 114.5992474  55.4342825   4.2837227 113.7376953  55.7324078   4.5753964
 114.6254908  55.6513224   3.3518259 111.4154043  63.9785015   0.6911032
 111.8792389  64.2572718  -0.0984345 111.1510841  63.0768460   0.5084123
 108.3078124  63.5256497   3.6290796 108.8779481  63.9543765   2.9908280
 108.8986236  63.2439082   4.3274981 110.3522929  60.1008168  -2.4999402
 111.0546972  60.5529211  -2.0325476 110.0203558  59.4591987  -1.8719509
 108.8003291  58.6919924  11.8751807 108.1701951  59.3736205  12.1087204
 108.6939378  58.5803006  10.9304945 104.0948263  58.3591720   2.8017731
 103.3047317  58.6149249   2.3257842 104.5859510  59.1740058   2.9069772
 118.1112073  65.6996960   5.5523012 118.9329516  65.2977147   5.2705694
 118.1074475  65.5965194   6.5039128 106.0463008  58.7236300  -0.2398792
 105.2494172  58.8354994   0.2784704 105.8188601  59.0622952  -1.1057902
 111.8768676  65.2481003   7.7083723 111.9413109  65.7101410   8.5441894
 111.1679600  64.6178368   7.8366032 102.3785966  58.6122211   5.2332722
 102.6294004  59.4969221   5.4990298 102.9145514  58.4326812   4.4607814
 108.0784033  52.9940690  14.2377058 107.6850979  52.4406889  14.9124702
 108.8950174  53.3051269  14.6283576 105.0446091  64.4324548  -1.8509372
 105.5570612  65.2267799  -1.7003807 105.6968804  63.7350839  -1.9175771
 110.9951994  54.4098569  11.8297315 111.7361708  55.0105722  11.7501777
 111.2269917  53.6676207  11.2715357 106.1393332  59.5954937  10.1075544
 106.0246847  58.6940194  10.4082643 105.2837850  59.8418633   9.7560361
 113.2185170  67.5372677  11.7063045 112.7749024  66.7509055  11.3883949
 113.8802384  67.7251827  11.0406936 107.9772291  69.0668478   6.2323723
 108.5279716  68.9385542   5.4600717 107.1383767  69.3663367   5.8818616
 115.3166408  67.8175477   9.7344446 115.2984883  68.6384358   9.2424715
 116.2386328  67.6929552   9.9594587 111.7739462  65.3319606  10.5767955
 112.3067799  64.5707894  10.3467263 111.2453543  65.0393258  11.3192109
 103.0095008  62.7613203  -1.0749802 103.8470230  63.1710211  -1.2916094
 103.1873276  61.8212645  -1.1049608 114.0205698  52.8084327   4.0710830
 113.5170493  52.7714463   3.2578635 114.3136304  53.7177070   4.1307486
 110.2648583  52.8923057   3.0777011 111.1301580  52.6965866   2.7182901
 110.3326092  52.6633409   4.0046368 118.1185021  62.6554619   3.2053813
 117.4608695  63.3453881   3.2933942 118.9225420  63.0451051   3.5487799
 107.8710903  55.1225265   0.4493378 108.4454654  54.9000447  -0.2833429
 108.4581885  55.1913960   1.2021979 113.4071311  58.4848448   3.5016095
 112.4893872  58.7063395   3.3437783 113.8231454  58.5594758   2.6427802
 103.0321179  60.1003918  -0.4039068 102.8345579  59.5073279  -1.1288002
 102.4767843  59.7956128   0.3136871 111.0117903  59.9927025   1.7155525
 111.0666512  59.0400861   1.6398002 110.2009105  60.1486464   2.1996823
 108.9510263  58.6104084  -0.5254096 108.1378128  58.9098255  -0.1188904
 109.4469257  58.2159773   0.1920386 114.5484474  59.0745909   8.3060798
 114.9033862  59.3017382   9.1655264 115.1956605  59.4064286   7.6838053
 108.4424337  56.1822440   5.0907139 109.0823717  56.0411199   4.3930102
 107.6101868  55.8956953   4.7145741 109.2184641  65.4824870   1.2042131
 110.0125240  64.9875190   1.0024706 108.5076334  64.9542733   0.8409837
 114.0379486  67.8642966   5.5554499 114.0916508  68.4333902   6.3232215
 113.1694267  68.0344851   5.1908536 105.5267405  59.6267952  -2.7198116
 104.5964993  59.5652407  -2.5028154 105.6224877  59.1043905  -3.5161475
 105.4452954  56.1522765  -0.1319874 105.7059771  57.0668098  -0.2410714
 106.2670126  55.6847207   0.0176738 106.9177879  57.5660522   7.0378950
 107.5900932  57.3577884   6.3891599 106.0907666  57.3682608   6.5984182
 121.1667140  64.3064572   6.5554284 121.3603030  65.2110383   6.8013559
 121.0667758  63.8471991   7.3892869 112.8203451  54.1922463   9.0544611
 112.1731366  54.8912413   8.9609087 113.5904466  54.6258607   9.4220859
 116.2282249  64.4571315  12.1295164 116.0767755  64.2281867  11.2125248
 116.2186928  65.4141916  12.1426509 112.9967585  62.0303228   7.1141431
 113.9259645  62.1814387   6.9410398 112.5758615  62.1187249   6.2590077
 111.7955917  66.0553892   4.8839968 111.6567003  65.6872677   5.7565907
 111.0070513  66.5701532   4.7123926 113.3461132  65.4335495   2.2728806
 113.0110965  65.3936265   3.1686456 112.8465078  64.7680211   1.7999216
 107.3205376  60.8403125   7.7981387 107.1825174  60.1083364   8.3992926
 108.2310300  60.7512025   7.5165575 109.9487677  60.5523084   7.2865067
 110.6587295  59.9116276   7.2451685 109.9056985  60.8035979   8.2091248
 117.9374456  67.4890438  10.2071646 117.8787002  66.8049658   9.5402229
 118.3393974  68.2309428   9.7552272 108.6616611  57.5388302   9.1060706
 108.1253968  57.0879041   9.7582303 108.0733319  57.6734211   8.3631171
 117.9391863  65.4530022   8.4385626 117.0518642  65.1155943   8.5612025
 118.5090414  64.7213053   8.6754391  99.5921010  61.7854113   1.7628677
 100.2792050  61.4715843   1.1749693  99.4369139  62.6895478   1.4895929
 104.3955732  56.6744310   6.1913701 104.3113921  56.0669979   5.4564111
 103.5738439  57.1653328   6.1923197 111.4693016  70.1131474   5.4046869
 111.3963188  70.9186445   5.9166174 111.0270409  70.3123440   4.5794890
 113.9291700  70.0118308   7.5605028 114.6419672  70.6465773   7.4880929
 113.4381728  70.1082174   6.7445030 111.1514415  57.3015256   1.2855581
 110.7812202  56.7486297   1.9736486 111.6473507  56.6973390   0.7330581
 108.9803613  67.7612751   8.3810599 109.6813073  68.3949234   8.5339993
 108.5098728  68.1027483   7.6206238 116.7804899  60.3157359   6.2063149
 116.1276350  60.5633266   5.5515602 117.1585279  59.5021497   5.8725626
 112.8292472  61.0577170  12.6929186 112.1533109  60.9571299  13.3631561
 113.6520106  60.9016384  13.1565183 104.5771331  67.2949106   5.3141701
 105.1624768  66.5492794   5.4469605 104.3796170  67.6053063   6.1978365
  99.1688986  59.8654707   4.0346144  99.2073086  59.3318297   4.8283263
  98.6629279  59.3389912   3.4157122 111.5715255  72.3644097   6.9286802
 112.1233563  72.5275719   7.6935887 111.9121449  72.9548535   6.2566827
 106.5479748  54.7119247   7.5308687 106.6121075  55.5734078   7.1186084
 106.4846869  54.0993249   6.7981045 106.0232021  56.7842380  11.1781721
 106.6504060  56.4019457  11.7919245 105.1659940  56.5656582  11.5437413
 116.4226130  67.1905355  12.7835456 116.9666034  67.8035313  12.2890411
 115.8412974  67.7484933  13.3002469 102.7997564  58.5918809  -2.8899924
 103.0951005  57.6829487  -2.9432871 101.8985600  58.5706548  -3.2118922
 106.3291811  56.6674805   3.0927624 105.6078397  57.2810773   2.9535098
 107.1185067  57.2032570   3.0144270 116.7718551  68.1135093   5.5430034
 115.8248886  67.9940444   5.4708361 117.1201324  67.2257591   5.6256296
 109.1318124  54.0029232   9.3668276 109.6552526  54.2491528  10.1294585
 108.9130458  54.8349267   8.9471413 104.5285405  56.2732906  -2.7660599
 104.1998111  55.3930285  -2.9485493 104.8824776  56.2180575  -1.8784210
 107.6427228  56.5605876  -2.3985121 107.9823301  57.0891797  -3.1206513
 108.0899349  56.8986282  -1.6226555 110.3370669  54.9442927   7.0517947
 109.9967490  54.1450740   7.4538627 109.6309676  55.2444638   6.4794780
 110.9887141  52.0292239   5.5045270 111.8113210  51.5552718   5.3824160
 111.2325205  52.8082723   6.0043956 108.5125720  58.7211360   3.3137248
 108.3670301  59.0351663   4.2061530 108.0350924  59.3396260   2.7608147
 110.3722103  55.7113908   3.3618138 110.3583672  54.8155001   3.0250436
 111.0894531  55.7184572   3.9956424 112.2248233  56.1451248   5.4071265
 111.9666011  57.0668319   5.4055596 111.6933274  55.7481683   6.0971729
 102.9871382  61.2616704   6.2524910 102.4424850  62.0376512   6.3845184
 103.8650732  61.6087509   6.0944031 103.7737404  60.3886601   9.1455066
 103.0319140  60.5369236   9.7319697 103.4530148  60.6494866   8.2821816
 111.7181067  69.9302579   8.9435456 112.0268193  69.6851726   9.8158156
 112.5156549  70.1349217   8.4554327 104.2194018  68.2752029   1.1765461
 105.0452038  67.9755801   0.7964105 103.8688070  67.5059652   1.6255250
 109.1875551  67.6278498   3.2463135 108.5655560  66.9649203   2.9465362
 109.8580418  67.6539630   2.5636782 102.4202623  66.1938356   2.1354395
 101.5834531  65.7660530   1.9538396 102.3926268  66.3870799   3.0725186
 109.2600078  56.1060286  12.8395641 109.3088234  56.9822408  12.4573410
 109.8022592  55.5637679  12.2667284 119.7454924  66.6501409  12.1196778
 118.9550468  66.6325548  11.5801277 119.5088278  67.1889703  12.8745814
 119.8652799  63.4993875   9.4329506 119.9150804  63.3343883  10.3745029
 119.7566722  62.6321134   9.0427387 117.1556561  59.4824803  10.7488813
 118.0566424  59.3431268  10.4572811 117.2304536  59.6479258  11.6886990
 111.4899367  56.8591658   9.5941999 110.6202676  57.1525224   9.3224588
 111.7258847  57.4432103  10.3149263 121.3670996  65.9190817   9.6771528
 121.0755804  66.2820797  10.5134989 120.7543127  65.2057825   9.4984860
 119.6158184  61.0423431   8.1451586 120.0912306  61.2351078   7.3370437
 118.6923749  61.0982617   7.8994969 106.5041691  62.2047599  -2.2717336
 106.2587733  61.3009929  -2.0737126 106.6737605  62.2064749  -3.2137858
 114.1938401  53.0771275   7.1107420 114.7120344  53.8132302   6.7853908
 113.8393533  53.3835268   7.9454179 105.7737338  57.9375956  -4.7731174
 105.0806583  58.0120311  -5.4291139 105.5289090  57.1736300  -4.2509658
 118.3159853  57.9189192   6.3779891 119.2677276  58.0187289   6.3992115
 118.1463303  57.1267460   6.8877976 116.3374233  55.0044775   6.5639292
 115.7424165  55.2849787   5.8685781 116.0523929  55.4938676   7.3356033
 120.7947931  61.1395311   5.4922191 120.7624251  60.2011312   5.6781875
 121.4048554  61.2179348   4.7588016 112.5169954  64.0609110  12.9950052
 113.4372964  64.2387709  13.1890099 112.4819537  63.1165156  12.8429751
 101.7352119  59.2547704   1.9203327 101.4154904  58.4013012   1.6277701
 101.1885547  59.4696282   2.6761294 105.5132027  61.9710145   5.6372833
 105.7318037  62.9027253   5.6560867 105.9257801  61.6118119   6.4227637
 110.3859892  57.5443351  15.0275582 110.2856619  58.4937708  14.9587673
 110.1681434  57.2161590  14.1551652 101.6040379  62.8750615   3.8896448
 100.9103851  62.4604568   3.3766403 102.3513370  62.9171152   3.2929867
 110.2491162  60.9740490  13.8440644 109.7658244  61.7740850  14.0504533
 110.3352101  60.9848434  12.8908088 103.5177122  62.8068869   1.7662463
 103.4947810  62.9056557   0.8144346 103.8277758  63.6534020   2.0879629
 106.1764500  64.8645024   5.8809078 107.1307753  64.8328967   5.8139009
 105.9777023  64.4035648   6.6959303 106.7663882  63.4346140   8.4479875
 107.5856771  63.9290219   8.4714713 107.0400689  62.5178108   8.4197443
 104.5314728  70.4064644   2.8979275 104.3969196  69.6465045   2.3317273
 104.1146791  71.1305544   2.4308064 107.6883854  71.3033961   3.1097718
 107.5716238  72.2479393   3.0076408 106.8676301  71.0007522   3.4983517
 102.0198796  57.7684274   9.1472072 102.6657660  57.2583228   9.6359297
 101.8115947  58.5052956   9.7215498 114.5452188  64.8365122  14.6464213
 115.4143348  65.0105774  14.2850848 114.0658940  65.6559538  14.5239942
 108.7138368  71.9562223   6.3253647 109.6165615  71.9885833   6.6420141
 108.4875738  71.0262674   6.3399982 106.3596287  54.9151891  13.2447087
 107.2227749  54.5588696  13.4550411 105.7861698  54.5765786  13.9322491
 122.6489309  74.0586741  11.5118530 121.8722643  74.6180661  11.5021395
 123.2879872  74.5443524  12.0333400 119.6397045  74.0211842  11.8751807
 119.0095706  74.7028123  12.1087204 119.5333133  73.9094924  10.9304945
 118.9177788  68.3232608  14.2377058 118.5244733  67.7698806  14.9124702
 119.7343928  68.6343186  14.6283576 121.8345749  69.7390487  11.8297315
 122.5755462  70.3397640  11.7501777 122.0663672  68.9968125  11.2715357
 116.9787087  74.9246854  10.1075544 116.8640602  74.0232111  10.4082643
 116.1231605  75.1710551   9.7560361 123.6597206  69.5214381   9.0544611
 123.0125121  70.2204330   8.9609087 124.4298221  69.9550524   9.4220859
 119.5010365  72.8680220   9.1060706 118.9647722  72.4170958   9.7582303
 118.9127074  73.0026129   8.3631171 115.2349487  72.0036227   6.1913701
 115.1507675  71.3961897   5.4564111 114.4132193  72.4945246   6.1923197
 123.6686227  76.3869088  12.6929186 122.9926864  76.2863217  13.3631561
 124.4913861  76.2308301  13.1565183 117.3873503  70.0411165   7.5308687
 117.4514829  70.9025996   7.1186084 117.3240623  69.4285166   6.7981045
 116.8625775  72.1134297  11.1781721 117.4897814  71.7311375  11.7919245
 116.0053694  71.8948499  11.5437413 119.9711879  69.3321150   9.3668276
 120.4946281  69.5783446  10.1294585 119.7524212  70.1641184   8.9471413
 114.6131158  75.7178518   9.1455066 113.8712894  75.8661154   9.7319697
 114.2923903  75.9786784   8.2821816 120.0993833  71.4352203  12.8395641
 120.1481988  72.3114326  12.4573410 120.6416347  70.8929596  12.2667284
 122.3293121  72.1883576   9.5941999 121.4596431  72.4817142   9.3224588
 122.5652602  72.7724021  10.3149263 121.2253647  72.8735268  15.0275582
 121.1250373  73.8229625  14.9587673 121.0075189  72.5453507  14.1551652
 121.0884917  76.3032407  13.8440644 120.6051998  77.1032767  14.0504533
 121.1745856  76.3140352  12.8908088 112.8592550  73.0976192   9.1472072
 113.5051414  72.5875146   9.6359297 112.6509702  73.8344873   9.7215498
 117.1990041  70.2443809  13.2447087 118.0621503  69.8880614  13.4550411
 116.6255452  69.9057704  13.9322491   6.9686757 100.3665508  94.8290834
   6.2150466  99.7972907  94.6734838   7.1034299 100.3328173  95.7761469
   1.0450903 100.5194145  91.9392977   0.9068802 100.7095741  91.0114167
   0.6887122 101.2813528  92.3961028   1.0720283 102.5870672  96.9504249
   1.5056789 102.4945961  97.7987303   1.7851863 102.5628173  96.3124265
   1.9335832 102.6294373  99.4837134   2.1271722 103.5340183  99.7296409
   1.8336450 102.1701792 100.3175719   3.1877895  99.1868039  96.1285038
   3.1767772 100.0692755  95.7578971   2.3195275  98.8339590  95.9339575
   3.7902505 100.3368259  92.7334501   4.2333651  99.5875584  92.3353624
   2.9129016 100.3278395  92.3508233   0.8229710 104.3398306  89.7428430
   1.3481034 104.6785578  89.0177750   0.7352062 103.4045321  89.5591565
   0.6321491 101.8223676 102.3612357   0.6819496 101.6573683 103.3027879
   0.5235414 100.9550935 101.9710237   2.1339688 104.2420617 102.6054378
   1.8424496 104.6050598 103.4417839   1.5211819 103.5287625 102.4267710
   3.3335370 101.8073497  95.1256948   4.1682261 102.2463301  95.2894509
   3.4694499 101.3312150  94.3065194   1.5616623  99.4625112  98.4205041
   1.5292943  98.5241112  98.6064725   2.1717246  99.5409148  97.6870866
   1.7111111  96.2536155  98.4663325   1.1950160  95.4694612  98.2793254
   2.5951060  95.9254872  98.6309844   7.3793172 100.5241118  97.5611078
   8.1096561 100.2626407  98.1218782   6.7700118  99.7869840  97.6013146
   5.4608470  98.6648981  98.1585529   4.7341633  98.5304946  97.5502021
   5.0455756  98.9725810  98.9642247   3.0786265  94.8860833  95.5118961
   3.6730755  94.6456569  94.8012269   3.1512848  94.1667964  96.1392497
   1.0744999  95.4530961  91.7791091   0.8181934  95.0527597  92.6099299
   0.4497867  96.1674755  91.6541230   5.3857337  98.1927034  94.2862382
   4.8256895  98.2620223  95.0593944   4.7800841  98.0168019  93.5661878
   6.9713356 114.8683548  96.9792338   7.6091766 114.7490295  96.2755678
   6.8534199 115.8164392  97.0380290   3.7803062 114.8210976  96.9153863
   3.4421574 114.7052041  96.0274398   4.6492830 114.4202141  96.8954869
   1.9086313 116.1359788  98.4120612   2.5049885 115.9115811  97.6977575
   1.9661285 115.3944534  99.0146060   1.4811341 113.5899224  86.2470803
   1.7336862 113.0680745  85.4854266   0.5435900 113.4265369  86.3497486
   6.5254624 112.5935002  94.0545546   7.3117713 112.1754425  93.7035963
   6.7893329 113.4981094  94.2227194   6.6964702 118.0307852  88.7534203
   6.0610535 118.1042479  89.4655107   6.3662108 118.6201451  88.0753282
  11.9263051 112.5310235  94.9578525  12.6588223 111.9609452  95.1916354
  11.1702407 112.1431836  95.3985030   1.2007630 115.4927329  88.4495178
   1.0843888 114.8172233  89.1176262   1.3109890 115.0059703  87.6327331
   3.5439171 114.9537477  92.1541867   3.1797378 114.4268098  92.8654788
   4.4006287 114.5635946  91.9808352   9.4488472 106.2431809  99.4173133
   9.1171796 107.1127220  99.1934348   8.8534085 105.9268093 100.0967164
   3.1844658 109.9827376  87.1503216   3.3519060 110.8507613  87.5173687
   2.9941827 110.1454658  86.2264505   5.9419991 118.4444355  98.8169046
   5.6420714 119.3469394  98.7084853   5.5971051 118.1776538  99.6690199
   9.3417135 110.9626895  96.4966483   8.4334012 110.8942304  96.2025244
   9.2904731 111.4398840  97.3248309   3.1633879 112.4385034  88.1349882
   3.0433504 112.8842085  88.9735363   2.4686467 112.7870351  87.5763420
  11.2078781 109.1643334  98.2744357  10.5653162 109.4575867  97.6284152
  10.7033710 109.0496254  99.0797554   8.8618945 112.9106507  88.9630216
   9.7736801 113.1433894  88.7877914   8.3528592 113.4943551  88.4005295
   3.4990783 112.2703742  99.9725066   4.3451978 112.6943155 100.1159715
   3.4389420 111.6137366 100.6663629   7.4688527 117.8932325  96.3543798
   6.8397390 118.0578040  95.6519866   7.0814189 118.3073935  97.1254762
  11.3477759 118.8286763  93.7088162  10.6628797 119.2085665  93.1585195
  11.4321609 119.4382090  94.4420109   6.6490228 109.9308110 101.6306240
   6.4051160 110.6850170 101.0940515   6.9250159 110.3093458 102.4653487
   8.6028691 116.4746722 100.3083505   8.8145586 117.1178482  99.6317886
   8.5558439 115.6409039  99.8405435   6.2054920 109.0864543  97.2120077
   5.3439399 109.3845796  97.5036815   6.2317355 109.3034942  96.2801110
   3.0216489 117.6306733  93.6193883   3.4854835 117.9094436  92.8298505
   2.7573287 116.7290178  93.4366974   1.9585375 113.7529886  90.4283448
   2.6609419 114.2050930  90.8957374   1.6266004 113.1113705  91.0563341
   9.7174519 119.3518678  98.4805862  10.5391963 118.9498865  98.1988544
   9.7136922 119.2486912  99.4321978  17.8080512 115.6957426  94.8290834
  17.0544220 115.1264824  94.6734838  17.9428053 115.6620091  95.7761469
   6.5471604 104.0901390  99.0344447   6.2035873 104.9803032  98.9583557
   6.9150566 103.9003048  98.1714032   6.5121886 114.0810001  87.5416882
   5.9968510 114.8514606  87.7805269   6.2399195 113.4075138  88.1649943
   4.0968997 108.9259702  92.6002120   3.2410594 108.5366553  92.4207759
   4.5095949 109.0051663  91.7401906   5.6268144 106.4606046  96.9993680
   5.1232939 106.4236181  96.1861485   5.9198751 107.3698788  97.0590337
   1.8711030 106.5444775  96.0059862   2.7364027 106.3487584  95.6465751
   1.9388539 106.3155127  96.9329218  11.4856160 116.8342356  89.4770055
  10.7085603 116.4953516  89.0325217  12.1647641 116.8394979  88.8025020
   6.3008189 111.9537094  89.3676663   5.9958325 112.2683243  90.2186806
   7.2538632 112.0318513  89.4103996   9.7247467 116.3076337  96.1336663
   9.0671142 116.9975599  96.2216792  10.5287866 116.6972769  96.4770650
   8.5352926 114.6620710  94.1840605   9.0484808 115.2950702  94.6862315
   9.1854150 114.0621906  93.8183965   1.7796017 105.6488232  92.1051298
   1.1260429 105.3337249  91.4807913   1.7376491 105.0263973  92.8311121
   2.8907221 115.9307527  84.0204590   1.9834283 115.6996781  84.2195739
   3.3878253 115.1345146  84.2078572   5.0133757 112.1370166  96.4298946
   4.0956318 112.3585113  96.2720634   5.4293901 112.2116476  95.5710653
   5.7968805 113.5361581  91.5601626   6.5440624 114.0482978  91.2508748
   6.0660394 113.2145634  92.4206019   4.0695455 116.0320122  88.5428580
   3.1606674 115.7479155  88.6401050   4.0990539 116.4519201  87.6831887
   9.3014722 119.6426712  92.3119748   8.8477049 118.8017621  92.3684938
   8.6708689 120.2788110  92.6494528   8.2447642 110.5718698  93.5420415
   7.5070399 110.0596084  93.8730658   8.4974415 110.1319079  92.7303692
   8.3459269 103.3494950  94.1362184   8.6518146 102.4892313  93.8488100
   9.0711874 103.9412570  93.9361178   2.6180349 113.6448743  94.6438376
   2.6728959 112.6922579  94.5680852   1.8071551 113.8008182  95.1279674
   3.7671543 117.5728866  85.8816659   3.3290973 116.8564725  85.4222296
   4.5081984 117.8004980  85.3201750   6.1546921 112.7267627 101.2343648
   6.5096308 112.9539100 102.0938114   6.8019052 113.0586004 100.6120904
  11.8844657 115.8486063  91.9392977  11.7462556 116.0387659  91.0114167
  11.5280876 116.6105446  92.3961028  11.9114037 117.9162590  96.9504249
  12.3450544 117.8237879  97.7987303  12.6245618 117.8920090  96.3124265
  12.7729587 117.9586290  99.4837134  12.9665477 118.8632101  99.7296409
  12.6730205 117.4993709 100.3175719   4.4265897 107.8444181 101.9827462
   3.7793812 108.5434131 101.8891938   5.1966913 108.2780325 102.3503710
   4.6030032 115.6824946 100.0424281   5.5322092 115.8336105  99.8693249
   4.1821062 115.7708967  99.1872928   7.8882770 116.4313247  85.4748716
   7.2711941 115.7060075  85.3781769   7.4199259 117.1922608  85.1315791
   9.5454309 119.1051740 101.3668476   8.6581088 118.7677661 101.4894875
  10.1152860 118.3734771 101.6037242   6.1741892 108.8119591  94.4866746
   6.6710592 108.0589554  94.1667817   5.4028874 108.8483908  93.9209956
  14.0271650 114.5159957  96.1285038  14.0161526 115.3984672  95.7578971
  13.1589029 114.1631508  95.9339575   7.2571673 117.5691279  92.0605170
   6.3227952 117.6892741  91.8909874   7.4348342 116.6663745  91.7965180
   2.7576861 110.9536974  94.2138431   2.3874649 110.4008015  94.9019337
   3.2535954 110.3495108  93.6613431  10.6444224 113.4108598  92.5955204
  11.1104677 114.2436590  92.5215507  11.0951725 112.9453580  93.3000463
   8.7120455 119.7552419  89.5941356   8.9880299 119.6409014  90.5035230
   7.8424954 119.3569904  89.5553529   8.6160887 105.7789185  96.6346105
   7.7023967 106.0093412  96.8028312   9.0453989 105.8627629  97.4860138
   8.3867346 113.9679077  99.1345999   7.7338796 114.2154984  98.4798452
   8.7647726 113.1543215  98.8008477   0.7380571 107.6550950 102.2951127
   1.2614972 107.9013246 103.0577436   0.5192904 108.4870985 101.8754264
   1.9433116 108.5964645  99.9800797   1.6029936 107.7972458 100.3821477
   1.2372122 108.8966356  99.4077630   2.5949587 105.6813957  98.4328120
   3.4175657 105.2074436  98.3107010   2.8387651 106.4604441  98.9326806
   1.2357822 108.7102216  88.7291022   1.9566184 109.0883469  88.2254739
   0.6123126 109.4291093  88.8326000   5.3788945 109.4147365  89.6649354
   5.5952559 110.2972003  89.3638182   4.8983012 109.0233578  88.9354996
   1.9784549 109.3635626  96.2900988   1.9646118 108.4676719  95.9533286
   2.6956977 109.3706290  96.9239274   3.8310680 109.7972966  98.3354116
   3.5728458 110.7190037  98.3338446   3.2995720 109.4003401  99.0254580
   1.3821445 108.2450006  91.5588558   1.5037356 107.3166653  91.7579446
   1.0923487 108.2588692  90.6466874   4.2512635 105.9304917  94.6955278
   4.2734332 105.9944250  93.7407258   4.6680694 105.0909425  94.8895784
  14.6296260 115.6660176  92.7334501  15.0727406 114.9167502  92.3353624
  13.7522770 115.6570313  92.3508233  11.6623464 119.6690223  89.7428430
  12.1874788 120.0077496  89.0177750  11.5745817 118.7337239  89.5591565
  11.4715245 117.1515593 102.3612357  11.5213250 116.9865601 103.3027879
  11.3629169 116.2842852 101.9710237   8.7619008 113.1346521 103.6771663
   9.6628870 112.9952986 103.3855661   8.8366982 113.3000976 104.6169841
  12.9733442 119.5712535 102.6054378  12.6818250 119.9342515 103.4417839
  12.3605573 118.8579543 102.4267710  14.1729124 117.1365415  95.1256948
  15.0076016 117.5755219  95.2894509  14.3088253 116.6604068  94.3065194
  11.2220630 114.6945150 101.0734436  11.6974752 114.8872796 100.2653288
  10.2986196 114.7504335 100.8277820   5.8000847 106.7292993 100.0390270
   6.3182791 107.4654020  99.7136759   5.4455980 107.0356986 100.8737029
   6.0513441 103.1493276  95.5591167   6.3315195 102.4816465  96.1851593
   6.8364048 103.3422371  95.0465831   9.9222299 111.5710910  99.3062742
  10.8739722 111.6709007  99.3274966   9.7525750 110.7789178  99.8160826
   7.9436679 108.6566493  99.4922143   7.3486611 108.9371506  98.7968631
   7.6586376 109.1460394 100.2638884  12.4010377 114.7917029  98.4205041
  12.3686697 113.8533030  98.6064725  13.0111001 114.8701066  97.6870866
   4.2393708 113.6613082  84.4632246   5.1852813 113.5319290  84.5320664
   3.8607953 112.9227744  84.9401674  12.5504866 111.5828073  98.4663325
  12.0343914 110.7986529  98.2793254  13.4344814 111.2546789  98.6309844
  10.2115593 105.3269088  94.4259137  10.0140414 105.0184176  95.3102469
  10.8215298 106.0530727  94.5557067  18.2186927 115.8533036  97.5611078
  18.9490315 115.5918324  98.1218782  17.6093872 115.1161758  97.6013146
  16.3002224 113.9940899  98.1585529  15.5735388 113.8596864  97.5502021
  15.8849511 114.3017727  98.9642247   2.4236625 111.5863059  84.3987131
   1.5168081 111.2896171  84.4749844   2.7012606 111.2892877  83.5321417
   4.0398691 106.1299948  90.5531372   3.2299419 105.7847033  90.9286618
   4.7283108 105.8207492  91.1418984   5.9689239 105.2077995  92.1755669
   6.5220278 105.6273449  92.8345692   6.2059326 104.2813743  92.2178625
   1.1935410 108.4449994  84.5399110   2.0554574 108.7704892  84.7994927
   1.3785754 107.6581490  84.0272176   9.3468046 107.3178520  91.6834333
   8.7666715 107.9763324  91.3012385   9.0803979 106.4955865  91.2721750
   7.7971613 106.7183578  93.8855653   8.2971391 106.8300113  93.0769972
   8.4407221 106.4144631  94.5256462   8.1292924 109.4778611  90.7390681
   7.2418779 109.7628261  90.5210876   8.5446913 109.3172374  89.8917958
  11.4807460 109.5025132  94.4545020  12.2567851 109.9921584  94.7269637
  10.7555595 109.9283186  94.9116890  13.9180019 110.2152751  95.5118961
  14.5124510 109.9748487  94.8012269  13.9906603 109.4959881  96.1392497
   8.1033948 114.9933147  90.9540971   8.0469149 115.4501698  90.1148604
   8.6562290 114.2323831  90.7763814  11.9138754 110.7822879  91.7791091
  11.6575688 110.3819514  92.6099299  11.2891622 111.4966672  91.6541230
  16.2251092 113.5218952  94.2862382  15.6650650 113.5912141  95.0593944
  15.6194595 113.3459936  93.5661878   9.1822835 119.6805815  86.8837161
  10.0168439 119.2487013  86.7014636   9.0207178 119.5087828  87.8114056
   8.8368727 116.1837928  88.2493501   8.7817531 116.0182199  87.3081945
   8.2114783 116.8913961  88.4055690   2.1464853 105.6846037  87.8278819
   2.1343523 106.6287877  87.9847090   3.0388275 105.5016182  87.5338280
   5.9616972 102.2788814  92.0824756   5.1949368 101.7247300  92.2281438
   6.3727677 102.3510682  92.9438907  20.2882226 121.5723727  99.4173133
  19.9565551 122.4419138  99.1934348  19.6927840 121.2560011 100.0967164
  22.0472536 124.4935251  98.2744357  21.4046916 124.7867785  97.6284152
  21.5427464 124.3788172  99.0797554  17.3865358 119.4193308  99.0344447
  17.0429627 120.3094950  98.9583557  17.7544321 119.2294966  98.1714032
  16.4661898 121.7897963  96.9993680  15.9626694 121.7528098  96.1861485
  16.7592505 122.6990706  97.0590337  12.6189771 120.9780150  92.1051298
  11.9654183 120.6629167  91.4807913  12.5770245 120.3555890  92.8311121
  19.1853024 118.6786867  94.1362184  19.4911900 117.8184231  93.8488100
  19.9105628 119.2704487  93.9361178  19.4554642 121.1081103  96.6346105
  18.5417721 121.3385329  96.8028312  19.8847743 121.1919547  97.4860138
  13.4343342 121.0105875  98.4328120  14.2569411 120.5366353  98.3107010
  13.6781405 121.7896359  98.9326806  15.0906390 121.2596834  94.6955278
  15.1128087 121.3236168  93.7407258  15.5074449 120.4201343  94.8895784
  16.6394601 122.0584911 100.0390270  17.1576545 122.7945938  99.7136759
  16.2849734 122.3648904 100.8737029  16.8907195 118.4785193  95.5591167
  17.1708949 117.8108382  96.1851593  17.6757802 118.6714289  95.0465831
  21.0509347 120.6561006  94.4259137  20.8534168 120.3476094  95.3102469
  21.6609053 121.3822645  94.5557067  14.8792445 121.4591866  90.5531372
  14.0693174 121.1138951  90.9286618  15.5676862 121.1499410  91.1418984
  16.8082994 120.5369913  92.1755669  17.3614032 120.9565366  92.8345692
  17.0453080 119.6105661  92.2178625  20.1861801 122.6470438  91.6834333
  19.6060470 123.3055242  91.3012385  19.9197733 121.8247783  91.2721750
  18.6365367 122.0475496  93.8855653  19.1365145 122.1592030  93.0769972
  19.2800975 121.7436549  94.5256462  24.7573774 125.5444669  95.5118961
  25.3518264 125.3040405  94.8012269  24.8300357 124.8251799  96.1392497
  16.8010727 117.6080731  92.0824756  16.0343123 117.0539218  92.2281438
  17.2121432 117.6802600  92.9438907   6.9686759  77.3727631  81.5536141
   6.2150467  76.8035029  81.3980145   7.1034300  77.3390296  82.5006775
   1.0450904  77.5256268  78.6638284   0.9068803  77.7157864  77.7359473
   0.6887123  78.2875650  79.1206335   1.0720284  79.5932795  83.6749555
   1.5056790  79.5008084  84.5232609   1.7851865  79.5690295  83.0369571
   1.9335833  79.6356495  86.2082441   2.1271723  80.5402306  86.4541716
   1.8336452  79.1763914  87.0421026   3.1877897  76.1930162  82.8530345
   3.1767773  77.0754877  82.4824278   2.3195276  75.8401713  82.6584882
   3.7902506  77.3430381  79.4579808   4.2333653  76.5937706  79.0598931
   2.9129017  77.3340518  79.0753540   0.8229711  81.3460428  76.4673737
   1.3481035  81.6847701  75.7423057   0.7352063  80.4107444  76.2836871
   0.6321492  78.8285798  89.0857663   0.6819497  78.6635806  90.0273186
   0.5235415  77.9613057  88.6955544   2.1339689  81.2482740  89.3299685
   1.8424497  81.6112720  90.1663146   1.5211820  80.5349748  89.1513017
   3.3335371  78.8135620  81.8502255   4.1682263  79.2525424  82.0139815
   3.4694500  78.3374273  81.0310501   1.5616624  76.4687234  85.1450348
   1.5292944  75.5303235  85.3310032   2.1717248  76.5471271  84.4116173
   1.7111112  73.2598278  85.1908631   1.1950161  72.4756734  85.0038560
   2.5951061  72.9316994  85.3555151   7.3793174  77.5303241  84.2856385
   8.1096562  77.2688529  84.8464088   6.7700119  76.7931963  84.3258453
   5.4608471  75.6711104  84.8830836   4.7341634  75.5367069  84.2747328
   5.0455758  75.9787932  85.6887554   3.0786266  71.8922956  82.2364268
   3.6730757  71.6518692  81.5257576   3.1512849  71.1730086  82.8637804
   1.0745001  72.4593083  78.5036397   0.8181935  72.0589719  79.3344605
   0.4497869  73.1736877  78.3786537   5.3857339  75.1989157  81.0107689
   4.8256897  75.2682346  81.7839251   4.7800842  75.0230141  80.2907185
   6.9713357  91.8745671  83.7037645   7.6091767  91.7552418  83.0000985
   6.8534200  92.8226515  83.7625597   3.7803063  91.8273099  83.6399169
   3.4421575  91.7114163  82.7519704   4.6492831  91.4264264  83.6200175
   4.2622846  92.9807950  89.5985375   4.2511487  92.5860749  88.7265879
   4.4243486  92.2474023  90.1919146   5.2189438  97.3479543  74.9410525
   4.5677417  97.9333623  74.5544539   6.0133800  97.8785738  75.0005563
   0.9830107  95.7645062  88.5464559   0.6919973  96.6690693  88.4311225
   1.6187092  95.8061590  89.2608628   1.9086314  93.1421911  85.1365918
   2.5049887  92.9177933  84.4222881   1.9661286  92.4006656  85.7391366
   1.4811343  90.5961346  72.9716109   1.7336863  90.0742867  72.2099572
   0.5435902  90.4327492  73.0742793   6.5254625  89.5997124  80.7790853
   7.3117715  89.1816548  80.4281270   6.7893330  90.5043217  80.9472501
   6.6964703  95.0369975  75.4779509   6.0610536  95.1104601  76.1900414
   6.3662109  95.6263574  74.7998589  11.9263053  89.5372358  81.6823831
  12.6588225  88.9671574  81.9161661  11.1702408  89.1493958  82.1230337
   1.2007631  92.4989452  75.1740484   1.0843889  91.8234355  75.8421569
   1.3109891  92.0121826  74.3572637   3.5439172  91.9599599  78.8787174
   3.1797380  91.4330220  79.5900095   4.4006288  91.5698068  78.7053659
   9.4488473  83.2493932  86.1418440   9.1171798  84.1189343  85.9179655
   8.8534086  82.9330216  86.8212470   3.1844659  86.9889499  73.8748522
   3.3519062  87.8569735  74.2418993   2.9941828  87.1516781  72.9509811
   5.9419992  95.4506478  85.5414353   5.6420716  96.3531517  85.4330160
   5.5971052  95.1838661  86.3935505   9.3417136  87.9689018  83.2211790
   8.4334014  87.9004426  82.9270551   9.2904732  88.4460963  84.0493615
   3.1633880  89.4447156  74.8595189   3.0433505  89.8904207  75.6980669
   2.4686469  89.7932474  74.3008727   3.4158002  89.3878664  91.1646687
   2.6391336  89.9472584  91.1549552   4.0548565  89.8735447  91.6861557
  11.2078783  86.1705456  84.9989664  10.5653163  86.4637990  84.3529458
  10.7033711  86.0558377  85.8042860   8.8618946  89.9168630  75.6875523
   9.7736802  90.1496016  75.5123221   8.3528593  90.5005674  75.1250602
   1.6704374  92.1964117  90.7264654   2.4119059  92.7349161  90.4499478
   0.9641360  92.8230406  90.8836206   7.1459714  94.3393257  89.3236816
   7.5543070  93.8975668  88.5791448   6.4236976  93.7645885  89.5771008
   3.4990784  89.2765864  86.6970373   4.3451979  89.7005278  86.8405022
   3.4389422  88.6199488  87.3908936   7.4688529  94.8994448  83.0789104
   6.8397391  95.0640162  82.3765172   7.0814191  95.3136058  83.8500069
  11.3477761  95.8348886  80.4333468  10.6628799  96.2147787  79.8830502
  11.4321610  96.4444212  81.1665416   6.6490229  86.9370232  88.3551546
   6.4051161  87.6912293  87.8185822   6.9250160  87.3155580  89.1898793
   8.6028692  93.4808845  87.0328812   8.8145587  94.1240605  86.3563193
   8.5558440  92.6471161  86.5650742   6.2054921  86.0926666  83.9365384
   5.3439400  86.3907919  84.2282121   6.2317356  86.3097064  83.0046417
   3.0216491  94.6368856  80.3439190   3.4854836  94.9156559  79.5543812
   2.7573289  93.7352301  80.1612280   1.9585377  90.7592008  77.1528755
   2.6609420  91.2113052  77.6202681   1.6266005  90.1175827  77.7808648
   9.7174520  96.3580800  85.2051169  10.5391964  95.9560988  84.9233851
   9.7136923  96.2549034  86.1567285   3.4831124  95.9064844  87.3611880
   3.5475556  96.3685251  88.1970051   2.7742047  95.2762208  87.4894189
  17.8080513  92.7019549  81.5536141  17.0544222  92.1326947  81.3980145
  17.9428054  92.6682213  82.5006775   3.1979141  97.5732951  77.2290860
   3.0624816  98.4184487  77.6575708   3.7388954  97.7752229  76.4656794
   2.6014442  85.0682410  91.4825472   3.3424155  85.6689563  91.4029934
   2.8332365  84.3260048  90.9243514   4.8247618  98.1956518  91.3591202
   4.3811472  97.4092896  91.0412107   5.4864831  98.3835668  90.6935093
   6.9228856  98.4759318  89.3872603   6.9047331  99.2968199  88.8952872
   7.8448776  98.3513393  89.6122744   3.3801910  95.9903447  90.2296112
   3.9130247  95.2291735  89.9995420   2.8515991  95.6977099  90.9720266
   6.5471605  81.0963513  85.7589753   6.2035874  81.9865155  85.6828864
   6.9150567  80.9065171  84.8959338   6.5121887  91.0872124  74.2662189
   5.9968511  91.8576729  74.5050576   6.2399196  90.4137260  74.8895250
   4.0968999  85.9321825  79.3247427   3.2410595  85.5428675  79.1453066
   4.5095950  86.0113786  78.4647212   5.6268145  83.4668168  83.7238987
   5.1232941  83.4298303  82.9106792   5.9198752  84.3760911  83.7835643
   1.8711031  83.5506898  82.7305168   2.7364028  83.3549707  82.3711058
   1.9388540  83.3217250  83.6574525  11.4856162  93.8404479  76.2015362
  10.7085604  93.5015638  75.7570524  12.1647643  93.8457102  75.5270327
   6.3008191  88.9599216  76.0921970   5.9958326  89.2745365  76.9432113
   7.2538633  89.0380636  76.1349303   4.7454623  95.1189439  77.7414924
   4.2175984  94.3842199  77.4288161   4.2442125  95.8964116  77.4954892
   9.7247469  93.3138460  82.8581970   9.0671143  94.0037721  82.9462099
  10.5287868  93.7034892  83.2015956   8.5352927  91.6682833  80.9085912
   9.0484809  92.3012824  81.4107621   9.1854151  91.0684028  80.5429272
   1.7796018  82.6550355  78.8296605   1.1260430  82.3399372  78.2053219
   1.7376492  82.0326095  79.5556428   2.8907223  92.9369650  70.7449897
   1.9834284  92.7058903  70.9441046   3.3878255  92.1407269  70.9323878
   5.7975302 101.6467157  73.6646583   5.1237000 101.9498854  74.2731541
   6.1841124 102.4496237  73.3152040   5.0133758  89.1432288  83.1544252
   4.0956320  89.3647235  82.9965940   5.4293902  89.2178599  82.2955960
   5.7968806  90.5423704  78.2846933   6.5440625  91.0545101  77.9754055
   6.0660396  90.2207757  79.1451326   4.0695456  93.0382245  75.2673887
   3.1606675  92.7541277  75.3646357   4.0990540  93.4581323  74.4077194
   9.3014724  96.6488834  79.0365054   8.8477051  95.8079744  79.0930245
   8.6708690  97.2850232  79.3739835   8.2447643  87.5780820  80.2665722
   7.5070400  87.0658206  80.5975964   8.4974417  87.1381202  79.4548999
   7.7447663  98.4865331  79.9714872   8.0370637  99.0470388  79.2527238
   8.2546283  98.7793892  80.7268032   8.3459270  80.3557072  80.8607491
   8.6518147  79.4954436  80.5733406   9.0711875  80.9474692  80.6606485
   2.6180350  90.6510865  81.3683682   2.6728960  89.6984702  81.2926159
   1.8071552  90.8070304  81.8524981   3.7671544  94.5790988  72.6061965
   3.3290974  93.8626847  72.1467603   4.5081985  94.8067103  72.0447057
   2.7081288  99.2645682  81.0608326   2.6657467  99.4906528  80.1316858
   3.6243987  99.0309056  81.2094127   6.1546922  89.7329749  87.9588955
   6.5096309  89.9601223  88.8183421   6.8019053  90.0648126  87.3366210
  11.8844659  92.8548185  78.6638284  11.7462557  93.0449781  77.7359473
  11.5280878  93.6167568  79.1206335  11.9114038  94.9224712  83.6749555
  12.3450545  94.8300001  84.5232609  12.6245619  94.8982213  83.0369571
   5.6441933  98.5226806  85.2082656   5.6978956  99.0917743  85.9760372
   4.7756715  98.6928691  84.8436693  12.7729588  94.9648413  86.2082441
  12.9665478  95.8694223  86.4541716  12.6730206  94.5055832  87.0421026
   4.4265899  84.8506304  88.7072768   3.7793814  85.5496253  88.6137245
   5.1966914  85.2842447  89.0749016   7.8344697  95.1155156  91.7823321
   7.6830203  94.8865707  90.8653405   7.8249376  96.0725757  91.7954666
   4.6030033  92.6887068  86.7669588   5.5322093  92.8398228  86.5938555
   4.1821063  92.7771089  85.9118234   3.4018365  96.7137733  84.5368126
   3.2629450  96.3456517  85.4094064   2.6132961  97.2285372  84.3652083
   3.9966517 101.8146829  75.8793662   4.1718272 101.3434873  76.6939285
   3.3099305 102.4412596  76.1074923   4.9523580  96.0919336  81.9256963
   4.6173413  96.0520106  82.8214613   4.4527526  95.4264051  81.4527374
   7.8882772  93.4375370  72.1994023   7.2711942  92.7122198  72.1027076
   7.4199260  94.1984730  71.8561097   1.5550125  91.2106925  86.9393224
   2.2649743  90.5700117  86.8979843   1.5119433  91.4619820  87.8619405
   9.5436903  98.1474278  89.8599803   9.4849449  97.4633498  89.1930386
   9.9456422  98.8893268  89.4080429   9.5454310  96.1113862  88.0913783
   8.6581089  95.7739784  88.2140182  10.1152862  95.3796893  88.3282548
   3.0755464 100.7715315  85.0575026   3.0025635 101.5770286  85.5694331
   2.6332857 100.9707280  84.2323048   2.8645243 100.0087085  78.5677848
   2.0812765 100.5508765  78.6616072   3.5637989 100.5261064  78.9672089
   6.1741894  85.8181714  81.2112053   6.6710593  85.0651676  80.8913123
   5.4028875  85.8546031  80.6455262  14.0271651  91.5222080  82.8530345
  14.0161527  92.4046795  82.4824278  13.1589030  91.1693630  82.6584882
   5.5354147 100.6702149  87.2133185   6.2482120 101.3049613  87.1409086
   5.0444176 100.7666015  86.3973187   7.2571674  94.5753401  78.7850477
   6.3227953  94.6954864  78.6155181   7.4348343  93.6725868  78.5210486
   2.7576862  87.9599097  80.9383738   2.3874650  87.4070137  81.6264643
   3.2535955  87.3557231  80.3858738  10.6444226  90.4170721  79.3200511
  11.1104678  91.2498712  79.2460813  11.0951726  89.9515702  80.0245769
   8.7120457  96.7614542  76.3186663   8.9880301  96.6471136  77.2280537
   7.8424955  96.3632027  76.2798836   8.6160888  82.7851308  83.3591412
   7.7023968  83.0155534  83.5273619   9.0453990  82.8689752  84.2105444
   8.3867347  90.9741199  85.8591306   7.7338797  91.2217107  85.2043759
   8.7647727  90.1605338  85.5253783   5.3474521 101.0100893  79.9619476
   5.5296915 100.1922549  80.4247229   6.1707507 101.2268585  79.5244366
   5.6816686  99.9369078  77.2234525   6.2104453  99.4261532  76.6104687
   5.9444906  99.6211608  78.0880058   4.4354920  91.7161011  92.3457343
   3.7595557  91.6155140  93.0159718   5.2582554  91.5600224  92.8093340
   3.1777703 103.0227938  86.5814959   3.7296011 103.1859560  87.3464044
   3.5183896 103.6132376  85.9094984   8.0288577  97.8489196  92.4363614
   8.5728481  98.4619154  91.9418568   7.4475422  98.4068774  92.9530627
   6.3146090 100.9709914  83.5678641   6.1897230 100.1699653  83.0589587
   6.9725181 101.4656107  83.0792611   8.3780998  98.7718934  85.1958191
   7.4311334  98.6524285  85.1236518   8.7263772  97.8841432  85.2784453
   0.7380572  84.6613073  89.0196433   1.2614974  84.9075369  89.7822743
   0.5192905  85.4933107  88.5999571   5.3827432  98.5671650  81.3962544
   5.2352394  97.6388357  81.5770114   6.2080925  98.5891741  80.9119619
   8.9861554  99.3900209  82.4827416   9.9108101  99.1843070  82.3451867
   8.8176857  99.1416610  83.3916758   1.9433117  85.6026768  86.7046104
   1.6029937  84.8034581  87.1066784   1.2372123  85.9028478  86.1322937
   2.5949589  82.6876080  85.1573427   3.4175658  82.2136558  85.0352317
   2.8387652  83.4666564  85.6572113   1.2357823  85.7164339  75.4536328
   1.9566186  86.0945591  74.9500045   0.6123127  86.4353215  75.5571306
   5.3788946  86.4209487  76.3894661   5.5952560  87.3034125  76.0883489
   4.8983013  86.0295701  75.6600303   1.9784550  86.3697749  83.0146295
   1.9646119  85.4738842  82.6778593   2.6956978  86.3768412  83.6484581
   3.8310681  86.8035089  85.0599422   3.5728459  87.7252160  85.0583753
   3.2995721  86.4065523  85.7499887   8.7756870  99.9085876  77.8389508
   8.9493747  99.3432298  77.0863360   9.2685761 100.7086771  77.6568998
   1.3821446  85.2512129  78.2833865   1.5037357  84.3228775  78.4824753
   1.0923489  85.2650815  77.3712181   4.2512637  82.9367039  81.4200585
   4.2734333  83.0006372  80.4652565   4.6680696  82.0971548  81.6141091
  14.6296261  92.6722299  79.4579808  15.0727407  91.9229624  79.0598931
  13.7522771  92.6632435  79.0753540   9.7632042  99.2252640  74.9386406
  10.4582947  99.8459333  75.1573721  10.1055192  98.3747992  75.2138784
  11.6623465  96.6752346  76.4673737  12.1874789  97.0139619  75.7423057
  11.5745818  95.7399361  76.2836871   3.3243514 100.5886420  88.5963613
   3.6330641 100.3435566  89.4686313   4.1218996 100.7933058  88.1082484
   3.3464126 102.7424329  80.8268990   2.9069116 102.2500708  81.5201847
   4.0972243 102.1997297  80.5861065   0.8662526  86.7644126  92.4923798
   0.9150681  87.6406249  92.1101567   1.4085040  86.2221519  91.9195441
  11.3517371  97.3085250  91.7724935  10.5612915  97.2909388  91.2329434
  11.1150726  97.8473543  92.5273971  11.4715247  94.1577716  89.0857663
  11.5213251  93.9927723  90.0273186  11.3629170  93.2904975  88.6955544
   8.7619009  90.1408644  90.4016970   9.6628872  90.0015109  90.1100968
   8.8366983  90.3063099  91.3415147   3.0961814  87.5175499  89.2470156
   2.2265124  87.8109065  88.9752745   3.3321295  88.1015944  89.9677420
  12.9733443  96.5774657  89.3299685  12.6818252  96.9404638  90.1663146
  12.3605575  95.8641666  89.1513017  14.1729126  94.1427537  81.8502255
  15.0076017  94.5817341  82.0139815  14.3088254  93.6666190  81.0310501
  11.2220632  91.7007272  87.7979743  11.6974753  91.8934918  86.9898594
  10.2986197  91.7566458  87.5523127   5.8000848  83.7355116  86.7635577
   6.3182792  84.4716143  86.4382065   5.4455981  84.0419109  87.5982336
   6.0513442  80.1555398  82.2836473   6.3315196  79.4878587  82.9096900
   6.8364049  80.3484494  81.7711137   3.8546911  99.3314392  73.8461500
   3.2820878  99.9504579  73.3931972   4.4279704  99.8813754  74.3801422
   9.9222301  88.5773032  86.0308048  10.8739723  88.6771130  86.0520272
   9.7525751  87.7851301  86.5406133   7.9436680  85.6628615  86.2167449
   7.3486612  85.9433628  85.5213938   7.6586377  86.1522516  86.9884190
   7.0744171  99.6151542  74.9770082   8.0074844  99.5497104  75.1802957
   6.9867383 100.4507809  74.5184615   9.7032187  98.9317413  71.9374029
   9.6245819  98.5977276  72.8309787  10.5241854  99.4239180  71.9365502
  12.4010378  91.7979152  85.1450348  12.3686698  90.8595153  85.3310032
  13.0111002  91.8763189  84.4116173   4.2393709  90.6675205  71.1877552
   5.1852814  90.5381413  71.2565970   3.8607954  89.9289867  71.6646980
  12.5504867  88.5890195  85.1908631  12.0343916  87.8048652  85.0038560
  13.4344815  88.2608912  85.3555151  10.2115594  82.3331211  81.1504444
  10.0140415  82.0246299  82.0347776  10.8215299  83.0592850  81.2802374
  18.2186928  92.8595159  84.2856385  18.9490317  92.5980447  84.8464088
  17.6093874  92.1223881  84.3258453  16.3002225  91.0003021  84.8830836
  15.5735389  90.8658986  84.2747328  15.8849512  91.3079850  85.6887554
   4.1232402  94.7192951  92.6478209   5.0435411  94.8971550  92.8418256
   4.0881985  93.7748996  92.4957908   2.4236626  88.5925181  71.1232437
   1.5168082  88.2958294  71.1995151   2.7012607  88.2954999  70.2566724
   4.0398692  83.1362071  77.2776679   3.2299420  82.7909156  77.6531925
   4.7283109  82.8269615  77.8664290   5.9689240  82.2140118  78.9000975
   6.5220279  82.6335571  79.5590998   6.2059327  81.2875866  78.9423931
   1.9922340  88.2027191  94.6803739   1.8919067  89.1521548  94.6115830
   1.7743882  87.8745430  93.8079809   1.1935411  85.4512116  71.2644417
   2.0554575  85.7767015  71.5240234   1.3785755  84.6643612  70.7517482
   9.3468047  84.3240643  78.4079640   8.7666717  84.9825447  78.0257692
   9.0803980  83.5017988  77.9967057   7.7971614  83.7245701  80.6100960
   8.2971392  83.8362235  79.8015279   8.4407222  83.4206753  81.2501768
   1.8553610  91.6324330  93.4968801   1.3720691  92.4324690  93.7032690
   1.9414549  91.6432275  92.5436245   8.1292926  86.4840733  77.4635988
   7.2418781  86.7690384  77.2456183   8.5446915  86.3234497  76.6163265
  11.4807462  86.5087254  81.1790327  12.2567852  86.9983707  81.4514944
  10.7555596  86.9345308  81.6362197  13.9180020  87.2214874  82.2364268
  14.5124511  86.9810609  81.5257576  13.9906604  86.5022004  82.8637804
   7.2736139  96.2485408  71.5584008   7.9771989  96.4535410  72.1741663
   6.5498788  96.8162170  71.8233091   8.1033949  91.9995269  77.6786278
   8.0469151  92.4563821  76.8393910   8.6562292  91.2385954  77.5009121
  11.9138755  87.7885001  78.5036397  11.6575689  87.3881637  79.3344605
  11.2891623  88.5028795  78.3786537  16.2251093  90.5281074  81.0107689
  15.6650651  90.5974264  81.7839251  15.6194596  90.3522059  80.2907185
   9.1822836  96.6867937  73.6082468  10.0168440  96.2549136  73.4259943
   9.0207179  96.5149951  74.5359362   8.8368729  93.1900050  74.9738807
   8.7817532  93.0244322  74.0327251   8.2114784  93.8976083  75.1300997
   6.1514636  95.4948962  94.2992370   7.0205795  95.6689615  93.9379005
   5.6721387  96.3143379  94.1768099   2.1464854  82.6908159  74.5524126
   2.1343524  83.6349999  74.7092396   3.0388276  82.5078305  74.2583587
   2.0754418 101.3677050  82.6391882   1.1250049 101.3678912  82.5256255
   2.3786904 100.6209784  82.1227917   5.9616973  79.2850936  78.8070062
   5.1949369  78.7309423  78.9526745   6.3727678  79.3572805  79.6684214
  17.8107111 107.2037588  83.7037645  18.4485521 107.0844336  83.0000985
  17.6927954 108.1518432  83.7625597  14.6196818 107.1565016  83.6399169
  14.2815329 107.0406081  82.7519704  15.4886586 106.7556181  83.6200175
  10.4783633 109.0100493  79.6296060   9.9148499 108.9190430  78.8612348
  10.3636029 108.1900397  80.1098553  15.1016601 108.3099868  89.5985375
  15.0905242 107.9152666  88.7265879  15.2637240 107.5765941  90.1919146
   8.0248065 110.5051684  82.4680281   8.8169357 110.1642509  82.0526580
   8.2644716 110.6146659  83.3882434  16.0583192 112.6771461  74.9410525
  15.4071172 113.2625541  74.5544539  16.8527555 113.2077655  75.0005563
   9.9838819 109.7660598  75.3397660  10.7569695 109.2189585  75.2010535
  10.3364218 110.6304847  75.5512121  11.8223862 111.0936980  88.5464559
  11.5313728 111.9982611  88.4311225  12.4580846 111.1353508  89.2608628
  12.7480069 108.4713828  85.1365918  13.3443641 108.2469851  84.4222881
  12.8055040 107.7298574  85.7391366  12.3205097 105.9253264  72.9716109
  12.5730618 105.4034785  72.2099572  11.3829656 105.7619409  73.0742793
  17.3648380 104.9289042  80.7790853  18.1511469 104.5108465  80.4281270
  17.6287084 105.8335134  80.9472501  17.5358457 110.3661892  75.4779509
  16.9004290 110.4396519  76.1900414  17.2055864 110.9555491  74.7998589
  22.7656807 104.8664275  81.6823831  23.4981979 104.2963492  81.9161661
  22.0096163 104.4785876  82.1230337  12.0401386 107.8281370  75.1740484
  11.9237644 107.1526273  75.8421569  12.1503646 107.3413744  74.3572637
  14.3832927 107.2891517  78.8787174  14.0191134 106.7622138  79.5900095
  15.2400043 106.8989986  78.7053659  20.2882227  98.5785849  86.1418440
  19.9565552  99.4481260  85.9179655  19.6927841  98.2622133  86.8212470
  14.0238414 102.3181417  73.8748522  14.1912816 103.1861653  74.2418993
  13.8335583 102.4808698  72.9509811  16.7813747 110.7798395  85.5414353
  16.4814470 111.6823434  85.4330160  16.4364806 110.5130579  86.3935505
  10.2326228 107.2312192  81.5751057   9.3076725 107.0988406  81.7828749
  10.4810642 108.0106412  82.0720999  20.1810891 103.2980936  83.2211790
  19.2727768 103.2296344  82.9270551  20.1298487 103.7752881  84.0493615
  14.0027635 104.7739074  74.8595189  13.8827260 105.2196125  75.6980669
  13.3080223 105.1224392  74.3008727   7.5935039 106.8745466  82.4094846
   7.7227421 107.1279945  83.3234258   6.9132491 107.4673174  82.0899501
  11.7634527 117.5442716  78.5085320  11.6858556 118.4950541  78.5873801
  11.1596170 117.1988588  79.1660247  14.2551757 104.7170581  91.1646687
  13.4785091 105.2764501  91.1549552  14.8942320 105.2027364  91.6861557
  22.0472537 101.4997374  84.9989664  21.4046917 101.7929907  84.3529458
  21.5427466 101.3850294  85.8042860  19.7012701 105.2460547  75.6875523
  20.6130557 105.4787934  75.5123221  19.1922348 105.8297591  75.1250602
  12.5098129 107.5256035  90.7264654  13.2512813 108.0641079  90.4499478
  11.8035114 108.1522323  90.8836206  17.9853468 109.6685175  89.3236816
  18.3936825 109.2267586  88.5791448  17.2630730 109.0937803  89.5771008
  14.3384539 104.6057782  86.6970373  15.1845734 105.0297195  86.8405022
  14.2783176 103.9491406  87.3908936  18.3082283 110.2286366  83.0789104
  17.6791146 110.3932080  82.3765172  17.9207945 110.6427975  83.8500069
  22.1871515 111.1640804  80.4333468  21.5022553 111.5439705  79.8830502
  22.2715364 111.7736130  81.1665416  17.4883984 102.2662150  88.3551546
  17.2444916 103.0204211  87.8185822  17.7643914 102.6447498  89.1898793
  19.4422447 108.8100763  87.0328812  19.6539342 109.4532522  86.3563193
  19.3952195 107.9763079  86.5650742  17.0448676 101.4218583  83.9365384
  16.1833155 101.7199837  84.2282121  17.0711110 101.6388982  83.0046417
  13.8610245 109.9660774  80.3439190  14.3248591 110.2448477  79.5543812
  13.5967043 109.0644218  80.1612280  10.7534326 109.5132255  83.2818953
  11.3235683 109.9419524  82.6436437  11.3442438 109.2314840  83.9803138
  12.7979131 106.0883926  77.1528755  13.5003174 106.5404970  77.6202681
  12.4659760 105.4467745  77.7808648  11.2459493 104.6795683  91.5279964
  10.6158153 105.3611964  91.7615361  11.1395580 104.5678764  90.5833102
   6.5404465 104.3467479  82.4545888   5.7503519 104.6025007  81.9785999
   7.0315712 105.1615817  82.5597929  20.5568275 111.6872718  85.2051169
  21.3785718 111.2852905  84.9233851  20.5530677 111.5840952  86.1567285
   8.4919210 104.7112058  79.4129365   7.6950374 104.8230752  79.9312861
   8.2644803 105.0498710  78.5470255  14.3224878 111.2356761  87.3611880
  14.3869311 111.6977168  88.1970051  13.6135802 110.6054126  87.4894189
   4.8242168 104.5997969  84.8860879   5.0750206 105.4844979  85.1518455
   5.3601716 104.4202571  84.1135971  28.6474268 108.0311466  81.5536141
  27.8937976 107.4618865  81.3980145  28.7821809 107.9974131  82.5006775
  14.0372896 112.9024869  77.2290860  13.9018570 113.7476404  77.6575708
  14.5782708 113.1044146  76.4656794  10.5240235  98.9816449  93.8905215
  10.1307181  98.4282647  94.5652859  11.3406376  99.2927027  94.2811733
   7.4902293 110.4200307  77.8018785   8.0026814 111.2143557  77.9524350
   8.1425006 109.7226597  77.7352386   9.2997178 113.5366063  79.8841538
   9.4763806 114.4584028  79.6962522  10.0954011 113.2224482  80.3135918
  13.4408196 100.3974328  91.4825472  14.1817910 100.9981481  91.4029934
  13.6726119  99.6551965  90.9243514   8.5849534 105.5830695  89.7603701
   8.4703049 104.6815952  90.0610800   7.7294052 105.8294392  89.4088518
  15.6641372 113.5248435  91.3591202  15.2205226 112.7384814  91.0412107
  16.3258586 113.7127586  90.6935093  10.4228493 115.0544237  85.8851881
  10.9735918 114.9261300  85.1128874   9.5839969 115.3539126  85.5346773
  17.7622610 113.8051235  89.3872603  17.7441085 114.6260116  88.8952872
  18.6842530 113.6805310  89.6122744  14.2195664 111.3195365  90.2296112
  14.7524001 110.5583653  89.9995420  13.6909745 111.0269016  90.9720266
  17.3865359  96.4255431  85.7589753  17.0429629  97.3157072  85.6828864
  17.7544322  96.2357088  84.8959338   5.4551210 108.7488961  78.5778356
   6.2926432 109.1585969  78.3612063   5.6329478 107.8088403  78.5478549
  17.3515642 106.4164042  74.2662189  16.8362265 107.1868646  74.5050576
  17.0792950 105.7429178  74.8895250  14.9362753 101.2613743  79.3247427
  14.0804349 100.8720593  79.1453066  15.3489705 101.3405703  78.4647212
  16.4661900  98.7960086  83.7238987  15.9626695  98.7590221  82.9106792
  16.7592507  99.7052828  83.7835643  12.7104786  98.8798815  82.7305168
  13.5757782  98.6841624  82.3711058  12.7782294  98.6509167  83.6574525
  22.3249916 109.1696396  76.2015362  21.5479359 108.8307556  75.7570524
  23.0041397 109.1749020  75.5270327  17.1401945 104.2891134  76.0921970
  16.8352081 104.6037283  76.9432113  18.0932387 104.3672554  76.1349303
  15.5848377 110.4481357  77.7414924  15.0569739 109.7134117  77.4288161
  15.0835880 111.2256033  77.4954892  20.5641223 108.6430378  82.8581970
  19.9064897 109.3329639  82.9462099  21.3681622 109.0326810  83.2015956
  10.3167105 101.1101023  80.1021535  10.8910857 100.8876205  79.3694728
  10.9038087 101.1789718  80.8550136  19.3746682 106.9974750  80.9085912
  19.8878564 107.6304742  81.4107621  20.0247906 106.3975946  80.5429272
  10.6436692 103.1405484  74.1217420   9.8074004 103.4780171  74.4426695
  10.5041461 103.0054464  73.1844557  12.6189772  97.9842272  78.8296605
  11.9654185  97.6691290  78.2053219  12.5770246  97.3618013  79.5556428
  13.7300977 108.2661567  70.7449897  12.8228039 108.0350821  70.9441046
  14.2272009 107.4699187  70.9323878  16.6369056 116.9759075  73.6646583
  15.9630755 117.2790771  74.2731541  17.0234878 117.7788155  73.3152040
  15.8527513 104.4724206  83.1544252  14.9350074 104.6939153  82.9965940
  16.2687656 104.5470516  82.2955960  16.6362560 105.8715622  78.2846933
  17.3834379 106.3837019  77.9754055  16.9054150 105.5499674  79.1451326
  14.9089211 108.3674162  75.2673887  14.0000430 108.0833195  75.3646357
  14.9384294 108.7873241  74.4077194  20.1408478 111.9780752  79.0365054
  19.6870805 111.1371662  79.0930245  19.5102445 112.6142150  79.3739835
  19.0841398 102.9072738  80.2665722  18.3464154 102.3950124  80.5975964
  19.3368171 102.4673119  79.4548999  18.5841417 113.8157248  79.9714872
  18.8764392 114.3762306  79.2527238  19.0940038 114.1085809  80.7268032
  19.1853025  95.6848990  80.8607491  19.4911902  94.8246353  80.5733406
  19.9105630  96.2766610  80.6606485   5.4777381 106.0879676  79.2489089
   5.2801781 105.4949037  78.5240156   4.9224045 105.7831887  79.9665028
  13.4574105 105.9802783  81.3683682  13.5122714 105.0276619  81.2926159
  12.6465307 106.1362222  81.8524981  14.6065298 109.9082906  72.6061965
  14.1684728 109.1918765  72.1467603  15.3475739 110.1359021  72.0447057
  11.3966465 104.5979843  79.1274061  10.5834330 104.8974013  79.5339253
  11.8925459 104.2035531  79.8448543  13.5475042 114.5937600  81.0608326
  13.5051221 114.8198446  80.1316858  14.4637741 114.3600974  81.2094127
  16.9940676 105.0621667  87.9588955  17.3490064 105.2893140  88.8183421
  17.6412807 105.3940044  87.3366210  22.7238413 108.1840103  78.6638284
  22.5856312 108.3741699  77.7359473  22.3674632 108.9459486  79.1206335
  10.8880539 102.1698198  84.7435296  11.5279919 102.0286957  84.0458259
  10.0558070 101.8832712  84.3673898  22.7507793 110.2516630  83.6749555
  23.1844299 110.1591919  84.5232609  23.4639374 110.2274130  83.0369571
  11.6640843 111.4700629  80.8570288  12.4581442 110.9750949  80.6552863
  10.9532536 110.9418492  80.4937994  16.4835688 113.8518724  85.2082656
  16.5372710 114.4209660  85.9760372  15.6150469 114.0220609  84.8436693
   7.9723607 105.6143710  76.9330041   7.0421195 105.5528166  77.1500003
   8.0681079 105.0919663  76.1366682   7.8909156 102.1398523  79.5208283
   8.1515973 103.0543856  79.4117443   8.7126328 101.6722966  79.6704896
   9.3634081 103.5536280  86.6907107  10.0357135 103.3453642  86.0419756
   8.5363868 103.3558366  86.2512340  23.6123342 110.2940331  86.2082441
  23.8059232 111.1986141  86.4541716  23.5123961 109.8347750  87.0421026
  15.2659653 100.1798221  88.7072768  14.6187568 100.8788171  88.6137245
  16.0360669 100.6134365  89.0749016  18.6738451 110.4447073  91.7823321
  18.5223957 110.2157625  90.8653405  18.6643131 111.4017675  91.7954666
  15.4423787 108.0178986  86.7669588  16.3715847 108.1690146  86.5938555
  15.0214817 108.1063007  85.9118234  14.2412119 112.0429651  84.5368126
  14.1023205 111.6748435  85.4094064  13.4526715 112.5577290  84.3652083
  14.8360271 117.1438747  75.8793662  15.0112027 116.6726790  76.6939285
  14.1493059 117.7704513  76.1074923  15.7917334 111.4211253  81.9256963
  15.4567167 111.3812023  82.8214613  15.2921280 110.7555969  81.4527374
   9.7661578 106.8278883  87.4509544   9.6281376 106.0959122  88.0521084
  10.6766502 106.7387783  87.1693732  18.7276526 108.7667288  72.1994023
  18.1105697 108.0414116  72.1027076  18.2593014 109.5276648  71.8561097
  12.3943879 106.5398843  86.9393224  13.1043498 105.8992035  86.8979843
  12.3513187 106.7911737  87.8619405  20.3830658 113.4766196  89.8599803
  20.3243204 112.7925416  89.1930386  20.7850176 114.2185186  89.4080429
  11.1072813 103.5264060  88.7588864  10.5710170 103.0754799  89.4110460
  10.5189521 103.6609969  88.0159328  10.5175072 102.9852712  71.3215327
   9.6404538 102.8641513  70.9577574  10.9932825 102.1938790  71.0694216
  20.3848065 111.4405780  88.0913783  19.4974844 111.1031702  88.2140182
  20.9546616 110.7088811  88.3282548   2.0377212 107.7729872  81.4156834
   2.7248252 107.4591602  80.8277850   1.8825341 108.6771236  81.1424086
   6.8411934 102.6620068  85.8441858   6.7570123 102.0545738  85.1092268
   6.0194641 103.1529086  85.8451354  13.9149218 116.1007232  85.0575026
  13.8419390 116.9062204  85.5694331  13.4726611 116.2999198  84.2323048
  13.7038998 115.3379002  78.5677848  12.9206520 115.8800682  78.6616072
  14.4031743 115.8552982  78.9672089  17.0135648 101.1473632  81.2112053
  17.5104348 100.3943594  80.8913123  16.2422630 101.1837948  80.6455262
  24.8665405 106.8513997  82.8530345  24.8555282 107.7338713  82.4824278
  23.9982785 106.4985548  82.6584882  16.3747902 115.9994066  87.2133185
  17.0875874 116.6341531  87.1409086  15.8837931 116.0957932  86.3973187
  18.0965429 109.9045319  78.7850477  17.1621708 110.0246781  78.6155181
  18.2742097 109.0017786  78.5210486  13.5970617 103.2891015  80.9383738
  13.2268404 102.7362055  81.6264643  14.0929709 102.6849148  80.3858738
  21.4837980 105.7462638  79.3200511  21.9498432 106.5790630  79.2460813
  21.9345481 105.2807620  80.0245769  11.4259815 113.7488510  88.0338756
  12.1269275 114.3824993  88.1868150  10.9554930 114.0903241  87.2734395
  19.5514211 112.0906460  76.3186663  19.8274055 111.9763054  77.2280537
  18.6818710 111.6923944  76.2798836  19.4554643  98.1143225  83.3591412
  18.5417723  98.3447452  83.5273619  19.8847744  98.1981669  84.2105444
  19.2261101 106.3033117  85.8591306  18.5732552 106.5509025  85.2043759
  19.6041481 105.4897255  85.5253783  16.1868275 116.3392810  79.9619476
  16.3690670 115.5214466  80.4247229  17.0101261 116.5560503  79.5244366
  16.5210441 115.2660995  77.2234525  17.0498207 114.7553450  76.6104687
  16.7838660 114.9503526  78.0880058  15.2748674 107.0452928  92.3457343
  14.5989311 106.9447058  93.0159718  16.0976308 106.8892142  92.8093340
   7.0227533 113.2824865  84.9669858   7.6080970 112.5368553  85.0997763
   6.8252372 113.5928821  85.8506522   9.8766189 116.3176112  79.9832301
   9.2076564 116.8022240  79.4996341   9.7379058 116.5645333  80.8975679
   1.6145188 105.8530465  83.6874302   1.6529288 105.3194056  84.4811420
   1.1085481 105.3265670  83.0685279  14.0171457 118.3519856  86.5814959
  14.5689765 118.5151477  87.3464044  14.3577651 118.9424294  85.9094984
   8.9935951 100.6995005  87.1836844   9.0577277 101.5609836  86.7714242
   8.9303071 100.0869007  86.4509202   8.4688223 102.7718138  90.8309878
   9.0960262 102.3895215  91.4447402   7.6116142 102.5532340  91.1965571
  18.8682332 113.1781113  92.4363614  19.4122236 113.7911071  91.9418568
  18.2869176 113.7360692  92.9530627   5.2453766 104.5794567  76.7628233
   5.5407207 103.6705246  76.7095287   4.3441802 104.5582307  76.4409235
  17.1539845 116.3001831  83.5678641  17.0290984 115.4991571  83.0589587
  17.8118936 116.7948025  83.0792611   8.7748013 102.6550564  82.7455781
   8.0534599 103.2686531  82.6063255   9.5641269 103.1908329  82.6672427
  19.2174753 114.1010851  85.1958191  18.2705088 113.9816202  85.1236518
  19.5657526 113.2133349  85.2784453  11.5774326  99.9904990  89.0196433
  12.1008728 100.2367287  89.7822743  11.3586660 100.8225025  88.5999571
   6.9741607 102.2608665  76.8867558   6.6454314 101.3806044  76.7042664
   7.3280978 102.2056333  77.7743947  16.2221186 113.8963568  81.3962544
  16.0746149 112.9680275  81.5770114  17.0474680 113.9183658  80.9119619
  10.0883431 102.5481635  77.2543036  10.4279503 103.0767556  76.5321644
  10.5355551 102.8862041  78.0301602  19.8255308 114.7192126  82.4827416
  20.7501856 114.5134988  82.3451867  19.6570611 114.4708527  83.3916758
  12.7826871 100.9318685  86.7046104  12.4423692 100.1326498  87.1066784
  12.0765878 101.2320396  86.1322937  13.4343343  98.0167998  85.1573427
  14.2569412  97.5428476  85.0352317  13.6781407  98.7958481  85.6572113
  12.0751578 101.0456256  75.4536328  12.7959940 101.4237509  74.9500045
  11.4516882 101.7645133  75.5571306  16.2182701 101.7501405  76.3894661
  16.4346315 102.6326043  76.0883489  15.7376768 101.3587619  75.6600303
  10.9581922 104.7087118  82.9665405  10.8126503 105.0227421  83.8589687
  10.4807126 105.3272019  82.4136304  12.8178305 101.6989666  83.0146295
  12.8039874 100.8030760  82.6778593  13.5350733 101.7060330  83.6484581
  14.6704436 102.1327007  85.0599422  14.4122213 103.0544077  85.0583753
  14.1389476 101.7357441  85.7499887  19.6150624 115.2377794  77.8389508
  19.7887502 114.6724216  77.0863360  20.1079516 116.0378689  77.6568998
   5.4327584 107.2492463  85.9053067   4.8881052 108.0252271  86.0373341
   6.3106934 107.5963267  85.7472188  12.2215201 100.5804047  78.2833865
  12.3431112  99.6520693  78.4824753  11.9317243 100.5942733  77.3712181
  15.0906391  98.2658957  81.4200585  15.1128088  98.3298290  80.4652565
  15.5074450  97.4263466  81.6141091  25.4690015 108.0014217  79.4579808
  25.9121161 107.2521542  79.0598931  24.5916526 107.9924353  79.0753540
  20.6025797 114.5544558  74.9386406  21.2976701 115.1751251  75.1573721
  20.9448947 113.7039909  75.2138784   6.2193606 106.3762359  88.7983223
   5.4775342 106.5244994  89.3847854   5.8986350 106.6370625  87.9349973
  22.5017220 112.0044264  76.4673737  23.0268544 112.3431536  75.7423057
  22.4139572 111.0691279  76.2836871  14.1637269 115.9178337  88.5963613
  14.4724395 115.6727484  89.4686313  14.9612751 116.1224976  88.1082484
  14.1857881 118.0716247  80.8268990  13.7462871 117.5792626  81.5201847
  14.9365998 117.5289215  80.5861065   6.6650220 114.2627788  80.8293618
   7.4908240 113.9631560  80.4492262   6.3144272 113.4935410  81.2783407
  11.6331753 113.6154256  82.8991292  11.0111762 112.9524961  82.5993520
  12.3036620 113.6415388  82.2164939   4.8658825 112.1814114  81.7882552
   4.0290733 111.7536289  81.6066553   4.8382470 112.3746558  82.7253343
  11.7056280 102.0936044  92.4923798  11.7544436 102.9698167  92.1101567
  12.2478794 101.5513437  91.9195441  22.1911126 112.6377167  91.7724935
  21.4006670 112.6201306  91.2329434  21.9544481 113.1765461  92.5273971
  22.3109001 109.4869634  89.0857663  22.3607006 109.3219641  90.0273186
  22.2022924 108.6196893  88.6955544  11.1945260 112.1658179  76.3749752
  11.3433380 112.8493644  75.7216425  12.0011703 112.1463269  76.8899208
  19.6012763 105.4700562  90.4016970  20.5022626 105.3307027  90.1100968
  19.6760738 105.6355016  91.3415147  13.9355569 102.8467416  89.2470156
  13.0658878 103.1400982  88.9752745  14.1715049 103.4307861  89.9677420
  23.8127198 111.9066575  89.3299685  23.5212006 112.2696556  90.1663146
  23.1999329 111.1933583  89.1513017  25.0122880 109.4719455  81.8502255
  25.8469772 109.9109259  82.0139815  25.1482009 108.9958108  81.0310501
  22.0614386 107.0299190  87.7979743  22.5368508 107.2226836  86.9898594
  21.1379951 107.0858376  87.5523127   8.9497893 108.1923357  77.3810821
   8.7043935 107.2885687  77.5791031   9.1193807 108.1940507  76.4390299
  16.6394603  99.0647033  86.7635577  17.1576546  99.8008060  86.4382065
  16.2849735  99.3711027  87.5982336   8.2193540 103.9251715  74.8796983
   7.5262785 103.9996070  74.2237019   7.9745292 103.1612058  75.4018500
  16.8907197  95.4847316  82.2836473  17.1708951  94.8170505  82.9096900
  17.6757804  95.6776411  81.7711137  14.6940665 114.6606310  73.8461500
  14.1214632 115.2796497  73.3931972  15.2673459 115.2105671  74.3801422
  20.7616055 103.9064950  86.0308048  21.7133478 104.0063048  86.0520272
  20.5919506 103.1143218  86.5406133  18.7830435 100.9920533  86.2167449
  18.1880367 101.2725546  85.5213938  18.4980131 101.4814434  86.9884190
  17.9137925 114.9443460  74.9770082  18.8468598 114.8789022  75.1802957
  17.8261138 115.7799727  74.5184615  20.5425942 114.2609330  71.9374029
  20.4639573 113.9269194  72.8309787  21.3635608 114.7531098  71.9365502
  23.2404133 107.1271070  85.1450348  23.2080453 106.1887070  85.3310032
  23.8504757 107.2055106  84.4116173  15.0787464 105.9967123  71.1877552
  16.0246568 105.8673331  71.2565970  14.7001709 105.2581784  71.6646980
  23.3898621 103.9182113  85.1908631  22.8737670 103.1340570  85.0038560
  24.2738570 103.5900830  85.3555151  21.0509348  97.6623129  81.1504444
  20.8534169  97.3538217  82.0347776  21.6609054  98.3884767  81.2802374
  29.0580683 108.1887076  84.2856385  29.7884071 107.9272365  84.8464088
  28.4487628 107.4515798  84.3258453  27.1395980 106.3294939  84.8830836
  26.4129143 106.1950904  84.2747328  26.7243267 106.6371768  85.6887554
  14.9626156 110.0484869  92.6478209  15.8829166 110.2263468  92.8418256
  14.9275739 109.1040914  92.4957908  13.2630381 103.9217099  71.1232437
  12.3561836 103.6250212  71.1995151  13.5406362 103.6246917  70.2566724
   4.1808321 105.2423462  81.5731484   3.8611106 104.3888771  81.2805858
   3.6341749 105.4572040  82.3289451   7.9588229 107.9585903  85.2900990
   8.1774239 108.8903011  85.3089024   8.3714003 107.5993878  86.0755794
  14.8792447  98.4653989  77.2776679  14.0693175  98.1201074  77.6531925
  15.5676864  98.1561532  77.8664290  16.8082995  97.5432035  78.9000975
  17.3614034  97.9627489  79.5590998  17.0453081  96.6167784  78.9423931
  12.8316094 103.5319109  94.6803739  12.7312821 104.4813466  94.6115830
  12.6137636 103.2037348  93.8079809  12.0329166 100.7804034  71.2644417
  12.8948330 101.1058932  71.5240234  12.2179510  99.9935530  70.7517482
   4.0496581 108.8626374  83.5424605   3.3560053 108.4480327  83.0294560
   4.7969572 108.9046910  82.9458024  20.1861802  99.6532561  78.4079640
  19.6060471 100.3117365  78.0257692  19.9197735  98.8309905  77.9967057
  18.6365368  99.0537618  80.6100960  19.1365147  99.1654153  79.8015279
  19.2800976  98.7498671  81.2501768  12.6947364 106.9616248  93.4968801
  12.2114446 107.7616608  93.7032690  12.7808303 106.9724193  92.5436245
   5.9633324 108.7944628  81.4190620   5.9404012 108.8932315  80.4672503
   6.2733960 109.6409778  81.7407786   8.6220702 110.8520783  85.5337235
   9.5763955 110.8204725  85.4667166   8.4233225 110.3911406  86.3487461
   9.2120084 109.4221899  88.1008032  10.0312973 109.9165977  88.1242870
   9.4856892 108.5053867  88.0725600  18.9686680 101.8132651  77.4635988
  18.0812535 102.0982302  77.2456183  19.3840669 101.6526414  76.6163265
  22.3201216 101.8379172  81.1790327  23.0961606 102.3275624  81.4514944
  21.5949350 102.2637226  81.6362197  24.7573775 102.5506791  82.2364268
  25.3518266 102.3102527  81.5257576  24.8300358 101.8313922  82.8637804
   6.9770930 116.3940402  82.5507433   6.8425398 115.6340803  81.9845431
   6.5602993 117.1181302  82.0836221  18.1129893 111.5777326  71.5584008
  18.8165744 111.7827328  72.1741663  17.3892542 112.1454088  71.8233091
  18.9427704 107.3287187  77.6786278  18.8862905 107.7855738  76.8393910
  19.4956046 106.5677872  77.5009121  22.7532510 103.1176919  78.5036397
  22.4969444 102.7173554  79.3344605  22.1285378 103.8320713  78.3786537
  27.0644848 105.8572992  81.0107689  26.5044405 105.9266181  81.7839251
  26.4588351 105.6813977  80.2907185  10.1340056 117.2909719  82.7625875
  10.0172440 118.2355152  82.6604565   9.3132503 116.9883281  83.1511674
  20.0216591 112.0159855  73.6082468  20.8562195 111.5841053  73.4259943
  19.8600934 111.8441869  74.5359362  19.6762483 108.5191968  74.9738807
  19.6211287 108.3536240  74.0327251  19.0508538 109.2268001  75.1300997
   4.4654998 103.7560033  88.8000229   5.1113862 103.2458987  89.2887455
   4.2572149 104.4928714  89.3743655  16.9908390 110.8240880  94.2992370
  17.8599550 110.9981532  93.9379005  16.5115142 111.6435297  94.1768099
  12.9858609  98.0200077  74.5524126  12.9737278  98.9641917  74.7092396
  13.8782030  97.8370223  74.2583587  11.1594570 117.9437981  85.9781804
  12.0621817 117.9761591  86.2948299  10.9331941 117.0138432  85.9928139
  12.9148172 116.6968968  82.6391882  11.9643803 116.6970829  82.5256255
  13.2180659 115.9501702  82.1227917  16.8010728  94.6142854  78.8070062
  16.0343124  94.0601341  78.9526745  17.2121433  94.6864723  79.6684214
   8.8052489 100.9027650  92.8975244   9.6683951 100.5464454  93.1078568
   8.2317900 100.5641544  93.5850648  28.6500866 122.5329506  83.7037645
  29.2879276 122.4136253  83.0000985  28.5321709 123.4810350  83.7625597
  25.4590572 122.4856934  83.6399169  25.1209084 122.3697999  82.7519704
  26.3280340 122.0848099  83.6200175  21.3177388 124.3392410  79.6296060
  20.7542253 124.2482347  78.8612348  21.2029783 123.5192315  80.1098553
  25.9410355 123.6391786  89.5985375  25.9298996 123.2444584  88.7265879
  26.1030995 122.9057858  90.1919146  23.5873823 123.8005746  85.1365918
  24.1837395 123.5761769  84.4222881  23.6448795 123.0590492  85.7391366
  23.1598852 121.2545181  72.9716109  23.4124372 120.7326703  72.2099572
  22.2223411 121.0911327  73.0742793  28.2042134 120.2580960  80.7790853
  28.9905224 119.8400383  80.4281270  28.4680839 121.1627052  80.9472501
  28.3752212 125.6953810  75.4779509  27.7398045 125.7688437  76.1900414
  28.0449618 126.2847409  74.7998589  33.6050562 120.1956193  81.6823831
  34.3375734 119.6255410  81.9161661  32.8489917 119.8077793  82.1230337
  22.8795140 123.1573287  75.1740484  22.7631398 122.4818191  75.8421569
  22.9897400 122.6705661  74.3572637  25.2226681 122.6183435  78.8787174
  24.8584889 122.0914055  79.5900095  26.0793797 122.2281904  78.7053659
  31.1275982 113.9077767  86.1418440  30.7959307 114.7773178  85.9179655
  30.5321595 113.5914051  86.8212470  24.8632168 117.6473334  73.8748522
  25.0306571 118.5153571  74.2418993  24.6729337 117.8100616  72.9509811
  27.6207501 126.1090313  85.5414353  27.3208225 127.0115352  85.4330160
  27.2758561 125.8422496  86.3935505  21.0719983 122.5604110  81.5751057
  20.1470479 122.4280324  81.7828749  21.3204396 123.3398329  82.0720999
  31.0204645 118.6272853  83.2211790  30.1121523 118.5588262  82.9270551
  30.9692241 119.1044798  84.0493615  24.8421389 120.1030992  74.8595189
  24.7221014 120.5488042  75.6980669  24.1473978 120.4516309  74.3008727
  18.4328794 122.2037384  82.4094846  18.5621175 122.4571862  83.3234258
  17.7526245 122.7965092  82.0899501  25.0945511 120.0462499  91.1646687
  24.3178845 120.6056419  91.1549552  25.7336074 120.5319282  91.6861557
  32.8866292 116.8289292  84.9989664  32.2440672 117.1221825  84.3529458
  32.3821220 116.7142212  85.8042860  30.5406455 120.5752465  75.6875523
  31.4524311 120.8079852  75.5123221  30.0316102 121.1589509  75.1250602
  23.3491883 122.8547952  90.7264654  24.0906568 123.3932996  90.4499478
  22.6428869 123.4814241  90.8836206  28.8247223 124.9977093  89.3236816
  29.2330579 124.5559503  88.5791448  28.1024484 124.4229720  89.5771008
  25.1778293 119.9349699  86.6970373  26.0239488 120.3589113  86.8405022
  25.1176931 119.2783324  87.3908936  29.1476038 125.5578283  83.0789104
  28.5184900 125.7223997  82.3765172  28.7601700 125.9719893  83.8500069
  33.0265270 126.4932721  80.4333468  32.3416308 126.8731623  79.8830502
  33.1109119 127.1028048  81.1665416  28.3277738 117.5954068  88.3551546
  28.0838670 118.3496128  87.8185822  28.6037669 117.9739415  89.1898793
  30.2816201 124.1392680  87.0328812  30.4933096 124.7824440  86.3563193
  30.2345949 123.3054997  86.5650742  27.8842430 116.7510501  83.9365384
  27.0226909 117.0491754  84.2282121  27.9104865 116.9680900  83.0046417
  24.7004000 125.2952691  80.3439190  25.1642345 125.5740394  79.5543812
  24.4360798 124.3936136  80.1612280  23.6372886 121.4175844  77.1528755
  24.3396929 121.8696887  77.6202681  23.3053514 120.7759663  77.7808648
  22.0853247 120.0087600  91.5279964  21.4551908 120.6903881  91.7615361
  21.9789335 119.8970682  90.5833102  17.3798220 119.6759396  82.4545888
  16.5897274 119.9316925  81.9785999  17.8709467 120.4907734  82.5597929
  31.3962029 127.0164636  85.2051169  32.2179473 126.6144823  84.9233851
  31.3924432 126.9132870  86.1567285  19.3312965 120.0403976  79.4129365
  18.5344128 120.1522670  79.9312861  19.1038557 120.3790628  78.5470255
  15.6635923 119.9289887  84.8860879  15.9143961 120.8136897  85.1518455
  16.1995471 119.7494488  84.1135971  39.4868022 123.3603384  81.5536141
  38.7331731 122.7910782  81.3980145  39.6215563 123.3266049  82.5006775
  21.3633990 114.3108366  93.8905215  20.9700935 113.7574565  94.5652859
  22.1800130 114.6218945  94.2811733  24.2801951 115.7266245  91.4825472
  25.0211664 116.3273398  91.4029934  24.5119874 114.9843883  90.9243514
  19.4243289 120.9122613  89.7603701  19.3096804 120.0107870  90.0610800
  18.5687807 121.1586309  89.4088518  28.2259114 111.7547348  85.7589753
  27.8823383 112.6448990  85.6828864  28.5938076 111.5649006  84.8959338
  28.1909396 121.7455959  74.2662189  27.6756020 122.5160564  74.5050576
  27.9186705 121.0721096  74.8895250  25.7756508 116.5905660  79.3247427
  24.9198104 116.2012511  79.1453066  26.1883459 116.6697621  78.4647212
  27.3055654 114.1252003  83.7238987  26.8020450 114.0882139  82.9106792
  27.5986261 115.0344746  83.7835643  23.5498540 114.2090733  82.7305168
  24.4151537 114.0133542  82.3711058  23.6176049 113.9801085  83.6574525
  33.1643671 124.4988314  76.2015362  32.3873113 124.1599474  75.7570524
  33.8435152 124.5040937  75.5270327  27.9795700 119.6183052  76.0921970
  27.6745835 119.9329201  76.9432113  28.9326142 119.6964471  76.1349303
  31.4034978 123.9722295  82.8581970  30.7458652 124.6621557  82.9462099
  32.2075377 124.3618727  83.2015956  21.1560859 116.4392941  80.1021535
  21.7304611 116.2168123  79.3694728  21.7431842 116.5081636  80.8550136
  30.2140436 122.3266668  80.9085912  30.7272318 122.9596660  81.4107621
  30.8641660 121.7267864  80.5429272  21.4830446 118.4697402  74.1217420
  20.6467758 118.8072089  74.4426695  21.3435216 118.3346382  73.1844557
  23.4583527 113.3134190  78.8296605  22.8047939 112.9983207  78.2053219
  23.4164001 112.6909930  79.5556428  24.5694732 123.5953485  70.7449897
  23.6621793 123.3642739  70.9441046  25.0665764 122.7991104  70.9323878
  26.6921267 119.8016124  83.1544252  25.7743829 120.0231071  82.9965940
  27.1081411 119.8762434  82.2955960  27.4756315 121.2007539  78.2846933
  28.2228134 121.7128936  77.9754055  27.7447904 120.8791592  79.1451326
  25.7482965 123.6966080  75.2673887  24.8394184 123.4125113  75.3646357
  25.7778049 124.1165159  74.4077194  30.9802233 127.3072669  79.0365054
  30.5264560 126.4663579  79.0930245  30.3496199 127.9434068  79.3739835
  29.9235152 118.2364655  80.2665722  29.1857909 117.7242042  80.5975964
  30.1761926 117.7965037  79.4548999  30.0246779 111.0140907  80.8607491
  30.3305656 110.1538271  80.5733406  30.7499384 111.6058528  80.6606485
  16.3171135 121.4171594  79.2489089  16.1195535 120.8240955  78.5240156
  15.7617799 121.1123804  79.9665028  24.2967859 121.3094701  81.3683682
  24.3516469 120.3568537  81.2926159  23.4859061 121.4654140  81.8524981
  25.4459053 125.2374824  72.6061965  25.0078483 124.5210683  72.1467603
  26.1869494 125.4650938  72.0447057  22.2360219 119.9271760  79.1274061
  21.4228085 120.2265931  79.5339253  22.7319213 119.5327449  79.8448543
  27.8334431 120.3913585  87.9588955  28.1883818 120.6185058  88.8183421
  28.4806562 120.7231962  87.3366210  33.5632168 123.5132021  78.6638284
  33.4250066 123.7033617  77.7359473  33.2068387 124.2751403  79.1206335
  21.7274294 117.4990116  84.7435296  22.3673673 117.3578875  84.0458259
  20.8951824 117.2124629  84.3673898  33.5901547 125.5808548  83.6749555
  34.0238054 125.4883837  84.5232609  34.3033128 125.5566048  83.0369571
  18.8117361 120.9435628  76.9330041  17.8814949 120.8820083  77.1500003
  18.9074833 120.4211581  76.1366682  18.7302910 117.4690441  79.5208283
  18.9909728 118.3835774  79.4117443  19.5520083 117.0014883  79.6704896
  20.2027836 118.8828198  86.6907107  20.8750889 118.6745560  86.0419756
  19.3757622 118.6850284  86.2512340  34.4517097 125.6232248  86.2082441
  34.6452987 126.5278059  86.4541716  34.3517715 125.1639667  87.0421026
  26.1053408 115.5090139  88.7072768  25.4581323 116.2080089  88.6137245
  26.8754423 115.9426283  89.0749016  29.5132206 125.7738991  91.7823321
  29.3617712 125.5449543  90.8653405  29.5036885 126.7309592  91.7954666
  26.2817542 123.3470904  86.7669588  27.2109602 123.4982063  86.5938555
  25.8608572 123.4354925  85.9118234  20.6055333 122.1570801  87.4509544
  20.4675131 121.4251040  88.0521084  21.5160256 122.0679701  87.1693732
  29.5670281 124.0959205  72.1994023  28.9499451 123.3706033  72.1027076
  29.0986769 124.8568566  71.8561097  23.2337634 121.8690760  86.9393224
  23.9437252 121.2283952  86.8979843  23.1906942 122.1203655  87.8619405
  21.9466567 118.8555978  88.7588864  21.4103924 118.4046717  89.4110460
  21.3583276 118.9901887  88.0159328  21.3568826 118.3144630  71.3215327
  20.4798293 118.1933430  70.9577574  21.8326580 117.5230708  71.0694216
  31.2241819 126.7697698  88.0913783  30.3368598 126.4323619  88.2140182
  31.7940371 126.0380729  88.3282548  17.6805689 117.9911986  85.8441858
  17.5963877 117.3837655  85.1092268  16.8588395 118.4821004  85.8451354
  27.8529403 116.4765549  81.2112053  28.3498102 115.7235512  80.8913123
  27.0816384 116.5129866  80.6455262  35.7059160 122.1805915  82.8530345
  35.6949036 123.0630630  82.4824278  34.8376539 121.8277466  82.6584882
  28.9359183 125.2337237  78.7850477  28.0015462 125.3538699  78.6155181
  29.1135852 124.3309703  78.5210486  24.4364371 118.6182932  80.9383738
  24.0662159 118.0653973  81.6264643  24.9323464 118.0141066  80.3858738
  32.3231735 121.0754556  79.3200511  32.7892187 121.9082547  79.2460813
  32.7739235 120.6099537  80.0245769  30.3907966 127.4198377  76.3186663
  30.6667810 127.3054972  77.2280537  29.5212464 127.0215862  76.2798836
  30.2948397 113.4435143  83.3591412  29.3811477 113.6739370  83.5273619
  30.7241499 113.5273587  84.2105444  30.0654856 121.6325035  85.8591306
  29.4126306 121.8800942  85.2043759  30.4435236 120.8189173  85.5253783
  26.1142429 122.3744846  92.3457343  25.4383066 122.2738975  93.0159718
  26.9370063 122.2184060  92.8093340  12.4538943 121.1822383  83.6874302
  12.4923042 120.6485973  84.4811420  11.9479236 120.6557588  83.0685279
  19.8329705 116.0286923  87.1836844  19.8971031 116.8901754  86.7714242
  19.7696825 115.4160925  86.4509202  19.3081978 118.1010056  90.8309878
  19.9354016 117.7187133  91.4447402  18.4509896 117.8824258  91.1965571
  16.0847520 119.9086485  76.7628233  16.3800961 118.9997163  76.7095287
  15.1835556 119.8874224  76.4409235  19.6141767 117.9842481  82.7455781
  18.8928353 118.5978449  82.6063255  20.4035023 118.5200246  82.6672427
  22.4168081 115.3196908  89.0196433  22.9402483 115.5659204  89.7822743
  22.1980414 116.1516943  88.5999571  17.8135362 117.5900582  76.8867558
  17.4848068 116.7097961  76.7042664  18.1674733 117.5348251  77.7743947
  20.9277185 117.8773552  77.2543036  21.2673258 118.4059474  76.5321644
  21.3749305 118.2153958  78.0301602  23.6220626 116.2610603  86.7046104
  23.2817446 115.4618416  87.1066784  22.9159632 116.5612314  86.1322937
  24.2737098 113.3459915  85.1573427  25.0963167 112.8720394  85.0352317
  24.5175161 114.1250399  85.6572113  22.9145332 116.3748174  75.4536328
  23.6353695 116.7529427  74.9500045  22.2910636 117.0937051  75.5571306
  27.0576455 117.0793323  76.3894661  27.2740069 117.9617961  76.0883489
  26.5770522 116.6879536  75.6600303  21.7975676 120.0379036  82.9665405
  21.6520257 120.3519339  83.8589687  21.3200880 120.6563936  82.4136304
  23.6572059 117.0281584  83.0146295  23.6433628 116.1322677  82.6778593
  24.3744487 117.0352248  83.6484581  25.5098190 117.4618924  85.0599422
  25.2515968 118.3835995  85.0583753  24.9783230 117.0649359  85.7499887
  23.0608955 115.9095964  78.2833865  23.1824866 114.9812611  78.4824753
  22.7710998 115.9234650  77.3712181  25.9300146 113.5950875  81.4200585
  25.9521842 113.6590208  80.4652565  26.3468205 112.7555383  81.6141091
  36.3083770 123.3306134  79.4579808  36.7514916 122.5813460  79.0598931
  35.4310280 123.3216271  79.0753540  17.0587360 121.7054277  88.7983223
  16.3169096 121.8536912  89.3847854  16.7380105 121.9662542  87.9349973
  33.3410974 127.3336181  76.4673737  33.8662298 127.6723454  75.7423057
  33.2533327 126.3983197  76.2836871  22.5450035 117.4227962  92.4923798
  22.5938190 118.2990084  92.1101567  23.0872549 116.8805355  91.9195441
  33.0304880 127.9669085  91.7724935  32.2400424 127.9493224  91.2329434
  32.7938235 128.5057379  92.5273971  33.1502756 124.8161551  89.0857663
  33.2000760 124.6511559  90.0273186  33.0416679 123.9488810  88.6955544
  30.4406518 120.7992479  90.4016970  31.3416381 120.6598944  90.1100968
  30.5154492 120.9646934  91.3415147  24.7749323 118.1759334  89.2470156
  23.9052633 118.4692900  88.9752745  25.0108804 118.7599779  89.9677420
  34.6520952 127.2358493  89.3299685  34.3605761 127.5988473  90.1663146
  34.0393084 126.5225501  89.1513017  35.8516635 124.8011373  81.8502255
  36.6863526 125.2401177  82.0139815  35.9875763 124.3250026  81.0310501
  32.9008141 122.3591107  87.7979743  33.3762262 122.5518754  86.9898594
  31.9773706 122.4150293  87.5523127  19.7891647 123.5215275  77.3810821
  19.5437689 122.6177605  77.5791031  19.9587562 123.5232425  76.4390299
  27.4788357 114.3938951  86.7635577  27.9970301 115.1299978  86.4382065
  27.1243490 114.7002944  87.5982336  19.0587295 119.2543632  74.8796983
  18.3656540 119.3287987  74.2237019  18.8139047 118.4903976  75.4018500
  27.7300951 110.8139234  82.2836473  28.0102705 110.1462423  82.9096900
  28.5151558 111.0068329  81.7711137  31.6009810 119.2356868  86.0308048
  32.5527232 119.3354965  86.0520272  31.4313260 118.4435136  86.5406133
  29.6224189 116.3212451  86.2167449  29.0274121 116.6017463  85.5213938
  29.3373886 116.8106352  86.9884190  34.0797887 122.4562987  85.1450348
  34.0474207 121.5178988  85.3310032  34.6898511 122.5347024  84.4116173
  25.9181218 121.3259040  71.1877552  26.8640323 121.1965248  71.2565970
  25.5395463 120.5873702  71.6646980  34.2292376 119.2474031  85.1908631
  33.7131424 118.4632487  85.0038560  35.1132324 118.9192747  85.3555151
  31.8903103 112.9915046  81.1504444  31.6927924 112.6830134  82.0347776
  32.5002808 113.7176685  81.2802374  39.8974437 123.5178994  84.2856385
  40.6277826 123.2564282  84.8464088  39.2881383 122.7807716  84.3258453
  37.9789734 121.6586857  84.8830836  37.2522898 121.5242822  84.2747328
  37.5637021 121.9663685  85.6887554  25.8019911 125.3776786  92.6478209
  26.7222920 125.5555385  92.8418256  25.7669494 124.4332832  92.4957908
  24.1024135 119.2509017  71.1232437  23.1955591 118.9542129  71.1995151
  24.3800116 118.9538835  70.2566724  15.0202076 120.5715380  81.5731484
  14.7004860 119.7180688  81.2805858  14.4735504 120.7863958  82.3289451
  25.7186201 113.7945906  77.2776679  24.9086929 113.4492991  77.6531925
  26.4070618 113.4853450  77.8664290  27.6476749 112.8723953  78.9000975
  28.2007788 113.2919407  79.5590998  27.8846836 111.9459701  78.9423931
  23.6709849 118.8611027  94.6803739  23.5706576 119.8105384  94.6115830
  23.4531391 118.5329266  93.8079809  22.8722920 116.1095952  71.2644417
  23.7342084 116.4350850  71.5240234  23.0573264 115.3227448  70.7517482
  31.0255556 114.9824478  78.4079640  30.4454226 115.6409282  78.0257692
  30.7591489 114.1601823  77.9967057  29.4759123 114.3829536  80.6100960
  29.9758901 114.4946071  79.8015279  30.1194731 114.0790589  81.2501768
  23.5341119 122.2908166  93.4968801  23.0508200 123.0908526  93.7032690
  23.6202058 122.3016110  92.5436245  29.8080434 117.1424569  77.4635988
  28.9206290 117.4274219  77.2456183  30.2234424 116.9818332  76.6163265
  33.1594971 117.1671090  81.1790327  33.9355361 117.6567542  81.4514944
  32.4343105 117.5929144  81.6362197  35.5967529 117.8798709  82.2364268
  36.1912020 117.6394445  81.5257576  35.6694113 117.1605839  82.8637804
  29.7821458 122.6579105  77.6786278  29.7256660 123.1147656  76.8393910
  30.3349801 121.8969789  77.5009121  33.5926264 118.4468836  78.5036397
  33.3363198 118.0465472  79.3344605  32.9679132 119.1612630  78.3786537
  37.9038602 121.1864910  81.0107689  37.3438160 121.2558099  81.7839251
  37.2982105 121.0105894  80.2907185  30.8610345 127.3451773  73.6082468
  31.6955949 126.9132971  73.4259943  30.6994688 127.1733786  74.5359362
  30.5156238 123.8483886  74.9738807  30.4605041 123.6828157  74.0327251
  29.8902293 124.5559919  75.1300997  15.3048753 119.0851950  88.8000229
  15.9507616 118.5750904  89.2887455  15.0965904 119.8220632  89.3743655
  27.8302145 126.1532798  94.2992370  28.6993304 126.3273450  93.9379005
  27.3508896 126.9727215  94.1768099  23.8252363 113.3491995  74.5524126
  23.8131033 114.2933835  74.7092396  24.7175785 113.1662140  74.2583587
  27.6404482 109.9434771  78.8070062  26.8736878 109.3893258  78.9526745
  28.0515187 110.0156640  79.6684214  19.6446244 116.2319567  92.8975244
  20.5077705 115.8756372  93.1078568  19.0711654 115.8933462  93.5850648
  41.9669736 129.2369685  86.1418440  41.6353061 130.1065096  85.9179655
  41.3715350 128.9205969  86.8212470  43.7260046 132.1581209  84.9989664
  43.0834426 132.4513743  84.3529458  43.2214975 132.0434130  85.8042860
  39.0652868 127.0839266  85.7589753  38.7217138 127.9740908  85.6828864
  39.4331831 126.8940924  84.8959338  38.1449409 129.4543921  83.7238987
  37.6414204 129.4174056  82.9106792  38.4380015 130.3636664  83.7835643
  34.2977281 128.6426108  78.8296605  33.6441694 128.3275125  78.2053219
  34.2557755 128.0201848  79.5556428  40.8640534 126.3432825  80.8607491
  41.1699411 125.4830189  80.5733406  41.5893139 126.9350445  80.6606485
  41.1342152 128.7727061  83.3591412  40.2205232 129.0031287  83.5273619
  41.5635253 128.8565505  84.2105444  35.1130852 128.6751833  85.1573427
  35.9356921 128.2012311  85.0352317  35.3568916 129.4542317  85.6572113
  36.7693900 128.9242792  81.4200585  36.7915597 128.9882126  80.4652565
  37.1861959 128.0847301  81.6141091  38.3182112 129.7230869  86.7635577
  38.8364055 130.4591896  86.4382065  37.9637244 130.0294862  87.5982336
  38.5694706 126.1431151  82.2836473  38.8496459 125.4754340  82.9096900
  39.3545313 126.3360247  81.7711137  42.7296857 128.3206964  81.1504444
  42.5321678 128.0122052  82.0347776  43.3396563 129.0468603  81.2802374
  36.5579956 129.1237824  77.2776679  35.7480684 128.7784909  77.6531925
  37.2464373 128.8145368  77.8664290  38.4870504 128.2015871  78.9000975
  39.0401542 128.6211324  79.5590998  38.7240590 127.2751619  78.9423931
  41.8649311 130.3116396  78.4079640  41.2847980 130.9701200  78.0257692
  41.5985244 129.4893741  77.9967057  40.3152877 129.7121454  80.6100960
  40.8152656 129.8237988  79.8015279  40.9588485 129.4082507  81.2501768
  46.4361284 133.2090627  82.2364268  47.0305775 132.9686362  81.5257576
  46.5087867 132.4897757  82.8637804  38.4798237 125.2726689  78.8070062
  37.7130633 124.7185176  78.9526745  38.8908942 125.3448558  79.6684214
   6.9686760  54.3789754  68.2781447   6.2150468  53.8097152  68.1225452
   7.1034301  54.3452418  69.2252082   1.0450905  54.5318390  65.3883591
   0.9068804  54.7219986  64.4604780   0.6887124  55.2937773  65.8451642
   1.0720285  56.5994917  70.3994862   1.5056792  56.5070206  71.2477916
   1.7851866  56.5752418  69.7614878   1.9335835  56.6418618  72.9327747
   2.1271725  57.5464428  73.1787022   1.8336453  56.1826037  73.7666333
   3.1877898  53.1992284  69.5775651   3.1767774  54.0817000  69.2069584
   2.3195277  52.8463835  69.3830188   3.7902508  54.3492504  66.1825114
   4.2333654  53.5999829  65.7844237   2.9129018  54.3402640  65.7998846
   0.8229712  58.3522551  63.1919043   1.3481036  58.6909824  62.4668363
   0.7352065  57.4169566  63.0082178   0.6321493  55.8347921  75.8102970
   0.6819498  55.6697928  76.7518493   0.5235417  54.9675180  75.4200851
   2.1339690  58.2544862  76.0544992   1.8424498  58.6174843  76.8908452
   1.5211821  57.5411871  75.8758324   3.3335372  55.8197742  68.5747562
   4.1682264  56.2587546  68.7385122   3.4694501  55.3436395  67.7555807
   1.5616625  53.4749357  71.8695655   1.5292945  52.5365358  72.0555339
   2.1717249  53.5533394  71.1361480   1.7111114  50.2660400  71.9153938
   1.1950162  49.4818857  71.7283867   2.5951062  49.9379117  72.0800457
   7.3793175  54.5365364  71.0101692   8.1096563  54.2750652  71.5709395
   6.7700120  53.7994086  71.0503760   5.4608472  52.6773226  71.6076143
   4.7341636  52.5429191  70.9992634   5.0455759  52.9850055  72.4132861
   3.0786267  48.8985078  68.9609574   3.6730758  48.6580814  68.2502883
   3.1512851  48.1792209  69.5883111   1.0745002  49.4655206  65.2281704
   0.8181936  49.0651842  66.0589912   0.4497870  50.1799000  65.1031843
   5.3857340  52.2051279  67.7352996   4.8256898  52.2744469  68.5084558
   4.7800843  52.0292264  67.0152492   6.9713358  68.8807793  70.4282951
   7.6091768  68.7614541  69.7246291   6.8534201  69.8288637  70.4870903
   3.7803065  68.8335221  70.3644476   3.4421576  68.7176286  69.4765011
   4.6492833  68.4326386  70.3445482   4.2622848  69.9870073  76.3230681
   4.2511488  69.5922871  75.4511185   4.4243487  69.2536146  76.9164453
   5.2189439  74.3541665  61.6655832   4.5677419  74.9395746  61.2789846
   6.0133802  74.8847860  61.7250869   0.9830109  72.7707185  75.2709865
   0.6919975  73.6752816  75.1556532   1.6187093  72.8123712  75.9853935
   1.9086316  70.1484033  71.8611225   2.5049888  69.9240056  71.1468188
   1.9661287  69.4068779  72.4636673   1.4811344  67.6023469  59.6961416
   1.7336865  67.0804990  58.9344879   0.5435903  67.4389614  59.7988100
   6.5254627  66.6059247  67.5036159   7.3117716  66.1878670  67.1526576
   6.7893331  67.5105339  67.6717808   6.6964704  72.0432097  62.2024816
   6.0610537  72.1166724  62.9145721   6.3662111  72.6325696  61.5243895
  11.9263054  66.5434480  68.4069138  12.6588226  65.9733697  68.6406967
  11.1702410  66.1556081  68.8475643   1.2007633  69.5051575  61.8985791
   1.0843891  68.8296478  62.5666875   1.3109893  69.0183949  61.0817944
   3.5439174  68.9661722  65.6032480   3.1797381  68.4392343  66.3145402
   4.4006290  68.5760191  65.4298966   9.4488474  60.2556054  72.8663746
   9.1171799  61.1251465  72.6424961   8.8534088  59.9392338  73.5457777
   3.1844661  63.9951621  60.5993829   3.3519063  64.8631858  60.9664300
   2.9941830  64.1578903  59.6755118   5.9419994  72.4568600  72.2659659
   5.6420717  73.3593639  72.1575466   5.5971053  72.1900784  73.1180812
   9.3417138  64.9751141  69.9457096   8.4334015  64.9066549  69.6515857
   9.2904733  65.4523085  70.7738922   3.1633881  66.4509279  61.5840496
   3.0433507  66.8966330  62.4225976   2.4686470  66.7994597  61.0254034
   3.4158003  66.3940786  77.8891994   2.6391337  66.9534706  77.8794858
   4.0548566  66.8797569  78.4106864  11.2078784  63.1767579  71.7234970
  10.5653164  63.4700112  71.0774765  10.7033712  63.0620499  72.5288167
   8.8618948  66.9230752  62.4120830   9.7736804  67.1558139  62.2368527
   8.3528595  67.5067796  61.8495908   1.6704376  69.2026239  77.4509961
   2.4119060  69.7411283  77.1744784   0.9641361  69.8292528  77.6081513
   7.1459715  71.3455380  76.0482122   7.5543071  70.9037790  75.3036755
   6.4236977  70.7708007  76.3016315   3.4990785  66.2827987  73.4215679
   4.3451981  66.7067400  73.5650328   3.4389423  65.6261611  74.1154242
   7.4688530  71.9056571  69.8034411   6.8397392  72.0702285  69.1010479
   7.0814192  72.3198180  70.5745375  11.3477762  72.8411008  67.1578775
  10.6628800  73.2209910  66.6075808  11.4321611  73.4506335  67.8910723
   6.6490231  63.9432355  75.0796853   6.4051163  64.6974416  74.5431128
   6.9250161  64.3217703  75.9144100   8.6028693  70.4870967  73.7574118
   8.8145589  71.1302727  73.0808499   8.5558442  69.6533284  73.2896048
   6.2054922  63.0988788  70.6610691   5.3439401  63.3970042  70.9527428
   6.2317357  63.3159187  69.7291723   3.0216492  71.6430979  67.0684496
   3.4854837  71.9218682  66.2789119   2.7573290  70.7414423  66.8857587
   1.9585378  67.7654131  63.8774061   2.6609421  68.2175175  64.3447988
   1.6266006  67.1237950  64.5053954   9.7174521  73.3642923  71.9296476
  10.5391965  72.9623110  71.6479157   9.7136924  73.2611157  72.8812592
   3.4831125  72.9126966  74.0857186   3.5475557  73.3747373  74.9215358
   2.7742049  72.2824331  74.2139496  17.8080514  69.7081671  68.2781447
  17.0544223  69.1389069  68.1225452  17.9428056  69.6744336  69.2252082
   3.1979142  74.5795074  63.9536167   3.0624817  75.4246609  64.3821014
   3.7388955  74.7814351  63.1902100   2.6014443  62.0744533  78.2070778
   3.3424156  62.6751686  78.1275241   2.8332366  61.3322170  77.6488821
   4.8247619  75.2018640  78.0836509   4.3811473  74.4155019  77.7657413
   5.4864832  75.3897791  77.4180399   6.9228857  75.4821440  76.1117910
   6.9047332  76.3030321  75.6198179   7.8448777  75.3575515  76.3368051
   3.3801911  72.9965570  76.9541418   3.9130248  72.2353858  76.7240726
   2.8515992  72.7039221  77.6965573   6.5471606  58.1025636  72.4835060
   6.2035875  58.9927277  72.4074171   6.9150569  57.9127293  71.6204645
   6.5121889  68.0934247  60.9907495   5.9968512  68.8638851  61.2295883
   6.2399197  67.4199383  61.6140557   4.0969000  62.9383947  66.0492734
   3.2410596  62.5490798  65.8698372   4.5095952  63.0175908  65.1892519
   5.6268146  60.4730291  70.4484293   5.1232942  60.4360426  69.6352099
   5.9198753  61.3823033  70.5080950   1.8711032  60.5569020  69.4550475
   2.7364029  60.3611829  69.0956364   1.9388541  60.3279372  70.3819832
  11.4856163  70.8466601  62.9260669  10.7085606  70.5077761  62.4815831
  12.1647644  70.8519224  62.2515634   6.3008192  65.9661339  62.8167276
   5.9958327  66.2807488  63.6677420   7.2538634  66.0442759  62.8594609
   4.7454624  72.1251562  64.4660230   4.2175985  71.3904322  64.1533468
   4.2442126  72.9026238  64.2200199   9.7247470  70.3200583  69.5827277
   9.0671144  71.0099844  69.6707405  10.5287869  70.7097014  69.9261263
   8.5352929  68.6744955  67.6331218   9.0484810  69.3074947  68.1352928
   9.1854152  68.0746151  67.2674578   1.7796019  59.6612477  65.5541911
   1.1260431  59.3461494  64.9298526   1.7376493  59.0388218  66.2801734
   2.8907224  69.9431772  57.4695203   1.9834286  69.7121026  57.6686352
   3.3878256  69.1469392  57.6569185   5.7975303  78.6529280  60.3891889
   5.1237002  78.9560976  60.9976847   6.1841125  79.4558360  60.0397347
   5.0133759  66.1494411  69.8789559   4.0956321  66.3709358  69.7211247
   5.4293903  66.2240721  69.0201266   5.7968807  67.5485826  65.0092239
   6.5440626  68.0607224  64.6999361   6.0660397  67.2269879  65.8696633
   4.0695457  70.0444367  61.9919193   3.1606677  69.7603400  62.0891663
   4.0990541  70.4643446  61.1322500   9.3014725  73.6550957  65.7610361
   8.8477052  72.8141867  65.8175551   8.6708692  74.2912355  66.0985141
   8.2447644  64.5842943  66.9911028   7.5070401  64.0720329  67.3221271
   8.4974418  64.1443324  66.1794305   7.7447664  75.4927453  66.6960179
   8.0370638  76.0532510  65.9772545   8.2546285  75.7856014  67.4513338
   8.3459272  57.3619195  67.5852798   8.6518148  56.5016558  67.2978713
   9.0711876  57.9536815  67.3851792   2.6180351  67.6572988  68.0928989
   2.6728961  66.7046824  68.0171465   1.8071553  67.8132427  68.5770287
   3.7671545  71.5853111  59.3307272   3.3290975  70.8688970  58.8712909
   4.5081986  71.8129226  58.7692363   2.7081289  76.2707804  67.7853632
   2.6657468  76.4968651  66.8562164   3.6243988  76.0371179  67.9339433
   6.1546923  66.7391872  74.6834262   6.5096311  66.9663345  75.5428727
   6.8019054  67.0710249  74.0611517  11.8844660  69.8610308  65.3883591
  11.7462559  70.0511904  64.4604780  11.5280879  70.6229691  65.8451642
  11.9114040  71.9286835  70.3994862  12.3450546  71.8362124  71.2477916
  12.6245620  71.9044335  69.7614878   5.6441934  75.5288929  71.9327963
   5.6978957  76.0979865  72.7005679   4.7756716  75.6990814  71.5682000
  12.7729589  71.9710536  72.9327747  12.9665479  72.8756346  73.1787022
  12.6730207  71.5117955  73.7666333   4.4265900  61.8568426  75.4318075
   3.7793815  62.5558376  75.3382551   5.1966915  62.2904570  75.7994323
   7.8344698  72.1217278  78.5068628   7.6830204  71.8927830  77.5898712
   7.8249377  73.0787880  78.5199973   4.6030034  69.6949191  73.4914895
   5.5322094  69.8460351  73.3183862   4.1821064  69.7833212  72.6363541
   3.4018366  73.7199855  71.2613432   3.2629452  73.3518640  72.1339370
   2.6132962  74.2347495  71.0897390   3.9966518  78.8208952  62.6038969
   4.1718274  78.3496995  63.4184591   3.3099306  79.4474718  62.8320229
   4.9523581  73.0981458  68.6502270   4.6173414  73.0582228  69.5459920
   4.4527527  72.4326174  68.1772680   7.8882773  70.4437493  58.9239330
   7.2711943  69.7184321  58.8272382   7.4199261  71.2046853  58.5806404
   1.5550126  68.2169048  73.6638531   2.2649744  67.5762240  73.6225149
   1.5119434  68.4681942  74.5864712   9.5436904  75.1536401  76.5845110
   9.4849451  74.4695621  75.9175693   9.9456423  75.8955391  76.1325736
   9.5454312  73.1175985  74.8159090   8.6581090  72.7801907  74.9385488
  10.1152863  72.3859016  75.0527855   3.0755465  77.7777437  71.7820333
   3.0025637  78.5832409  72.2939637   2.6332858  77.9769403  70.9568354
   2.8645245  77.0149207  65.2923154   2.0812767  77.5570887  65.3861379
   3.5637990  77.5323187  65.6917396   6.1741895  62.8243837  67.9357360
   6.6710594  62.0713799  67.6158430   5.4028876  62.8608153  67.3700569
  14.0271652  68.5284202  69.5775651  14.0161529  69.4108918  69.2069584
  13.1589032  68.1755753  69.3830188   5.5354149  77.6764271  73.9378491
   6.2482121  78.3111736  73.8654393   5.0444177  77.7728137  73.1218493
   7.2571676  71.5815524  65.5095783   6.3227954  71.7016986  65.3400487
   7.4348344  70.6787991  65.2455793   2.7576864  64.9661220  67.6629044
   2.3874651  64.4132260  68.3509950   3.2535956  64.3619353  67.1104044
  10.6444227  67.4232843  66.0445817  11.1104679  68.2560835  65.9706120
  11.0951727  66.9577825  66.7491076   8.7120458  73.7676664  63.0431969
   8.9880302  73.6533259  63.9525843   7.8424957  73.3694149  63.0044142
   8.6160890  59.7913430  70.0836719   7.7023969  60.0217657  70.2518926
   9.0453991  59.8751874  70.9350751   8.3867348  67.9803322  72.5836613
   7.7338798  68.2279230  71.9289065   8.7647728  67.1667460  72.2499090
   5.3474522  78.0163015  66.6864783   5.5296917  77.1984671  67.1492535
   6.1707508  78.2330708  66.2489673   5.6816688  76.9431200  63.9479831
   6.2104454  76.4323655  63.3349994   5.9444907  76.6273731  64.8125364
   4.4354921  68.7223133  79.0702650   3.7595558  68.6217262  79.7405025
   5.2582555  68.5662347  79.5338647   3.1777704  80.0290061  73.3060266
   3.7296012  80.1921682  74.0709351   3.5183898  80.6194498  72.6340291
   8.0288578  74.8551318  79.1608920   8.5728482  75.4681276  78.6663875
   7.4475423  75.4130897  79.6775933   6.3146091  77.9772036  70.2923948
   6.1897231  77.1761776  69.7834893   6.9725182  78.4718229  69.8037918
   8.3781000  75.7781056  71.9203498   7.4311335  75.6586407  71.8481825
   8.7263773  74.8903554  72.0029759   0.7380573  61.6675195  75.7441740
   1.2614975  61.9137492  76.5068049   0.5192906  62.4995230  75.3244877
   5.3827433  75.5733772  68.1207850   5.2352395  74.6450480  68.3015420
   6.2080927  75.5953863  67.6364925   8.9861555  76.3962331  69.2072723
   9.9108102  76.1905192  69.0697174   8.8176858  76.1478732  70.1162064
   1.9433118  62.6088890  73.4291410   1.6029938  61.8096703  73.8312090
   1.2372124  62.9090601  72.8568244   2.5949590  59.6938203  71.8818733
   3.4175659  59.2198681  71.7597624   2.8387653  60.4728686  72.3817420
   1.2357824  62.7226461  62.1781635   1.9566187  63.1007714  61.6745352
   0.6123129  63.4415338  62.2816613   5.3788947  63.4271610  63.1139967
   5.5952562  64.3096248  62.8128796   4.8983014  63.0357823  62.3845609
   1.9784552  63.3759871  69.7391602   1.9646120  62.4800965  69.4023900
   2.6956980  63.3830535  70.3729888   3.8310682  63.8097211  71.7844729
   3.5728460  64.7314282  71.7829059   3.2995723  63.4127646  72.4745193
   8.7756871  76.9147999  64.5634814   8.9493749  76.3494421  63.8108667
   9.2685762  77.7148893  64.3814304   1.3821448  62.2574252  65.0079172
   1.5037359  61.3290898  65.2070059   1.0923490  62.2712938  64.0957487
   4.2512638  59.9429162  68.1445892   4.2734335  60.0068495  67.1897871
   4.6680697  59.1033671  68.3386398  14.6296262  69.6784422  66.1825114
  15.0727408  68.9291747  65.7844237  13.7522773  69.6694558  65.7998846
   9.7632044  76.2314763  61.6631713  10.4582948  76.8521456  61.8819027
  10.1055194  75.3810114  61.9384091  11.6623467  73.6814469  63.1919043
  12.1874791  74.0201741  62.4668363  11.5745819  72.7461484  63.0082178
   3.3243515  77.5948542  75.3208920   3.6330642  77.3497689  76.1931620
   4.1218997  77.7995181  74.8327790   3.3464127  79.7486452  67.5514297
   2.9069118  79.2562831  68.2447153   4.0972244  79.2059419  67.3106372
   0.8662527  63.7706249  79.2169104   0.9150683  64.6468372  78.8346874
   1.4085041  63.2283642  78.6440748  11.3517373  74.3147372  78.4970241
  10.5612916  74.2971511  77.9574741  11.1150727  74.8535666  79.2519278
  11.4715248  71.1639839  75.8102970  11.5213253  70.9989846  76.7518493
  11.3629171  70.2967098  75.4200851   8.7619010  67.1470767  77.1262277
   9.6628873  67.0077231  76.8346274   8.8366985  67.3125221  78.0660454
   3.0961815  64.5237621  75.9715463   2.2265125  64.8171187  75.6998052
   3.3321296  65.1078066  76.6922727  12.9733445  73.5836780  76.0544992
  12.6818253  73.9466761  76.8908452  12.3605576  72.8703788  75.8758324
  14.1729127  71.1489660  68.5747562  15.0076018  71.5879464  68.7385122
  14.3088256  70.6728313  67.7555807  11.2220633  68.7069395  74.5225049
  11.6974754  68.8997041  73.7143901  10.2986198  68.7628581  74.2768433
   5.8000849  60.7417238  73.4880883   6.3182793  61.4778265  73.1627372
   5.4455982  61.0481232  74.3227643   6.0513443  57.1617521  69.0081780
   6.3315197  56.4940710  69.6342207   6.8364050  57.3546616  68.4956444
   3.8546912  76.3376515  60.5706806   3.2820879  76.9566702  60.1177278
   4.4279706  76.8875876  61.1046728   9.9222302  65.5835155  72.7553355
  10.8739725  65.6833252  72.7765579   9.7525752  64.7913423  73.2651439
   7.9436681  62.6690738  72.9412756   7.3486613  62.9495751  72.2459245
   7.6586378  63.1584639  73.7129497   7.0744172  76.6213665  61.7015389
   8.0074845  76.5559227  61.9048264   6.9867385  77.4569932  61.2429921
   9.7032188  75.9379535  58.6619336   9.6245820  75.6039399  59.5555094
  10.5241855  76.4301303  58.6610808  12.4010380  68.8041274  71.8695655
  12.3686700  67.8657275  72.0555339  13.0111003  68.8825311  71.1361480
   4.2393710  67.6737327  57.9122859   5.1852815  67.5443536  57.9811277
   3.8607955  66.9351989  58.3892287  12.5504868  65.5952318  71.9153938
  12.0343917  64.8110775  71.7283867  13.4344817  65.2671035  72.0800457
  10.2115595  59.3393333  67.8749751  10.0140416  59.0308422  68.7593083
  10.8215301  60.0654972  68.0047680  18.2186929  69.8657281  71.0101692
  18.9490318  69.6042569  71.5709395  17.6093875  69.1286003  71.0503760
  16.3002227  68.0065144  71.6076143  15.5735390  67.8721109  70.9992634
  15.8849513  68.3141973  72.4132861   4.1232403  71.7255074  79.3723516
   5.0435412  71.9033673  79.5663562   4.0881986  70.7811119  79.2203215
   2.4236628  65.5987304  57.8477744   1.5168083  65.3020417  57.9240458
   2.7012609  65.3017122  56.9812030   4.0398693  60.1424194  64.0021985
   3.2299422  59.7971279  64.3777231   4.7283110  59.8331737  64.5909597
   5.9689242  59.2202240  65.6246282   6.5220280  59.6397694  66.2836305
   6.2059328  58.2937988  65.6669238   1.9922341  65.2089314  81.4049046
   1.8919068  66.1583671  81.3361137   1.7743883  64.8807553  80.5325116
   1.1935412  62.4574239  57.9889723   2.0554576  62.7829137  58.2485541
   1.3785756  61.6705735  57.4762789   9.3468049  61.3302766  65.1324946
   8.7666718  61.9887570  64.7502999   9.0803981  60.5080110  64.7212364
   7.7971615  60.7307823  67.3346267   8.2971393  60.8424358  66.5260585
   8.4407223  60.4268876  67.9747075   1.8553611  68.6386453  80.2214108
   1.3720693  69.4386813  80.4277997   1.9414550  68.6494398  79.2681551
   8.1292927  63.4902856  64.1881294   7.2418782  63.7752507  63.9701489
   8.5446916  63.3296619  63.3408571  11.4807463  63.5149377  67.9035634
  12.2567853  64.0045829  68.1760251  10.7555597  63.9407431  68.3607503
  13.9180022  64.2276996  68.9609574  14.5124512  63.9872732  68.2502883
  13.9906605  63.5084127  69.5883111   7.2736140  73.2547531  58.2829314
   7.9771990  73.4597533  58.8986970   6.5498789  73.8224292  58.5478398
   8.1033951  69.0057392  64.4031585   8.0469152  69.4625943  63.5639217
   8.6562293  68.2448076  64.2254427  11.9138756  64.7947124  65.2281704
  11.6575691  64.3943759  66.0589912  11.2891624  65.5090918  65.1031843
  16.2251094  67.5343197  67.7352996  15.6650652  67.6036386  68.5084558
  15.6194598  67.3584182  67.0152492   9.1822838  73.6930060  60.3327775
  10.0168442  73.2611258  60.1505249   9.0207181  73.5212073  61.2604669
   8.8368730  70.1962173  61.6984114   8.7817534  70.0306445  60.7572558
   8.2114785  70.9038206  61.8546304   6.1514637  72.5011085  81.0237677
   7.0205797  72.6751737  80.6624312   5.6721388  73.3205502  80.9013406
   2.1464855  59.6970282  61.2769432   2.1343525  60.6412122  61.4337703
   3.0388277  59.5140427  60.9828893   2.0754419  78.3739172  69.3637189
   1.1250050  78.3741034  69.2501561   2.3786905  77.6271907  68.8473223
   5.9616975  56.2913059  65.5315369   5.1949371  55.7371545  65.6772051
   6.3727680  56.3634927  66.3929521  17.8107113  84.2099711  70.4282951
  18.4485523  84.0906458  69.7246291  17.6927956  85.1580555  70.4870903
  14.6196819  84.1627139  70.3644476  14.2815331  84.0468204  69.4765011
  15.4886587  83.7618304  70.3445482  10.4783635  86.0162615  66.3541367
   9.9148500  85.9252552  65.5857655  10.3636030  85.1962520  66.8343859
  15.1016602  85.3161991  76.3230681  15.0905243  84.9214789  75.4511185
  15.2637241  84.5828063  76.9164453   8.0248067  87.5113807  69.1925587
   8.8169359  87.1704632  68.7771887   8.2644717  87.6208782  70.1127741
  16.0583193  89.6833583  61.6655832  15.4071173  90.2687664  61.2789846
  16.8527556  90.2139778  61.7250869   9.9838821  86.7722720  62.0642966
  10.7569697  86.2251707  61.9255842  10.3364219  87.6366970  62.2757428
  11.8223863  88.0999103  75.2709865  11.5313729  89.0044733  75.1556532
  12.4580848  88.1415630  75.9853935  12.7480070  85.4775951  71.8611225
  13.3443642  85.2531973  71.1468188  12.8055042  84.7360697  72.4636673
  12.3205098  82.9315386  59.6961416  12.5730619  82.4096908  58.9344879
  11.3829657  82.7681532  59.7988100  17.3648381  81.9351165  67.5036159
  18.1511470  81.5170588  67.1526576  17.6287086  82.8397257  67.6717808
  17.5358459  87.3724015  62.2024816  16.9004292  87.4458642  62.9145721
  17.2055865  87.9617614  61.5243895  22.7656808  81.8726398  68.4069138
  23.4981980  81.3025615  68.6406967  22.0096164  81.4847998  68.8475643
  12.0401387  84.8343492  61.8985791  11.9237645  84.1588396  62.5666875
  12.1503647  84.3475866  61.0817944  14.3832928  84.2953639  65.6032480
  14.0191135  83.7684260  66.3145402  15.2400044  83.9052108  65.4298966
  20.2882229  75.5847972  72.8663746  19.9565553  76.4543383  72.6424961
  19.6927842  75.2684256  73.5457777  14.0238415  79.3243539  60.5993829
  14.1912817  80.1923776  60.9664300  13.8335584  79.4870821  59.6755118
  16.7813748  87.7860518  72.2659659  16.4814471  88.6885557  72.1575466
  16.4364808  87.5192701  73.1180812  10.2326230  84.2374315  68.2996364
   9.3076726  84.1050529  68.5074055  10.4810643  85.0168534  68.7966306
  20.1810892  80.3043058  69.9457096  19.2727769  80.2358467  69.6515857
  20.1298488  80.7815003  70.7738922  14.0027636  81.7801197  61.5840496
  13.8827261  82.2258247  62.4225976  13.3080224  82.1286514  61.0254034
   7.5935041  83.8807588  69.1340153   7.7227422  84.1342067  70.0479564
   6.9132492  84.4735296  68.8144808  11.7634528  94.5504838  65.2330627
  11.6858558  95.5012663  65.3119107  11.1596172  94.2050711  65.8905553
  14.2551758  81.7232704  77.8891994  13.4785092  82.2826624  77.8794858
  14.8942321  82.2089487  78.4106864  22.0472538  78.5059497  71.7234970
  21.4046919  78.7992030  71.0774765  21.5427467  78.3912417  72.5288167
  19.7012702  82.2522670  62.4120830  20.6130558  82.4850057  62.2368527
  19.1922349  82.8359714  61.8495908  12.5098130  84.5318157  77.4509961
  13.2512814  85.0703201  77.1744784  11.8035116  85.1584446  77.6081513
  17.9853470  86.6747298  76.0482122  18.3936826  86.2329708  75.3036755
  17.2630731  86.0999925  76.3016315  14.3384540  81.6119904  73.4215679
  15.1845735  82.0359318  73.5650328  14.2783177  80.9553529  74.1154242
  18.3082284  87.2348488  69.8034411  17.6791147  87.3994202  69.1010479
  17.9207946  87.6490098  70.5745375  22.1871516  88.1702926  67.1578775
  21.5022554  88.5501827  66.6075808  22.2715366  88.7798253  67.8910723
  17.4883985  79.2724273  75.0796853  17.2444917  80.0266333  74.5431128
  17.7643916  79.6509620  75.9144100  19.4422448  85.8162885  73.7574118
  19.6539343  86.4594645  73.0808499  19.3952196  84.9825202  73.2896048
  17.0448677  78.4280706  70.6610691  16.1833156  78.7261959  70.9527428
  17.0711112  78.6451105  69.7291723  13.8610246  86.9722896  67.0684496
  14.3248592  87.2510599  66.2789119  13.5967044  86.0706341  66.8857587
  10.7534327  86.5194378  70.0064259  11.3235684  86.9481646  69.3681744
  11.3442439  86.2376963  70.7048445  12.7979132  83.0946049  63.8774061
  13.5003176  83.5467092  64.3447988  12.4659761  82.4529868  64.5053954
  11.2459494  81.6857805  78.2525271  10.6158154  82.3674086  78.4860668
  11.1395582  81.5740887  77.3078409   6.5404466  81.3529601  69.1791195
   5.7503520  81.6087130  68.7031306   7.0315714  82.1677939  69.2843235
  20.5568276  88.6934841  71.9296476  21.3785720  88.2915028  71.6479157
  20.5530679  88.5903075  72.8812592   8.4919212  81.7174181  66.1374672
   7.6950375  81.8292875  66.6558167   8.2644804  82.0560833  65.2715562
  14.3224879  88.2418884  74.0857186  14.3869312  88.7039291  74.9215358
  13.6135803  87.6116249  74.2139496   4.8242169  81.6060092  71.6106186
   5.0750208  82.4907102  71.8763762   5.3601718  81.4264693  70.8381278
  28.6474269  85.0373589  68.2781447  27.8937977  84.4680987  68.1225452
  28.7821810  85.0036254  69.2252082  14.0372897  89.9086991  63.9536167
  13.9018572  90.7538527  64.3821014  14.5782709  90.1106269  63.1902100
  10.5240237  75.9878571  80.6150522  10.1307182  75.4344770  81.2898166
  11.3406377  76.2989150  81.0057039   7.4902294  87.4262429  64.5264092
   8.0026815  88.2205680  64.6769656   8.1425007  86.7288720  64.4597693
   9.2997179  90.5428186  66.6086845   9.4763807  91.4646150  66.4207829
  10.0954013  90.2286605  67.0381225  13.4408198  77.4036450  78.2070778
  14.1817911  78.0043603  78.1275241  13.6726120  76.6614088  77.6488821
   8.5849536  82.5892818  76.4849008   8.4703051  81.6878075  76.7856107
   7.7294053  82.8356514  76.1333825  15.6641373  90.5310558  78.0836509
  15.2205228  89.7446936  77.7657413  16.3258587  90.7189708  77.4180399
  10.4228495  92.0606359  72.6097187  10.9735920  91.9323423  71.8374181
   9.5839970  92.3601248  72.2592080  17.7622611  90.8113358  76.1117910
  17.7441087  91.6322239  75.6198179  18.6842531  90.6867433  76.3368051
  14.2195666  88.3257487  76.9541418  14.7524002  87.5645775  76.7240726
  13.6909747  88.0331139  77.6965573  17.3865361  73.4317553  72.4835060
  17.0429630  74.3219195  72.4074171  17.7544323  73.2419211  71.6204645
   5.4551211  85.7551084  65.3023662   6.2926433  86.1648092  65.0857370
   5.6329479  84.8150526  65.2723856  17.3515643  83.4226164  60.9907495
  16.8362267  84.1930769  61.2295883  17.0792952  82.7491300  61.6140557
  14.9362754  78.2675865  66.0492734  14.0804351  77.8782716  65.8698372
  15.3489706  78.3467826  65.1892519  16.4661901  75.8022208  70.4484293
  15.9626696  75.7652344  69.6352099  16.7592508  76.7114951  70.5080950
  12.7104787  75.8860938  69.4550475  13.5757784  75.6903747  69.0956364
  12.7782296  75.6571290  70.3819832  22.3249917  86.1758519  62.9260669
  21.5479360  85.8369678  62.4815831  23.0041398  86.1811142  62.2515634
  17.1401946  81.2953256  62.8167276  16.8352082  81.6099406  63.6677420
  18.0932389  81.3734676  62.8594609  15.5848378  87.4543480  64.4660230
  15.0569740  86.7196239  64.1533468  15.0835881  88.2318156  64.2200199
  20.5641224  85.6492500  69.5827277  19.9064899  86.3391762  69.6707405
  21.3681623  86.0388932  69.9261263  10.3167106  78.1163146  66.8266842
  10.8910858  77.8938328  66.0940035  10.9038088  78.1851841  67.5795443
  19.3746683  84.0036873  67.6331218  19.8878565  84.6366865  68.1352928
  20.0247907  83.4038068  67.2674578  10.6436693  80.1467607  60.8462727
   9.8074005  80.4842294  61.1672002  10.5041463  80.0116587  59.9089864
  12.6189774  74.9904395  65.5541911  11.9654186  74.6753412  64.9298526
  12.5770248  74.3680135  66.2801734  13.7300978  85.2723690  57.4695203
  12.8228040  85.0412943  57.6686352  14.2272010  84.4761309  57.6569185
  16.6369057  93.9821197  60.3891889  15.9630756  94.2852894  60.9976847
  17.0234879  94.7850278  60.0397347  15.8527514  81.4786328  69.8789559
  14.9350075  81.7001275  69.7211247  16.2687658  81.5532639  69.0201266
  16.6362562  82.8777744  65.0092239  17.3834381  83.3899141  64.6999361
  16.9054151  82.5561797  65.8696633  14.9089212  85.3736285  61.9919193
  14.0000431  85.0895318  62.0891663  14.9384296  85.7935363  61.1322500
  20.1408479  88.9842874  65.7610361  19.6870806  88.1433784  65.8175551
  19.5102446  89.6204273  66.0985141  19.0841399  79.9134860  66.9911028
  18.3464156  79.4012247  67.3221271  19.3368172  79.4735242  66.1794305
  18.5841419  90.8219371  66.6960179  18.8764393  91.3824428  65.9772545
  19.0940039  91.1147932  67.4513338  19.1853026  72.6911112  67.5852798
  19.4911903  71.8308476  67.2978713  19.9105631  73.2828733  67.3851792
   5.4777382  83.0941799  65.9734396   5.2801782  82.5011160  65.2485462
   4.9224046  82.7894009  66.6910334  13.4574106  82.9864905  68.0928989
  13.5122716  82.0338742  68.0171465  12.6465308  83.1424345  68.5770287
  14.6065300  86.9145029  59.3307272  14.1684730  86.1980887  58.8712909
  15.3475741  87.1421143  58.7692363  11.3966466  81.6041965  65.8519368
  10.5834331  81.9036136  66.2584560  11.8925460  81.2097654  66.5693850
  13.5475044  91.5999722  67.7853632  13.5051223  91.8260568  66.8562164
  14.4637743  91.3663097  67.9339433  16.9940678  82.0683790  74.6834262
  17.3490065  82.2955263  75.5428727  17.6412809  82.4002166  74.0611517
  22.7238414  85.1902226  65.3883591  22.5856313  85.3803822  64.4604780
  22.3674633  85.9521608  65.8451642  10.8880541  79.1760321  71.4680603
  11.5279920  79.0349080  70.7703566  10.0558071  78.8894834  71.0919205
  22.7507794  87.2578753  70.3994862  23.1844301  87.1654042  71.2477916
  23.4639375  87.2336253  69.7614878  11.6640845  88.4762751  67.5815595
  12.4581443  87.9813071  67.3798170  10.9532537  87.9480614  67.2183301
  16.4835689  90.8580847  71.9327963  16.5372711  91.4271783  72.7005679
  15.6150470  91.0282732  71.5682000   7.9723608  82.6205833  63.6575348
   7.0421196  82.5590288  63.8745310   8.0681080  82.0981786  62.8611989
   7.8909157  79.1460646  66.2453589   8.1515974  80.0605979  66.1362750
   8.7126329  78.6785088  66.3950202   9.3634082  80.5598403  73.4152414
  10.0357136  80.3515765  72.7665063   8.5363869  80.3620489  72.9757646
  23.6123344  87.3002453  72.9327747  23.8059234  88.2048264  73.1787022
  23.5123962  86.8409872  73.7666333  15.2659654  77.1860344  75.4318075
  14.6187569  77.8850293  75.3382551  16.0360670  77.6196488  75.7994323
  18.6738452  87.4509196  78.5068628  18.5223959  87.2219748  77.5898712
  18.6643132  88.4079797  78.5199973  15.4423789  85.0241109  73.4914895
  16.3715849  85.1752268  73.3183862  15.0214819  85.1125130  72.6363541
  14.2412120  89.0491773  71.2613432  14.1023206  88.6810558  72.1339370
  13.4526717  89.5639413  71.0897390  14.8360272  94.1500870  62.6038969
  15.0112028  93.6788913  63.4184591  14.1493060  94.7766636  62.8320229
  15.7917336  88.4273376  68.6502270  15.4567168  88.3874146  69.5459920
  15.2921281  87.7618092  68.1772680   9.7661580  83.8341006  74.1754851
   9.6281378  83.1021245  74.7766390  10.6766503  83.7449906  73.8939039
  18.7276527  85.7729410  58.9239330  18.1105698  85.0476238  58.8272382
  18.2593016  86.5338770  58.5806404  12.3943880  83.5460965  73.6638531
  13.1043499  82.9054157  73.6225149  12.3513188  83.7973860  74.5864712
  20.3830659  90.4828319  76.5845110  20.3243205  89.7987539  75.9175693
  20.7850177  91.2247309  76.1325736  11.1072814  80.5326183  75.4834170
  10.5710171  80.0816922  76.1355767  10.5189523  80.6672092  74.7404635
   9.4021358  97.2990232  69.3778829   9.6417956  97.9308757  70.0557847
   8.5590554  96.9478272  69.6644188  10.5175073  79.9914834  58.0460634
   9.6404540  79.8703635  57.6822881  10.9932826  79.2000913  57.7939523
  20.3848066  88.4467902  74.8159090  19.4974845  88.1093824  74.9385488
  20.9546617  87.7150934  75.0527855   2.0377213  84.7791994  68.1402141
   2.7248253  84.4653724  67.5523156   1.8825342  85.6833359  67.8669392
   6.8411935  79.6682191  72.5687165   6.7570124  79.0607860  71.8337575
   6.0194642  80.1591209  72.5696661  13.9149220  93.1069355  71.7820333
  13.8419391  93.9124326  72.2939637  13.4726613  93.3061321  70.9568354
  13.7038999  92.3441125  65.2923154  12.9206521  92.8862805  65.3861379
  14.4031744  92.8615104  65.6917396  17.0135649  78.1535754  67.9357360
  17.5104349  77.4005717  67.6158430  16.2422631  78.1900071  67.3700569
  24.8665407  83.8576120  69.5775651  24.8555283  84.7400835  69.2069584
  23.9982786  83.5047671  69.3830188  16.3747903  93.0056189  73.9378491
  17.0875875  93.6403654  73.8654393  15.8837932  93.1020055  73.1218493
  18.0965430  86.9107442  65.5095783  17.1621709  87.0308904  65.3400487
  18.2742099  86.0079908  65.2455793  13.5970618  80.2953137  67.6629044
  13.2268406  79.7424178  68.3509950  14.0929711  79.6911271  67.1104044
  21.4837981  82.7524761  66.0445817  21.9498434  83.5852752  65.9706120
  21.9345482  82.2869742  66.7491076  11.4259817  90.7550632  74.7584062
  12.1269276  91.3887115  74.9113457  10.9554932  91.0965364  73.9979702
  19.5514213  89.0968582  63.0431969  19.8274056  88.9825177  63.9525843
  18.6818711  88.6986067  63.0044142  19.4554644  75.1205348  70.0836719
  18.5417724  75.3509575  70.2518926  19.8847746  75.2043792  70.9350751
  19.2261103  83.3095240  72.5836613  18.5732553  83.5571147  71.9289065
  19.6041483  82.4959378  72.2499090  16.1868277  93.3454933  66.6864783
  16.3690671  92.5276589  67.1492535  17.0101263  93.5622625  66.2489673
  16.5210442  92.2723118  63.9479831  17.0498208  91.7615573  63.3349994
  16.7838662  91.9565648  64.8125364  15.2748676  84.0515051  79.0702650
  14.5989313  83.9509180  79.7405025  16.0976310  83.8954265  79.5338647
   7.0227535  90.2886987  71.6915165   7.6080972  89.5430675  71.8243069
   6.8252373  90.5990944  72.5751829   9.8766190  93.3238235  66.7077607
   9.2076565  93.8084362  66.2241647   9.7379060  93.5707455  67.6220986
   1.6145189  82.8592588  70.4119608   1.6529289  82.3256178  71.2056726
   1.1085482  82.3327793  69.7930585  14.0171459  95.3581978  73.3060266
  14.5689767  95.5213600  74.0709351  14.3577652  95.9486416  72.6340291
   8.9935952  77.7057128  73.9082150   9.0577278  78.5671959  73.4959548
   8.9303072  77.0931130  73.1754509   8.4688224  79.7780261  77.5555185
   9.0960263  79.3957338  78.1692709   7.6116143  79.5594463  77.9210877
  18.8682333  90.1843236  79.1608920  19.4122237  90.7973194  78.6663875
  18.2869178  90.7422814  79.6775933   5.2453767  81.5856690  63.4873540
   5.5407208  80.6767368  63.4340593   4.3441803  81.5644429  63.1654542
  17.1539846  93.3063954  70.2923948  17.0290985  92.5053694  69.7834893
  17.8118937  93.8010147  69.8037918   8.7748014  79.6612686  69.4701088
   8.0534600  80.2748654  69.3308561   9.5641270  80.1970451  69.3917734
  19.2174754  91.1072974  71.9203498  18.2705090  90.9878325  71.8481825
  19.5657527  90.2195472  72.0029759  11.5774328  76.9967113  75.7441740
  12.1008729  77.2429409  76.5068049  11.3586661  77.8287148  75.3244877
   6.9741609  79.2670787  63.6112865   6.6454315  78.3868166  63.4287971
   7.3280979  79.2118456  64.4989254  16.2221188  90.9025690  68.1207850
  16.0746150  89.9742398  68.3015420  17.0474681  90.9245781  67.6364925
  10.0883432  79.5543757  63.9788342  10.4279504  80.0829678  63.2566951
  10.5355552  79.8924163  64.7546909  19.8255309  91.7254249  69.2072723
  20.7501857  91.5197110  69.0697174  19.6570613  91.4770650  70.1162064
  12.7826873  77.9380808  73.4291410  12.4423693  77.1388621  73.8312090
  12.0765879  78.2382519  72.8568244  13.4343344  75.0230120  71.8818733
  14.2569414  74.5490599  71.7597624  13.6781408  75.8020604  72.3817420
  12.0751579  78.0518379  62.1781635  12.7959941  78.4299632  61.6745352
  11.4516883  78.7707256  62.2816613  16.2182702  78.7563528  63.1139967
  16.4346316  79.6388166  62.8128796  15.7376769  78.3649741  62.3845609
  10.9581923  81.7149241  69.6910712  10.8126504  82.0289544  70.5834994
  10.4807127  82.3334141  69.1381611  12.8178306  78.7051789  69.7391602
  12.8039875  77.8092882  69.4023900  13.5350734  78.7122453  70.3729888
  14.6704437  79.1389129  71.7844729  14.4122215  80.0606200  71.7829059
  14.1389477  78.7419564  72.4745193  19.6150626  92.2439916  64.5634814
  19.7887503  91.6786339  63.8108667  20.1079517  93.0440811  64.3814304
   5.4327585  84.2554585  72.6298373   4.8881053  85.0314393  72.7618648
   6.3106935  84.6025390  72.4717495  12.2215202  77.5866169  65.0079172
  12.3431113  76.6582815  65.2070059  11.9317244  77.6004855  64.0957487
  15.0906392  75.2721080  68.1445892  15.1128089  75.3360413  67.1897871
  15.5074451  74.4325588  68.3386398  25.4690017  85.0076339  66.1825114
  25.9121163  84.2583664  65.7844237  24.5916527  84.9986476  65.7998846
  20.6025798  91.5606681  61.6631713  21.2976703  92.1813373  61.8819027
  20.9448948  90.7102032  61.9384091   6.2193607  83.3824482  75.5228530
   5.4775343  83.5307117  76.1093161   5.8986352  83.6432747  74.6595280
  22.5017221  89.0106386  63.1919043  23.0268545  89.3493659  62.4668363
  22.4139574  88.0753402  63.0082178  14.1637270  92.9240460  75.3208920
  14.4724396  92.6789607  76.1931620  14.9612752  93.1287098  74.8327790
  14.1857882  95.0778370  67.5514297  13.7462872  94.5854748  68.2447153
  14.9365999  94.5351337  67.3106372   6.6650221  91.2689910  67.5538925
   7.4908241  90.9693682  67.1737568   6.3144273  90.4997533  68.0028713
  11.6331754  90.6216379  69.6236598  11.0111763  89.9587084  69.3238826
  12.3036621  90.6477510  68.9410246   4.8658826  89.1876237  68.5127858
   4.0290734  88.7598411  68.3311860   4.8382471  89.3808680  69.4498650
  11.7056282  79.0998167  79.2169104  11.7544437  79.9760289  78.8346874
  12.2478796  78.5575560  78.6440748  22.1911127  89.6439290  78.4970241
  21.4006671  89.6263429  77.9574741  21.9544482  90.1827584  79.2519278
  22.3109002  86.4931756  75.8102970  22.3607007  86.3281764  76.7518493
  22.2022926  85.6259015  75.4200851  11.1945261  89.1720302  63.0995059
  11.3433381  89.8555766  62.4461732  12.0011704  89.1525392  63.6144515
  19.6012765  82.4762684  77.1262277  20.5022627  82.3369149  76.8346274
  19.6760739  82.6417139  78.0660454  13.9355570  79.8529539  75.9715463
  13.0658879  80.1463105  75.6998052  14.1715050  80.4369984  76.6922727
  23.8127199  88.9128698  76.0544992  23.5212007  89.2758678  76.8908452
  23.1999330  88.1995706  75.8758324  25.0122881  86.4781578  68.5747562
  25.8469773  86.9171382  68.7385122  25.1482010  86.0020231  67.7555807
  22.0614387  84.0361312  74.5225049  22.5368509  84.2288959  73.7143901
  21.1379953  84.0920498  74.2768433   8.9497894  85.1985480  64.1056128
   8.7043936  84.2947810  64.3036338   9.1193808  85.2002630  63.1635606
  16.6394604  76.0709156  73.4880883  17.1576548  76.8070183  73.1627372
  16.2849737  76.3773149  74.3227643   8.2193541  80.9313837  61.6042289
   7.5262786  81.0058192  60.9482325   7.9745293  80.1674181  62.1263806
  16.8907198  72.4909438  69.0081780  17.1708952  71.8232628  69.6342207
  17.6757805  72.6838534  68.4956444  14.6940666  91.6668432  60.5706806
  14.1214634  92.2858620  60.1177278  15.2673460  92.2167794  61.1046728
  20.7616056  80.9127072  72.7553355  21.7133479  81.0125170  72.7765579
  20.5919507  80.1205341  73.2651439  18.7830436  77.9982656  72.9412756
  18.1880368  78.2787668  72.2459245  18.4980133  78.4876557  73.7129497
  17.9137926  91.9505583  61.7015389  18.8468599  91.8851144  61.9048264
  17.8261139  92.7861849  61.2429921  20.5425943  91.2671453  58.6619336
  20.4639574  90.9331316  59.5555094  21.3635610  91.7593221  58.6610808
  23.2404134  84.1333192  71.8695655  23.2080454  83.1949193  72.0555339
  23.8504758  84.2117229  71.1361480  15.0787465  83.0029245  57.9122859
  16.0246570  82.8735453  57.9811277  14.7001710  82.2643907  58.3892287
  23.3898623  80.9244236  71.9153938  22.8737671  80.1402692  71.7283867
  24.2738571  80.5962952  72.0800457  21.0509350  74.6685251  67.8749751
  20.8534171  74.3600339  68.7593083  21.6609055  75.3946890  68.0047680
  29.0580684  85.1949199  71.0101692  29.7884072  84.9334487  71.5709395
  28.4487629  84.4577921  71.0503760  27.1395981  83.3357062  71.6076143
  26.4129145  83.2013027  70.9992634  26.7243268  83.6433890  72.4132861
  14.9626158  87.0546991  79.3723516  15.8829167  87.2325590  79.5663562
  14.9275741  86.1103037  79.2203215  13.2630382  80.9279222  57.8477744
  12.3561838  80.6312334  57.9240458  13.5406363  80.6309040  56.9812030
   4.1808323  82.2485585  68.2976790   3.8611107  81.3950893  68.0051164
   3.6341751  82.4634163  69.0534758   7.9588230  84.9648026  72.0146297
   8.1774240  85.8965134  72.0334331   8.3714004  84.6056000  72.8001101
  14.8792448  75.4716111  64.0021985  14.0693176  75.1263196  64.3777231
  15.5676865  75.1623655  64.5909597  16.8082996  74.5494158  65.6246282
  17.3614035  74.9689611  66.2836305  17.0453083  73.6229906  65.6669238
  12.8316095  80.5381232  81.4049046  12.7312822  81.4875589  81.3361137
  12.6137637  80.2099471  80.5325116  12.0329167  77.7866157  57.9889723
  12.8948331  78.1121055  58.2485541  12.2179511  76.9997653  57.4762789
   4.0496583  85.8688496  70.2669912   3.3560054  85.4542449  69.7539866
   4.7969574  85.9109033  69.6703331  20.1861803  76.6594683  65.1324946
  19.6060472  77.3179487  64.7502999  19.9197736  75.8372028  64.7212364
  18.6365370  76.0599741  67.3346267  19.1365148  76.1716275  66.5260585
  19.2800978  75.7560794  67.9747075  12.6947365  83.9678371  80.2214108
  12.2114447  84.7678731  80.4277997  12.7808304  83.9786315  79.2681551
   5.9633325  85.8006750  68.1435927   5.9404013  85.8994437  67.1917810
   6.2733962  86.6471901  68.4653093   8.6220703  87.8582905  72.2582541
   9.5763956  87.8266848  72.1912473   8.4233227  87.3973529  73.0732767
   9.2120085  86.4284021  74.8253339  10.0312974  86.9228100  74.8488176
   9.4856893  85.5115989  74.7970906  18.9686681  78.8194774  64.1881294
  18.0812536  79.1044424  63.9701489  19.3840670  78.6588537  63.3408571
  22.3201217  78.8441295  67.9035634  23.0961608  79.3337747  68.1760251
  21.5949352  79.2699349  68.3607503  24.7573776  79.5568914  68.9609574
  25.3518267  79.3164650  68.2502883  24.8300360  78.8376044  69.5883111
   6.9770932  93.4002525  69.2752739   6.8425400  92.6402926  68.7090737
   6.5602994  94.1243425  68.8081528  18.1129895  88.5839448  58.2829314
  18.8165745  88.7889451  58.8986970  17.3892543  89.1516210  58.5478398
  18.9427705  84.3349310  64.4031585  18.8862906  84.7917861  63.5639217
  19.4956047  83.5739994  64.2254427  22.7532511  80.1239041  65.2281704
  22.4969445  79.7235677  66.0589912  22.1285379  80.8382835  65.1031843
  27.0644849  82.8635115  67.7352996  26.5044407  82.9328304  68.5084558
  26.4588352  82.6876099  67.0152492  10.1340058  94.2971842  69.4871182
  10.0172442  95.2417274  69.3849872   9.3132504  93.9945403  69.8756981
  20.0216592  89.0221977  60.3327775  20.8562196  88.5903176  60.1505249
  19.8600935  88.8503991  61.2604669  19.6762484  85.5254091  61.6984114
  19.6211288  85.3598362  60.7572558  19.0508540  86.2330124  61.8546304
   4.4654999  80.7622155  75.5245536   5.1113863  80.2521109  76.0132761
   4.2572150  81.4990837  76.0988961  16.9908391  87.8303003  81.0237677
  17.8599551  88.0043655  80.6624312  16.5115143  88.6497419  80.9013406
  12.9858610  75.0262200  61.2769432  12.9737280  75.9704040  61.4337703
  13.8782032  74.8432345  60.9828893  11.1594572  94.9500104  72.7027110
  12.0621818  94.9823714  73.0193605  10.9331942  94.0200555  72.7173446
  12.9148174  93.7031090  69.3637189  11.9643805  93.7032952  69.2501561
  13.2180660  92.9563825  68.8473223  16.8010729  71.6204976  65.5315369
  16.0343125  71.0663463  65.6772051  17.2121434  71.6926845  66.3929521
   8.8052490  77.9089772  79.6220550   9.6683952  77.5526577  79.8323875
   8.2317901  77.5703667  80.3095955  28.6500867  99.5391629  70.4282951
  29.2879277  99.4198376  69.7246291  28.5321710 100.4872473  70.4870903
  25.4590574  99.4919057  70.3644476  25.1209085  99.3760121  69.4765011
  26.3280342  99.0910222  70.3445482  21.3177389 101.3454533  66.3541367
  20.7542254 101.2544470  65.5857655  21.2029784 100.5254438  66.8343859
  25.9410357 100.6453908  76.3230681  25.9298997 100.2506707  75.4511185
  26.1030996  99.9119981  76.9164453  18.8641821 102.8405725  69.1925587
  19.6563113 102.4996549  68.7771887  19.1038471 102.9500700  70.1127741
  26.8976948 105.0125501  61.6655832  26.2464928 105.5979581  61.2789846
  27.6921311 105.5431696  61.7250869  20.8232575 102.1014638  62.0642966
  21.5963451 101.5543625  61.9255842  21.1757974 102.9658887  62.2757428
  22.6617618 103.4291020  75.2709865  22.3707484 104.3336651  75.1556532
  23.2974602 103.4707548  75.9853935  23.5873825 100.8067869  71.8611225
  24.1837397 100.5823891  71.1468188  23.6448796 100.0652614  72.4636673
  23.1598853  98.2607304  59.6961416  23.4124374  97.7388825  58.9344879
  22.2223412  98.0973449  59.7988100  28.2042136  97.2643082  67.5036159
  28.9905225  96.8462506  67.1526576  28.4680840  98.1689175  67.6717808
  28.3752213 102.7015933  62.2024816  27.7398046 102.7750559  62.9145721
  28.0449619 103.2909532  61.5243895  33.6050563  97.2018316  68.4069138
  34.3375735  96.6317532  68.6406967  32.8489919  96.8139916  68.8475643
  22.8795142 100.1635410  61.8985791  22.7631400  99.4880313  62.5666875
  22.9897402  99.6767784  61.0817944  25.2226683  99.6245557  65.6032480
  24.8584890  99.0976178  66.3145402  26.0793798  99.2344026  65.4298966
  31.1275983  90.9139890  72.8663746  30.7959308  91.7835301  72.6424961
  30.5321597  90.5976174  73.5457777  24.8632170  94.6535457  60.5993829
  25.0306572  95.5215693  60.9664300  24.6729339  94.8162739  59.6755118
  27.6207503 103.1152436  72.2659659  27.3208226 104.0177475  72.1575466
  27.2758562 102.8484619  73.1180812  21.0719984  99.5666233  68.2996364
  20.1470481  99.4342447  68.5074055  21.3204397 100.3460452  68.7966306
  31.0204647  95.6334976  69.9457096  30.1121524  95.5650384  69.6515857
  30.9692242  96.1106921  70.7738922  24.8421390  97.1093114  61.5840496
  24.7221016  97.5550165  62.4225976  24.1473979  97.4578432  61.0254034
  18.4328795  99.2099506  69.1340153  18.5621176  99.4633985  70.0479564
  17.7526247  99.8027214  68.8144808  22.6028283 109.8796756  65.2330627
  22.5252312 110.8304581  65.3119107  21.9989926 109.5342629  65.8905553
  25.0945512  97.0524621  77.8891994  24.3178846  97.6118542  77.8794858
  25.7336075  97.5381404  78.4106864  32.8866293  93.8351414  71.7234970
  32.2440673  94.1283947  71.0774765  32.3821221  93.7204335  72.5288167
  30.5406457  97.5814587  62.4120830  31.4524313  97.8141974  62.2368527
  30.0316104  98.1651632  61.8495908  23.3491885  99.8610075  77.4509961
  24.0906569 100.3995119  77.1744784  22.6428870 100.4876364  77.6081513
  28.8247224 102.0039215  76.0482122  29.2330580 101.5621626  75.3036755
  28.1024486 101.4291843  76.3016315  25.1778294  96.9411822  73.4215679
  26.0239489  97.3651236  73.5650328  25.1176932  96.2845446  74.1154242
  29.1476039 102.5640406  69.8034411  28.5184901 102.7286120  69.1010479
  28.7601701 102.9782015  70.5745375  33.0265271 103.4994844  67.1578775
  32.3416309 103.8793745  66.6075808  33.1109120 104.1090170  67.8910723
  28.3277740  94.6016190  75.0796853  28.0838672  95.3558251  74.5431128
  28.6037670  94.9801538  75.9144100  30.2816202 101.1454803  73.7574118
  30.4933098 101.7886563  73.0808499  30.2345951 100.3117119  73.2896048
  27.8842431  93.7572623  70.6610691  27.0226910  94.0553877  70.9527428
  27.9104866  93.9743022  69.7291723  24.7004001 102.3014814  67.0684496
  25.1642346 102.5802517  66.2789119  24.4360799 101.3998259  66.8857587
  21.5928082 101.8486296  70.0064259  22.1629439 102.2773564  69.3681744
  22.1836194 101.5668880  70.7048445  23.6372887  98.4237966  63.8774061
  24.3396930  98.8759010  64.3447988  23.3053515  97.7821785  64.5053954
  22.0853248  97.0149723  78.2525271  21.4551909  97.6966004  78.4860668
  21.9789336  96.9032805  77.3078409  17.3798221  96.6821519  69.1791195
  16.5897275  96.9379048  68.7031306  17.8709468  97.4969857  69.2843235
  31.3962030 104.0226758  71.9296476  32.2179474 103.6206946  71.6479157
  31.3924433 103.9194992  72.8812592  19.3312966  97.0466098  66.1374672
  18.5344129  97.1584793  66.6558167  19.1038558  97.3852751  65.2715562
  25.1618634 103.5710802  74.0857186  25.2263066 104.0331209  74.9215358
  24.4529558 102.9408166  74.2139496  15.6635924  96.9352010  71.6106186
  15.9143962  97.8199019  71.8763762  16.1995472  96.7556611  70.8381278
  39.4868023 100.3665507  68.2781447  38.7331732  99.7972905  68.1225452
  39.6215565 100.3328171  69.2252082  24.8766651 105.2378909  63.9536167
  24.7412326 106.0830445  64.3821014  25.4176464 105.4398187  63.1902100
  21.3633991  91.3170489  80.6150522  20.9700937  90.7636687  81.2898166
  22.1800131  91.6281067  81.0057039  18.3296049 102.7554347  64.5264092
  18.8420569 103.5497597  64.6769656  18.9818762 102.0580638  64.4597693
  20.1390934 105.8720103  66.6086845  20.3157562 106.7938068  66.4207829
  20.9347767 105.5578523  67.0381225  24.2801952  92.7328368  78.2070778
  25.0211665  93.3335521  78.1275241  24.5119875  91.9906006  77.6488821
  19.4243290  97.9184735  76.4849008  19.3096805  97.0169992  76.7856107
  18.5687808  98.1648432  76.1333825  26.5035128 105.8602476  78.0836509
  26.0598982 105.0738854  77.7657413  27.1652341 106.0481626  77.4180399
  21.2622249 107.3898277  72.6097187  21.8129674 107.2615340  71.8374181
  20.4233725 107.6893166  72.2592080  28.6016366 106.1405275  76.1117910
  28.5834841 106.9614156  75.6198179  29.5236286 106.0159351  76.3368051
  25.0589420 103.6549405  76.9541418  25.5917757 102.8937693  76.7240726
  24.5303501 103.3623057  77.6965573  28.2259115  88.7609471  72.4835060
  27.8823384  89.6511113  72.4074171  28.5938078  88.5711129  71.6204645
  16.2944966 101.0843001  65.3023662  17.1320188 101.4940010  65.0857370
  16.4723233 100.1442444  65.2723856  28.1909398  98.7518082  60.9907495
  27.6756021  99.5222687  61.2295883  27.9186706  98.0783218  61.6140557
  25.7756509  93.5967783  66.0492734  24.9198105  93.2074633  65.8698372
  26.1883461  93.6759744  65.1892519  27.3055655  91.1314126  70.4484293
  26.8020451  91.0944261  69.6352099  27.5986262  92.0406869  70.5080950
  23.5498541  91.2152856  69.4550475  24.4151538  91.0195664  69.0956364
  23.6176050  90.9863208  70.3819832  33.1643672 101.5050437  62.9260669
  32.3873115 101.1661596  62.4815831  33.8435153 101.5103060  62.2515634
  27.9795701  96.6245174  62.8167276  27.6745836  96.9391323  63.6677420
  28.9326143  96.7026594  62.8594609  26.4242133 102.7835397  64.4660230
  25.8963494 102.0488157  64.1533468  25.9229635 103.5610074  64.2200199
  31.4034979 100.9784418  69.5827277  30.7458653 101.6683679  69.6707405
  32.2075378 101.3680850  69.9261263  21.1560860  93.4455064  66.8266842
  21.7304612  93.2230245  66.0940035  21.7431843  93.5143758  67.5795443
  30.2140438  99.3328791  67.6331218  30.7272319  99.9658782  68.1352928
  30.8641661  98.7329986  67.2674578  21.4830447  95.4759525  60.8462727
  20.6467760  95.8134211  61.1672002  21.3435217  95.3408505  59.9089864
  23.4583528  90.3196313  65.5541911  22.8047940  90.0045330  64.9298526
  23.4164002  89.6972053  66.2801734  24.5694733 100.6015608  57.4695203
  23.6621795 100.3704861  57.6686352  25.0665765  99.8053227  57.6569185
  27.4762812 109.3113115  60.3891889  26.8024511 109.6144812  60.9976847
  27.8628634 110.1142195  60.0397347  26.6921268  96.8078246  69.8789559
  25.7743830  97.0293193  69.7211247  27.1081412  96.8824557  69.0201266
  27.4756316  98.2069662  65.0092239  28.2228135  98.7191059  64.6999361
  27.7447906  97.8853715  65.8696633  25.7482966 100.7028203  61.9919193
  24.8394186 100.4187235  62.0891663  25.7778050 101.1227281  61.1322500
  30.9802234 104.3134792  65.7610361  30.5264561 103.4725702  65.8175551
  30.3496200 104.9496190  66.0985141  29.9235153  95.2426778  66.9911028
  29.1857910  94.7304164  67.3221271  30.1761927  94.8027160  66.1794305
  29.4235173 106.1511289  66.6960179  29.7158147 106.7116346  65.9772545
  29.9333794 106.4439850  67.4513338  30.0246781  88.0203030  67.5852798
  30.3305657  87.1600394  67.2978713  30.7499385  88.6120650  67.3851792
  16.3171137  98.4233717  65.9734396  16.1195537  97.8303077  65.2485462
  15.7617801  98.1185927  66.6910334  24.2967860  98.3156823  68.0928989
  24.3516470  97.3630660  68.0171465  23.4859062  98.4716262  68.5770287
  25.4459054 102.2436946  59.3307272  25.0078484 101.5272805  58.8712909
  26.1869495 102.4713061  58.7692363  22.2360220  96.9333883  65.8519368
  21.4228086  97.2328053  66.2584560  22.7319215  96.5389572  66.5693850
  24.3868798 106.9291640  67.7853632  24.3444977 107.1552486  66.8562164
  25.3031497 106.6955014  67.9339433  27.8334432  97.3975707  74.6834262
  28.1883820  97.6247181  75.5428727  28.4806563  97.7294084  74.0611517
  33.5632169 100.5194143  65.3883591  33.4250068 100.7095739  64.4604780
  33.2068388 101.2813526  65.8451642  21.7274295  94.5052238  71.4680603
  22.3673674  94.3640998  70.7703566  20.8951826  94.2186752  71.0919205
  33.5901549 102.5870670  70.3994862  34.0238055 102.4945959  71.2477916
  34.3033129 102.5628171  69.7614878  22.5034599 103.8054669  67.5815595
  23.2975197 103.3104989  67.3798170  21.7926291 103.2772532  67.2183301
  27.3229443 106.1872764  71.9327963  27.3766466 106.7563701  72.7005679
  26.4544225 106.3574649  71.5682000  18.8117362  97.9497751  63.6575348
  17.8814951  97.8882206  63.8745310  18.9074834  97.4273703  62.8611989
  18.7302912  94.4752563  66.2453589  18.9909729  95.3897897  66.1362750
  19.5520084  94.0077006  66.3950202  20.2027837  95.8890321  73.4152414
  20.8750890  95.6807683  72.7665063  19.3757623  95.6912407  72.9757646
  34.4517098 102.6294371  72.9327747  34.6452988 103.5340181  73.1787022
  34.3517716 102.1701790  73.7666333  26.1053409  92.5152261  75.4318075
  25.4581324  93.2142211  75.3382551  26.8754424  92.9488405  75.7994323
  29.5132207 102.7801114  78.5068628  29.3617713 102.5511665  77.5898712
  29.5036886 103.7371715  78.5199973  26.2817543 100.3533026  73.4914895
  27.2109603 100.5044186  73.3183862  25.8608573 100.4417047  72.6363541
  25.0805875 104.3783691  71.2613432  24.9416961 104.0102475  72.1339370
  24.2920471 104.8931330  71.0897390  25.6754027 109.4792787  62.6038969
  25.8505783 109.0080830  63.4184591  24.9886815 110.1058553  62.8320229
  26.6311090 103.7565294  68.6502270  26.2960923 103.7166063  69.5459920
  26.1315036 103.0910009  68.1772680  20.6055334  99.1632924  74.1754851
  20.4675132  98.4313162  74.7766390  21.5160258  99.0741824  73.8939039
  29.5670282 101.1021328  58.9239330  28.9499452 100.3768156  58.8272382
  29.0986770 101.8630688  58.5806404  23.2337635  98.8752883  73.6638531
  23.9437253  98.2346075  73.6225149  23.1906943  99.1265778  74.5864712
  31.2224413 105.8120236  76.5845110  31.1636960 105.1279456  75.9175693
  31.6243932 106.5539226  76.1325736  21.9466569  95.8618101  75.4834170
  21.4103926  95.4108839  76.1355767  21.3583277  95.9964010  74.7404635
  20.2415112 112.6282150  69.3778829  20.4811710 113.2600674  70.0557847
  19.3984309 112.2770190  69.6644188  21.3568828  95.3206752  58.0460634
  20.4798294  95.1995553  57.6822881  21.8326581  94.5292830  57.7939523
  31.2241821 103.7759820  74.8159090  30.3368599 103.4385742  74.9385488
  31.7940372 103.0442851  75.0527855  12.8770968 100.1083912  68.1402141
  13.5642008  99.7945642  67.5523156  12.7219097 101.0125277  67.8669392
  17.6805690  94.9974108  72.5687165  17.5963879  94.3899778  71.8337575
  16.8588396  95.4883127  72.5696661  24.7542974 108.4361272  71.7820333
  24.6813146 109.2416244  72.2939637  24.3120367 108.6353238  70.9568354
  24.5432754 107.6733043  65.2923154  23.7600276 108.2154723  65.3861379
  25.2425499 108.1907022  65.6917396  27.8529404  93.4827672  67.9357360
  28.3498103  92.7297634  67.6158430  27.0816385  93.5191989  67.3700569
  35.7059161  99.1868038  69.5775651  35.6949037 100.0692753  69.2069584
  34.8376541  98.8339588  69.3830188  27.2141658 108.3348107  73.9378491
  27.9269630 108.9695571  73.8654393  26.7231686 108.4311973  73.1218493
  28.9359185 102.2399359  65.5095783  28.0015463 102.3600822  65.3400487
  29.1135853 101.3371826  65.2455793  24.4364373  95.6245055  67.6629044
  24.0662160  95.0716095  68.3509950  24.9323465  95.0203188  67.1104044
  32.3231736  98.0816678  66.0445817  32.7892188  98.9144670  65.9706120
  32.7739236  97.6161660  66.7491076  22.2653571 106.0842550  74.7584062
  22.9663031 106.7179033  74.9113457  21.7948686 106.4257282  73.9979702
  30.3907967 104.4260500  63.0431969  30.6667811 104.3117094  63.9525843
  29.5212466 104.0277985  63.0044142  30.2948399  90.4497265  70.0836719
  29.3811478  90.6801492  70.2518926  30.7241500  90.5335710  70.9350751
  30.0654857  98.6387157  72.5836613  29.4126307  98.8863065  71.9289065
  30.4435237  97.8251296  72.2499090  27.0262031 108.6746851  66.6864783
  27.2084426 107.8568507  67.1492535  27.8495017 108.8914543  66.2489673
  27.3604197 107.6015036  63.9479831  27.8891963 107.0907490  63.3349994
  27.6232416 107.2857566  64.8125364  26.1142430  99.3806968  79.0702650
  25.4383067  99.2801098  79.7405025  26.9370064  99.2246182  79.5338647
  17.8621289 105.6178905  71.6915165  18.4474726 104.8722593  71.8243069
  17.6646128 105.9282862  72.5751829  20.7159944 108.6530152  66.7077607
  20.0470320 109.1376280  66.2241647  20.5772814 108.8999373  67.6220986
  12.4538944  98.1884505  70.4119608  12.4923043  97.6548096  71.2056726
  11.9479237  97.6619711  69.7930585  24.8565213 110.6873896  73.3060266
  25.4083521 110.8505517  74.0709351  25.1971406 111.2778334  72.6340291
  19.8329706  93.0349046  73.9082150  19.8971033  93.8963877  73.4959548
  19.7696827  92.4223047  73.1754509  19.3081979  95.1072178  77.5555185
  19.9354018  94.7249256  78.1692709  18.4509898  94.8886380  77.9210877
  29.7076087 105.5135153  79.1608920  30.2515991 106.1265112  78.6663875
  29.1262932 106.0714732  79.6775933  16.0847522  96.9148607  63.4873540
  16.3800963  96.0059286  63.4340593  15.1835557  96.8936347  63.1654542
  27.9933600 108.6355871  70.2923948  27.8684740 107.8345611  69.7834893
  28.6512691 109.1302065  69.8037918  19.6141769  94.9904604  69.4701088
  18.8928354  95.6040572  69.3308561  20.4035024  95.5262369  69.3917734
  30.0568509 106.4364892  71.9203498  29.1098844 106.3170243  71.8481825
  30.4051282 105.5487390  72.0029759  22.4168082  92.3259030  75.7441740
  22.9402484  92.5721327  76.5068049  22.1980415  93.1579065  75.3244877
  17.8135363  94.5962705  63.6112865  17.4848069  93.7160084  63.4287971
  18.1674734  94.5410374  64.4989254  27.0614942 106.2317608  68.1207850
  26.9139904 105.3034315  68.3015420  27.8868435 106.2537698  67.6364925
  20.9277186  94.8835675  63.9788342  21.2673259  95.4121596  63.2566951
  21.3749307  95.2216081  64.7546909  30.6649064 107.0546167  69.2072723
  31.5895611 106.8489028  69.0697174  30.4964367 106.8062568  70.1162064
  23.6220627  93.2672726  73.4291410  23.2817447  92.4680539  73.8312090
  22.9159633  93.5674436  72.8568244  24.2737099  90.3522038  71.8818733
  25.0963168  89.8782516  71.7597624  24.5175162  91.1312522  72.3817420
  22.9145333  93.3810296  62.1781635  23.6353696  93.7591549  61.6745352
  22.2910638  94.0999173  62.2816613  27.0576456  94.0855445  63.1139967
  27.2740071  94.9680083  62.8128796  26.5770523  93.6941659  62.3845609
  21.7975678  97.0441159  69.6910712  21.6520258  97.3581462  70.5834994
  21.3200881  97.6626059  69.1381611  23.6572061  94.0343707  69.7391602
  23.6433629  93.1384800  69.4023900  24.3744489  94.0414370  70.3729888
  25.5098191  94.4681047  71.7844729  25.2515969  95.3898117  71.7829059
  24.9783232  94.0711481  72.4745193  30.4544380 107.5731834  64.5634814
  30.6281258 107.0078256  63.8108667  30.9473271 108.3732729  64.3814304
  16.2721340  99.5846503  72.6298373  15.7274808 100.3606311  72.7618648
  17.1500690  99.9317308  72.4717495  23.0608956  92.9158087  65.0079172
  23.1824868  91.9874733  65.2070059  22.7710999  92.9296773  64.0957487
  25.9300147  90.6012997  68.1445892  25.9521844  90.6652330  67.1897871
  26.3468206  89.7617506  68.3386398  36.3083771 100.3368257  66.1825114
  36.7514917  99.5875582  65.7844237  35.4310282 100.3278393  65.7998846
  31.4419553 106.8898598  61.6631713  32.1370457 107.5105291  61.8819027
  31.7842703 106.0393950  61.9384091  17.0587362  98.7116399  75.5228530
  16.3169098  98.8599035  76.1093161  16.7380106  98.9724665  74.6595280
  33.3410976 104.3398304  63.1919043  33.8662300 104.6785577  62.4668363
  33.2533328 103.4045319  63.0082178  25.0031024 108.2532378  75.3208920
  25.3118151 108.0081524  76.1931620  25.8006506 108.4579016  74.8327790
  25.0251636 110.4070287  67.5514297  24.5856627 109.9146666  68.2447153
  25.7759753 109.8643255  67.3106372  17.5043975 106.5981828  67.5538925
  18.3301995 106.2985600  67.1737568  17.1538027 105.8289450  68.0028713
  22.4725509 105.9508296  69.6236598  21.8505518 105.2879001  69.3238826
  23.1430375 105.9769428  68.9410246  15.7052580 104.5168154  68.5127858
  14.8684489 104.0890329  68.3311860  15.6776226 104.7100598  69.4498650
  22.5450036  94.4290084  79.2169104  22.5938192  95.3052207  78.8346874
  23.0872550  93.8867477  78.6440748  33.0304882 104.9731208  78.4970241
  32.2400425 104.9555346  77.9574741  32.7938236 105.5119501  79.2519278
  33.1502757 101.8223674  75.8102970  33.2000762 101.6573681  76.7518493
  33.0416680 100.9550933  75.4200851  22.0339015 104.5012220  63.0995059
  22.1827136 105.1847684  62.4461732  22.8405459 104.4817310  63.6144515
  30.4406519  97.8054602  77.1262277  31.3416382  97.6661067  76.8346274
  30.5154494  97.9709057  78.0660454  24.7749324  95.1821457  75.9715463
  23.9052634  95.4755023  75.6998052  25.0108805  95.7661902  76.6922727
  34.6520954 104.2420615  76.0544992  34.3605762 104.6050596  76.8908452
  34.0393085 103.5287624  75.8758324  35.8516636 101.8073495  68.5747562
  36.6863527 102.2463299  68.7385122  35.9875765 101.3312148  67.7555807
  32.9008142  99.3653230  74.5225049  33.3762263  99.5580876  73.7143901
  31.9773707  99.4212416  74.2768433  19.7891648 100.5277397  64.1056128
  19.5437690  99.6239727  64.3036338  19.9587563 100.5294548  63.1635606
  27.4788358  91.4001074  73.4880883  27.9970302  92.1362101  73.1627372
  27.1243491  91.7065067  74.3227643  19.0587296  96.2605755  61.6042289
  18.3656541  96.3350110  60.9482325  18.8139048  95.4966098  62.1263806
  27.7300952  87.8201356  69.0081780  28.0102706  87.1524545  69.6342207
  28.5151559  88.0130452  68.4956444  25.5334421 106.9960350  60.5706806
  24.9608388 107.6150537  60.1177278  26.1067215 107.5459712  61.1046728
  31.6009811  96.2418990  72.7553355  32.5527234  96.3417088  72.7765579
  31.4313261  95.4497259  73.2651439  29.6224190  93.3274573  72.9412756
  29.0274122  93.6079586  72.2459245  29.3373887  93.8168474  73.7129497
  28.7531681 107.2797500  61.7015389  29.6862354 107.2143062  61.9048264
  28.6654894 108.1153767  61.2429921  31.3819697 106.5963371  58.6619336
  31.3033329 106.2623234  59.5555094  32.2029364 107.0885138  58.6610808
  34.0797889  99.4625110  71.8695655  34.0474209  98.5241111  72.0555339
  34.6898512  99.5409147  71.1361480  25.9181219  98.3321163  57.9122859
  26.8640324  98.2027371  57.9811277  25.5395464  97.5935825  58.3892287
  34.2292377  96.2536153  71.9153938  33.7131426  95.4694610  71.7283867
  35.1132326  95.9254870  72.0800457  31.8903104  89.9977169  67.8749751
  31.6927925  89.6892257  68.7593083  32.5002810  90.7238808  68.0047680
  39.8974438 100.5241117  71.0101692  40.6277827 100.2626405  71.5709395
  39.2881384  99.7869839  71.0503760  37.9789736  98.6648979  71.6076143
  37.2522899  98.5304944  70.9992634  37.5637022  98.9725808  72.4132861
  25.8019912 102.3838909  79.3723516  26.7222921 102.5617508  79.5663562
  25.7669495 101.4394954  79.2203215  24.1024137  96.2571139  57.8477744
  23.1955592  95.9604252  57.9240458  24.3800118  95.9600957  56.9812030
  15.0202077  97.5777503  68.2976790  14.7004861  96.7242811  68.0051164
  14.4735505  97.7926081  69.0534758  18.7981985 100.2939944  72.0146297
  19.0167994 101.2257051  72.0334331  19.2107758  99.9347918  72.8001101
  25.7186202  90.8008029  64.0021985  24.9086931  90.4555114  64.3777231
  26.4070619  90.4915573  64.5909597  27.6476751  89.8786076  65.6246282
  28.2007789  90.2981529  66.2836305  27.8846837  88.9521824  65.6669238
  23.6709850  95.8673149  81.4049046  23.5706577  96.8167506  81.3361137
  23.4531392  95.5391388  80.5325116  22.8722921  93.1158074  57.9889723
  23.7342085  93.4412973  58.2485541  23.0573265  92.3289570  57.4762789
  14.8890337 101.1980414  70.2669912  14.1953808 100.7834367  69.7539866
  15.6363328 101.2400951  69.6703331  31.0255558  91.9886601  65.1324946
  30.4454227  92.6471405  64.7502999  30.7591490  91.1663945  64.7212364
  29.4759124  91.3891659  67.3346267  29.9758902  91.5008193  66.5260585
  30.1194732  91.0852711  67.9747075  23.5341120  99.2970288  80.2214108
  23.0508202 100.0970648  80.4277997  23.6202059  99.3078233  79.2681551
  16.8027080 101.1298668  68.1435927  16.7797768 101.2286355  67.1917810
  17.1127716 101.9763819  68.4653093  19.4614457 103.1874823  72.2582541
  20.4157711 103.1558765  72.1912473  19.2626981 102.7265447  73.0732767
  20.0513840 101.7575939  74.8253339  20.8706729 102.2520018  74.8488176
  20.3250647 100.8407907  74.7970906  29.8080436  94.1486691  64.1881294
  28.9206291  94.4336342  63.9701489  30.2234425  93.9880455  63.3408571
  33.1594972  94.1733212  67.9035634  33.9355362  94.6629665  68.1760251
  32.4343106  94.5991266  68.3607503  35.5967531  94.8860831  68.9609574
  36.1912021  94.6456567  68.2502883  35.6694114  94.1667962  69.5883111
  17.8164686 108.7294442  69.2752739  17.6819154 107.9694843  68.7090737
  17.3996748 109.4535342  68.8081528  28.9523649 103.9131366  58.2829314
  29.6559499 104.1181368  58.8986970  28.2286298 104.4808128  58.5478398
  29.7821459  99.6641227  64.4031585  29.7256661 100.1209779  63.5639217
  30.3349802  98.9031912  64.2254427  33.5926265  95.4530959  65.2281704
  33.3363200  95.0527595  66.0589912  32.9679133  96.1674753  65.1031843
  37.9038603  98.1927032  67.7352996  37.3438161  98.2620222  68.5084558
  37.2982107  98.0168017  67.0152492  20.9733812 109.6263759  69.4871182
  20.8566196 110.5709192  69.3849872  20.1526258 109.3237321  69.8756981
  30.8610347 104.3513895  60.3327775  31.6955951 103.9195094  60.1505249
  30.6994690 104.1795909  61.2604669  30.5156239 100.8546008  61.6984114
  30.4605043 100.6890280  60.7572558  29.8902294 101.5622041  61.8546304
  15.3048754  96.0914073  75.5245536  15.9507617  95.5813027  76.0132761
  15.0965905  96.8282754  76.0988961  27.8302146 103.1594920  81.0237677
  28.6993306 103.3335573  80.6624312  27.3508897 103.9789337  80.9013406
  23.8252364  90.3554117  61.2769432  23.8131034  91.2995957  61.4337703
  24.7175786  90.1724263  60.9828893  21.9988326 110.2792021  72.7027110
  22.9015573 110.3115632  73.0193605  21.7725696 109.3492472  72.7173446
  23.7541928 109.0323008  69.3637189  22.8037559 109.0324869  69.2501561
  24.0574414 108.2855742  68.8473223  27.6404484  86.9496894  65.5315369
  26.8736880  86.3955381  65.6772051  28.0515189  87.0218763  66.3929521
  19.6446245  93.2381690  79.6220550  20.5077706  92.8818495  79.8323875
  19.0711655  92.8995585  80.3095955  39.4894622 114.8683546  70.4282951
  40.1273032 114.7490294  69.7246291  39.3715465 115.8164390  70.4870903
  36.2984328 114.8210974  70.3644476  35.9602840 114.7052039  69.4765011
  37.1674096 114.4202139  70.3445482  32.1571144 116.6746451  66.3541367
  31.5936009 116.5836388  65.5857655  32.0423539 115.8546355  66.8343859
  36.7804111 115.9745826  76.3230681  36.7692752 115.5798624  75.4511185
  36.9424750 115.2411899  76.9164453  29.7035576 118.1697642  69.1925587
  30.4956868 117.8288467  68.7771887  29.9432226 118.2792617  70.1127741
  37.7370702 120.3417418  61.6655832  37.0858682 120.9271499  61.2789846
  38.5315065 120.8723613  61.7250869  31.6626330 117.4306556  62.0642966
  32.4357206 116.8835543  61.9255842  32.0151728 118.2950805  62.2757428
  33.5011372 118.7582938  75.2709865  33.2101238 119.6628569  75.1556532
  34.1368356 118.7999465  75.9853935  34.4267579 116.1359786  71.8611225
  35.0231151 115.9115809  71.1468188  34.4842551 115.3944532  72.4636673
  33.9992607 113.5899222  59.6961416  34.2518128 113.0680743  58.9344879
  33.0617166 113.4265367  59.7988100  39.0435890 112.5935000  67.5036159
  39.8298979 112.1754423  67.1526576  39.3074595 113.4981092  67.6717808
  39.2145968 118.0307850  62.2024816  38.5791801 118.1042477  62.9145721
  38.8843374 118.6201449  61.5243895  44.4444317 112.5310233  68.4069138
  45.1769489 111.9609450  68.6406967  43.6883673 112.1431834  68.8475643
  33.7188896 115.4927328  61.8985791  33.6025154 114.8172231  62.5666875
  33.8291156 115.0059702  61.0817944  36.0620437 114.9537475  65.6032480
  35.6978644 114.4268096  66.3145402  36.9187553 114.5635944  65.4298966
  41.9669738 106.2431807  72.8663746  41.6353062 107.1127218  72.6424961
  41.3715351 105.9268091  73.5457777  35.7025924 109.9827374  60.5993829
  35.8700326 110.8507611  60.9664300  35.5123093 110.1454656  59.6755118
  38.4601257 118.4444353  72.2659659  38.1601980 119.3469392  72.1575466
  38.1152317 118.1776537  73.1180812  31.9113739 114.8958150  68.2996364
  30.9864235 114.7634364  68.5074055  32.1598152 115.6752369  68.7966306
  41.8598401 110.9626894  69.9457096  40.9515278 110.8942302  69.6515857
  41.8085997 111.4398839  70.7738922  35.6815145 112.4385032  61.5840496
  35.5614770 112.8842083  62.4225976  34.9867733 112.7870350  61.0254034
  29.2722550 114.5391424  69.1340153  29.4014931 114.7925903  70.0479564
  28.5920001 115.1319132  68.8144808  33.4422037 125.2088674  65.2330627
  33.3646067 126.1596499  65.3119107  32.8383681 124.8634546  65.8905553
  35.9339267 112.3816539  77.8891994  35.1572601 112.9410459  77.8794858
  36.5729830 112.8673322  78.4106864  43.7260047 109.1643332  71.7234970
  43.0834428 109.4575865  71.0774765  43.2214976 109.0496252  72.5288167
  41.3800211 112.9106505  62.4120830  42.2918067 113.1433892  62.2368527
  40.8709858 113.4943549  61.8495908  34.1885639 115.1901993  77.4509961
  34.9300323 115.7287036  77.1744784  33.4822625 115.8168281  77.6081513
  39.6640979 117.3331133  76.0482122  40.0724335 116.8913544  75.3036755
  38.9418240 116.7583761  76.3016315  36.0172049 112.2703740  73.4215679
  36.8633244 112.6943153  73.5650328  35.9570686 111.6137364  74.1154242
  39.9869793 117.8932324  69.8034411  39.3578656 118.0578038  69.1010479
  39.5995455 118.3073933  70.5745375  43.8659025 118.8286761  67.1578775
  43.1810063 119.2085663  66.6075808  43.9502875 119.4382088  67.8910723
  39.1671494 109.9308108  75.0796853  38.9232426 110.6850169  74.5431128
  39.4431425 110.3093456  75.9144100  41.1209957 116.4746720  73.7574118
  41.3326852 117.1178480  73.0808499  41.0739705 115.6409037  73.2896048
  38.7236186 109.0864541  70.6610691  37.8620665 109.3845795  70.9527428
  38.7498620 109.3034940  69.7291723  35.5397755 117.6306732  67.0684496
  36.0036101 117.9094435  66.2789119  35.2754553 116.7290176  66.8857587
  32.4321836 117.1778213  70.0064259  33.0023193 117.6065482  69.3681744
  33.0229948 116.8960798  70.7048445  34.4766641 113.7529884  63.8774061
  35.1790685 114.2050928  64.3447988  34.1447270 113.1113703  64.5053954
  32.9247003 112.3441641  78.2525271  32.2945663 113.0257922  78.4860668
  32.8183091 112.2324722  77.3078409  28.2191975 112.0113437  69.1791195
  27.4291029 112.2670965  68.7031306  28.7103223 112.8261775  69.2843235
  42.2355785 119.3518676  71.9296476  43.0573229 118.9498863  71.6479157
  42.2318188 119.2486910  72.8812592  30.1706721 112.3758016  66.1374672
  29.3737884 112.4876710  66.6558167  29.9432313 112.7144668  65.2715562
  36.0012388 118.9002719  74.0857186  36.0656821 119.3623126  74.9215358
  35.2923312 118.2700084  74.2139496  26.5029678 112.2643927  71.6106186
  26.7537717 113.1490937  71.8763762  27.0389227 112.0848529  70.8381278
  50.3261778 115.6957424  68.2781447  49.5725486 115.1264822  68.1225452
  50.4609319 115.6620089  69.2252082  35.7160406 120.5670827  63.9536167
  35.5806081 121.4122362  64.3821014  36.2570218 120.7690104  63.1902100
  32.2027746 106.6462407  80.6150522  31.8094691 106.0928605  81.2898166
  33.0193886 106.9572985  81.0057039  29.1689803 118.0846265  64.5264092
  29.6814324 118.8789515  64.6769656  29.8212516 117.3872555  64.4597693
  30.9784688 121.2012021  66.6086845  31.1551316 122.1229986  66.4207829
  31.7741522 120.8870440  67.0381225  35.1195707 108.0620286  78.2070778
  35.8605420 108.6627439  78.1275241  35.3513629 107.3197923  77.6488821
  30.2637045 113.2476653  76.4849008  30.1490560 112.3461910  76.7856107
  29.4081562 113.4940350  76.1333825  37.3428882 121.1894393  78.0836509
  36.8992737 120.4030772  77.7657413  38.0046096 121.3773544  77.4180399
  32.1016003 122.7190195  72.6097187  32.6523429 122.5907258  71.8374181
  31.2627479 123.0185084  72.2592080  39.4410120 121.4697193  76.1117910
  39.4228596 122.2906074  75.6198179  40.3630040 121.3451268  76.3368051
  35.8983175 118.9841323  76.9541418  36.4311511 118.2229611  76.7240726
  35.3697256 118.6914974  77.6965573  39.0652870 104.0901389  72.4835060
  38.7217139 104.9803030  72.4074171  39.4331832 103.9003046  71.6204645
  27.1338720 116.4134919  65.3023662  27.9713942 116.8231927  65.0857370
  27.3116988 115.4734361  65.2723856  39.0303152 114.0810000  60.9907495
  38.5149776 114.8514604  61.2295883  38.7580461 113.4075136  61.6140557
  36.6150263 108.9259700  66.0492734  35.7591860 108.5366551  65.8698372
  37.0277215 109.0051661  65.1892519  38.1449410 106.4606044  70.4484293
  37.6414205 106.4236179  69.6352099  38.4380017 107.3698786  70.5080950
  34.3892296 106.5444773  69.4550475  35.2545293 106.3487582  69.0956364
  34.4569805 106.3155125  70.3819832  44.0037426 116.8342354  62.9260669
  43.2266869 116.4953514  62.4815831  44.6828907 116.8394977  62.2515634
  38.8189455 111.9537092  62.8167276  38.5139591 112.2683241  63.6677420
  39.7719898 112.0318512  62.8594609  37.2635887 118.1127315  64.4660230
  36.7357249 117.3780075  64.1533468  36.7623390 118.8901991  64.2200199
  42.2428733 116.3076336  69.5827277  41.5852408 116.9975597  69.6707405
  43.0469132 116.6972768  69.9261263  31.9954615 108.7746981  66.8266842
  32.5698367 108.5522163  66.0940035  32.5825597 108.8435676  67.5795443
  41.0534192 114.6620708  67.6331218  41.5666074 115.2950700  68.1352928
  41.7035416 114.0621904  67.2674578  32.3224202 110.8051442  60.8462727
  31.4861514 111.1426129  61.1672002  32.1828972 110.6700422  59.9089864
  34.2977283 105.6488230  65.5541911  33.6441695 105.3337247  64.9298526
  34.2557757 105.0263971  66.2801734  35.4088487 115.9307525  57.4695203
  34.5015549 115.6996779  57.6686352  35.9059519 115.1345145  57.6569185
  38.3156566 124.6405033  60.3891889  37.6418265 124.9436729  60.9976847
  38.7022388 125.4434113  60.0397347  37.5315023 112.1370164  69.8789559
  36.6137584 112.3585111  69.7211247  37.9475167 112.2116474  69.0201266
  38.3150071 113.5361579  65.0092239  39.0621890 114.0482977  64.6999361
  38.5841660 113.2145632  65.8696633  36.5876721 116.0320120  61.9919193
  35.6787940 115.7479153  62.0891663  36.6171805 116.4519199  61.1322500
  41.8195988 119.6426710  65.7610361  41.3658315 118.8017620  65.8175551
  41.1889955 120.2788108  66.0985141  40.7628908 110.5718696  66.9911028
  40.0251665 110.0596082  67.3221271  41.0155681 110.1319077  66.1794305
  40.2628928 121.4803206  66.6960179  40.5551902 122.0408264  65.9772545
  40.7727548 121.7731767  67.4513338  40.8640535 103.3494948  67.5852798
  41.1699412 102.4892311  67.2978713  41.5893140 103.9412568  67.3851792
  27.1564891 113.7525634  65.9734396  26.9589291 113.1594995  65.2485462
  26.6011555 113.4477845  66.6910334  35.1361615 113.6448741  68.0928989
  35.1910225 112.6922577  68.0171465  34.3252817 113.8008180  68.5770287
  36.2852809 117.5728864  59.3307272  35.8472239 116.8564723  58.8712909
  37.0263250 117.8004979  58.7692363  33.0753975 112.2625801  65.8519368
  32.2621840 112.5619971  66.2584560  33.5712969 111.8681489  66.5693850
  35.2262553 122.2583557  67.7853632  35.1838732 122.4844404  66.8562164
  36.1425252 122.0246932  67.9339433  38.6728187 112.7267625  74.6834262
  39.0277574 112.9539098  75.5428727  39.3200318 113.0586002  74.0611517
  44.4025923 115.8486061  65.3883591  44.2643822 116.0387657  64.4604780
  44.0462142 116.6105444  65.8451642  32.5668050 109.8344156  71.4680603
  33.2067429 109.6932915  70.7703566  31.7345580 109.5478669  71.0919205
  44.4295303 117.9162588  70.3994862  44.8631810 117.8237877  71.2477916
  45.1426884 117.8920088  69.7614878  33.3428353 119.1346587  67.5815595
  34.1368952 118.6396907  67.3798170  32.6320046 118.6064450  67.2183301
  38.1623198 121.5164682  71.9327963  38.2160220 122.0855618  72.7005679
  37.2937979 121.6866567  71.5682000  29.6511117 113.2789668  63.6575348
  28.7208705 113.2174124  63.8745310  29.7468589 112.7565621  62.8611989
  29.5696666 109.8044481  66.2453589  29.8303483 110.7189814  66.1362750
  30.3913838 109.3368924  66.3950202  31.0421591 111.2182238  73.4152414
  31.7144645 111.0099600  72.7665063  30.2151378 111.0204324  72.9757646
  45.2910853 117.9586289  72.9327747  45.4846743 118.8632099  73.1787022
  45.1911471 117.4993708  73.7666333  36.9447163 107.8444179  75.4318075
  36.2975078 108.5434129  75.3382551  37.7148179 108.2780323  75.7994323
  40.3525961 118.1093031  78.5068628  40.2011468 117.8803583  77.5898712
  40.3430641 119.0663633  78.5199973  37.1211298 115.6824944  73.4914895
  38.0503358 115.8336104  73.3183862  36.7002328 115.7708965  72.6363541
  35.9199629 119.7075609  71.2613432  35.7810715 119.3394393  72.1339370
  35.1314226 120.2223248  71.0897390  36.5147781 124.8084705  62.6038969
  36.6899537 124.3372748  63.4184591  35.8280569 125.4350471  62.8320229
  37.4704845 119.0857211  68.6502270  37.1354677 119.0457981  69.5459920
  36.9708790 118.4201927  68.1772680  31.4449089 114.4924841  74.1754851
  31.3068887 113.7605080  74.7766390  32.3554012 114.4033741  73.8939039
  40.4064036 116.4313246  58.9239330  39.7893207 115.7060074  58.8272382
  39.9380525 117.1922606  58.5806404  34.0731389 114.2044801  73.6638531
  34.7831008 113.5637993  73.6225149  34.0300697 114.4557695  74.5864712
  42.0618168 121.1412154  76.5845110  42.0030714 120.4571374  75.9175693
  42.4637686 121.8831144  76.1325736  32.7860323 111.1910018  75.4834170
  32.2497680 110.7400757  76.1355767  32.1977032 111.3255927  74.7404635
  32.1962582 110.6498670  58.0460634  31.3192049 110.5287471  57.6822881
  32.6720335 109.8584748  57.7939523  42.0635575 119.1051738  74.8159090
  41.1762354 118.7677660  74.9385488  42.6334126 118.3734769  75.0527855
  23.7164722 115.4375830  68.1402141  24.4035762 115.1237560  67.5523156
  23.5612851 116.3417194  67.8669392  28.5199444 110.3266026  72.5687165
  28.4357633 109.7191696  71.8337575  27.6982151 110.8175044  72.5696661
  35.5936729 123.7653190  71.7820333  35.5206900 124.5708162  72.2939637
  35.1514122 123.9645156  70.9568354  35.3826508 123.0024960  65.2923154
  34.5994030 123.5446640  65.3861379  36.0819253 123.5198940  65.6917396
  38.6923158 108.8119590  67.9357360  39.1891858 108.0589552  67.6158430
  37.9210140 108.8483906  67.3700569  46.5452916 114.5159955  69.5775651
  46.5342792 115.3984671  69.2069584  45.6770295 114.1631506  69.3830188
  38.0535412 123.6640024  73.9378491  38.7663384 124.2987489  73.8654393
  37.5625441 123.7603890  73.1218493  39.7752939 117.5691277  65.5095783
  38.8409218 117.6892739  65.3400487  39.9529607 116.6663744  65.2455793
  35.2758127 110.9536973  67.6629044  34.9055915 110.4008013  68.3509950
  35.7717220 110.3495106  67.1104044  43.1625490 113.4108596  66.0445817
  43.6285943 114.2436588  65.9706120  43.6132991 112.9453578  66.7491076
  33.1047326 121.4134468  74.7584062  33.8056785 122.0470951  74.9113457
  32.6342441 121.7549199  73.9979702  41.2301721 119.7552417  63.0431969
  41.5061565 119.6409012  63.9525843  40.3606220 119.3569902  63.0044142
  41.1342153 105.7789183  70.0836719  40.2205233 106.0093410  70.2518926
  41.5635255 105.8627627  70.9350751  40.9048612 113.9679075  72.5836613
  40.2520062 114.2154983  71.9289065  41.2828992 113.1543213  72.2499090
  37.8655785 124.0038768  66.6864783  38.0478180 123.1860424  67.1492535
  38.6888772 124.2206461  66.2489673  38.1997951 122.9306953  63.9479831
  38.7285717 122.4199408  63.3349994  38.4626171 122.6149484  64.8125364
  36.9536185 114.7098886  79.0702650  36.2776822 114.6093016  79.7405025
  37.7763819 114.5538100  79.5338647  28.7015044 120.9470823  71.6915165
  29.2868481 120.2014511  71.8243069  28.5039882 121.2574779  72.5751829
  31.5553699 123.9822070  66.7077607  30.8864074 124.4668198  66.2241647
  31.4166569 124.2291291  67.6220986  23.2932698 113.5176423  70.4119608
  23.3316798 112.9840014  71.2056726  22.7872991 112.9911628  69.7930585
  35.6958968 126.0165814  73.3060266  36.2477276 126.1797435  74.0709351
  36.0365161 126.6070251  72.6340291  30.6723461 108.3640963  73.9082150
  30.7364787 109.2255794  73.4959548  30.6090581 107.7514965  73.1754509
  30.1475733 110.4364096  77.5555185  30.7747772 110.0541173  78.1692709
  29.2903652 110.2178298  77.9210877  40.5469842 120.8427071  79.1608920
  41.0909746 121.4557029  78.6663875  39.9656687 121.4006650  79.6775933
  26.9241276 112.2440525  63.4873540  27.2194717 111.3351203  63.4340593
  26.0229312 112.2228265  63.1654542  38.8327355 123.9647789  70.2923948
  38.7078494 123.1637529  69.7834893  39.4906446 124.4593983  69.8037918
  30.4535523 110.3196522  69.4701088  29.7322109 110.9332489  69.3308561
  31.2428779 110.8554286  69.3917734  40.8962263 121.7656809  71.9203498
  39.9492599 121.6462160  71.8481825  41.2445036 120.8779307  72.0029759
  33.2561837 107.6550948  75.7441740  33.7796238 107.9013245  76.5068049
  33.0374170 108.4870983  75.3244877  28.6529118 109.9254623  63.6112865
  28.3241824 109.0452002  63.4287971  29.0068488 109.8702291  64.4989254
  37.9008696 121.5609525  68.1207850  37.7533659 120.6326233  68.3015420
  38.7262190 121.5829616  67.6364925  31.7670941 110.2127593  63.9788342
  32.1067013 110.7413514  63.2566951  32.2143061 110.5507999  64.7546909
  41.5042818 122.3838084  69.2072723  42.4289366 122.1780946  69.0697174
  41.3358122 122.1354485  70.1162064  34.4614382 108.5964643  73.4291410
  34.1211202 107.7972456  73.8312090  33.7553388 108.8966354  72.8568244
  35.1130853 105.6813956  71.8818733  35.9356923 105.2074434  71.7597624
  35.3568917 106.4604439  72.3817420  33.7539088 108.7102214  62.1781635
  34.4747450 109.0883467  61.6745352  33.1304392 109.4291091  62.2816613
  37.8970211 109.4147363  63.1139967  38.1133825 110.2972001  62.8128796
  37.4164278 109.0233577  62.3845609  32.6369432 112.3733076  69.6910712
  32.4914013 112.6873379  70.5834994  32.1594636 112.9917977  69.1381611
  34.4965815 109.3635624  69.7391602  34.4827384 108.4676718  69.4023900
  35.2138243 109.3706288  70.3729888  36.3491946 109.7972965  71.7844729
  36.0909724 110.7190035  71.7829059  35.8176986 109.4003399  72.4745193
  41.2938135 122.9023752  64.5634814  41.4675012 122.3370174  63.8108667
  41.7867026 123.7024647  64.3814304  27.1115094 114.9138421  72.6298373
  26.5668562 115.6898229  72.7618648  27.9894444 115.2609225  72.4717495
  33.9002711 108.2450005  65.0079172  34.0218622 107.3166651  65.2070059
  33.6104753 108.2588691  64.0957487  36.7693901 105.9304915  68.1445892
  36.7915598 105.9944248  67.1897871  37.1861960 105.0909424  68.3386398
  47.1477526 115.6660175  66.1825114  47.5908672 114.9167500  65.7844237
  46.2704036 115.6570311  65.7998846  42.2813307 122.2190516  61.6631713
  42.9764212 122.8397209  61.8819027  42.6236457 121.3685867  61.9384091
  27.8981116 114.0408317  75.5228530  27.1562852 114.1890952  76.1093161
  27.5773860 114.3016583  74.6595280  44.1804730 119.6690222  63.1919043
  44.7056054 120.0077494  62.4668363  44.0927083 118.7337237  63.0082178
  35.8424779 123.5824295  75.3208920  36.1511905 123.3373442  76.1931620
  36.6400261 123.7870934  74.8327790  35.8645391 125.7362205  67.5514297
  35.4250381 125.2438584  68.2447153  36.6153508 125.1935173  67.3106372
  28.3437730 121.9273746  67.5538925  29.1695750 121.6277518  67.1737568
  27.9931782 121.1581368  68.0028713  33.3119263 121.2800214  69.6236598
  32.6899272 120.6170919  69.3238826  33.9824130 121.3061346  68.9410246
  26.5446335 119.8460072  68.5127858  25.7078243 119.4182247  68.3311860
  26.5169980 120.0392516  69.4498650  33.3843791 109.7582002  79.2169104
  33.4331946 110.6344125  78.8346874  33.9266305 109.2159395  78.6440748
  43.8698636 120.3023125  78.4970241  43.0794180 120.2847264  77.9574741
  43.6331991 120.8411419  79.2519278  43.9896511 117.1515592  75.8102970
  44.0394516 116.9865599  76.7518493  43.8810435 116.2842851  75.4200851
  32.8732770 119.8304137  63.0995059  33.0220890 120.5139602  62.4461732
  33.6799213 119.8109227  63.6144515  41.2800274 113.1346520  77.1262277
  42.1810136 112.9952984  76.8346274  41.3548248 113.3000974  78.0660454
  35.6143079 110.5113374  75.9715463  34.7446388 110.8046940  75.6998052
  35.8502559 111.0953819  76.6922727  45.4914708 119.5712533  76.0544992
  45.1999516 119.9342514  76.8908452  44.8786839 118.8579541  75.8758324
  46.6910390 117.1365413  68.5747562  47.5257282 117.5755217  68.7385122
  46.8269519 116.6604066  67.7555807  43.7401896 114.6945148  74.5225049
  44.2156018 114.8872794  73.7143901  42.8167462 114.7504334  74.2768433
  30.6285403 115.8569315  64.1056128  30.3831445 114.9531645  64.3036338
  30.7981317 115.8586465  63.1635606  38.3182113 106.7292991  73.4880883
  38.8364057 107.4654018  73.1627372  37.9637246 107.0356985  74.3227643
  29.8981050 111.5897672  61.6042289  29.2050295 111.6642027  60.9482325
  29.6532802 110.8258016  62.1263806  38.5694707 103.1493274  69.0081780
  38.8496461 102.4816463  69.6342207  39.3545314 103.3422369  68.4956444
  36.3728175 122.3252268  60.5706806  35.8002143 122.9442455  60.1177278
  36.9460969 122.8751629  61.1046728  42.4403565 111.5710908  72.7553355
  43.3920988 111.6709005  72.7765579  42.2707016 110.7789176  73.2651439
  40.4617945 108.6566491  72.9412756  39.8667877 108.9371504  72.2459245
  40.1767641 109.1460392  73.7129497  39.5925435 122.6089418  61.7015389
  40.5256108 122.5434980  61.9048264  39.5048648 123.4445685  61.2429921
  42.2213452 121.9255288  58.6619336  42.1427083 121.5915152  59.5555094
  43.0423119 122.4177056  58.6610808  44.9191643 114.7917028  71.8695655
  44.8867963 113.8533028  72.0555339  45.5292267 114.8701064  71.1361480
  36.7574974 113.6613080  57.9122859  37.7034079 113.5319289  57.9811277
  36.3789219 112.9227742  58.3892287  45.0686132 111.5828071  71.9153938
  44.5525180 110.7986528  71.7283867  45.9526080 111.2546788  72.0800457
  42.7296859 105.3269087  67.8749751  42.5321680 105.0184175  68.7593083
  43.3396564 106.0530725  68.0047680  50.7368193 115.8533034  71.0101692
  51.4671581 115.5918322  71.5709395  50.1275138 115.1161756  71.0503760
  48.8183490 113.9940897  71.6076143  48.0916654 113.8596862  70.9992634
  48.4030777 114.3017726  72.4132861  36.6413667 117.7130827  79.3723516
  37.5616676 117.8909426  79.5663562  36.6063250 116.7686872  79.2203215
  34.9417891 111.5863057  57.8477744  34.0349347 111.2896170  57.9240458
  35.2193872 111.2892875  56.9812030  25.8595832 112.9069420  68.2976790
  25.5398616 112.0534728  68.0051164  25.3129260 113.1217998  69.0534758
  29.6375739 115.6231861  72.0146297  29.8561749 116.5548969  72.0334331
  30.0501513 115.2639836  72.8001101  36.5579957 106.1299947  64.0021985
  35.7480685 105.7847032  64.3777231  37.2464374 105.8207490  64.5909597
  38.4870505 105.2077993  65.6246282  39.0401544 105.6273447  66.2836305
  38.7240591 104.2813742  65.6669238  34.5103604 111.1965067  81.4049046
  34.4100331 112.1459424  81.3361137  34.2925146 110.8683306  80.5325116
  33.7116676 108.4449992  57.9889723  34.5735840 108.7704890  58.2485541
  33.8967020 107.6581488  57.4762789  25.7284092 116.5272332  70.2669912
  25.0347563 116.1126285  69.7539866  26.4757083 116.5692868  69.6703331
  41.8649312 107.3178519  65.1324946  41.2847981 107.9763323  64.7502999
  41.5985245 106.4955863  64.7212364  40.3152879 106.7183576  67.3346267
  40.8152657 106.8300111  66.5260585  40.9588487 106.4144629  67.9747075
  34.3734874 114.6262206  80.2214108  33.8901956 115.4262566  80.4277997
  34.4595813 114.6370151  79.2681551  27.6420834 116.4590586  68.1435927
  27.6191522 116.5578273  67.1917810  27.9521471 117.3055736  68.4653093
  30.3008212 118.5166741  72.2582541  31.2551465 118.4850683  72.1912473
  30.1020735 118.0557364  73.0732767  30.8907594 117.0867857  74.8253339
  31.7100483 117.5811935  74.8488176  31.1644402 116.1699825  74.7970906
  40.6474190 109.4778609  64.1881294  39.7600045 109.7628260  63.9701489
  41.0628179 109.3172372  63.3408571  43.9988726 109.5025130  67.9035634
  44.7749116 109.9921582  68.1760251  43.2736861 109.9283184  68.3607503
  46.4361285 110.2152749  68.9609574  47.0305776 109.9748485  68.2502883
  46.5087869 109.4959880  69.5883111  28.6558441 124.0586360  69.2752739
  28.5212909 123.2986761  68.7090737  28.2390503 124.7827260  68.8081528
  39.7917404 119.2423284  58.2829314  40.4953254 119.4473286  58.8986970
  39.0680052 119.8100045  58.5478398  40.6215214 114.9933145  64.4031585
  40.5650415 115.4501696  63.5639217  41.1743556 114.2323829  64.2254427
  44.4320020 110.7822877  65.2281704  44.1756954 110.3819512  66.0589912
  43.8072888 111.4966671  65.1031843  48.7432358 113.5218950  67.7352996
  48.1831916 113.5912139  68.5084558  48.1375861 113.3459935  67.0152492
  31.8127567 124.9555677  69.4871182  31.6959951 125.9001110  69.3849872
  30.9920013 124.6529239  69.8756981  41.7004101 119.6805813  60.3327775
  42.5349705 119.2487011  60.1505249  41.5388444 119.5087826  61.2604669
  41.3549993 116.1837926  61.6984114  41.2998797 116.0182198  60.7572558
  40.7296049 116.8913959  61.8546304  26.1442508 111.4205990  75.5245536
  26.7901372 110.9104944  76.0132761  25.9359659 112.1574672  76.0988961
  38.6695900 118.4886838  81.0237677  39.5387060 118.6627490  80.6624312
  38.1902652 119.3081255  80.9013406  34.6646119 105.6846035  61.2769432
  34.6524789 106.6287875  61.4337703  35.5569541 105.5016181  60.9828893
  32.8382081 125.6083939  72.7027110  33.7409327 125.6407549  73.0193605
  32.6119451 124.6784390  72.7173446  34.5935683 124.3614926  69.3637189
  33.6431314 124.3616787  69.2501561  34.8968169 123.6147660  68.8473223
  38.4798238 102.2788812  65.5315369  37.7130634 101.7247298  65.6772051
  38.8908943 102.3510681  66.3929521  30.4839999 108.5673608  79.6220550
  31.3471461 108.2110412  79.8323875  29.9105410 108.2287502  80.3095955
  50.3288376 130.1975464  70.4282951  50.9666786 130.0782211  69.7246291
  50.2109219 131.1456308  70.4870903  47.1378082 130.1502892  70.3644476
  46.7996594 130.0343957  69.4765011  48.0067851 129.7494057  70.3445482
  42.9964898 132.0038368  66.3541367  42.4329763 131.9128305  65.5857655
  42.8817293 131.1838273  66.8343859  47.6197865 131.3037744  76.3230681
  47.6086506 130.9090542  75.4511185  47.7818505 130.5703816  76.9164453
  45.2661333 131.4651704  71.8611225  45.8624906 131.2407726  71.1468188
  45.3236305 130.7236450  72.4636673  44.8386362 128.9191139  59.6961416
  45.0911883 128.3972661  58.9344879  43.9010921 128.7557285  59.7988100
  49.8829645 127.9226918  67.5036159  50.6692734 127.5046341  67.1526576
  50.1468349 128.8273010  67.6717808  50.0539722 133.3599768  62.2024816
  49.4185555 133.4334395  62.9145721  49.7237128 133.9493367  61.5243895
  55.2838072 127.8602151  68.4069138  56.0163244 127.2901368  68.6406967
  54.5277428 127.4723751  68.8475643  44.5582651 130.8219245  61.8985791
  44.4418909 130.1464149  62.5666875  44.6684911 130.3351619  61.0817944
  46.9014192 130.2829392  65.6032480  46.5372399 129.7560013  66.3145402
  47.7581307 129.8927862  65.4298966  52.8063492 121.5723725  72.8663746
  52.4746817 122.4419136  72.6424961  52.2109106 121.2560009  73.5457777
  46.5419679 125.3119292  60.5993829  46.7094081 126.1799529  60.9664300
  46.3516848 125.4746574  59.6755118  49.2995012 133.7736271  72.2659659
  48.9995735 134.6761310  72.1575466  48.9546071 133.5068454  73.1180812
  42.7507493 130.2250068  68.2996364  41.8257990 130.0926282  68.5074055
  42.9991906 131.0044287  68.7966306  52.6992156 126.2918811  69.9457096
  51.7909033 126.2234220  69.6515857  52.6479751 126.7690756  70.7738922
  46.5208899 127.7676950  61.5840496  46.4008525 128.2134000  62.4225976
  45.8261488 128.1162267  61.0254034  40.1116304 129.8683341  69.1340153
  40.2408685 130.1217820  70.0479564  39.4313756 130.4611049  68.8144808
  46.7733021 127.7108457  77.8891994  45.9966355 128.2702377  77.8794858
  47.4123584 128.1965240  78.4106864  54.5653802 124.4935250  71.7234970
  53.9228182 124.7867783  71.0774765  54.0608730 124.3788170  72.5288167
  52.2193966 128.2398423  62.4120830  53.1311822 128.4725810  62.2368527
  51.7103613 128.8235467  61.8495908  45.0279394 130.5193910  77.4509961
  45.7694078 131.0578954  77.1744784  44.3216379 131.1460199  77.6081513
  50.5034733 132.6623051  76.0482122  50.9118089 132.2205461  75.3036755
  49.7811995 132.0875678  76.3016315  46.8565803 127.5995657  73.4215679
  47.7026998 128.0235071  73.5650328  46.7964441 126.9429282  74.1154242
  50.8263548 133.2224241  69.8034411  50.1972410 133.3869955  69.1010479
  50.4389210 133.6365851  70.5745375  54.7052780 134.1578679  67.1578775
  54.0203818 134.5377580  66.6075808  54.7896629 134.7674006  67.8910723
  50.0065249 125.2600026  75.0796853  49.7626180 126.0142086  74.5431128
  50.2825179 125.6385373  75.9144100  51.9603711 131.8038638  73.7574118
  52.1720607 132.4470398  73.0808499  51.9133460 130.9700955  73.2896048
  49.5629940 124.4156459  70.6610691  48.7014419 124.7137712  70.9527428
  49.5892375 124.6326858  69.7291723  46.3791510 132.9598649  67.0684496
  46.8429855 133.2386352  66.2789119  46.1148308 132.0582094  66.8857587
  45.3160396 129.0821802  63.8774061  46.0184439 129.5342845  64.3447988
  44.9841024 128.4405621  64.5053954  43.7640757 127.6733558  78.2525271
  43.1339418 128.3549839  78.4860668  43.6576845 127.5616640  77.3078409
  39.0585730 127.3405354  69.1791195  38.2684784 127.5962883  68.7031306
  39.5496977 128.1553692  69.2843235  53.0749539 134.6810594  71.9296476
  53.8966983 134.2790781  71.6479157  53.0711942 134.5778828  72.8812592
  41.0100475 127.7049934  66.1374672  40.2131638 127.8168628  66.6558167
  40.7826067 128.0436586  65.2715562  37.3423433 127.5935845  71.6106186
  37.5931471 128.4782855  71.8763762  37.8782981 127.4140446  70.8381278
  61.1655532 131.0249342  68.2781447  60.4119241 130.4556740  68.1225452
  61.3003074 130.9912007  69.2252082  43.0421500 121.9754324  80.6150522
  42.6488446 121.4220523  81.2898166  43.8587640 122.2864903  81.0057039
  45.9589461 123.3912203  78.2070778  46.6999174 123.9919356  78.1275241
  46.1907384 122.6489841  77.6488821  41.1030799 128.5768571  76.4849008
  40.9884314 127.6753828  76.7856107  40.2475317 128.8232267  76.1333825
  49.9046624 119.4193306  72.4835060  49.5610893 120.3094948  72.4074171
  50.2725587 119.2294964  71.6204645  49.8696907 129.4101917  60.9907495
  49.3543530 130.1806522  61.2295883  49.5974215 128.7367054  61.6140557
  47.4544018 124.2551618  66.0492734  46.5985614 123.8658469  65.8698372
  47.8670970 124.3343579  65.1892519  48.9843164 121.7897961  70.4484293
  48.4807960 121.7528097  69.6352099  49.2773771 122.6990704  70.5080950
  45.2286050 121.8736691  69.4550475  46.0939047 121.6779500  69.0956364
  45.2963559 121.6447043  70.3819832  54.8431181 132.1634272  62.9260669
  54.0660624 131.8245431  62.4815831  55.5222662 132.1686895  62.2515634
  49.6583210 127.2829009  62.8167276  49.3533345 127.5975159  63.6677420
  50.6113652 127.3610429  62.8594609  53.0822488 131.6368253  69.5827277
  52.4246162 132.3267515  69.6707405  53.8862887 132.0264685  69.9261263
  42.8348369 124.1038899  66.8266842  43.4092121 123.8814081  66.0940035
  43.4219352 124.1727594  67.5795443  51.8927947 129.9912626  67.6331218
  52.4059828 130.6242618  68.1352928  52.5429170 129.3913821  67.2674578
  43.1617956 126.1343360  60.8462727  42.3255269 126.4718047  61.1672002
  43.0222726 125.9992340  59.9089864  45.1371037 120.9780148  65.5541911
  44.4835449 120.6629165  64.9298526  45.0951511 120.3555888  66.2801734
  46.2482242 131.2599443  57.4695203  45.3409304 131.0288696  57.6686352
  46.7453274 130.4637062  57.6569185  48.3708777 127.4662081  69.8789559
  47.4531339 127.6877029  69.7211247  48.7868921 127.5408392  69.0201266
  49.1543825 128.8653497  65.0092239  49.9015644 129.3774894  64.6999361
  49.4235415 128.5437550  65.8696633  47.4270475 131.3612038  61.9919193
  46.5181695 131.0771071  62.0891663  47.4565559 131.7811116  61.1322500
  52.6589743 134.9718627  65.7610361  52.2052070 134.1309537  65.8175551
  52.0283709 135.6080026  66.0985141  51.6022662 125.9010613  66.9911028
  50.8645419 125.3888000  67.3221271  51.8549436 125.4610995  66.1794305
  51.7034290 118.6786865  67.5852798  52.0093166 117.8184229  67.2978713
  52.4286894 119.2704486  67.3851792  37.9958646 129.0817552  65.9734396
  37.7983046 128.4886913  65.2485462  37.4405310 128.7769762  66.6910334
  45.9755369 128.9740658  68.0928989  46.0303979 128.0214495  68.0171465
  45.1646571 129.1300098  68.5770287  47.1246563 132.9020782  59.3307272
  46.6865993 132.1856640  58.8712909  47.8657004 133.1296896  58.7692363
  43.9147729 127.5917718  65.8519368  43.1015595 127.8911889  66.2584560
  44.4106723 127.1973407  66.5693850  49.5121941 128.0559543  74.6834262
  49.8671329 128.2831016  75.5428727  50.1594072 128.3877920  74.0611517
  55.2419678 131.1777979  65.3883591  55.1037577 131.3679575  64.4604780
  54.8855897 131.9397361  65.8451642  43.4061804 125.1636074  71.4680603
  44.0461183 125.0224833  70.7703566  42.5739335 124.8770587  71.0919205
  55.2689058 133.2454506  70.3994862  55.7025564 133.1529795  71.2477916
  55.9820638 133.2212006  69.7614878  40.4904871 128.6081586  63.6575348
  39.5602460 128.5466041  63.8745310  40.5862343 128.0857539  62.8611989
  40.4090420 125.1336399  66.2453589  40.6697238 126.0481732  66.1362750
  41.2307593 124.6660841  66.3950202  41.8815346 126.5474156  73.4152414
  42.5538399 126.3391518  72.7665063  41.0545132 126.3496242  72.9757646
  56.1304607 133.2878206  72.9327747  56.3240497 134.1924017  73.1787022
  56.0305225 132.8285625  73.7666333  47.7840918 123.1736097  75.4318075
  47.1368833 123.8726047  75.3382551  48.5541933 123.6072241  75.7994323
  51.1919716 133.4384949  78.5068628  51.0405222 133.2095501  77.5898712
  51.1824395 134.3955550  78.5199973  47.9605052 131.0116862  73.4914895
  48.8897112 131.1628021  73.3183862  47.5396082 131.1000883  72.6363541
  42.2842843 129.8216759  74.1754851  42.1462641 129.0896998  74.7766390
  43.1947767 129.7325659  73.8939039  51.2457791 131.7605163  58.9239330
  50.6286961 131.0351991  58.8272382  50.7774279 132.5214523  58.5806404
  44.9125144 129.5336718  73.6638531  45.6224762 128.8929910  73.6225149
  44.8694452 129.7849613  74.5864712  43.6254078 126.5201936  75.4834170
  43.0891435 126.0692675  76.1355767  43.0370786 126.6547845  74.7404635
  43.0356337 125.9790588  58.0460634  42.1585803 125.8579388  57.6822881
  43.5114090 125.1876666  57.7939523  52.9029330 134.4343656  74.8159090
  52.0156108 134.0969577  74.9385488  53.4727881 133.7026687  75.0527855
  39.3593199 125.6557944  72.5687165  39.2751388 125.0483613  71.8337575
  38.5375905 126.1466962  72.5696661  49.5316913 124.1411507  67.9357360
  50.0285612 123.3881470  67.6158430  48.7603894 124.1775824  67.3700569
  57.3846670 129.8451873  69.5775651  57.3736546 130.7276588  69.2069584
  56.5164050 129.4923424  69.3830188  50.6146694 132.8983195  65.5095783
  49.6802972 133.0184657  65.3400487  50.7923362 131.9955661  65.2455793
  46.1151882 126.2828890  67.6629044  45.7449669 125.7299931  68.3509950
  46.6110974 125.6787024  67.1104044  54.0019245 128.7400514  66.0445817
  54.4679697 129.5728505  65.9706120  54.4526745 128.2745495  66.7491076
  52.0695476 135.0844335  63.0431969  52.3455320 134.9700930  63.9525843
  51.1999975 134.6861820  63.0044142  51.9735908 121.1081101  70.0836719
  51.0598987 121.3385328  70.2518926  52.4029009 121.1919545  70.9350751
  51.7442366 129.2970993  72.5836613  51.0913816 129.5446900  71.9289065
  52.1222746 128.4835131  72.2499090  47.7929939 130.0390804  79.0702650
  47.1170576 129.9384933  79.7405025  48.6157573 129.8830018  79.5338647
  34.1326453 128.8468341  70.4119608  34.1710552 128.3131931  71.2056726
  33.6266746 128.3203546  69.7930585  41.5117215 123.6932881  73.9082150
  41.5758542 124.5547712  73.4959548  41.4484335 123.0806883  73.1754509
  40.9869488 125.7656014  77.5555185  41.6141527 125.3833091  78.1692709
  40.1297407 125.5470216  77.9210877  37.7635031 127.5732443  63.4873540
  38.0588472 126.6643121  63.4340593  36.8623066 127.5520182  63.1654542
  41.2929278 125.6488439  69.4701088  40.5715863 126.2624407  69.3308561
  42.0822533 126.1846204  69.3917734  44.0955591 122.9842866  75.7441740
  44.6189993 123.2305162  76.5068049  43.8767924 123.8162901  75.3244877
  39.4922872 125.2546540  63.6112865  39.1635578 124.3743919  63.4287971
  39.8462243 125.1994209  64.4989254  42.6064695 125.5419510  63.9788342
  42.9460768 126.0705431  63.2566951  43.0536816 125.8799916  64.7546909
  45.3008136 123.9256561  73.4291410  44.9604956 123.1264374  73.8312090
  44.5947142 124.2258272  72.8568244  45.9524608 121.0105873  71.8818733
  46.7750677 120.5366352  71.7597624  46.1962671 121.7896357  72.3817420
  44.5932842 124.0394132  62.1781635  45.3141205 124.4175385  61.6745352
  43.9698147 124.7583009  62.2816613  48.7363965 124.7439281  63.1139967
  48.9527580 125.6263919  62.8128796  48.2558032 124.3525494  62.3845609
  43.4763187 127.7024994  69.6910712  43.3307767 128.0165297  70.5834994
  42.9988390 128.3209894  69.1381611  45.3359570 124.6927542  69.7391602
  45.3221138 123.7968635  69.4023900  46.0531998 124.6998206  70.3729888
  47.1885700 125.1264882  71.7844729  46.9303478 126.0481953  71.7829059
  46.6570741 124.7295317  72.4745193  44.7396465 123.5741922  65.0079172
  44.8612377 122.6458568  65.2070059  44.4498508 123.5880608  64.0957487
  47.6087656 121.2596833  68.1445892  47.6309353 121.3236166  67.1897871
  48.0255715 120.4201341  68.3386398  57.9871280 130.9952092  66.1825114
  58.4302426 130.2459417  65.7844237  57.1097790 130.9862229  65.7998846
  38.7374871 129.3700235  75.5228530  37.9956607 129.5182870  76.1093161
  38.4167615 129.6308500  74.6595280  55.0198485 134.9982139  63.1919043
  55.5449809 135.3369412  62.4668363  54.9320837 134.0629155  63.0082178
  44.2237545 125.0873920  79.2169104  44.2725700 125.9636042  78.8346874
  44.7660059 124.5451313  78.6440748  54.7092391 135.6315043  78.4970241
  53.9187934 135.6139182  77.9574741  54.4725745 136.1703337  79.2519278
  54.8290266 132.4807509  75.8102970  54.8788271 132.3157517  76.7518493
  54.7204189 131.6134768  75.4200851  52.1194028 128.4638437  77.1262277
  53.0203891 128.3244902  76.8346274  52.1942003 128.6292892  78.0660454
  46.4536833 125.8405292  75.9715463  45.5840143 126.1338858  75.6998052
  46.6896314 126.4245737  76.6922727  56.3308463 134.9004451  76.0544992
  56.0393271 135.2634431  76.8908452  55.7180594 134.1871459  75.8758324
  57.5304145 132.4657331  68.5747562  58.3651036 132.9047135  68.7385122
  57.6663274 131.9895984  67.7555807  54.5795651 130.0237065  74.5225049
  55.0549772 130.2164712  73.7143901  53.6561216 130.0796251  74.2768433
  41.4679157 131.1861233  64.1056128  41.2225199 130.2823563  64.3036338
  41.6375072 131.1878383  63.1635606  49.1575867 122.0584909  73.4880883
  49.6757811 122.7945936  73.1627372  48.8031000 122.3648902  74.3227643
  40.7374805 126.9189590  61.6042289  40.0444050 126.9933945  60.9482325
  40.4926557 126.1549934  62.1263806  49.4088461 118.4785192  69.0081780
  49.6890215 117.8108381  69.6342207  50.1939068 118.6714287  68.4956444
  53.2797320 126.9002825  72.7553355  54.2314743 127.0000923  72.7765579
  53.1100770 126.1081094  73.2651439  51.3011699 123.9858409  72.9412756
  50.7061631 124.2663421  72.2459245  51.0161396 124.4752310  73.7129497
  55.7585398 130.1208945  71.8695655  55.7261718 129.1824946  72.0555339
  56.3686021 130.1992982  71.1361480  47.5968728 128.9904998  57.9122859
  48.5427833 128.8611206  57.9811277  47.2182973 128.2519660  58.3892287
  55.9079886 126.9119989  71.9153938  55.3918935 126.1278445  71.7283867
  56.7919835 126.5838705  72.0800457  53.5690613 120.6561004  67.8749751
  53.3715434 120.3476092  68.7593083  54.1790319 121.3822643  68.0047680
  61.5761947 131.1824952  71.0101692  62.3065336 130.9210240  71.5709395
  60.9668893 130.4453674  71.0503760  59.6577245 129.3232815  71.6076143
  58.9310408 129.1888780  70.9992634  59.2424531 129.6309643  72.4132861
  47.4807421 133.0422744  79.3723516  48.4010430 133.2201343  79.5663562
  47.4457004 132.0978790  79.2203215  45.7811646 126.9154975  57.8477744
  44.8743101 126.6188087  57.9240458  46.0587627 126.6184793  56.9812030
  36.6989586 128.2361338  68.2976790  36.3792370 127.3826646  68.0051164
  36.1523014 128.4509916  69.0534758  47.3973711 121.4591864  64.0021985
  46.5874440 121.1138949  64.3777231  48.0858128 121.1499408  64.5909597
  49.3264260 120.5369911  65.6246282  49.8795298 120.9565364  66.2836305
  49.5634346 119.6105659  65.6669238  45.3497359 126.5256985  81.4049046
  45.2494086 127.4751342  81.3361137  45.1318901 126.1975224  80.5325116
  44.5510430 123.7741910  57.9889723  45.4129594 124.0996808  58.2485541
  44.7360774 122.9873406  57.4762789  52.7043067 122.6470436  65.1324946
  52.1241736 123.3055240  64.7502999  52.4378999 121.8247781  64.7212364
  51.1546633 122.0475494  67.3346267  51.6546411 122.1592028  66.5260585
  51.7982241 121.7436547  67.9747075  45.2128629 129.9554124  80.2214108
  44.7295711 130.7554484  80.4277997  45.2989568 129.9662068  79.2681551
  51.4867945 124.8070527  64.1881294  50.5993800 125.0920177  63.9701489
  51.9021934 124.6464290  63.3408571  54.8382481 124.8317048  67.9035634
  55.6142871 125.3213500  68.1760251  54.1130615 125.2575102  68.3607503
  57.2755039 125.5444667  68.9609574  57.8699530 125.3040403  68.2502883
  57.3481623 124.8251797  69.5883111  51.4608968 130.3225063  64.4031585
  51.4044170 130.7793614  63.5639217  52.0137311 129.5615747  64.2254427
  55.2713774 126.1114794  65.2281704  55.0150709 125.7111430  66.0589912
  54.6466642 126.8258588  65.1031843  59.5826112 128.8510868  67.7352996
  59.0225670 128.9204057  68.5084558  58.9769616 128.6751852  67.0152492
  52.5397856 135.0097730  60.3327775  53.3743460 134.5778929  60.1505249
  52.3782199 134.8379744  61.2604669  52.1943748 131.5129844  61.6984114
  52.1392552 131.3474115  60.7572558  51.5689803 132.2205877  61.8546304
  36.9836263 126.7497908  75.5245536  37.6295126 126.2396862  76.0132761
  36.7753414 127.4866590  76.0988961  49.5089655 133.8178756  81.0237677
  50.3780815 133.9919408  80.6624312  49.0296406 134.6373172  80.9013406
  45.5039873 121.0137953  61.2769432  45.4918543 121.9579793  61.4337703
  46.3963295 120.8308098  60.9828893  49.3191993 117.6080729  65.5315369
  48.5524389 117.0539216  65.6772051  49.7302698 117.6802598  66.3929521
  41.3233754 123.8965525  79.6220550  42.1865215 123.5402330  79.8323875
  40.7499164 123.5579420  80.3095955  63.6457247 136.9015643  72.8663746
  63.3140571 137.7711054  72.6424961  63.0502860 136.5851927  73.5457777
  65.4047556 139.8227167  71.7234970  64.7621937 140.1159700  71.0774765
  64.9002485 139.7080088  72.5288167  60.7440378 134.7485224  72.4835060
  60.4004648 135.6386866  72.4074171  61.1119341 134.5586882  71.6204645
  59.8236919 137.1189879  70.4484293  59.3201714 137.0820014  69.6352099
  60.1167526 138.0282622  70.5080950  55.9764792 136.3072066  65.5541911
  55.3229204 135.9921083  64.9298526  55.9345266 135.6847806  66.2801734
  62.5428044 134.0078783  67.5852798  62.8486921 133.1476147  67.2978713
  63.2680649 134.5996403  67.3851792  62.8129662 136.4373019  70.0836719
  61.8992742 136.6677245  70.2518926  63.2422764 136.5211463  70.9350751
  56.7918362 136.3397791  71.8818733  57.6144432 135.8658269  71.7597624
  57.0356426 137.1188275  72.3817420  58.4481410 136.5888750  68.1445892
  58.4703107 136.6528083  67.1897871  58.8649469 135.7493259  68.3386398
  59.9969622 137.3876827  73.4880883  60.5151566 138.1237854  73.1627372
  59.6424755 137.6940820  74.3227643  60.2482216 133.8077109  69.0081780
  60.5283970 133.1400298  69.6342207  61.0332823 134.0006205  68.4956444
  64.4084367 135.9852922  67.8749751  64.2109189 135.6768010  68.7593083
  65.0184073 136.7114561  68.0047680  58.2367466 136.7883782  64.0021985
  57.4268194 136.4430867  64.3777231  58.9251883 136.4791326  64.5909597
  60.1658014 135.8661829  65.6246282  60.7189053 136.2857282  66.2836305
  60.4028100 134.9397577  65.6669238  63.5436821 137.9762354  65.1324946
  62.9635490 138.6347158  64.7502999  63.2772754 137.1539698  64.7212364
  61.9940388 137.3767412  67.3346267  62.4940166 137.4883946  66.5260585
  62.6375996 137.0728464  67.9747075  68.1148794 140.8736584  68.9609574
  68.7093285 140.6332320  68.2502883  68.1875378 140.1543715  69.5883111
  60.1585747 132.9372647  65.5315369  59.3918143 132.3831134  65.6772051
  60.5696452 133.0094516  66.3929521   6.9686761  31.3851876  55.0026754
   6.2150470  30.8159274  54.8470758   7.1034302  31.3514541  55.9497389
   1.0450907  31.5380513  52.1128897   0.9068805  31.7282109  51.1850086
   0.6887126  32.2999896  52.5696948   1.0720286  33.6057040  57.1240169
   1.5056793  33.5132329  57.9723223   1.7851867  33.5814540  56.4860185
   1.9335836  33.6480740  59.6573054   2.1271726  34.5526551  59.9032329
   1.8336454  33.1888160  60.4911639   3.1877899  30.2054407  56.3020958
   3.1767775  31.0879123  55.9314891   2.3195278  29.8525958  56.1075495
   3.7902509  31.3554626  52.9070421   4.2333655  30.6061952  52.5089544
   2.9129019  31.3464763  52.5244153   0.8229713  35.3584673  49.9164350
   1.3481038  35.6971946  49.1913670   0.7352066  34.4231689  49.7327485
   0.6321495  32.8410043  62.5348277   0.6819499  32.6760051  63.4763799
   0.5235418  31.9737303  62.1446157   2.1339691  35.2606985  62.7790298
   1.8424500  35.6236966  63.6153759   1.5211823  34.5473993  62.6003630
   3.3335374  32.8259865  55.2992868   4.1682265  33.2649669  55.4630429
   3.4694502  32.3498518  54.4801114   1.5616626  30.4811479  58.5940961
   1.5292947  29.5427480  58.7800645   2.1717250  30.5595516  57.8606786
   1.7111115  27.2722523  58.6399245   1.1950164  26.4880979  58.4529173
   2.5951063  26.9441239  58.8045764   7.3793176  31.5427486  57.7346998
   8.1096565  31.2812774  58.2954702   6.7700122  30.8056208  57.7749066
   5.4608473  29.6835349  58.3321449   4.7341637  29.5491314  57.7237941
   5.0455760  29.9912177  59.1378167   3.0786268  25.9047201  55.6854881
   3.6730759  25.6642937  54.9748189   3.1512852  25.1854332  56.3128417
   1.0745003  26.4717329  51.9527011   0.8181937  26.0713964  52.7835218
   0.4497871  27.1861123  51.8277150   5.3857341  29.2113402  54.4598302
   4.8256899  29.2806591  55.2329864   4.7800844  29.0354386  53.7397798
   6.9713360  45.8869916  57.1528258   7.6091769  45.7676663  56.4491598
   6.8534202  46.8350760  57.2116210   3.7803066  45.8397344  57.0889783
   3.4421577  45.7238409  56.2010317   4.6492834  45.4388509  57.0690789
   4.2622849  46.9932196  63.0475988   4.2511490  46.5984994  62.1756492
   4.4243488  46.2598268  63.6409760   5.2189440  51.3603788  48.3901138
   4.5677420  51.9457868  48.0035152   6.0133803  51.8909983  48.4496176
   0.9830110  49.7769307  61.9955172   0.6919976  50.6814938  61.8801838
   1.6187094  49.8185835  62.7099242   1.9086317  47.1546156  58.5856532
   2.5049889  46.9302178  57.8713495   1.9661288  46.4130901  59.1881980
   1.4811345  44.6085591  46.4206723   1.7336866  44.0867113  45.6590186
   0.5435904  44.4451737  46.5233406   6.5254628  43.6121370  54.2281466
   7.3117717  43.1940793  53.8771883   6.7893332  44.5167462  54.3963114
   6.6964705  49.0494220  48.9270123   6.0610538  49.1228846  49.6391027
   6.3662112  49.6387819  48.2489202  11.9263055  43.5496603  55.1314444
  12.6588227  42.9795820  55.3652274  11.1702411  43.1618203  55.5720950
   1.2007634  46.5113697  48.6231098   1.0843892  45.8358601  49.2912182
   1.3109894  46.0246071  47.8063251   3.5439175  45.9723844  52.3277787
   3.1797382  45.4454465  53.0390708   4.4006291  45.5822313  52.1544272
   9.4488475  37.2618177  59.5909053   9.1171800  38.1313588  59.3670268
   8.8534089  36.9454461  60.2703083   3.1844662  41.0013744  47.3239135
   3.3519064  41.8693980  47.6909606   2.9941831  41.1641026  46.4000425
   5.9419995  49.4630723  58.9904966   5.6420718  50.3655762  58.8820773
   5.5971055  49.1962906  59.8426119   9.3417139  41.9813263  56.6702403
   8.4334016  41.9128672  56.3761164   9.2904735  42.4585208  57.4984229
   3.1633883  43.4571402  48.3085802   3.0433508  43.9028452  49.1471283
   2.4686471  43.8056719  47.7499340   3.4158005  43.4002909  64.6137300
   2.6391339  43.9596829  64.6040165   4.0548568  43.8859692  65.1352170
  11.2078785  40.1829702  58.4480277  10.5653165  40.4762235  57.8020072
  10.7033714  40.0682622  59.2533474   8.8618949  43.9292875  49.1366136
   9.7736805  44.1620261  48.9613834   8.3528596  44.5129919  48.5741215
   1.6704377  46.2088362  64.1755267   2.4119061  46.7473406  63.8990091
   0.9641362  46.8354651  64.3326819   7.1459717  48.3517503  62.7727429
   7.5543073  47.9099913  62.0282061   6.4236978  47.7770130  63.0261622
   3.4990787  43.2890109  60.1460986   4.3451982  43.7129523  60.2895635
   3.4389424  42.6323734  60.8399549   7.4688531  48.9118693  56.5279718
   6.8397394  49.0764407  55.8255786   7.0814193  49.3260303  57.2990682
  11.3477763  49.8473131  53.8824082  10.6628801  50.2272032  53.3321115
  11.4321612  50.4568458  54.6156029   6.6490232  40.9494478  61.8042159
   6.4051164  41.7036538  61.2676435   6.9250162  41.3279825  62.6389407
   8.6028695  47.4933090  60.4819425   8.8145590  48.1364850  59.8053806
   8.5558443  46.6595407  60.0141355   6.2054924  40.1050911  57.3855997
   5.3439403  40.4032164  57.6772735   6.2317358  40.3221310  56.4537030
   3.0216493  48.6493101  53.7929803   3.4854839  48.9280804  53.0034425
   2.7573291  47.7476546  53.6102894   1.9585379  44.7716254  50.6019368
   2.6609422  45.2237297  51.0693294   1.6266008  44.1300072  51.2299261
   9.7174523  50.3705045  58.6541782  10.5391966  49.9685233  58.3724464
   9.7136925  50.2673280  59.6057898   3.4831126  49.9189089  60.8102493
   3.5475559  50.3809496  61.6460665   2.7742050  49.2886454  60.9384803
  17.8080516  46.7143794  55.0026754  17.0544224  46.1451192  54.8470758
  17.9428057  46.6806458  55.9497389   3.1979144  51.5857196  50.6781473
   3.0624819  52.4308732  51.1066321   3.7388956  51.7876474  49.9147407
   2.6014444  39.0806655  64.9316085   3.3424158  39.6813808  64.8520547
   2.8332367  38.3384293  64.3734128   4.8247620  52.2080763  64.8081815
   4.3811474  51.4217141  64.4902720   5.4864834  52.3959913  64.1425706
   6.9228858  52.4883563  62.8363217   6.9047334  53.3092444  62.3443486
   7.8448778  52.3637638  63.0613358   3.3801912  50.0027692  63.6786725
   3.9130249  49.2415980  63.4486033   2.8515993  49.7101344  64.4210879
   6.5471607  35.1087758  59.2080367   6.2035877  35.9989400  59.1319477
   6.9150570  34.9189416  58.3449952   6.5121890  45.0996369  47.7152802
   5.9968513  45.8700974  47.9541189   6.2399198  44.4261505  48.3385863
   4.0969001  39.9446070  52.7738040   3.2410597  39.5552920  52.5943679
   4.5095953  40.0238031  51.9137826   5.6268148  37.4792413  57.1729600
   5.1232943  37.4422548  56.3597405   5.9198755  38.3885156  57.2326257
   1.8711034  37.5631143  56.1795782   2.7364030  37.3673952  55.8201671
   1.9388542  37.3341495  57.1065138  11.4856164  47.8528724  49.6505975
  10.7085607  47.5139883  49.2061137  12.1647645  47.8581347  48.9760940
   6.3008193  42.9723461  49.5412583   5.9958329  43.2869611  50.3922726
   7.2538635  43.0504881  49.5839916   4.7454625  49.1313685  51.1905537
   4.2175987  48.3966444  50.8778774   4.2442128  49.9088361  50.9445505
   9.7247471  47.3262705  56.3072583   9.0671145  48.0161967  56.3952712
  10.5287870  47.7159137  56.6506570   8.5352930  45.6807078  54.3576525
   9.0484812  46.3137070  54.8598235   9.1854154  45.0808273  53.9919885
   1.7796020  36.6674600  52.2787218   1.1260433  36.3523617  51.6543833
   1.7376494  36.0450340  53.0047041   2.8907225  46.9493895  44.1940510
   1.9834287  46.7183148  44.3931659   3.3878257  46.1531514  44.3814492
   5.7975304  55.6591402  47.1137196   5.1237003  55.9623099  47.7222154
   6.1841126  56.4620482  46.7642653   5.0133761  43.1556533  56.6034866
   4.0956322  43.3771480  56.4456554   5.4293904  43.2302844  55.7446573
   5.7968808  44.5547949  51.7337546   6.5440627  45.0669346  51.4244668
   6.0660398  44.2332002  52.5941939   4.0695459  47.0506490  48.7164500
   3.1606678  46.7665523  48.8136970   4.0990542  47.4705568  47.8567807
   9.3014726  50.6613079  52.4855668   8.8477053  49.8203989  52.5420858
   8.6708693  51.2974478  52.8230448   8.2447646  41.5905065  53.7156335
   7.5070402  41.0782452  54.0466578   8.4974419  41.1505447  52.9039612
   7.7447665  52.4989576  53.4205486   8.0370640  53.0594633  52.7017851
   8.2546286  52.7918137  54.1758645   8.3459273  34.3681317  54.3098104
   8.6518150  33.5078681  54.0224019   9.0711878  34.9598938  54.1097098
   2.6180353  44.6635110  54.8174295   2.6728962  43.7108947  54.7416772
   1.8071555  44.8194549  55.3015594   3.7671546  48.5915233  46.0552579
   3.3290976  47.8751092  45.5958216   4.5081987  48.8191348  45.4937670
   2.7081290  53.2769927  54.5098939   2.6657469  53.5030773  53.5807471
   3.6243989  53.0433302  54.6584740   6.1546924  43.7453995  61.4079568
   6.5096312  43.9725468  62.2674034   6.8019056  44.0772371  60.7856823
  11.8844661  46.8672430  52.1128897  11.7462560  47.0574026  51.1850086
  11.5280880  47.6291813  52.5696948  11.9114041  48.9348958  57.1240169
  12.3450547  48.8424247  57.9723223  12.6245622  48.9106458  56.4860185
   5.6441936  52.5351052  58.6573269   5.6978958  53.1041988  59.4250985
   4.7756717  52.7052937  58.2927306  12.7729590  48.9772658  59.6573054
  12.9665480  49.8818469  59.9032329  12.6730209  48.5180077  60.4911639
   4.4265901  38.8630549  62.1563381   3.7793816  39.5620498  62.0627858
   5.1966917  39.2966693  62.5239630   7.8344699  49.1279401  65.2313935
   7.6830205  48.8989953  64.3144018   7.8249379  50.0850002  65.2445280
   4.6030035  46.7011314  60.2160201   5.5322095  46.8522473  60.0429168
   4.1821065  46.7895334  59.3608848   3.4018367  50.7261978  57.9858739
   3.2629453  50.3580762  58.8584677   2.6132963  51.2409617  57.8142697
   3.9966519  55.8271075  49.3284275   4.1718275  55.3559118  50.1429898
   3.3099307  56.4536841  49.5565536   4.9523582  50.1043581  55.3747577
   4.6173415  50.0644351  56.2705226   4.4527528  49.4388297  54.9017987
   7.8882774  47.4499615  45.6484636   7.2711945  46.7246443  45.5517689
   7.4199263  48.2108975  45.3051710   1.5550127  45.2231170  60.3883837
   2.2649746  44.5824362  60.3470456   1.5119435  45.4744065  61.3110018
   9.5436906  52.1598523  63.3090417   9.4849452  51.4757744  62.6421000
   9.9456424  52.9017513  62.8571043   9.5454313  50.1238107  61.5404396
   8.6581092  49.7864029  61.6630795  10.1152864  49.3921139  61.7773162
   3.0755466  54.7839560  58.5065639   3.0025638  55.5894531  59.0184944
   2.6332859  54.9831526  57.6813661   2.8645246  54.0211330  52.0168461
   2.0812768  54.5633010  52.1106686   3.5637991  54.5385309  52.4162702
   6.1741896  39.8305959  54.6602666   6.6710596  39.0775922  54.3403737
   5.4028878  39.8670276  54.0945876  14.0271654  45.5346325  56.3020958
  14.0161530  46.4171040  55.9314891  13.1589033  45.1817876  56.1075495
   5.5354150  54.6826394  60.6623798   6.2482122  55.3173859  60.5899700
   5.0444179  54.7790260  59.8463800   7.2571677  48.5877646  52.2341090
   6.3227956  48.7079109  52.0645794   7.4348345  47.6850113  51.9701100
   2.7576865  41.9723342  54.3874351   2.3874652  41.4194383  55.0755257
   3.2535957  41.3681476  53.8349351  10.6444228  44.4294966  52.7691124
  11.1104680  45.2622957  52.6951427  11.0951729  43.9639947  53.4736382
   8.7120459  50.7738787  49.7677276   8.9880303  50.6595382  50.6771150
   7.8424958  50.3756272  49.7289449   8.6160891  36.7975553  56.8082025
   7.7023971  37.0279780  56.9764232   9.0453992  36.8813997  57.6596058
   8.3867349  44.9865445  59.3081919   7.7338800  45.2341352  58.6534372
   8.7647729  44.1729583  58.9744397   5.3474523  55.0225138  53.4110090
   5.5296918  54.2046794  53.8737842   6.1707509  55.2392830  52.9734980
   5.6816689  53.9493323  50.6725138   6.2104455  53.4385778  50.0595300
   5.9444908  53.6335853  51.5370671   4.4354922  45.7285256  65.7947956
   3.7595559  45.6279385  66.4650332   5.2582556  45.5724469  66.2583954
   3.1777705  57.0352183  60.0305572   3.7296013  57.1983805  60.7954658
   3.5183899  57.6256621  59.3585597   8.0288580  51.8613441  65.8854227
   8.5728484  52.4743399  65.3909182   7.4475424  52.4193019  66.4021240
   6.3146093  54.9834159  57.0169255   6.1897232  54.1823899  56.5080200
   6.9725184  55.4780352  56.5283225   8.3781001  52.7843179  58.6448805
   7.4311336  52.6648530  58.5727131   8.7263774  51.8965677  58.7275066
   0.7380574  38.6737318  62.4687047   1.2614976  38.9199614  63.2313356
   0.5192908  39.5057353  62.0490184   5.3827434  52.5795895  54.8453157
   5.2352397  51.6512602  55.0260727   6.2080928  52.6015986  54.3610232
   8.9861556  53.4024454  55.9318030   9.9108104  53.1967315  55.7942481
   8.8176859  53.1540855  56.8407371   1.9433119  39.6151013  60.1536717
   1.6029940  38.8158826  60.5557397   1.2372126  39.9152724  59.5813550
   2.5949591  36.7000325  58.6064040   3.4175661  36.2260803  58.4842930
   2.8387655  37.4790809  59.1062726   1.2357826  39.7288584  48.9026942
   1.9566188  40.1069836  48.3990659   0.6123130  40.4477461  49.0061920
   5.3788949  40.4333733  49.8385274   5.5952563  41.3158371  49.5374102
   4.8983016  40.0419946  49.1090916   1.9784553  40.3821994  56.4636908
   1.9646122  39.4863087  56.1269206   2.6956981  40.3892658  57.0975194
   3.8310684  40.8159334  58.5090036   3.5728461  41.7376405  58.5074366
   3.2995724  40.4189769  59.1990500   8.7756872  53.9210121  51.2880121
   8.9493750  53.3556544  50.5353974   9.2685764  54.7211016  51.1059611
   1.3821449  39.2636374  51.7324478   1.5037360  38.3353020  51.9315366
   1.0923491  39.2775060  50.8202794   4.2512639  36.9491285  54.8691198
   4.2734336  37.0130618  53.9143178   4.6680698  36.1095793  55.0631704
  14.6296263  46.6846544  52.9070421  15.0727410  45.9353869  52.5089544
  13.7522774  46.6756681  52.5244153   9.7632045  53.2376886  48.3877019
  10.4582949  53.8583578  48.6064334  10.1055195  52.3872237  48.6629397
  11.6623468  50.6876591  49.9164350  12.1874792  51.0263864  49.1913670
  11.5745820  49.7523606  49.7327485   3.3243517  54.6010665  62.0454227
   3.6330643  54.3559812  62.9176926   4.1218999  54.8057303  61.5573097
   3.3464129  56.7548574  54.2759603   2.9069119  56.2624953  54.9692460
   4.0972246  56.2121542  54.0351679   0.8662528  40.7768372  65.9414411
   0.9150684  41.6530494  65.5592181   1.4085043  40.2345765  65.3686054
  11.3517374  51.3209495  65.2215548  10.5612918  51.3033634  64.6820047
  11.1150729  51.8597788  65.9764585  11.4715249  48.1701961  62.5348277
  11.5213254  48.0051969  63.4763799  11.3629172  47.3029220  62.1446157
   8.7619011  44.1532889  63.8507583   9.6628874  44.0139354  63.5591581
   8.8366986  44.3187344  64.7905761   3.0961817  41.5299744  62.6960770
   2.2265126  41.8233310  62.4243358   3.3321297  42.1140189  63.4168033
  12.9733446  50.5898903  62.7790298  12.6818254  50.9528883  63.6153759
  12.3605577  49.8765911  62.6003630  14.1729128  48.1551782  55.2992868
  15.0076020  48.5941587  55.4630429  14.3088257  47.6790436  54.4801114
  11.2220634  45.7131517  61.2470356  11.6974756  45.9059164  60.4389208
  10.2986199  45.7690703  61.0013740   5.8000851  37.7479361  60.2126190
   6.3182794  38.4840388  59.8872679   5.4455983  38.0543354  61.0472949
   6.0513445  34.1679643  55.7327087   6.3315199  33.5002832  56.3587513
   6.8364052  34.3608739  55.2201750   3.8546913  53.3438637  47.2952113
   3.2820880  53.9628824  46.8422585   4.4279707  53.8937999  47.8292035
   9.9222303  42.5897277  59.4798662  10.8739726  42.6895375  59.5010886
   9.7525754  41.7975546  59.9896746   7.9436683  39.6752861  59.6658063
   7.3486615  39.9557873  58.9704551   7.6586379  40.1646762  60.4374804
   7.0744173  53.6275787  48.4260695   8.0074846  53.5621349  48.6293571
   6.9867386  54.4632054  47.9675228   9.7032190  52.9441658  45.3864643
   9.6245821  52.6101521  46.2800401  10.5241857  53.4363426  45.3856115
  12.4010381  45.8103397  58.5940961  12.3686701  44.8719398  58.7800645
  13.0111005  45.8887434  57.8606786   4.2393712  44.6799450  44.6368165
   5.1852816  44.5505658  44.7056583   3.8607957  43.9414112  45.1137594
  12.5504869  42.6014441  58.6399245  12.0343918  41.8172897  58.4529173
  13.4344818  42.2733157  58.8045764  10.2115596  36.3455456  54.5995057
  10.0140417  36.0370544  55.4838389  10.8215302  37.0717095  54.7292987
  18.2186931  46.8719404  57.7346998  18.9490319  46.6104692  58.2954702
  17.6093876  46.1348126  57.7749066  16.3002228  45.0127266  58.3321449
  15.5735391  44.8783231  57.7237941  15.8849515  45.3204095  59.1378167
   4.1232404  48.7317196  66.0968822   5.0435414  48.9095795  66.2908869
   4.0881987  47.7873242  65.9448522   2.4236629  42.6049426  44.5723051
   1.5168084  42.3082539  44.6485764   2.7012610  42.3079245  43.7057337
   4.0398695  37.1486316  50.7267292   3.2299423  36.8033401  51.1022538
   4.7283112  36.8393860  51.3154904   5.9689243  36.2264363  52.3491589
   6.5220282  36.6459816  53.0081612   6.2059329  35.3000111  52.3914545
   1.9922342  42.2151437  68.1294353   1.8919069  43.1645794  68.0606444
   1.7743884  41.8869676  67.2570423   1.1935414  39.4636362  44.7135030
   2.0554578  39.7891260  44.9730847   1.3785758  38.6767858  44.2008096
   9.3468050  38.3364888  51.8570253   8.7666719  38.9949692  51.4748305
   9.0803983  37.5142233  51.4457670   7.7971616  37.7369946  54.0591573
   8.2971395  37.8486480  53.2505892   8.4407224  37.4330999  54.6992382
   1.8553612  45.6448575  66.9459414   1.3720694  46.4448936  67.1523303
   1.9414551  45.6556520  65.9926858   8.1292928  40.4964978  50.9126601
   7.2418783  40.7814629  50.6946796   8.5446917  40.3358742  50.0653878
  11.4807464  40.5211499  54.6280940  12.2567854  41.0107952  54.9005557
  10.7555598  40.9469554  55.0852810  13.9180023  41.2339119  55.6854881
  14.5124514  40.9934855  54.9748189  13.9906606  40.5146249  56.3128417
   7.2736141  50.2609653  45.0074621   7.9771992  50.4659656  45.6232277
   6.5498790  50.8286415  45.2723705   8.1033952  46.0119514  51.1276891
   8.0469153  46.4688066  50.2884524   8.6562294  45.2510199  50.9499734
  11.9138758  41.8009246  51.9527011  11.6575692  41.4005882  52.7835218
  11.2891626  42.5153040  51.8277150  16.2251096  44.5405320  54.4598302
  15.6650654  44.6098509  55.2329864  15.6194599  44.3646304  53.7397798
   9.1822839  50.6992182  47.0573081  10.0168443  50.2673381  46.8750556
   9.0207182  50.5274196  47.9849976   8.8368731  47.2024296  48.4229420
   8.7817535  47.0368567  47.4817865   8.2114786  47.9100329  48.5791610
   6.1514638  49.5073208  67.7482983   7.0205798  49.6813860  67.3869618
   5.6721390  50.3267624  67.6258713   2.1464857  36.7032405  48.0014739
   2.1343526  37.6474245  48.1583010   3.0388278  36.5202550  47.7074200
   2.0754421  55.3801295  56.0882496   1.1250052  55.3803157  55.9746868
   2.3786907  54.6334030  55.5718530   5.9616976  33.2975181  52.2560676
   5.1949372  32.7433668  52.4017358   6.3727681  33.3697050  53.1174827
  17.8107114  61.2161833  57.1528258  18.4485524  61.0968581  56.4491598
  17.6927957  62.1642677  57.2116210  14.6196820  61.1689262  57.0889783
  14.2815332  61.0530326  56.2010317  15.4886588  60.7680427  57.0690789
  10.4783636  63.0224738  53.0786674   9.9148501  62.9314675  52.3102961
  10.3636031  62.2024642  53.5589166  15.1016603  62.3224113  63.0475988
  15.0905244  61.9276912  62.1756492  15.2637243  61.5890186  63.6409760
   8.0248068  64.5175930  55.9170894   8.8169360  64.1766754  55.5017193
   8.2644718  64.6270905  56.8373047  16.0583195  66.6895706  48.3901138
  15.4071174  67.2749786  48.0035152  16.8527557  67.2201901  48.4496176
   9.9838822  63.7784843  48.7888273  10.7569698  63.2313830  48.6501149
  10.3364221  64.6429092  49.0002734  11.8223864  65.1061225  61.9955172
  11.5313730  66.0106856  61.8801838  12.4580849  65.1477753  62.7099242
  12.7480071  62.4838074  58.5856532  13.3443644  62.2594096  57.8713495
  12.8055043  61.7422819  59.1881980  12.3205100  59.9377509  46.4206723
  12.5730620  59.4159030  45.6590186  11.3829659  59.7743654  46.5233406
  17.3648382  58.9413287  54.2281466  18.1511472  58.5232710  53.8771883
  17.6287087  59.8459380  54.3963114  17.5358460  64.3786138  48.9270123
  16.9004293  64.4520764  49.6391027  17.2055866  64.9679736  48.2489202
  22.7656810  58.8788521  55.1314444  23.4981982  58.3087737  55.3652274
  22.0096165  58.4910121  55.5720950  12.0401388  61.8405615  48.6231098
  11.9237647  61.1650518  49.2912182  12.1503648  61.3537989  47.8063251
  14.3832929  61.3015762  52.3277787  14.0191137  60.7746383  53.0390708
  15.2400045  60.9114231  52.1544272  20.2882230  52.5910095  59.5909053
  19.9565555  53.4605506  59.3670268  19.6927843  52.2746379  60.2703083
  14.0238416  56.3305662  47.3239135  14.1912819  57.1985898  47.6909606
  13.8335585  56.4932943  46.4000425  16.7813749  64.7922641  58.9904966
  16.4814473  65.6947679  58.8820773  16.4364809  64.5254824  59.8426119
  10.2326231  61.2436437  55.0241670   9.3076727  61.1112652  55.2319362
  10.4810644  62.0230657  55.5211613  20.1810893  57.3105181  56.6702403
  19.2727771  57.2420589  56.3761164  20.1298489  57.7877126  57.4984229
  14.0027637  58.7863319  48.3085802  13.8827262  59.2320370  49.1471283
  13.3080226  59.1348637  47.7499340   7.5935042  60.8869711  55.8585459
   7.7227423  61.1404190  56.7724871   6.9132493  61.4797419  55.5390114
  11.7634529  71.5566961  51.9575933  11.6858559  72.5074786  52.0364414
  11.1596173  71.2112833  52.6150860  14.2551759  58.7294826  64.6137300
  13.4785093  59.2888747  64.6040165  14.8942322  59.2151609  65.1352170
  22.0472540  55.5121619  58.4480277  21.4046920  55.8054152  57.8020072
  21.5427468  55.3974540  59.2533474  19.7012703  59.2584792  49.1366136
  20.6130559  59.4912179  48.9613834  19.1922350  59.8421837  48.5741215
  12.5098131  61.5380280  64.1755267  13.2512816  62.0765324  63.8990091
  11.8035117  62.1646569  64.3326819  17.9853471  63.6809420  62.7727429
  18.3936827  63.2391831  62.0282061  17.2630733  63.1062048  63.0261622
  14.3384541  58.6182027  60.1460986  15.1845736  59.0421441  60.2895635
  14.2783179  57.9615651  60.8399549  18.3082286  64.2410611  56.5279718
  17.6791148  64.4056325  55.8255786  17.9207948  64.6552220  57.2990682
  22.1871518  65.1765049  53.8824082  21.5022556  65.5563950  53.3321115
  22.2715367  65.7860375  54.6156029  17.4883986  56.2786395  61.8042159
  17.2444918  57.0328456  61.2676435  17.7643917  56.6571743  62.6389407
  19.4422449  62.8225008  60.4819425  19.6539344  63.4656768  59.8053806
  19.3952197  61.9887324  60.0141355  17.0448678  55.4342828  57.3855997
  16.1833157  55.7324082  57.6772735  17.0711113  55.6513227  56.4537030
  13.8610248  63.9785019  53.7929803  14.3248593  64.2572722  53.0034425
  13.5967046  63.0768464  53.6102894  10.7534329  63.5256500  56.7309566
  11.3235686  63.9543769  56.0927051  11.3442440  63.2439085  57.4293752
  12.7979134  60.1008171  50.6019368  13.5003177  60.5529215  51.0693294
  12.4659762  59.4591990  51.2299261  11.2459495  58.6919928  64.9770577
  10.6158156  59.3736209  65.2105974  11.1395583  58.5803010  64.0323716
   6.5404468  58.3591724  55.9036502   5.7503522  58.6149253  55.4276612
   7.0315715  59.1740062  56.0088542  20.5568277  65.6996963  58.6541782
  21.3785721  65.2977150  58.3724464  20.5530680  65.5965197  59.6057898
   8.4919213  58.7236303  52.8619978   7.6950376  58.8354997  53.3803474
   8.2644805  59.0622955  51.9960869  14.3224881  65.2481006  60.8102493
  14.3869313  65.7101414  61.6460665  13.6135804  64.6178371  60.9384803
   4.8242171  58.6122214  58.3351492   5.0750209  59.4969224  58.6009068
   5.3601719  58.4326816  57.5626584  28.6474270  62.0435712  55.0026754
  27.8937979  61.4743110  54.8470758  28.7821811  62.0098376  55.9497389
  14.0372898  66.9149114  50.6781473  13.9018573  67.7600650  51.1066321
  14.5782711  67.1168392  49.9147407  10.5240238  52.9940694  67.3395828
  10.1307183  52.4406892  68.0143473  11.3406378  53.3051272  67.7302346
   7.4902296  64.4324552  51.2509398   8.0026816  65.2267802  51.4014963
   8.1425008  63.7350842  51.1843000   9.2997180  67.5490308  53.3332151
   9.4763809  68.4708273  53.1453135  10.0954014  67.2348727  53.7626531
  13.4408199  54.4098573  64.9316085  14.1817912  55.0105726  64.8520547
  13.6726122  53.6676211  64.3734128   8.5849537  59.5954940  63.2094315
   8.4703052  58.6940197  63.5101414   7.7294055  59.8418637  62.8579131
  15.6641375  67.5372680  64.8081815  15.2205229  66.7509059  64.4902720
  16.3258588  67.7251831  64.1425706  10.4228496  69.0668482  59.3342494
  10.9735921  68.9385545  58.5619488   9.5839972  69.3663371  58.9837387
  17.7622613  67.8175480  62.8363217  17.7441088  68.6384361  62.3443486
  18.6842533  67.6929556  63.0613358  14.2195667  65.3319610  63.6786725
  14.7524004  64.5707898  63.4486033  13.6909748  65.0393262  64.4210879
  17.3865362  50.4379676  59.2080367  17.0429631  51.3281317  59.1319477
  17.7544324  50.2481333  58.3449952   5.4551212  62.7613206  52.0268969
   6.2926434  63.1710215  51.8102677   5.6329480  61.8212648  51.9969163
  17.3515644  60.4288287  47.7152802  16.8362268  61.1992892  47.9541189
  17.0792953  59.7553423  48.3385863  14.9362756  55.2737988  52.7738040
  14.0804352  54.8844838  52.5943679  15.3489707  55.3529949  51.9137826
  16.4661902  52.8084331  57.1729600  15.9626698  52.7714466  56.3597405
  16.7592509  53.7177074  57.2326257  12.7104788  52.8923061  56.1795782
  13.5757785  52.6965869  55.8201671  12.7782297  52.6633412  57.1065138
  22.3249919  63.1820642  49.6505975  21.5479361  62.8431801  49.2061137
  23.0041400  63.1873265  48.9760940  17.1401948  58.3015379  49.5412583
  16.8352083  58.6161528  50.3922726  18.0932390  58.3796799  49.5839916
  15.5848380  64.4605602  51.1905537  15.0569741  63.7258362  50.8778774
  15.0835882  65.2380279  50.9445505  20.5641226  62.6554623  56.3072583
  19.9064900  63.3453884  56.3952712  21.3681625  63.0451055  56.6506570
  10.3167107  55.1225269  53.5512148  10.8910859  54.9000450  52.8185341
  10.9038090  55.1913963  54.3040750  19.3746684  61.0098996  54.3576525
  19.8878566  61.6428987  54.8598235  20.0247908  60.4100191  53.9919885
  10.6436694  57.1529730  47.5708034   9.8074006  57.4904416  47.8917308
  10.5041464  57.0178709  46.6335171  12.6189775  51.9966518  52.2787218
  11.9654187  51.6815535  51.6543833  12.5770249  51.3742258  53.0047041
  13.7300980  62.2785813  44.1940510  12.8228041  62.0475066  44.3931659
  14.2272012  61.4823432  44.3814492  16.6369059  70.9883320  47.1137196
  15.9630757  71.2915017  47.7222154  17.0234881  71.7912400  46.7642653
  15.8527515  58.4848451  56.6034866  14.9350077  58.7063398  56.4456554
  16.2687659  58.5594762  55.7446573  16.6362563  59.8839867  51.7337546
  17.3834382  60.3961264  51.4244668  16.9054153  59.5623919  52.5941939
  14.9089213  62.3798407  48.7164500  14.0000432  62.0957440  48.8136970
  14.9384297  62.7997486  47.8567807  20.1408481  65.9904997  52.4855668
  19.6870808  65.1495907  52.5420858  19.5102447  66.6266395  52.8230448
  19.0841400  56.9196983  53.7156335  18.3464157  56.4074369  54.0466578
  19.3368174  56.4797365  52.9039612  18.5841420  67.8281494  53.4205486
  18.8764394  68.3886551  52.7017851  19.0940040  68.1210055  54.1758645
  19.1853027  49.6973235  54.3098104  19.4911904  48.8370598  54.0224019
  19.9105632  50.2890855  54.1097098   5.4777384  60.1003922  52.6979702
   5.2801783  59.5073282  51.9730769   4.9224048  59.7956132  53.4155641
  13.4574107  59.9927028  54.8174295  13.5122717  59.0400864  54.7416772
  12.6465309  60.1486467  55.3015594  14.6065301  63.9207151  46.0552579
  14.1684731  63.2043010  45.5958216  15.3475742  64.1483266  45.4937670
  11.3966467  58.6104088  52.5764674  10.5834333  58.9098258  52.9829866
  11.8925461  58.2159777  53.2939157  13.5475045  68.6061845  54.5098939
  13.5051224  68.8322691  53.5807471  14.4637744  68.3725219  54.6584740
  16.9940679  59.0745912  61.4079568  17.3490066  59.3017385  62.2674034
  17.6412810  59.4064289  60.7856823  22.7238416  62.1964348  52.1128897
  22.5856314  62.3865944  51.1850086  22.3674635  62.9583731  52.5696948
  10.8880542  56.1822443  58.1925909  11.5279921  56.0411202  57.4948873
  10.0558072  55.8956957  57.8164511  22.7507795  64.2640875  57.1240169
  23.1844302  64.1716164  57.9723223  23.4639376  64.2398376  56.4860185
  11.6640846  65.4824874  54.3060902  12.4581444  64.9875194  54.1043477
  10.9532538  64.9542737  53.9428607  16.4835690  67.8642969  58.6573269
  16.5372713  68.4333906  59.4250985  15.6150472  68.0344854  58.2927306
   7.9723609  59.6267955  50.3820654   7.0421197  59.5652411  50.5990617
   8.0681081  59.1043908  49.5857296   7.8909158  56.1522768  52.9698896
   8.1515976  57.0668102  52.8608057   8.7126331  55.6847211  53.1195509
   9.3634084  57.5660525  60.1397721  10.0357137  57.3577888  59.4910369
   8.5363870  57.3682611  59.7002953  23.6123345  64.3064576  59.6573054
  23.8059235  65.2110386  59.9032329  23.5123963  63.8471995  60.4911639
  15.2659656  54.1922466  62.1563381  14.6187571  54.8912416  62.0627858
  16.0360671  54.6258610  62.5239630  18.6738454  64.4571319  65.2313935
  18.5223960  64.2281870  64.3144018  18.6643133  65.4141920  65.2445280
  15.4423790  62.0303231  60.2160201  16.3715850  62.1814391  60.0429168
  15.0214820  62.1187252  59.3608848  14.2412122  66.0553896  57.9858739
  14.1023207  65.6872680  58.8584677  13.4526718  66.5701535  57.8142697
  14.8360274  71.1562992  49.3284275  15.0112029  70.6851035  50.1429898
  14.1493062  71.7828758  49.5565536  15.7917337  65.4335498  55.3747577
  15.4567170  65.3936268  56.2705226  15.2921283  64.7680214  54.9017987
   9.7661581  60.8403128  60.9000158   9.6281379  60.1083367  61.5011697
  10.6766504  60.7512029  60.6184345  18.7276529  62.7791533  45.6484636
  18.1105699  62.0538361  45.5517689  18.2593017  63.5400893  45.3051710
  12.3943882  60.5523088  60.3883837  13.1043500  59.9116280  60.3470456
  12.3513190  60.8035983  61.3110018  20.3830660  67.4890441  63.3090417
  20.3243206  66.8049661  62.6421000  20.7850179  68.2309431  62.8571043
  11.1072816  57.5388306  62.2079477  10.5710173  57.0879044  62.8601073
  10.5189524  57.6734215  61.4649941   9.4021359  74.3052355  56.1024135
   9.6417957  74.9370879  56.7803154   8.5590555  73.9540395  56.3889495
  10.5175074  56.9976957  44.7705941   9.6404541  56.8765758  44.4068187
  10.9932828  56.2063035  44.5184829  20.3848067  65.4530025  61.5404396
  19.4974846  65.1155947  61.6630795  20.9546619  64.7213056  61.7773162
   2.0377215  61.7854117  54.8647448   2.7248254  61.4715847  54.2768463
   1.8825343  62.6895481  54.5914699   6.8411937  56.6744313  59.2932471
   6.7570125  56.0669983  58.5582881   6.0194643  57.1653332  59.2941968
  13.9149221  70.1131477  58.5065639  13.8419392  70.9186449  59.0184944
  13.4726614  70.3123443  57.6813661  13.7039000  69.3503247  52.0168461
  12.9206522  69.8924928  52.1106686  14.4031746  69.8677227  52.4162702
  17.0135651  55.1597877  54.6602666  17.5104350  54.4067839  54.3403737
  16.2422632  55.1962194  54.0945876  24.8665408  60.8638242  56.3020958
  24.8555284  61.7462958  55.9314891  23.9982787  60.5109793  56.1075495
  16.3747904  70.0118311  60.6623798  17.0875877  70.6465776  60.5899700
  15.8837933  70.1082177  59.8463800  18.0965431  63.9169564  52.2341090
  17.1621710  64.0371027  52.0645794  18.2742100  63.0142031  51.9701100
  13.5970619  57.3015260  54.3874351  13.2268407  56.7486300  55.0755257
  14.0929712  56.6973393  53.8349351  21.4837983  59.7586883  52.7691124
  21.9498435  60.5914875  52.6951427  21.9345483  59.2931865  53.4736382
  11.4259818  67.7612755  61.4829369  12.1269277  68.3949238  61.6358763
  10.9554933  68.1027486  60.7225008  19.5514214  66.1030705  49.7677276
  19.8274058  65.9887299  50.6771150  18.6818712  65.7048190  49.7289449
  19.4554645  52.1267470  56.8082025  18.5417725  52.3571697  56.9764232
  19.8847747  52.2105914  57.6596058  19.2261104  60.3157362  59.3081919
  18.5732554  60.5633270  58.6534372  19.6041484  59.5021501  58.9744397
  16.1868278  70.3517056  53.4110090  16.3690672  69.5338711  53.8737842
  17.0101264  70.5684748  52.9734980  16.5210443  69.2785241  50.6725138
  17.0498210  68.7677695  50.0595300  16.7838663  68.9627771  51.5370671
  15.2748677  61.0577173  65.7947956  14.5989314  60.9571303  66.4650332
  16.0976311  60.9016387  66.2583954   7.0227536  67.2949110  58.4160472
   7.6080973  66.5492798  58.5488376   6.8252374  67.6053067  59.2997136
   9.8766191  70.3300357  53.4322914   9.2076566  70.8146485  52.9486954
   9.7379061  70.5769578  54.3466293   1.6145191  59.8654710  57.1364915
   1.6529290  59.3318301  57.9302033   1.1085484  59.3389916  56.5175892
  14.0171460  72.3644101  60.0305572  14.5689768  72.5275722  60.7954658
  14.3577653  72.9548539  59.3585597   8.9935953  54.7119251  60.6327457
   9.0577280  55.5734082  60.2204855   8.9303073  54.0993252  59.8999816
   8.4688226  56.7842383  64.2800491   9.0960264  56.4019461  64.8938016
   7.6116144  56.5656585  64.6456184  18.8682334  67.1905358  65.8854227
  19.4122238  67.8035317  65.3909182  18.2869179  67.7484937  66.4021240
   5.2453768  58.5918812  50.2118846   5.5407209  57.6829491  50.1585900
   4.3441804  58.5706552  49.8899849  17.1539847  70.3126076  57.0169255
  17.0290987  69.5115816  56.5080200  17.8118938  70.8072270  56.5283225
   8.7748015  56.6674809  56.1946395   8.0534601  57.2810777  56.0553868
   9.5641271  57.2032574  56.1163041  19.2174755  68.1135096  58.6448805
  18.2705091  67.9940448  58.5727131  19.5657529  67.2257595  58.7275066
  11.5774329  54.0029235  62.4687047  12.1008731  54.2491532  63.2313356
  11.3586662  54.8349270  62.0490184   6.9741610  56.2732910  50.3358171
   6.6454316  55.3930289  50.1533277   7.3280981  56.2180579  51.2234561
  16.2221189  67.9087813  54.8453157  16.0746151  66.9804520  55.0260727
  17.0474682  67.9307903  54.3610232  10.0883433  56.5605880  50.7033649
  10.4279506  57.0891801  49.9812257  10.5355554  56.8986286  51.4792216
  19.8255311  68.7316371  55.9318030  20.7501858  68.5259233  55.7942481
  19.6570614  68.4832773  56.8407371  12.7826874  54.9442931  60.1536717
  12.4423694  54.1450744  60.5557397  12.0765880  55.2444641  59.5813550
  13.4343346  52.0292243  58.6064040  14.2569415  51.5552721  58.4842930
  13.6781409  52.8082727  59.1062726  12.0751580  55.0580501  48.9026942
  12.7959943  55.4361754  48.3990659  11.4516884  55.7769378  49.0061920
  16.2182703  55.7625650  49.8385274  16.4346317  56.6450288  49.5374102
  15.7376770  55.3711864  49.1090916  10.9581924  58.7211364  56.4156019
  10.8126505  59.0351667  57.3080300  10.4807128  59.3396264  55.8626917
  12.8178307  55.7113912  56.4636908  12.8039876  54.8155005  56.1269206
  13.5350735  55.7184575  57.0975194  14.6704438  56.1451252  58.5090036
  14.4122216  57.0668322  58.5074366  14.1389478  55.7481686  59.1990500
  19.6150627  69.2502039  51.2880121  19.7887504  68.6848461  50.5353974
  20.1079518  70.0502934  51.1059611   5.4327587  61.2616708  59.3543680
   4.8881055  62.0376516  59.4863954   6.3106936  61.6087512  59.1962801
  12.2215203  54.5928292  51.7324478  12.3431114  53.6644938  51.9315366
  11.9317246  54.6066978  50.8202794  15.0906394  52.2783202  54.8691198
  15.1128090  52.3422535  53.9143178  15.5074453  51.4387711  55.0631704
  25.4690018  62.0138462  52.9070421  25.9121164  61.2645787  52.5089544
  24.5916528  62.0048598  52.5244153  20.6025799  68.5668803  48.3877019
  21.2976704  69.1875496  48.6064334  20.9448949  67.7164155  48.6629397
   6.2193608  60.3886604  62.2473837   5.4775345  60.5369240  62.8338467
   5.8986353  60.6494870  61.3840586  22.5017222  66.0168509  49.9164350
  23.0268547  66.3555782  49.1913670  22.4139575  65.0815524  49.7327485
  14.1637271  69.9302582  62.0454227  14.4724398  69.6851729  62.9176926
  14.9612753  70.1349221  61.5573097  14.1857883  72.0840492  54.2759603
  13.7462873  71.5916871  54.9692460  14.9366000  71.5413460  54.0351679
   6.6650222  68.2752033  54.2784231   7.4908242  67.9755805  53.8982875
   6.3144274  67.5059655  54.7274020  11.6331755  67.6278501  56.3481905
  11.0111765  66.9649206  56.0484133  12.3036622  67.6539633  55.6655553
   4.8658827  66.1938359  55.2373165   4.0290736  65.7660534  55.0557166
   4.8382473  66.3870803  56.1743956  11.7056283  56.1060289  65.9414411
  11.7544438  56.9822412  65.5592181  12.2478797  55.5637682  65.3686054
  22.3109004  63.4993879  62.5348277  22.3607008  63.3343886  63.4763799
  22.2022927  62.6321138  62.1446157  11.1945262  66.1782425  49.8240366
  11.3433383  66.8617889  49.1707038  12.0011706  66.1587515  50.3389821
  19.6012766  59.4824807  63.8507583  20.5022629  59.3431272  63.5591581
  19.6760740  59.6479262  64.7905761  13.9355571  56.8591662  62.6960770
  13.0658881  57.1525228  62.4243358  14.1715052  57.4432107  63.4168033
  23.8127200  65.9190820  62.7790298  23.5212009  66.2820801  63.6153759
  23.1999332  65.2057829  62.6003630  25.0122883  63.4843700  55.2992868
  25.8469774  63.9233504  55.4630429  25.1482011  63.0082353  54.4801114
  22.0614389  61.0423435  61.2470356  22.5368510  61.2351081  60.4389208
  21.1379954  61.0982621  61.0013740   8.9497895  62.2047602  50.8301434
   8.7043937  61.3009932  51.0281645   9.1193810  62.2064753  49.8880912
  16.6394605  53.0771279  60.2126190  17.1576549  53.8132305  59.8872679
  16.2849738  53.3835272  61.0472949   8.2193543  57.9375960  48.3287596
   7.5262788  58.0120315  47.6727632   7.9745295  57.1736303  48.8509113
  16.8907199  49.4971561  55.7327087  17.1708953  48.8294750  56.3587513
  17.6757806  49.6900657  55.2201750  14.6940668  68.6730555  47.2952113
  14.1214635  69.2920742  46.8422585  15.2673461  69.2229917  47.8292035
  20.7616058  57.9189195  59.4798662  21.7133480  58.0187293  59.5010886
  20.5919508  57.1267464  59.9896746  18.7830437  55.0044778  59.6658063
  18.1880369  55.2849791  58.9704551  18.4980134  55.4938679  60.4374804
  17.9137928  68.9567705  48.4260695  18.8468601  68.8913267  48.6293571
  17.8261140  69.7923972  47.9675228  20.5425944  68.2733575  45.3864643
  20.4639576  67.9393439  46.2800401  21.3635611  68.7655343  45.3856115
  23.2404135  61.1395315  58.5940961  23.2080455  60.2011315  58.7800645
  23.8504759  61.2179351  57.8606786  15.0787466  60.0091368  44.6368165
  16.0246571  59.8797576  44.7056583  14.7001711  59.2706030  45.1137594
  23.3898624  57.9306358  58.6399245  22.8737673  57.1464815  58.4529173
  24.2738572  57.6025075  58.8045764  21.0509351  51.6747374  54.5995057
  20.8534172  51.3662462  55.4838389  21.6609056  52.4009013  54.7292987
  29.0580685  62.2011322  57.7346998  29.7884074  61.9396610  58.2954702
  28.4487631  61.4640044  57.7749066  27.1395982  60.3419184  58.3321449
  26.4129146  60.2075149  57.7237941  26.7243269  60.6496013  59.1378167
  14.9626159  64.0609114  66.0968822  15.8829168  64.2387713  66.2908869
  14.9275742  63.1165159  65.9448522  13.2630383  57.9341344  44.5723051
  12.3561839  57.6374457  44.6485764  13.5406364  57.6371162  43.7057337
   4.1808324  59.2547708  55.0222097   3.8611108  58.4013016  54.7296471
   3.6341752  59.4696286  55.7780064   7.9588231  61.9710149  58.7391604
   8.1774241  62.9027256  58.7579637   8.3714005  61.6118123  59.5246407
  14.8792449  52.4778234  50.7267292  14.0693177  52.1325319  51.1022538
  15.5676866  52.1685778  51.3154904  16.8082997  51.5556281  52.3491589
  17.3614036  51.9751734  53.0081612  17.0453084  50.6292029  52.3914545
  12.8316097  57.5443354  68.1294353  12.7312824  58.4937711  68.0606444
  12.6137639  57.2161593  67.2570423  12.0329168  54.7928279  44.7135030
  12.8948332  55.1183178  44.9730847  12.2179512  54.0059775  44.2008096
   4.0496584  62.8750619  56.9915219   3.3560055  62.4604572  56.4785173
   4.7969575  62.9171156  56.3948638  20.1861804  53.6656806  51.8570253
  19.6060474  54.3241610  51.4748305  19.9197737  52.8434150  51.4457670
  18.6365371  53.0661864  54.0591573  19.1365149  53.1778398  53.2505892
  19.2800979  52.7622916  54.6992382  12.6947367  60.9740493  66.9459414
  12.2114448  61.7740853  67.1523303  12.7808306  60.9848438  65.9926858
   5.9633326  62.8068873  54.8681234   5.9404014  62.9056560  53.9163117
   6.2733963  63.6534024  55.1898400   8.6220704  64.8645028  58.9827848
   9.5763958  64.8328970  58.9157780   8.4233228  64.4035652  59.7978074
   9.2120086  63.4346144  61.5498646  10.0312975  63.9290223  61.5733483
   9.4856894  62.5178112  61.5216213  18.9686683  55.8256896  50.9126601
  18.0812538  56.1106547  50.6946796  19.3840672  55.6650660  50.0653878
  22.3201219  55.8503417  54.6280940  23.0961609  56.3399870  54.9005557
  21.5949353  56.2761471  55.0852810  24.7573777  56.5631036  55.6854881
  25.3518268  56.3226772  54.9748189  24.8300361  55.8438167  56.3128417
   6.9770933  70.4064647  55.9998046   6.8425401  69.6465048  55.4336044
   6.5602995  71.1305547  55.5326835  18.1129896  65.5901571  45.0074621
  18.8165746  65.7951573  45.6232277  17.3892545  66.1578333  45.2723705
  18.9427706  61.3411432  51.1276891  18.8862908  61.7979984  50.2884524
  19.4956049  60.5802117  50.9499734  22.7532512  57.1301164  51.9527011
  22.4969446  56.7297800  52.7835218  22.1285380  57.8444958  51.8277150
  27.0644850  59.8697237  54.4598302  26.5044408  59.9390427  55.2329864
  26.4588353  59.6938222  53.7397798  10.1340059  71.3033964  56.2116488
  10.0172443  72.2479397  56.1095179   9.3132505  71.0007526  56.6002288
  20.0216593  66.0284100  47.0573081  20.8562197  65.5965299  46.8750556
  19.8600936  65.8566114  47.9849976  19.6762486  62.5316213  48.4229420
  19.6211289  62.3660485  47.4817865  19.0508541  63.2392246  48.5791610
   4.4655001  57.7684278  62.2490843   5.1113864  57.2583232  62.7378068
   4.2572152  58.5052959  62.8234268  16.9908393  64.8365125  67.7482983
  17.8599552  65.0105778  67.3869618  16.5115144  65.6559542  67.6258713
  12.9858611  52.0324322  48.0014739  12.9737281  52.9766162  48.1583010
  13.8782033  51.8494468  47.7074200  11.1594573  71.9562226  59.4272417
  12.0621820  71.9885836  59.7438912  10.9331943  71.0262677  59.4418753
  12.9148175  70.7093213  56.0882496  11.9643806  70.7095074  55.9746868
  13.2180661  69.9625947  55.5718530  16.8010730  48.6267099  52.2560676
  16.0343126  48.0725586  52.4017358  17.2121435  48.6988968  53.1174827
   8.8052492  54.9151895  66.3465857   9.6683953  54.5588700  66.5569181
   8.2317902  54.5765790  67.0341261  28.6500868  76.5453751  57.1528258
  29.2879278  76.4260499  56.4491598  28.5321711  77.4934595  57.2116210
  25.4590575  76.4981179  57.0889783  25.1209086  76.3822244  56.2010317
  26.3280343  76.0972344  57.0690789  21.3177390  78.3516656  53.0786674
  20.7542256  78.2606593  52.3102961  21.2029786  77.5316560  53.5589166
  25.9410358  77.6516031  63.0475988  25.9298999  77.2568829  62.1756492
  26.1030997  76.9182104  63.6409760  18.8641822  79.8467847  55.9170894
  19.6563114  79.5058672  55.5017193  19.1038473  79.9562822  56.8373047
  26.8976949  82.0187623  48.3901138  26.2464929  82.6041704  48.0035152
  27.6921312  82.5493818  48.4496176  20.8232576  79.1076761  48.7888273
  21.5963452  78.5605748  48.6501149  21.1757975  79.9721010  49.0002734
  22.6617619  80.4353143  61.9955172  22.3707485  81.3398774  61.8801838
  23.2974603  80.4769670  62.7099242  23.5873826  77.8129991  58.5856532
  24.1837398  77.5886014  57.8713495  23.6448797  77.0714737  59.1881980
  23.1598854  75.2669427  46.4206723  23.4124375  74.7450948  45.6590186
  22.2223413  75.1035572  46.5233406  28.2042137  74.2705205  54.2281466
  28.9905226  73.8524628  53.8771883  28.4680841  75.1751297  54.3963114
  28.3752214  79.7078055  48.9270123  27.7398047  79.7812682  49.6391027
  28.0449621  80.2971654  48.2489202  33.6050564  74.2080438  55.1314444
  34.3375736  73.6379655  55.3652274  32.8489920  73.8202039  55.5720950
  22.8795143  77.1697533  48.6231098  22.7631401  76.4942436  49.2912182
  22.9897403  76.6829907  47.8063251  25.2226684  76.6307680  52.3277787
  24.8584891  76.1038301  53.0390708  26.0793800  76.2406149  52.1544272
  31.1275984  67.9202012  59.5909053  30.7959309  68.7897423  59.3670268
  30.5321598  67.6038296  60.2703083  24.8632171  71.6597579  47.3239135
  25.0306573  72.5277816  47.6909606  24.6729340  71.8224861  46.4000425
  27.6207504  80.1214558  58.9904966  27.3208227  81.0239597  58.8820773
  27.2758564  79.8546742  59.8426119  21.0719985  76.5728355  55.0241670
  20.1470482  76.4404569  55.2319362  21.3204399  77.3522574  55.5211613
  31.0204648  72.6397099  56.6702403  30.1121525  72.5712507  56.3761164
  30.9692244  73.1169043  57.4984229  24.8421392  74.1155237  48.3085802
  24.7221017  74.5612288  49.1471283  24.1473980  74.4640555  47.7499340
  18.4328797  76.2161629  55.8585459  18.5621178  76.4696108  56.7724871
  17.7526248  76.8089337  55.5390114  22.6028284  86.8858879  51.9575933
  22.5252313  87.8366704  52.0364414  21.9989927  86.5404751  52.6150860
  25.0945514  74.0586744  64.6137300  24.3178848  74.6180664  64.6040165
  25.7336077  74.5443527  65.1352170  32.8866294  70.8413537  58.4480277
  32.2440674  71.1346070  57.8020072  32.3821223  70.7266457  59.2533474
  30.5406458  74.5876710  49.1366136  31.4524314  74.8204097  48.9613834
  30.0316105  75.1713754  48.5741215  23.3491886  76.8672197  64.1755267
  24.0906570  77.4057241  63.8990091  22.6428871  77.4938486  64.3326819
  28.8247225  79.0101338  62.7727429  29.2330582  78.5683748  62.0282061
  28.1024487  78.4353965  63.0261622  25.1778296  73.9473945  60.1460986
  26.0239491  74.3713358  60.2895635  25.1176933  73.2907569  60.8399549
  29.1476040  79.5702529  56.5279718  28.5184903  79.7348243  55.8255786
  28.7601702  79.9844138  57.2990682  33.0265272  80.5056966  53.8824082
  32.3416310  80.8855868  53.3321115  33.1109121  81.1152293  54.6156029
  28.3277741  71.6078313  61.8042159  28.0838673  72.3620374  61.2676435
  28.6037671  71.9863661  62.6389407  30.2816204  78.1516925  60.4819425
  30.4933099  78.7948685  59.8053806  30.2345952  77.3179242  60.0141355
  27.8842433  70.7634746  57.3855997  27.0226912  71.0616000  57.6772735
  27.9104867  70.9805145  56.4537030  24.7004002  79.3076937  53.7929803
  25.1642348  79.5864640  53.0034425  24.4360800  78.4060381  53.6102894
  21.5928083  78.8548418  56.7309566  22.1629440  79.2835687  56.0927051
  22.1836195  78.5731003  57.4293752  23.6372888  75.4300089  50.6019368
  24.3396931  75.8821133  51.0693294  23.3053517  74.7883908  51.2299261
  22.0853250  74.0211846  64.9770577  21.4551910  74.7028126  65.2105974
  21.9789337  73.9094927  64.0323716  17.3798222  73.6883642  55.9036502
  16.5897276  73.9441170  55.4276612  17.8709469  74.5031980  56.0088542
  31.3962032  81.0288881  58.6541782  32.2179475  80.6269068  58.3724464
  31.3924434  80.9257115  59.6057898  19.3312967  74.0528221  52.8619978
  18.5344131  74.1646915  53.3803474  19.1038560  74.3914873  51.9960869
  25.1618635  80.5772924  60.8102493  25.2263068  81.0393331  61.6460665
  24.4529559  79.9470289  60.9384803  15.6635925  73.9414132  58.3351492
  15.9143963  74.8261142  58.6009068  16.1995473  73.7618734  57.5626584
  39.4868025  77.3727629  55.0026754  38.7331733  76.8035027  54.8470758
  39.6215566  77.3390294  55.9497389  24.8766653  82.2441032  50.6781473
  24.7412327  83.0892567  51.1066321  25.4176465  82.4460309  49.9147407
  18.3296050  79.7616470  51.2509398  18.8420571  80.5559720  51.4014963
  18.9818763  79.0642760  51.1843000  20.1390935  82.8782226  53.3332151
  20.3157563  83.8000191  53.1453135  20.9347768  82.5640645  53.7626531
  19.4243291  74.9246858  63.2094315  19.3096806  74.0232115  63.5101414
  18.5687809  75.1710555  62.8579131  26.5035129  82.8664598  64.8081815
  26.0598983  82.0800977  64.4902720  27.1652343  83.0543749  64.1425706
  21.2622250  84.3960400  59.3342494  21.8129675  84.2677463  58.5619488
  20.4233726  84.6955289  58.9837387  28.6016367  83.1467398  62.8363217
  28.5834842  83.9676279  62.3443486  29.5236287  83.0221473  63.0613358
  25.0589421  80.6611528  63.6786725  25.5917758  79.8999816  63.4486033
  24.5303502  80.3685179  64.4210879  28.2259116  65.7671593  59.2080367
  27.8823386  66.6573235  59.1319477  28.5938079  65.5773251  58.3449952
  16.2944967  78.0905124  52.0268969  17.1320189  78.5002132  51.8102677
  16.4723235  77.1504566  51.9969163  28.1909399  75.7580205  47.7152802
  27.6756022  76.5284809  47.9541189  27.9186707  75.0845341  48.3385863
  25.7756510  70.6029905  52.7738040  24.9198106  70.2136756  52.5943679
  26.1883462  70.6821866  51.9137826  27.3055657  68.1376249  57.1729600
  26.8020452  68.1006384  56.3597405  27.5986264  69.0468991  57.2326257
  23.5498543  68.2214978  56.1795782  24.4151539  68.0257787  55.8201671
  23.6176051  67.9925330  57.1065138  33.1643673  78.5112559  49.6505975
  32.3873116  78.1723719  49.2061137  33.8435154  78.5165182  48.9760940
  27.9795702  73.6307297  49.5412583  27.6745838  73.9453446  50.3922726
  28.9326144  73.7088717  49.5839916  26.4242134  79.7897520  51.1905537
  25.8963496  79.0550280  50.8778774  25.9229637  80.5672196  50.9445505
  31.4034980  77.9846541  56.3072583  30.7458654  78.6745802  56.3952712
  32.2075379  78.3742972  56.6506570  21.1560862  70.4517186  53.5512148
  21.7304614  70.2292368  52.8185341  21.7431844  70.5205881  54.3040750
  30.2140439  76.3390913  54.3576525  30.7272321  76.9720905  54.8598235
  30.8641663  75.7392109  53.9919885  21.4830449  72.4821647  47.5708034
  20.6467761  72.8196334  47.8917308  21.3435218  72.3470627  46.6335171
  23.4583529  67.3258435  52.2787218  22.8047942  67.0107452  51.6543833
  23.4164003  66.7034176  53.0047041  24.5694734  77.6077730  44.1940510
  23.6621796  77.3766984  44.3931659  25.0665766  76.8115350  44.3814492
  27.4762813  86.3175237  47.1137196  26.8024512  86.6206934  47.7222154
  27.8628635  87.1204318  46.7642653  26.6921270  73.8140369  56.6034866
  25.7743831  74.0355316  56.4456554  27.1081413  73.8886679  55.7446573
  27.4756317  75.2131784  51.7337546  28.2228136  75.7253182  51.4244668
  27.7447907  74.8915837  52.5941939  25.7482968  77.7090325  48.7164500
  24.8394187  77.4249358  48.8136970  25.7778051  78.1289404  47.8567807
  30.9802235  81.3196915  52.4855668  30.5264562  80.4787825  52.5420858
  30.3496202  81.9558313  52.8230448  29.9235155  72.2488901  53.7156335
  29.1857911  71.7366287  54.0466578  30.1761928  71.8089282  52.9039612
  29.4235174  83.1573411  53.4205486  29.7158149  83.7178468  52.7017851
  29.9333795  83.4501972  54.1758645  30.0246782  65.0265153  54.3098104
  30.3305659  64.1662516  54.0224019  30.7499387  65.6182773  54.1097098
  16.3171138  75.4295839  52.6979702  16.1195538  74.8365200  51.9730769
  15.7617802  75.1248049  53.4155641  24.2967862  75.3218946  54.8174295
  24.3516471  74.3692782  54.7416772  23.4859064  75.4778385  55.3015594
  25.4459055  79.2499069  46.0552579  25.0078485  78.5334928  45.5958216
  26.1869496  79.4775184  45.4937670  22.2360222  73.9396005  52.5764674
  21.4228087  74.2390176  52.9829866  22.7319216  73.5451694  53.2939157
  24.3868799  83.9353762  54.5098939  24.3444978  84.1614609  53.5807471
  25.3031498  83.7017137  54.6584740  27.8334433  74.4037830  61.4079568
  28.1883821  74.6309303  62.2674034  28.4806564  74.7356207  60.7856823
  33.5632170  77.5256266  52.1128897  33.4250069  77.7157862  51.1850086
  33.2068389  78.2875649  52.5696948  21.7274296  71.5114361  58.1925909
  22.3673676  71.3703120  57.4948873  20.8951827  71.2248874  57.8164511
  33.5901550  79.5932793  57.1240169  34.0238056  79.5008082  57.9723223
  34.3033131  79.5690293  56.4860185  22.5034600  80.8116791  54.3060902
  23.2975199  80.3167112  54.1043477  21.7926293  80.2834655  53.9428607
  27.3229445  83.1934887  58.6573269  27.3766467  83.7625823  59.4250985
  26.4544226  83.3636772  58.2927306  18.8117364  74.9559873  50.3820654
  17.8814952  74.8944329  50.5990617  18.9074836  74.4335826  49.5857296
  18.7302913  71.4814686  52.9698896  18.9909730  72.3960019  52.8608057
  19.5520085  71.0139129  53.1195509  20.2027838  72.8952443  60.1397721
  20.8750892  72.6869805  59.4910369  19.3757625  72.6974529  59.7002953
  34.4517099  79.6356494  59.6573054  34.6452989  80.5402304  59.9032329
  34.3517718  79.1763913  60.4911639  26.1053410  69.5214384  62.1563381
  25.4581325  70.2204334  62.0627858  26.8754426  69.9550528  62.5239630
  29.5132208  79.7863236  65.2313935  29.3617714  79.5573788  64.3144018
  29.5036888  80.7433838  65.2445280  26.2817544  77.3595149  60.2160201
  27.2109604  77.5106309  60.0429168  25.8608574  77.4479170  59.3608848
  25.0805876  81.3845813  57.9858739  24.9416962  81.0164598  58.8584677
  24.2920472  81.8993453  57.8142697  25.6754028  86.4854910  49.3284275
  25.8505784  86.0142953  50.1429898  24.9886816  87.1120676  49.5565536
  26.6311091  80.7627416  55.3747577  26.2960924  80.7228186  56.2705226
  26.1315037  80.0972132  54.9017987  20.6055335  76.1695046  60.9000158
  20.4675133  75.4375285  61.5011697  21.5160259  76.0803946  60.6184345
  29.5670283  78.1083450  45.6484636  28.9499454  77.3830279  45.5517689
  29.0986772  78.8692811  45.3051710  23.2337636  75.8815005  60.3883837
  23.9437255  75.2408198  60.3470456  23.1906944  76.1327900  61.3110018
  31.2224415  82.8182359  63.3090417  31.1636961  82.1341579  62.6421000
  31.6243933  83.5601349  62.8571043  21.9466570  72.8680223  62.2079477
  21.4103927  72.4170962  62.8601073  21.3583278  73.0026132  61.4649941
  20.2415113  89.6344273  56.1024135  20.4811712  90.2662797  56.7803154
  19.3984310  89.2832313  56.3889495  21.3568829  72.3268875  44.7705941
  20.4798295  72.2057676  44.4068187  21.8326582  71.5354953  44.5184829
  31.2241822  80.7821943  61.5404396  30.3368601  80.4447865  61.6630795
  31.7940373  80.0504974  61.7773162  12.8770969  77.1146034  54.8647448
  13.5642009  76.8007765  54.2768463  12.7219098  78.0187399  54.5914699
  17.6805691  72.0036231  59.2932471  17.5963880  71.3961901  58.5582881
  16.8588398  72.4945249  59.2941968  24.7542975  85.4423395  58.5065639
  24.6813147  86.2478367  59.0184944  24.3120368  85.6415361  57.6813661
  24.5432755  84.6795165  52.0168461  23.7600277  85.2216845  52.1106686
  25.2425500  85.1969145  52.4162702  27.8529405  70.4889795  54.6602666
  28.3498105  69.7359757  54.3403737  27.0816387  70.5254111  54.0945876
  35.7059163  76.1930160  56.3020958  35.6949039  77.0754876  55.9314891
  34.8376542  75.8401711  56.1075495  27.2141659  85.3410229  60.6623798
  27.9269631  85.9757694  60.5899700  26.7231688  85.4374095  59.8463800
  28.9359186  79.2461482  52.2341090  28.0015465  79.3662944  52.0645794
  29.1135854  78.3433949  51.9701100  24.4364374  72.6307178  54.3874351
  24.0662161  72.0778218  55.0755257  24.9323466  72.0265311  53.8349351
  32.3231737  75.0878801  52.7691124  32.7892189  75.9206793  52.6951427
  32.7739238  74.6223783  53.4736382  22.2653572  83.0904673  61.4829369
  22.9663032  83.7241156  61.6358763  21.7948687  83.4319404  60.7225008
  30.3907968  81.4322622  49.7677276  30.6667812  81.3179217  50.6771150
  29.5212467  81.0340107  49.7289449  30.2948400  67.4559388  56.8082025
  29.3811480  67.6863615  56.9764232  30.7241501  67.5397832  57.6596058
  30.0654858  75.6449280  59.3081919  29.4126309  75.8925187  58.6534372
  30.4435238  74.8313418  58.9744397  27.0262032  85.6808973  53.4110090
  27.2084427  84.8630629  53.8737842  27.8495018  85.8976665  52.9734980
  27.3604198  84.6077158  50.6725138  27.8891964  84.0969613  50.0595300
  27.6232417  84.2919689  51.5370671  26.1142431  76.3869091  65.7947956
  25.4383068  76.2863220  66.4650332  26.9370065  76.2308305  66.2583954
  17.8621290  82.6241028  58.4160472  18.4474727  81.8784716  58.5488376
  17.6646129  82.9344984  59.2997136  20.7159946  85.6592275  53.4322914
  20.0470321  86.1438403  52.9486954  20.5772815  85.9061495  54.3466293
  12.4538945  75.1946628  57.1364915  12.4923045  74.6610219  57.9302033
  11.9479238  74.6681833  56.5175892  24.8565214  87.6936019  60.0305572
  25.4083522  87.8567640  60.7954658  25.1971408  88.2840456  59.3585597
  19.8329708  70.0411168  60.6327457  19.8971034  70.9025999  60.2204855
  19.7696828  69.4285170  59.8999816  19.3081980  72.1134301  64.2800491
  19.9354019  71.7311378  64.8938016  18.4509899  71.8948503  64.6456184
  29.7076089  82.5197276  65.8854227  30.2515993  83.1327234  65.3909182
  29.1262933  83.0776854  66.4021240  16.0847523  73.9210730  50.2118846
  16.3800964  73.0121408  50.1585900  15.1835559  73.8998469  49.8899849
  27.9933602  85.6417994  57.0169255  27.8684741  84.8407734  56.5080200
  28.6512693  86.1364187  56.5283225  19.6141770  71.9966727  56.1946395
  18.8928356  72.6102694  56.0553868  20.4035026  72.5324491  56.1163041
  30.0568510  83.4427014  58.6448805  29.1098845  83.3232365  58.5727131
  30.4051283  82.5549512  58.7275066  22.4168083  69.3321153  62.4687047
  22.9402485  69.5783450  63.2313356  22.1980417  70.1641188  62.0490184
  17.8135364  71.6024828  50.3358171  17.4848071  70.7222207  50.1533277
  18.1674735  71.5472496  51.2234561  27.0614943  83.2379730  54.8453157
  26.9139906  82.3096438  55.0260727  27.8868437  83.2599821  54.3610232
  20.9277188  71.8897797  50.7033649  21.2673260  72.4183719  49.9812257
  21.3749308  72.2278204  51.4792216  30.6649065  84.0608289  55.9318030
  31.5895613  83.8551150  55.7942481  30.4964368  83.8124690  56.8407371
  23.6220628  70.2734848  60.1536717  23.2817449  69.4742661  60.5557397
  22.9159635  70.5736559  59.5813550  24.2737100  67.3584161  58.6064040
  25.0963170  66.8844639  58.4842930  24.5175164  68.1374644  59.1062726
  22.9145335  70.3872419  48.9026942  23.6353697  70.7653672  48.3990659
  22.2910639  71.1061296  49.0061920  27.0576458  71.0917568  49.8385274
  27.2740072  71.9742206  49.5374102  26.5770525  70.7003781  49.1090916
  21.7975679  74.0503281  56.4156019  21.6520260  74.3643584  57.3080300
  21.3200883  74.6688182  55.8626917  23.6572062  71.0405829  56.4636908
  23.6433631  70.1446923  56.1269206  24.3744490  71.0476493  57.0975194
  25.5098193  71.4743169  58.5090036  25.2515970  72.3960240  58.5074366
  24.9783233  71.0773604  59.1990500  30.4544381  84.5793957  51.2880121
  30.6281259  84.0140379  50.5353974  30.9473273  85.3794851  51.1059611
  16.2721341  76.5908626  59.3543680  15.7274809  77.3668434  59.4863954
  17.1500691  76.9379430  59.1962801  23.0608958  69.9220210  51.7324478
  23.1824869  68.9936856  51.9315366  22.7711000  69.9358895  50.8202794
  25.9300148  67.6075120  54.8691198  25.9521845  67.6714453  53.9143178
  26.3468207  66.7679629  55.0631704  36.3083772  77.3430380  52.9070421
  36.7514919  76.5937705  52.5089544  35.4310283  77.3340516  52.5244153
  31.4419554  83.8960721  48.3877019  32.1370458  84.5167414  48.6064334
  31.7842704  83.0456072  48.6629397  17.0587363  75.7178522  62.2473837
  16.3169099  75.8661157  62.8338467  16.7380107  75.9786788  61.3840586
  33.3410977  81.3460426  49.9164350  33.8662301  81.6847699  49.1913670
  33.2533329  80.4107442  49.7327485  25.0031026  85.2594500  62.0454227
  25.3118152  85.0143647  62.9176926  25.8006508  85.4641139  61.5573097
  25.0251638  87.4132410  54.2759603  24.5856628  86.9208788  54.9692460
  25.7759755  86.8705377  54.0351679  17.5043977  83.6043951  54.2784231
  18.3301997  83.3047722  53.8982875  17.1538029  82.8351573  54.7274020
  22.4725510  82.9570419  56.3481905  21.8505519  82.2941124  56.0484133
  23.1430377  82.9831551  55.6655553  15.7052582  81.5230277  55.2373165
  14.8684490  81.0952451  55.0557166  15.6776227  81.7162720  56.1743956
  22.5450037  71.4352207  65.9414411  22.5938193  72.3114330  65.5592181
  23.0872552  70.8929600  65.3686054  33.0304883  81.9793330  65.2215548
  32.2400427  81.9617469  64.6820047  32.7938238  82.5181624  65.9764585
  33.1502758  78.8285797  62.5348277  33.2000763  78.6635804  63.4763799
  33.0416681  77.9613056  62.1446157  22.0339017  81.5074342  49.8240366
  22.1827137  82.1909807  49.1707038  22.8405460  81.4879432  50.3389821
  30.4406520  74.8116725  63.8507583  31.3416383  74.6723189  63.5591581
  30.5154495  74.9771179  64.7905761  24.7749326  72.1883579  62.6960770
  23.9052635  72.4817145  62.4243358  25.0108806  72.7724024  63.4168033
  34.6520955  81.2482738  62.7790298  34.3605763  81.6112719  63.6153759
  34.0393086  80.5349746  62.6003630  35.8516637  78.8135618  55.2992868
  36.6863529  79.2525422  55.4630429  35.9875766  78.3374271  54.4801114
  32.9008143  76.3715353  61.2470356  33.3762265  76.5642999  60.4389208
  31.9773708  76.4274538  61.0013740  19.7891650  77.5339520  50.8301434
  19.5437692  76.6301850  51.0281645  19.9587564  77.5356670  49.8880912
  27.4788360  68.4063196  60.2126190  27.9970303  69.1424223  59.8872679
  27.1243492  68.7127190  61.0472949  19.0587297  73.2667877  48.3287596
  18.3656542  73.3412232  47.6727632  18.8139049  72.5028221  48.8509113
  27.7300954  64.8263479  55.7327087  28.0102708  64.1586668  56.3587513
  28.5151561  65.0192574  55.2201750  25.5334422  84.0022473  47.2952113
  24.9608389  84.6212660  46.8422585  26.1067216  84.5521834  47.8292035
  31.6009812  73.2481113  59.4798662  32.5527235  73.3479210  59.5010886
  31.4313263  72.4559381  59.9896746  29.6224192  70.3336696  59.6658063
  29.0274124  70.6141709  58.9704551  29.3373888  70.8230597  60.4374804
  28.7531682  84.2859623  48.4260695  29.6862355  84.2205184  48.6293571
  28.6654895  85.1215890  47.9675228  31.3819699  83.6025493  45.3864643
  31.3033330  83.2685357  46.2800401  32.2029365  84.0947261  45.3856115
  34.0797890  76.4687232  58.5940961  34.0474210  75.5303233  58.7800645
  34.6898514  76.5471269  57.8606786  25.9181221  75.3383285  44.6368165
  26.8640325  75.2089494  44.7056583  25.5395466  74.5997947  45.1137594
  34.2292378  73.2598276  58.6399245  33.7131427  72.4756732  58.4529173
  35.1132327  72.9316992  58.8045764  31.8903105  67.0039291  54.5995057
  31.6927926  66.6954380  55.4838389  32.5002811  67.7300930  54.7292987
  39.8974440  77.5303239  57.7346998  40.6277828  77.2688527  58.2954702
  39.2881385  76.7931961  57.7749066  37.9789737  75.6711102  58.3321449
  37.2522900  75.5367067  57.7237941  37.5637024  75.9787930  59.1378167
  25.8019913  79.3901032  66.0968822  26.7222923  79.5679631  66.2908869
  25.7669496  78.4457077  65.9448522  24.1024138  73.2633262  44.5723051
  23.1955593  72.9666375  44.6485764  24.3800119  72.9663080  43.7057337
  15.0202078  74.5839625  55.0222097  14.7004863  73.7304933  54.7296471
  14.4735506  74.7988203  55.7780064  18.7981986  77.3002066  58.7391604
  19.0167996  78.2319174  58.7579637  19.2107760  76.9410041  59.5246407
  25.7186204  67.8070152  50.7267292  24.9086932  67.4617236  51.1022538
  26.4070621  67.4977695  51.3154904  27.6476752  66.8848198  52.3491589
  28.2007791  67.3043652  53.0081612  27.8846838  65.9583946  52.3914545
  23.6709851  72.8735272  68.1294353  23.5706578  73.8229629  68.0606444
  23.4531393  72.5453511  67.2570423  22.8722923  70.1220197  44.7135030
  23.7342087  70.4475095  44.9730847  23.0573267  69.3351693  44.2008096
  14.8890338  78.2042537  56.9915219  14.1953810  77.7896489  56.4785173
  15.6363329  78.2463073  56.3948638  31.0255559  68.9948723  51.8570253
  30.4454228  69.6533527  51.4748305  30.7591492  68.1726068  51.4457670
  29.4759125  68.3953781  54.0591573  29.9758904  68.5070316  53.2505892
  30.1194733  68.0914834  54.6992382  23.5341121  76.3032411  66.9459414
  23.0508203  77.1032771  67.1523303  23.6202060  76.3140356  65.9926858
  16.8027081  78.1360790  54.8681234  16.7797769  78.2348478  53.9163117
  17.1127717  78.9825941  55.1898400  19.4614459  80.1936945  58.9827848
  20.4157712  80.1620888  58.9157780  19.2626982  79.7327569  59.7978074
  20.0513841  78.7638062  61.5498646  20.8706730  79.2582140  61.5733483
  20.3250649  77.8470030  61.5216213  29.8080437  71.1548814  50.9126601
  28.9206292  71.4398464  50.6946796  30.2234426  70.9942577  50.0653878
  33.1594973  71.1795335  54.6280940  33.9355363  71.6691787  54.9005557
  32.4343107  71.6053389  55.0852810  35.5967532  71.8922954  55.6854881
  36.1912023  71.6518690  54.9748189  35.6694115  71.1730085  56.3128417
  17.8164687  85.7356565  55.9998046  17.6819155  84.9756966  55.4336044
  17.3996750  86.4597465  55.5326835  28.9523650  80.9193489  45.0074621
  29.6559501  81.1243491  45.6232277  28.2286299  81.4870250  45.2723705
  29.7821461  76.6703350  51.1276891  29.7256662  77.1271901  50.2884524
  30.3349803  75.9094034  50.9499734  33.5926267  72.4593082  51.9527011
  33.3363201  72.0589717  52.7835218  32.9679135  73.1736876  51.8277150
  37.9038605  75.1989155  54.4598302  37.3438163  75.2682344  55.2329864
  37.2982108  75.0230140  53.7397798  20.9733813  86.6325882  56.2116488
  20.8566197  87.5771314  56.1095179  20.1526260  86.3299444  56.6002288
  30.8610348  81.3576018  47.0573081  31.6955952  80.9257216  46.8750556
  30.6994691  81.1858031  47.9849976  30.5156240  77.8608131  48.4229420
  30.4605044  77.6952402  47.4817865  29.8902295  78.5684164  48.5791610
  15.3048755  73.0976195  62.2490843  15.9507619  72.5875149  62.7378068
  15.0965906  73.8344877  62.8234268  27.8302147  80.1657043  67.7482983
  28.6993307  80.3397695  67.3869618  27.3508899  80.9851460  67.6258713
  23.8252366  67.3616240  48.0014739  23.8131035  68.3058080  48.1583010
  24.7175787  67.1786385  47.7074200  21.9988327  87.2854144  59.4272417
  22.9015574  87.3177754  59.7438912  21.7725698  86.3554595  59.4418753
  23.7541929  86.0385130  56.0882496  22.8037560  86.0386992  55.9746868
  24.0574416  85.2917865  55.5718530  27.6404485  63.9559017  52.2560676
  26.8736881  63.4017503  52.4017358  28.0515190  64.0280885  53.1174827
  19.6446246  70.2443812  66.3465857  20.5077708  69.8880617  66.5569181
  19.0711657  69.9057707  67.0341261  36.2984329  91.8273097  57.0889783
  35.9602841  91.7114162  56.2010317  37.1674097  91.4264262  57.0690789
  32.1571145  93.6808573  53.0786674  31.5936010  93.5898510  52.3102961
  32.0423540  92.8608478  53.5589166  36.7804112  92.9807949  63.0475988
  36.7692753  92.5860747  62.1756492  36.9424752  92.2474021  63.6409760
  29.7035577  95.1759765  55.9170894  30.4956869  94.8350590  55.5017193
  29.9432227  95.2854740  56.8373047  37.7370704  97.3479541  48.3901138
  37.0858683  97.9333621  48.0035152  38.5315066  97.8785736  48.4496176
  31.6626331  94.4368678  48.7888273  32.4357207  93.8897665  48.6501149
  32.0151730  95.3012928  49.0002734  33.5011373  95.7645060  61.9955172
  33.2101239  96.6690691  61.8801838  34.1368358  95.8061588  62.7099242
  34.4267580  93.1421909  58.5856532  35.0231152  92.9177931  57.8713495
  34.4842552  92.4006654  59.1881980  33.9992609  90.5961344  46.4206723
  34.2518129  90.0742866  45.6590186  33.0617168  90.4327490  46.5233406
  39.0435891  89.5997123  54.2281466  39.8298981  89.1816546  53.8771883
  39.3074596  90.5043215  54.3963114  39.2145969  95.0369973  48.9270123
  38.5791802  95.1104600  49.6391027  38.8843375  95.6263572  48.2489202
  33.7188897  92.4989450  48.6231098  33.6025155  91.8234354  49.2912182
  33.8291157  92.0121824  47.8063251  36.0620438  91.9599597  52.3277787
  35.6978646  91.4330218  53.0390708  36.9187554  91.5698066  52.1544272
  41.9669739  83.2493930  59.5909053  41.6353064  84.1189341  59.3670268
  41.3715352  82.9330214  60.2703083  35.7025925  86.9889497  47.3239135
  35.8700328  87.8569733  47.6909606  35.5123094  87.1516779  46.4000425
  38.4601258  95.4506476  58.9904966  38.1601982  96.3531515  58.8820773
  38.1152318  95.1838659  59.8426119  31.9113740  91.9020273  55.0241670
  30.9864236  91.7696487  55.2319362  32.1598153  92.6814492  55.5211613
  35.6815146  89.4447155  48.3085802  35.5614771  89.8904205  49.1471283
  34.9867735  89.7932472  47.7499340  29.2722551  91.5453546  55.8585459
  29.4014932  91.7988025  56.7724871  28.5920002  92.1381254  55.5390114
  33.4422038 102.2150796  51.9575933  33.3646068 103.1658621  52.0364414
  32.8383682 101.8696669  52.6150860  35.9339268  89.3878662  64.6137300
  35.1572602  89.9472582  64.6040165  36.5729831  89.8735445  65.1352170
  41.3800212  89.9168628  49.1366136  42.2918068  90.1496015  48.9613834
  40.8709859  90.5005672  48.5741215  34.1885640  92.1964115  64.1755267
  34.9300325  92.7349159  63.8990091  33.4822626  92.8230404  64.3326819
  39.6640980  94.3393256  62.7727429  40.0724336  93.8975666  62.0282061
  38.9418241  93.7645883  63.0261622  36.0172050  89.2765862  60.1460986
  36.8633245  89.7005276  60.2895635  35.9570688  88.6199487  60.8399549
  39.9869795  94.8994446  56.5279718  39.3578657  95.0640160  55.8255786
  39.5995457  95.3136056  57.2990682  43.8659027  95.8348884  53.8824082
  43.1810065  96.2147785  53.3321115  43.9502876  96.4444211  54.6156029
  39.1671495  86.9370231  61.8042159  38.9232427  87.6912291  61.2676435
  39.4431426  87.3155578  62.6389407  41.1209958  93.4808843  60.4819425
  41.3326853  94.1240603  59.8053806  41.0739706  92.6471160  60.0141355
  38.7236187  86.0926664  57.3855997  37.8620666  86.3907917  57.6772735
  38.7498622  86.3097063  56.4537030  35.5397757  94.6368854  53.7929803
  36.0036102  94.9156557  53.0034425  35.2754555  93.7352299  53.6102894
  32.4321838  94.1840336  56.7309566  33.0023195  94.6127604  56.0927051
  33.0229949  93.9022921  57.4293752  34.4766643  90.7592007  50.6019368
  35.1790686  91.2113050  51.0693294  34.1447271  90.1175826  51.2299261
  32.9247004  89.3503763  64.9770577  32.2945665  90.0320044  65.2105974
  32.8183092  89.2386845  64.0323716  28.2191977  89.0175559  55.9036502
  27.4291031  89.2733088  55.4276612  28.7103224  89.8323897  56.0088542
  42.2355786  96.3580799  58.6541782  43.0573230  95.9560986  58.3724464
  42.2318189  96.2549033  59.6057898  30.1706722  89.3820139  52.8619978
  29.3737885  89.4938833  53.3803474  29.9432314  89.7206791  51.9960869
  36.0012390  95.9064842  60.8102493  36.0656822  96.3685249  61.6460665
  35.2923313  95.2762207  60.9384803  26.5029680  89.2706050  58.3351492
  26.7537718  90.1553060  58.6009068  27.0389228  89.0910651  57.5626584
  35.7160407  97.5732949  50.6781473  35.5806082  98.4184485  51.1066321
  36.2570220  97.7752227  49.9147407  32.2027747  83.6524529  67.3395828
  31.8094692  83.0990728  68.0143473  33.0193887  83.9635108  67.7302346
  29.1689805  95.0908387  51.2509398  29.6814325  95.8851638  51.4014963
  29.8212517  94.3934678  51.1843000  30.9784689  98.2074144  53.3332151
  31.1551318  99.1292108  53.1453135  31.7741523  97.8932563  53.7626531
  35.1195708  85.0682408  64.9316085  35.8605421  85.6689561  64.8520547
  35.3513631  84.3260046  64.3734128  30.2637046  90.2538775  63.2094315
  30.1490561  89.3524033  63.5101414  29.4081564  90.5002472  62.8579131
  37.3428884  98.1956516  64.8081815  36.8992738  97.4092894  64.4902720
  38.0046097  98.3835666  64.1425706  32.1016005  99.7252317  59.3342494
  32.6523430  99.5969381  58.5619488  31.2627481 100.0247206  58.9837387
  39.4410122  98.4759316  62.8363217  39.4228597  99.2968197  62.3443486
  40.3630042  98.3513391  63.0613358  35.8983176  95.9903445  63.6786725
  36.4311513  95.2291733  63.4486033  35.3697257  95.6977097  64.4210879
  39.0652871  81.0963511  59.2080367  38.7217140  81.9865153  59.1319477
  39.4331833  80.9065169  58.3449952  27.1338721  93.4197042  52.0268969
  27.9713943  93.8294050  51.8102677  27.3116989  92.4796484  51.9969163
  39.0303153  91.0872122  47.7152802  38.5149777  91.8576727  47.9541189
  38.7580462  90.4137258  48.3385863  36.6150265  85.9321823  52.7738040
  35.7591861  85.5428673  52.5943679  37.0277216  86.0113784  51.9137826
  38.1449411  83.4668166  57.1729600  37.6414207  83.4298301  56.3597405
  38.4380018  84.3760909  57.2326257  34.3892297  83.5506896  56.1795782
  35.2545294  83.3549705  55.8201671  34.4569806  83.3217248  57.1065138
  44.0037428  93.8404477  49.6505975  43.2266870  93.5015636  49.2061137
  44.6828909  93.8457100  48.9760940  38.8189457  88.9599214  49.5412583
  38.5139592  89.2745364  50.3922726  39.7719899  89.0380634  49.5839916
  37.2635888  95.1189438  51.1905537  36.7357250  94.3842197  50.8778774
  36.7623391  95.8964114  50.9445505  31.9954616  85.7809104  53.5512148
  32.5698368  85.5584285  52.8185341  32.5825599  85.8497798  54.3040750
  32.3224203  87.8113565  47.5708034  31.4861515  88.1488252  47.8917308
  32.1828973  87.6762545  46.6335171  34.2977284  82.6550353  52.2787218
  33.6441696  82.3399370  51.6543833  34.2557758  82.0326093  53.0047041
  35.4088489  92.9369648  44.1940510  34.5015550  92.7058901  44.3931659
  35.9059521  92.1407267  44.3814492  38.3156568 101.6467155  47.1137196
  37.6418266 101.9498852  47.7222154  38.7022390 102.4496235  46.7642653
  37.5315024  89.1432286  56.6034866  36.6137586  89.3647233  56.4456554
  37.9475168  89.2178597  55.7446573  38.3150072  90.5423702  51.7337546
  39.0621891  91.0545099  51.4244668  38.5841661  90.2207755  52.5941939
  36.5876722  93.0382243  48.7164500  35.6787941  92.7541276  48.8136970
  36.6171806  93.4581321  47.8567807  41.8195990  96.6488832  52.4855668
  41.3658317  95.8079742  52.5420858  41.1889956  97.2850231  52.8230448
  40.7628909  87.5780818  53.7156335  40.0251666  87.0658205  54.0466578
  41.0155683  87.1381200  52.9039612  40.2628929  98.4865329  53.4205486
  40.5551903  99.0470386  52.7017851  40.7727549  98.7793890  54.1758645
  40.8640536  80.3557070  54.3098104  41.1699413  79.4954434  54.0224019
  41.5893141  80.9474691  54.1097098  27.1564892  90.7587757  52.6979702
  26.9589292  90.1657118  51.9730769  26.6011556  90.4539967  53.4155641
  35.1361616  90.6510863  54.8174295  35.1910226  89.6984700  54.7416772
  34.3252818  90.8070303  55.3015594  36.2852810  94.5790986  46.0552579
  35.8472240  93.8626845  45.5958216  37.0263251  94.8067101  45.4937670
  33.0753976  89.2687923  52.5764674  32.2621842  89.5682094  52.9829866
  33.5712970  88.8743612  53.2939157  35.2262554  99.2645680  54.5098939
  35.1838733  99.4906526  53.5807471  36.1425253  99.0309055  54.6584740
  38.6728188  89.7329748  61.4079568  39.0277575  89.9601221  62.2674034
  39.3200319  90.0648124  60.7856823  44.4025925  92.8548184  52.1128897
  44.2643823  93.0449780  51.1850086  44.0462144  93.6167566  52.5696948
  32.5668051  86.8406279  58.1925909  33.2067430  86.6995038  57.4948873
  31.7345581  86.5540792  57.8164511  44.4295304  94.9224711  57.1240169
  44.8631811  94.8300000  57.9723223  45.1426885  94.8982211  56.4860185
  33.3428355  96.1408709  54.3060902  34.1368953  95.6459029  54.1043477
  32.6320047  95.6126572  53.9428607  38.1623199  98.5226805  58.6573269
  38.2160221  99.0917741  59.4250985  37.2937981  98.6928690  58.2927306
  29.6511118  90.2851791  50.3820654  28.7208706  90.2236246  50.5990617
  29.7468590  89.7627744  49.5857296  29.5696667  86.8106604  52.9698896
  29.8303485  87.7251937  52.8608057  30.3913840  86.3431046  53.1195509
  31.0421593  88.2244361  60.1397721  31.7144646  88.0161723  59.4910369
  30.2151379  88.0266447  59.7002953  45.2910854  94.9648411  59.6573054
  45.4846744  95.8694222  59.9032329  45.1911472  94.5055830  60.4911639
  36.9447165  84.8506302  62.1563381  36.2975080  85.5496251  62.0627858
  37.7148180  85.2842446  62.5239630  40.3525963  95.1155154  65.2313935
  40.2011469  94.8865706  64.3144018  40.3430642  96.0725755  65.2445280
  37.1211299  92.6887067  60.2160201  38.0503359  92.8398226  60.0429168
  36.7002329  92.7771087  59.3608848  35.9199631  96.7137731  57.9858739
  35.7810716  96.3456515  58.8584677  35.1314227  97.2285371  57.8142697
  36.5147783 101.8146828  49.3284275  36.6899538 101.3434871  50.1429898
  35.8280571 102.4412594  49.5565536  37.4704846  96.0919334  55.3747577
  37.1354678  96.0520104  56.2705226  36.9708792  95.4264050  54.9017987
  31.4449090  91.4986964  60.9000158  31.3068888  90.7667203  61.5011697
  32.3554013  91.4095864  60.6184345  40.4064038  93.4375368  45.6484636
  39.7893208  92.7122196  45.5517689  39.9380526  94.1984728  45.3051710
  34.0731391  91.2106923  60.3883837  34.7831009  90.5700115  60.3470456
  34.0300699  91.4619818  61.3110018  42.0618169  98.1474276  63.3090417
  42.0030715  97.4633497  62.6421000  42.4637688  98.8893266  62.8571043
  32.7860324  88.1972141  62.2079477  32.2497682  87.7462879  62.8601073
  32.1977033  88.3318050  61.4649941  31.0808868 104.9636190  56.1024135
  31.3205466 105.5954714  56.7803154  30.2378064 104.6124230  56.3889495
  32.1962583  87.6560792  44.7705941  31.3192050  87.5349593  44.4068187
  32.6720337  86.8646871  44.5184829  42.0635576  96.1113860  61.5404396
  41.1762355  95.7739782  61.6630795  42.6334128  95.3796892  61.7773162
  23.7164724  92.4437952  54.8647448  24.4035763  92.1299682  54.2768463
  23.5612852  93.3479317  54.5914699  28.5199446  87.3328149  59.2932471
  28.4357634  86.7253818  58.5582881  27.6982152  87.8237167  59.2941968
  35.5936730 100.7715313  58.5065639  35.5206901 101.5770284  59.0184944
  35.1514123 100.9707279  57.6813661  35.3826509 100.0087083  52.0168461
  34.5994031 100.5508763  52.1106686  36.0819255 100.5261062  52.4162702
  38.6923160  85.8181712  54.6602666  39.1891859  85.0651675  54.3403737
  37.9210141  85.8546029  54.0945876  38.0535413 100.6702147  60.6623798
  38.7663386 101.3049612  60.5899700  37.5625442 100.7666013  59.8463800
  39.7752940  94.5753399  52.2341090  38.8409219  94.6954862  52.0645794
  39.9529609  93.6725866  51.9701100  35.2758128  87.9599095  54.3874351
  34.9055916  87.4070136  55.0755257  35.7717221  87.3557229  53.8349351
  43.1625492  90.4170719  52.7691124  43.6285944  91.2498710  52.6951427
  43.6132992  89.9515700  53.4736382  33.1047327  98.4196590  61.4829369
  33.8056786  99.0533073  61.6358763  32.6342442  98.7611322  60.7225008
  41.2301723  96.7614540  49.7677276  41.5061567  96.6471135  50.6771150
  40.3606221  96.3632025  49.7289449  41.1342154  82.7851306  56.8082025
  40.2205234  83.0155533  56.9764232  41.5635256  82.8689750  57.6596058
  37.8655787 101.0100891  53.4110090  38.0478181 100.1922547  53.8737842
  38.6888773 101.2268583  52.9734980  38.1997952  99.9369076  50.6725138
  38.7285719  99.4261531  50.0595300  38.4626172  99.6211606  51.5370671
  36.9536186  91.7161009  65.7947956  36.2776823  91.6155138  66.4650332
  37.7763820  91.5600223  66.2583954  28.7015045  97.9532945  58.4160472
  29.2868482  97.2076633  58.5488376  28.5039883  98.2636902  59.2997136
  31.5553700 100.9884193  53.4322914  30.8864075 101.4730320  52.9486954
  31.4166570 101.2353413  54.3466293  23.2932700  90.5238546  57.1364915
  23.3316799  89.9902136  57.9302033  22.7872993  89.9973751  56.5175892
  35.6958969 103.0227936  60.0305572  36.2477277 103.1859558  60.7954658
  36.0365162 103.6132374  59.3585597  30.6723462  85.3703086  60.6327457
  30.7364788  86.2317917  60.2204855  30.6090582  84.7577088  59.8999816
  30.1475735  87.4426219  64.2800491  30.7747773  87.0603296  64.8938016
  29.2903653  87.2240421  64.6456184  40.5469843  97.8489194  65.8854227
  41.0909747  98.4619152  65.3909182  39.9656688  98.4068772  66.4021240
  26.9241277  89.2502648  50.2118846  27.2194718  88.3413326  50.1585900
  26.0229313  89.2290387  49.8899849  38.8327356 100.9709912  57.0169255
  38.7078496 100.1699652  56.5080200  39.4906447 101.4656105  56.5283225
  30.4535524  87.3258644  56.1946395  29.7322110  87.9394612  56.0553868
  31.2428780  87.8616409  56.1163041  40.8962264  98.7718932  58.6448805
  39.9492600  98.6524283  58.5727131  41.2445038  97.8841430  58.7275066
  33.2561838  84.6613071  62.4687047  33.7796240  84.9075367  63.2313356
  33.0374171  85.4933106  62.0490184  28.6529119  86.9316745  50.3358171
  28.3241825  86.0514124  50.1533277  29.0068490  86.8764414  51.2234561
  37.9008698  98.5671648  54.8453157  37.7533660  97.6388355  55.0260727
  38.7262191  98.5891739  54.3610232  31.7670942  87.2189715  50.7033649
  32.1067015  87.7475636  49.9812257  32.2143063  87.5570121  51.4792216
  41.5042820  99.3900207  55.9318030  42.4289367  99.1843068  55.7942481
  41.3358123  99.1416608  56.8407371  34.4614383  85.6026766  60.1536717
  34.1211203  84.8034579  60.5557397  33.7553389  85.9028477  59.5813550
  35.1130855  82.6876078  58.6064040  35.9356924  82.2136556  58.4842930
  35.3568918  83.4666562  59.1062726  33.7539089  85.7164337  48.9026942
  34.4747452  86.0945590  48.3990659  33.1304393  86.4353214  49.0061920
  37.8970212  86.4209486  49.8385274  38.1133826  87.3034124  49.5374102
  37.4164279  86.0295699  49.1090916  32.6369433  89.3795199  56.4156019
  32.4914014  89.6935502  57.3080300  32.1594637  89.9980099  55.8626917
  34.4965816  86.3697747  56.4636908  34.4827385  85.4738840  56.1269206
  35.2138244  86.3768411  57.0975194  36.3491947  86.8035087  58.5090036
  36.0909725  87.7252158  58.5074366  35.8176987  86.4065522  59.1990500
  41.2938136  99.9085874  51.2880121  41.4675013  99.3432297  50.5353974
  41.7867027 100.7086769  51.1059611  27.1115096  91.9200543  59.3543680
  26.5668564  92.6960351  59.4863954  27.9894445  92.2671348  59.1962801
  33.9002712  85.2512127  51.7324478  34.0218623  84.3228773  51.9315366
  33.6104755  85.2650813  50.8202794  36.7693903  82.9367038  54.8691198
  36.7915599  83.0006371  53.9143178  37.1861962  82.0971546  55.0631704
  47.1477527  92.6722297  52.9070421  47.5908673  91.9229622  52.5089544
  46.2704037  92.6632434  52.5244153  42.2813308  99.2252639  48.3877019
  42.9764213  99.8459331  48.6064334  42.6236458  98.3747990  48.6629397
  27.8981117  91.0470440  62.2473837  27.1562853  91.1953075  62.8338467
  27.5773862  91.3078705  61.3840586  44.1804731  96.6752344  49.9164350
  44.7056055  97.0139617  49.1913670  44.0927084  95.7399359  49.7327485
  35.8424780 100.5886418  62.0454227  36.1511907 100.3435565  62.9176926
  36.6400262 100.7933056  61.5573097  35.8645392 102.7424327  54.2759603
  35.4250382 102.2500706  54.9692460  36.6153509 102.1997295  54.0351679
  28.3437731  98.9335868  54.2784231  29.1695751  98.6339640  53.8982875
  27.9931783  98.1643491  54.7274020  33.3119264  98.2862337  56.3481905
  32.6899274  97.6233042  56.0484133  33.9824131  98.3123468  55.6655553
  26.5446336  96.8522195  55.2373165  25.7078244  96.4244369  55.0557166
  26.5169982  97.0454638  56.1743956  33.3843792  86.7644125  65.9414411
  33.4331947  87.6406247  65.5592181  33.9266306  86.2221518  65.3686054
  43.8698637  97.3085248  65.2215548  43.0794181  97.2909387  64.6820047
  43.6331992  97.8473542  65.9764585  43.9896513  94.1577714  62.5348277
  44.0394517  93.9927722  63.4763799  43.8810436  93.2904973  62.1446157
  32.8732771  96.8366260  49.8240366  33.0220892  97.5201724  49.1707038
  33.6799215  96.8171350  50.3389821  41.2800275  90.1408642  63.8507583
  42.1810138  90.0015107  63.5591581  41.3548249  90.3063097  64.7905761
  35.6143080  87.5175497  62.6960770  34.7446390  87.8109063  62.4243358
  35.8502561  88.1015942  63.4168033  45.4914709  96.5774656  62.7790298
  45.1999518  96.9404636  63.6153759  44.8786841  95.8641664  62.6003630
  43.7401898  91.7007270  61.2470356  44.2156019  91.8934917  60.4389208
  42.8167463  91.7566456  61.0013740  30.6285404  92.8631438  50.8301434
  30.3831446  91.9593768  51.0281645  30.7981319  92.8648588  49.8880912
  38.3182114  83.7355114  60.2126190  38.8364058  84.4716141  59.8872679
  37.9637247  84.0419107  61.0472949  29.8981052  88.5959795  48.3287596
  29.2050297  88.6704150  47.6727632  29.6532804  87.8320139  48.8509113
  38.5694708  80.1555396  55.7327087  38.8496462  79.4878585  56.3587513
  39.3545315  80.3484492  55.2201750  36.3728177  99.3314390  47.2952113
  35.8002144  99.9504577  46.8422585  36.9460970  99.8813752  47.8292035
  40.4617946  85.6628614  59.6658063  39.8667878  85.9433626  58.9704551
  40.1767643  86.1522515  60.4374804  39.5925437  99.6151540  48.4260695
  40.5256110  99.5497102  48.6293571  39.5048649 100.4507807  47.9675228
  42.2213453  98.9317411  45.3864643  42.1427085  98.5977274  46.2800401
  43.0423120  99.4239179  45.3856115  36.7574975  90.6675203  44.6368165
  37.7034080  90.5381411  44.7056583  36.3789220  89.9289865  45.1137594
  42.7296860  82.3331209  54.5995057  42.5321681  82.0246297  55.4838389
  43.3396565  83.0592848  54.7292987  36.6413668  94.7192949  66.0968822
  37.5616677  94.8971548  66.2908869  36.6063251  93.7748995  65.9448522
  34.9417892  88.5925179  44.5723051  34.0349348  88.2958292  44.6485764
  35.2193873  88.2954998  43.7057337  25.8595833  89.9131543  55.0222097
  25.5398617  89.0596851  54.7296471  25.3129261  90.1280121  55.7780064
  29.6375740  92.6293984  58.7391604  29.8561750  93.5611092  58.7579637
  30.0501514  92.2701958  59.5246407  36.5579958  83.1362069  50.7267292
  35.7480686  82.7909154  51.1022538  37.2464375  82.8269613  51.3154904
  38.4870506  82.2140116  52.3491589  39.0401545  82.6335569  53.0081612
  38.7240593  81.2875864  52.3914545  34.5103606  88.2027190  68.1294353
  34.4100333  89.1521547  68.0606444  34.2925148  87.8745429  67.2570423
  33.7116677  85.4512115  44.7135030  34.5735841  85.7767013  44.9730847
  33.8967021  84.6643611  44.2008096  25.7284093  93.5334454  56.9915219
  25.0347564  93.1188407  56.4785173  26.4757084  93.5754991  56.3948638
  41.8649313  84.3240641  51.8570253  41.2847983  84.9825445  51.4748305
  41.5985246  83.5017986  51.4457670  40.3152880  83.7245699  54.0591573
  40.8152658  83.8362233  53.2505892  40.9588488  83.4206752  54.6992382
  34.3734876  91.6324328  66.9459414  33.8901957  92.4324689  67.1523303
  34.4595815  91.6432273  65.9926858  27.6420835  93.4652708  54.8681234
  27.6191523  93.5640395  53.9163117  27.9521472  94.3117859  55.1898400
  30.3008213  95.5228863  58.9827848  31.2551467  95.4912806  58.9157780
  30.1020737  95.0619487  59.7978074  30.8907595  94.0929979  61.5498646
  31.7100484  94.5874058  61.5733483  31.1644403  93.1761947  61.5216213
  40.6474192  86.4840732  50.9126601  39.7600047  86.7690382  50.6946796
  41.0628181  86.3234495  50.0653878  28.6558442 101.0648483  55.9998046
  28.5212910 100.3048884  55.4336044  28.2390504 101.7889383  55.5326835
  39.7917405  96.2485406  45.0074621  40.4953255  96.4535409  45.6232277
  39.0680054  96.8162168  45.2723705  40.6215215  91.9995267  51.1276891
  40.5650417  92.4563819  50.2884524  41.1743558  91.2385952  50.9499734
  31.8127568 101.9617800  56.2116488  31.6959952 102.9063232  56.1095179
  30.9920014 101.6591361  56.6002288  41.7004102  96.6867935  47.0573081
  42.5349706  96.2549134  46.8750556  41.5388445  96.5149949  47.9849976
  41.3549995  93.1900049  48.4229420  41.2998798  93.0244320  47.4817865
  40.7296050  93.8976082  48.5791610  26.1442510  88.4268113  62.2490843
  26.7901373  87.9167067  62.7378068  25.9359661  89.1636795  62.8234268
  38.6695902  95.4948961  67.7482983  39.5387061  95.6689613  67.3869618
  38.1902653  96.3143377  67.6258713  34.6646120  82.6908158  48.0014739
  34.6524790  83.6349998  48.1583010  35.5569542  82.5078303  47.7074200
  32.8382082 102.6146062  59.4272417  33.7409329 102.6469672  59.7438912
  32.6119452 101.6846513  59.4418753  34.5935684 101.3677048  56.0882496
  33.6431315 101.3678910  55.9746868  34.8968170 100.6209783  55.5718530
  38.4798239  79.2850934  52.2560676  37.7130635  78.7309421  52.4017358
  38.8908944  79.3572803  53.1174827  30.4840001  85.5735730  66.3465857
  31.3471462  85.2172535  66.5569181  29.9105411  85.2349625  67.0341261
  50.3288377 107.2037587  57.1528258  50.9666787 107.0844334  56.4491598
  50.2109220 108.1518430  57.2116210  47.1378084 107.1565015  57.0889783
  46.7996595 107.0406079  56.2010317  48.0067852 106.7556180  57.0690789
  42.9964899 109.0100491  53.0786674  42.4329765 108.9190428  52.3102961
  42.8817294 108.1900395  53.5589166  47.6197867 108.3099866  63.0475988
  47.6086508 107.9152665  62.1756492  47.7818506 107.5765939  63.6409760
  40.5429331 110.5051683  55.9170894  41.3350623 110.1642507  55.5017193
  40.7825982 110.6146658  56.8373047  48.5764458 112.6771459  48.3901138
  47.9252438 113.2625539  48.0035152  49.3708821 113.2077654  48.4496176
  42.5020085 109.7660596  48.7888273  43.2750961 109.2189583  48.6501149
  42.8545484 110.6304845  49.0002734  44.3405128 111.0936978  61.9955172
  44.0494994 111.9982609  61.8801838  44.9762112 111.1353506  62.7099242
  45.2661335 108.4713827  58.5856532  45.8624907 108.2469849  57.8713495
  45.3236306 107.7298572  59.1881980  44.8386363 105.9253262  46.4206723
  45.0911884 105.4034783  45.6590186  43.9010922 105.7619407  46.5233406
  49.8829646 104.9289040  54.2281466  50.6692735 104.5108464  53.8771883
  50.1468350 105.8335133  54.3963114  50.0539723 110.3661891  48.9270123
  49.4185556 110.4396517  49.6391027  49.7237130 110.9555490  48.2489202
  44.5582652 107.8281368  48.6231098  44.4418910 107.1526271  49.2912182
  44.6684912 107.3413742  47.8063251  46.9014193 107.2891515  52.3277787
  46.5372400 106.7622136  53.0390708  47.7581309 106.8989984  52.1544272
  46.5419680 102.3181415  47.3239135  46.7094082 103.1861651  47.6909606
  46.3516849 102.4808696  46.4000425  49.2995013 110.7798394  58.9904966
  48.9995736 111.6823432  58.8820773  48.9546072 110.5130577  59.8426119
  42.7507494 107.2312191  55.0241670  41.8257991 107.0988405  55.2319362
  42.9991908 108.0106410  55.5211613  46.5208901 104.7739072  48.3085802
  46.4008526 105.2196123  49.1471283  45.8261489 105.1224390  47.7499340
  40.1116305 106.8745464  55.8585459  40.2408687 107.1279943  56.7724871
  39.4313757 107.4673172  55.5390114  44.2815793 117.5442714  51.9575933
  44.2039822 118.4950539  52.0364414  43.6777436 117.1988587  52.6150860
  52.2193967 105.2460545  49.1366136  53.1311823 105.4787932  48.9613834
  51.7103614 105.8297590  48.5741215  45.0279395 107.5256033  64.1755267
  45.7694079 108.0641077  63.8990091  44.3216380 108.1522322  64.3326819
  50.5034734 109.6685173  62.7727429  50.9118091 109.2267584  62.0282061
  49.7811996 109.0937801  63.0261622  50.8263549 110.2286364  56.5279718
  50.1972412 110.3932078  55.8255786  50.4389211 110.6427973  57.2990682
  54.7052781 111.1640802  53.8824082  54.0203819 111.5439703  53.3321115
  54.7896630 111.7736128  54.6156029  51.9603713 108.8100761  60.4819425
  52.1720608 109.4532521  59.8053806  51.9133461 107.9763077  60.0141355
  46.3791511 109.9660772  53.7929803  46.8429857 110.2448475  53.0034425
  46.1148309 109.0644217  53.6102894  43.2715592 109.5132254  56.7309566
  43.8416949 109.9419522  56.0927051  43.8623704 109.2314838  57.4293752
  45.3160397 106.0883924  50.6019368  46.0184440 106.5404968  51.0693294
  44.9841026 105.4467743  51.2299261  43.7640759 104.6795681  64.9770577
  43.1339419 105.3611962  65.2105974  43.6576846 104.5678763  64.0323716
  39.0585731 104.3467477  55.9036502  38.2684785 104.6025006  55.4276612
  39.5496978 105.1615815  56.0088542  53.0749541 111.6872716  58.6541782
  53.8966984 111.2852903  58.3724464  53.0711943 111.5840950  59.6057898
  41.0100476 104.7112056  52.8619978  40.2131640 104.8230751  53.3803474
  40.7826069 105.0498708  51.9960869  46.8406144 111.2356759  60.8102493
  46.9050577 111.6977167  61.6460665  46.1317068 110.6054124  60.9384803
  37.3423434 104.5997967  58.3351492  37.5931472 105.4844977  58.6009068
  37.8782982 104.4202569  57.5626584  61.1655534 108.0311465  55.0026754
  60.4119242 107.4618863  54.8470758  61.3003075 107.9974129  55.9497389
  46.5554162 112.9024867  50.6781473  46.4199836 113.7476403  51.1066321
  47.0963974 113.1044145  49.9147407  43.0421501  98.9816447  67.3395828
  42.6488447  98.4282645  68.0143473  43.8587642  99.2927025  67.7302346
  40.0083559 110.4200305  51.2509398  40.5208080 111.2143555  51.4014963
  40.6606272 109.7226595  51.1843000  41.8178444 113.5366061  53.3332151
  41.9945072 114.4584026  53.1453135  42.6135277 113.2224480  53.7626531
  41.1030800 105.5830693  63.2094315  40.9884315 104.6815950  63.5101414
  40.2475318 105.8294390  62.8579131  48.1822638 113.5248433  64.8081815
  47.7386492 112.7384812  64.4902720  48.8439852 113.7127584  64.1425706
  42.9409759 115.0544235  59.3342494  43.4917184 114.9261298  58.5619488
  42.1021235 115.3539124  58.9837387  50.2803876 113.8051233  62.8363217
  50.2622351 114.6260114  62.3443486  51.2023796 113.6805309  63.0613358
  46.7376930 111.3195363  63.6786725  47.2705267 110.5583651  63.4486033
  46.2091011 111.0269015  64.4210879  49.9046625  96.4255429  59.2080367
  49.5610895  97.3157071  59.1319477  50.2725588  96.2357086  58.3449952
  37.9732476 108.7488959  52.0268969  38.8107698 109.1585968  51.8102677
  38.1510744 107.8088401  51.9969163  49.8696908 106.4164040  47.7152802
  49.3543531 107.1868645  47.9541189  49.5974216 105.7429176  48.3385863
  47.4544019 101.2613741  52.7738040  46.5985615 100.8720591  52.5943679
  47.8670971 101.3405702  51.9137826  45.2286052  98.8798814  56.1795782
  46.0939048  98.6841622  55.8201671  45.2963560  98.6509165  57.1065138
  54.8431182 109.1696395  49.6505975  54.0660625 108.8307554  49.2061137
  55.5222663 109.1749018  48.9760940  49.6583211 104.2891132  49.5412583
  49.3533347 104.6037281  50.3922726  50.6113653 104.3672552  49.5839916
  48.1029643 110.4481355  51.1905537  47.5751005 109.7134115  50.8778774
  47.6017146 111.2256032  50.9445505  53.0822489 108.6430376  56.3072583
  52.4246163 109.3329637  56.3952712  53.8862888 109.0326808  56.6506570
  42.8348371 101.1101022  53.5512148  43.4092123 100.8876203  52.8185341
  43.4219353 101.1789716  54.3040750  51.8927948 106.9974749  54.3576525
  52.4059830 107.6304740  54.8598235  52.5429172 106.3975944  53.9919885
  43.1617958 103.1405483  47.5708034  42.3255270 103.4780169  47.8917308
  43.0222727 103.0054462  46.6335171  45.1371038  97.9842271  52.2787218
  44.4835451  97.6691288  51.6543833  45.0951512  97.3618011  53.0047041
  46.2482243 108.2661566  44.1940510  45.3409305 108.0350819  44.3931659
  46.7453275 107.4699185  44.3814492  49.1550322 116.9759073  47.1137196
  48.4812021 117.2790770  47.7222154  49.5416144 117.7788153  46.7642653
  48.3708779 104.4724204  56.6034866  47.4531340 104.6939151  56.4456554
  48.7868922 104.5470515  55.7446573  49.1543826 105.8715620  51.7337546
  49.9015645 106.3837017  51.4244668  49.4235416 105.5499672  52.5941939
  47.4270477 108.3674160  48.7164500  46.5181696 108.0833193  48.8136970
  47.4565560 108.7873239  47.8567807  52.6589744 111.9780750  52.4855668
  52.2052071 111.1371660  52.5420858  52.0283711 112.6142148  52.8230448
  51.6022664 102.9072736  53.7156335  50.8645420 102.3950122  54.0466578
  51.8549437 102.4673118  52.9039612  51.1022683 113.8157247  53.4205486
  51.3945658 114.3762304  52.7017851  51.6121304 114.1085808  54.1758645
  37.9958647 106.0879675  52.6979702  37.7983047 105.4949035  51.9730769
  37.4405311 105.7831885  53.4155641  45.9755371 105.9802781  54.8174295
  46.0303980 105.0276617  54.7416772  45.1646573 106.1362220  55.3015594
  47.1246564 109.9082904  46.0552579  46.6865994 109.1918763  45.5958216
  47.8657005 110.1359019  45.4937670  43.9147731 104.5979841  52.5764674
  43.1015596 104.8974011  52.9829866  44.4106725 104.2035530  53.2939157
  46.0656308 114.5937598  54.5098939  46.0232487 114.8198444  53.5807471
  46.9819007 114.3600972  54.6584740  55.2419679 108.1840101  52.1128897
  55.1037578 108.3741697  51.1850086  54.8855898 108.9459484  52.5696948
  43.4061805 102.1698196  58.1925909  44.0461185 102.0286955  57.4948873
  42.5739336 101.8832710  57.8164511  55.2689059 110.2516628  57.1240169
  55.7025565 110.1591917  57.9723223  55.9820639 110.2274129  56.4860185
  44.1822109 111.4700627  54.3060902  44.9762708 110.9750947  54.1043477
  43.4713802 110.9418490  53.9428607  49.0016954 113.8518722  58.6573269
  49.0553976 114.4209659  59.4250985  48.1331735 114.0220607  58.2927306
  40.4904873 105.6143709  50.3820654  39.5602461 105.5528164  50.5990617
  40.5862345 105.0919661  49.5857296  40.4090422 102.1398521  52.9698896
  40.6697239 103.0543855  52.8608057  41.2307594 101.6722964  53.1195509
  41.8815347 103.5536279  60.1397721  42.5538401 103.3453641  59.4910369
  41.0545134 103.3558365  59.7002953  56.1304608 110.2940329  59.6573054
  56.3240498 111.1986139  59.9032329  56.0305227 109.8347748  60.4911639
  51.1919717 110.4447072  65.2313935  51.0405223 110.2157623  64.3144018
  51.1824397 111.4017673  65.2445280  47.9605053 108.0178984  60.2160201
  48.8897113 108.1690144  60.0429168  47.5396083 108.1063005  59.3608848
  46.7593385 112.0429649  57.9858739  46.6204471 111.6748433  58.8584677
  45.9707981 112.5577288  57.8142697  47.3541537 117.1438745  49.3284275
  47.5293293 116.6726788  50.1429898  46.6674325 117.7704511  49.5565536
  48.3098600 111.4211251  55.3747577  47.9748433 111.3812021  56.2705226
  47.8102546 110.7555967  54.9017987  42.2842844 106.8278881  60.9000158
  42.1462642 106.0959120  61.5011697  43.1947768 106.7387782  60.6184345
  51.2457792 108.7667286  45.6484636  50.6286963 108.0414114  45.5517689
  50.7774280 109.5276646  45.3051710  44.9125145 106.5398841  60.3883837
  45.6224764 105.8992033  60.3470456  44.8694453 106.7911736  61.3110018
  52.9011924 113.4766194  63.3090417  52.8424470 112.7925414  62.6421000
  53.3031442 114.2185184  62.8571043  43.6254079 103.5264059  62.2079477
  43.0891436 103.0754797  62.8601073  43.0370787 103.6609968  61.4649941
  41.9202622 120.2928108  56.1024135  42.1599221 120.9246632  56.7803154
  41.0771819 119.9416148  56.3889495  43.0356338 102.9852710  44.7705941
  42.1585804 102.8641511  44.4068187  43.5114091 102.1938788  44.5184829
  52.9029331 111.4405778  61.5404396  52.0156110 111.1031700  61.6630795
  53.4727882 110.7088809  61.7773162  34.5558478 107.7729870  54.8647448
  35.2429518 107.4591600  54.2768463  34.4006607 108.6771234  54.5914699
  39.3593200 102.6620066  59.2932471  39.2751389 102.0545736  58.5582881
  38.5375907 103.1529085  59.2941968  46.4330484 116.1007230  58.5065639
  46.3600656 116.9062202  59.0184944  45.9907877 116.2999196  57.6813661
  46.2220264 115.3379000  52.0168461  45.4387786 115.8800681  52.1106686
  46.9213009 115.8552980  52.4162702  49.5316914 101.1473630  54.6602666
  50.0285614 100.3943592  54.3403737  48.7603896 101.1837947  54.0945876
  57.3846671 106.8513995  56.3020958  57.3736548 107.7338711  55.9314891
  56.5164051 106.4985546  56.1075495  48.8929168 115.9994064  60.6623798
  49.6057140 116.6341529  60.5899700  48.4019197 116.0957930  59.8463800
  50.6146695 109.9045317  52.2341090  49.6802974 110.0246780  52.0645794
  50.7923363 109.0017784  51.9701100  46.1151883 103.2891013  54.3874351
  45.7449670 102.7362053  55.0755257  46.6110975 102.6849146  53.8349351
  54.0019246 105.7462636  52.7691124  54.4679698 106.5790628  52.6951427
  54.4526747 105.2807618  53.4736382  43.9441081 113.7488508  61.4829369
  44.6450541 114.3824991  61.6358763  43.4736196 114.0903239  60.7225008
  52.0695477 112.0906458  49.7677276  52.3455321 111.9763052  50.6771150
  51.1999976 111.6923943  49.7289449  48.7049541 116.3392809  53.4110090
  48.8871936 115.5214464  53.8737842  49.5282527 116.5560501  52.9734980
  49.0391707 115.2660994  50.6725138  49.5679473 114.7553448  50.0595300
  49.3019926 114.9503524  51.5370671  39.5408799 113.2824863  58.4160472
  40.1262236 112.5368551  58.5488376  39.3433638 113.5928820  59.2997136
  42.3947455 116.3176110  53.4322914  41.7257830 116.8022238  52.9486954
  42.2560324 116.5645331  54.3466293  34.1326454 105.8530463  57.1364915
  34.1710554 105.3194054  57.9302033  33.6266747 105.3265669  56.5175892
  46.5352723 118.3519854  60.0305572  47.0871031 118.5151475  60.7954658
  46.8758917 118.9424292  59.3585597  41.5117216 100.6995004  60.6327457
  41.5758543 101.5609835  60.2204855  41.4484337 100.0869005  59.8999816
  40.9869489 102.7718136  64.2800491  41.6141528 102.3895214  64.8938016
  40.1297408 102.5532338  64.6456184  51.3863598 113.1781111  65.8854227
  51.9303502 113.7911070  65.3909182  50.8050442 113.7360690  66.4021240
  37.7635032 104.5794565  50.2118846  38.0588473 103.6705244  50.1585900
  36.8623068 104.5582305  49.8899849  49.6721111 116.3001829  57.0169255
  49.5472250 115.4991569  56.5080200  50.3300202 116.7948023  56.5283225
  41.2929279 102.6550562  56.1946395  40.5715865 103.2686530  56.0553868
  42.0822535 103.1908327  56.1163041  51.7356019 114.1010850  58.6448805
  50.7886354 113.9816201  58.5727131  52.0838792 113.2133348  58.7275066
  44.0955592  99.9904988  62.4687047  44.6189994 100.2367285  63.2313356
  43.8767926 100.8225023  62.0490184  39.4922873 102.2608663  50.3358171
  39.1635580 101.3806042  50.1533277  39.8462244 102.2056332  51.2234561
  48.7402452 113.8963566  54.8453157  48.5927415 112.9680273  55.0260727
  49.5655946 113.9183656  54.3610232  42.6064697 102.5481633  50.7033649
  42.9460769 103.0767554  49.9812257  43.0536817 102.8862039  51.4792216
  52.3436574 114.7192124  55.9318030  53.2683122 114.5134986  55.7942481
  52.1751877 114.4708526  56.8407371  45.9524609  98.0167996  58.6064040
  46.7750678  97.5428474  58.4842930  46.1962673  98.7958480  59.1062726
  44.5932844 101.0456254  48.9026942  45.3141206 101.4237507  48.3990659
  43.9698148 101.7645131  49.0061920  48.7363967 101.7501403  49.8385274
  48.9527581 102.6326041  49.5374102  48.2558034 101.3587617  49.1090916
  43.4763188 104.7087117  56.4156019  43.3307769 105.0227420  57.3080300
  42.9988392 105.3272017  55.8626917  45.3359571 101.6989665  56.4636908
  45.3221140 100.8030758  56.1269206  46.0531999 101.7060328  57.0975194
  52.1331890 115.2377792  51.2880121  52.3068768 114.6724214  50.5353974
  52.6260782 116.0378687  51.1059611  37.9508850 107.2492461  59.3543680
  37.4062318 108.0252269  59.4863954  38.8288200 107.5963265  59.1962801
  44.7396467 100.5804045  51.7324478  44.8612378  99.6520691  51.9315366
  44.4498509 100.5942731  50.8202794  47.6087657  98.2658955  54.8691198
  47.6309354  98.3298288  53.9143178  48.0255716  97.4263464  55.0631704
  57.9871281 108.0014215  52.9070421  58.4302427 107.2521540  52.5089544
  57.1097792 107.9924351  52.5244153  53.1207063 114.5544556  48.3877019
  53.8157967 115.1751249  48.6064334  53.4630213 113.7039908  48.6629397
  38.7374872 106.3762357  62.2473837  37.9956608 106.5244993  62.8338467
  38.4167616 106.6370623  61.3840586  55.0198486 112.0044262  49.9164350
  55.5449810 112.3431535  49.1913670  54.9320838 111.0691277  49.7327485
  46.6818535 115.9178335  62.0454227  46.9905661 115.6727482  62.9176926
  47.4794017 116.1224974  61.5573097  46.7039147 118.0716245  54.2759603
  46.2644137 117.5792624  54.9692460  47.4547264 117.5289213  54.0351679
  39.1831486 114.2627786  54.2784231  40.0089506 113.9631558  53.8982875
  38.8325538 113.4935408  54.7274020  44.1513019 113.6154254  56.3481905
  43.5293028 112.9524959  56.0484133  44.8217886 113.6415386  55.6655553
  37.3840091 112.1814112  55.2373165  36.5471999 111.7536287  55.0557166
  37.3563736 112.3746556  56.1743956  44.2237546 102.0936042  65.9414411
  44.2725702 102.9698165  65.5592181  44.7660060 101.5513435  65.3686054
  54.7092392 112.6377165  65.2215548  53.9187936 112.6201304  64.6820047
  54.4725747 113.1765459  65.9764585  54.8290267 109.4869632  62.5348277
  54.8788272 109.3219639  63.4763799  54.7204190 108.6196891  62.1446157
  43.7126526 112.1658178  49.8240366  43.8614646 112.8493642  49.1707038
  44.5192969 112.1463268  50.3389821  56.3308464 111.9066573  62.7790298
  56.0393272 112.2696554  63.6153759  55.7180595 111.1933582  62.6003630
  57.5304146 109.4719453  55.2992868  58.3651038 109.9109257  55.4630429
  57.6663275 108.9958106  54.4801114  41.4679159 108.1923355  50.8301434
  41.2225201 107.2885685  51.0281645  41.6375073 108.1940506  49.8880912
  40.7374806 103.9251713  48.3287596  40.0444051 103.9996068  47.6727632
  40.4926558 103.1612056  48.8509113  47.2121931 114.6606308  47.2952113
  46.6395898 115.2796495  46.8422585  47.7854725 115.2105670  47.8292035
  50.4319191 114.9443458  48.4260695  51.3649864 114.8789020  48.6293571
  50.3442404 115.7799725  47.9675228  53.0607208 114.2609328  45.3864643
  52.9820839 113.9269192  46.2800401  53.8816874 114.7531096  45.3856115
  47.5968730 105.9967121  44.6368165  48.5427834 105.8673329  44.7056583
  47.2182975 105.2581783  45.1137594  53.5690614  97.6623127  54.5995057
  53.3715435  97.3538215  55.4838389  54.1790320  98.3884766  54.7292987
  61.5761949 108.1887075  57.7346998  62.3065337 107.9272363  58.2954702
  60.9668894 107.4515797  57.7749066  47.4807422 110.0484867  66.0968822
  48.4010432 110.2263466  66.2908869  47.4457005 109.1040912  65.9448522
  45.7811647 103.9217097  44.5723051  44.8743102 103.6250210  44.6485764
  46.0587628 103.6246915  43.7057337  36.6989587 105.2423461  55.0222097
  36.3792372 104.3888769  54.7296471  36.1523015 105.4572039  55.7780064
  40.4769495 107.9585902  58.7391604  40.6955505 108.8903009  58.7579637
  40.8895269 107.5993876  59.5246407  47.3973713  98.4653987  50.7267292
  46.5874441  98.1201072  51.1022538  48.0858130  98.1561531  51.3154904
  49.3264261  97.5432034  52.3491589  49.8795299  97.9627487  53.0081612
  49.5634347  96.6167782  52.3914545  45.3497360 103.5319107  68.1294353
  45.2494087 104.4813464  68.0606444  45.1318902 103.2037346  67.2570423
  44.5510432 100.7804032  44.7135030  45.4129595 101.1058931  44.9730847
  44.7360776  99.9935528  44.2008096  36.5677847 108.8626372  56.9915219
  35.8741319 108.4480325  56.4785173  37.3150838 108.9046909  56.3948638
  52.7043068  99.6532559  51.8570253  52.1241737 100.3117363  51.4748305
  52.4379001  98.8309903  51.4457670  51.1546634  99.0537617  54.0591573
  51.6546413  99.1654151  53.2505892  51.7982242  98.7498669  54.6992382
  45.2128630 106.9616246  66.9459414  44.7295712 107.7616606  67.1523303
  45.2989569 106.9724191  65.9926858  38.4814590 108.7944626  54.8681234
  38.4585278 108.8932313  53.9163117  38.7915226 109.6409777  55.1898400
  41.1401968 110.8520781  58.9827848  42.0945221 110.8204723  58.9157780
  40.9414491 110.3911405  59.7978074  41.7301350 109.4221897  61.5498646
  42.5494239 109.9165976  61.5733483  42.0038158 108.5053865  61.5216213
  51.4867946 101.8132649  50.9126601  50.5993801 102.0982300  50.6946796
  51.9021935 101.6526413  50.0653878  54.8382482 101.8379170  54.6280940
  55.6142872 102.3275623  54.9005557  54.1130616 102.2637224  55.0852810
  57.2755041 102.5506789  55.6854881  57.8699532 102.3102525  54.9748189
  57.3481624 101.8313920  56.3128417  39.4952196 116.3940400  55.9998046
  39.3606664 115.6340801  55.4336044  39.0784259 117.1181300  55.5326835
  50.6311159 111.5777324  45.0074621  51.3347010 111.7827326  45.6232277
  49.9073808 112.1454086  45.2723705  51.4608970 107.3287185  51.1276891
  51.4044171 107.7855737  50.2884524  52.0137312 106.5677870  50.9499734
  55.2713776 103.1176917  51.9527011  55.0150710 102.7173553  52.7835218
  54.6466644 103.8320711  51.8277150  59.5826114 105.8572990  54.4598302
  59.0225671 105.9266180  55.2329864  58.9769617 105.6813975  53.7397798
  42.6521322 117.2909717  56.2116488  42.5353706 118.2355150  56.1095179
  41.8313769 116.9883279  56.6002288  52.5397857 112.0159853  47.0573081
  53.3743461 111.5841052  46.8750556  52.3782200 111.8441867  47.9849976
  52.1943749 108.5191966  48.4229420  52.1392553 108.3536238  47.4817865
  51.5689804 109.2267999  48.5791610  36.9836264 103.7560031  62.2490843
  37.6295128 103.2458985  62.7378068  36.7753415 104.4928712  62.8234268
  49.5089656 110.8240878  67.7482983  50.3780816 110.9981531  67.3869618
  49.0296408 111.6435295  67.6258713  45.5039875  98.0200075  48.0014739
  45.4918544  98.9641915  48.1583010  46.3963296  97.8370221  47.7074200
  43.6775836 117.9437979  59.4272417  44.5803083 117.9761590  59.7438912
  43.4513207 117.0138430  59.4418753  45.4329438 116.6968966  56.0882496
  44.4825069 116.6970827  55.9746868  45.7361925 115.9501700  55.5718530
  49.3191994  94.6142852  52.2560676  48.5524390  94.0601339  52.4017358
  49.7302699  94.6864721  53.1174827  41.3233755 100.9027648  66.3465857
  42.1865217 100.5464453  66.5569181  40.7499166 100.5641543  67.0341261
  61.1682132 122.5329504  57.1528258  61.8060542 122.4136252  56.4491598
  61.0502975 123.4810348  57.2116210  57.9771838 122.4856932  57.0889783
  57.6390350 122.3697997  56.2010317  58.8461606 122.0848097  57.0690789
  53.8358654 124.3392409  53.0786674  53.2723519 124.2482346  52.3102961
  53.7211049 123.5192313  53.5589166  58.4591621 123.6391784  63.0475988
  58.4480262 123.2444582  62.1756492  58.6212261 122.9057857  63.6409760
  51.3823086 125.8343600  55.9170894  52.1744378 125.4934425  55.5017193
  51.6219736 125.9438575  56.8373047  59.4158213 128.0063376  48.3901138
  58.7646192 128.5917457  48.0035152  60.2102575 128.5369571  48.4496176
  53.3413840 125.0952514  48.7888273  54.1144716 124.5481501  48.6501149
  53.6939239 125.9596763  49.0002734  55.1798882 126.4228896  61.9955172
  54.8888748 127.3274527  61.8801838  55.8155867 126.4645423  62.7099242
  56.1055089 123.8005744  58.5856532  56.7018661 123.5761767  57.8713495
  56.1630061 123.0590490  59.1881980  55.6780118 121.2545180  46.4206723
  55.9305638 120.7326701  45.6590186  54.7404677 121.0911325  46.5233406
  60.7223400 120.2580958  54.2281466  61.5086490 119.8400381  53.8771883
  60.9862105 121.1627050  54.3963114  60.8933478 125.6953808  48.9270123
  60.2579311 125.7688435  49.6391027  60.5630884 126.2847407  48.2489202
  66.1231828 120.1956191  55.1314444  66.8557000 119.6255408  55.3652274
  65.3671183 119.8077792  55.5720950  55.3976406 123.1573286  48.6231098
  55.2812664 122.4818189  49.2912182  55.5078666 122.6705660  47.8063251
  57.7407947 122.6183433  52.3277787  57.3766155 122.0914054  53.0390708
  58.5975063 122.2281902  52.1544272  63.6457248 113.9077765  59.5909053
  63.3140573 114.7773176  59.3670268  63.0502861 113.5914049  60.2703083
  57.3813434 117.6473332  47.3239135  57.5487837 118.5153569  47.6909606
  57.1910603 117.8100614  46.4000425  60.1388767 126.1090311  58.9904966
  59.8389491 127.0115350  58.8820773  59.7939827 125.8422495  59.8426119
  53.5901249 122.5604108  55.0241670  52.6651745 122.4280322  55.2319362
  53.8385662 123.3398327  55.5211613  63.5385911 118.6272852  56.6702403
  62.6302789 118.5588260  56.3761164  63.4873507 119.1044796  57.4984229
  57.3602655 120.1030990  48.3085802  57.2402280 120.5488041  49.1471283
  56.6655244 120.4516308  47.7499340  50.9510060 122.2037382  55.8585459
  51.0802441 122.4571861  56.7724871  50.2707511 122.7965090  55.5390114
  55.1209547 132.8734632  51.9575933  55.0433577 133.8242457  52.0364414
  54.5171191 132.5280504  52.6150860  57.6126777 120.0462497  64.6137300
  56.8360111 120.6056417  64.6040165  58.2517340 120.5319280  65.1352170
  65.4047558 116.8289290  58.4480277  64.7621938 117.1221823  57.8020072
  64.9002486 116.7142210  59.2533474  63.0587721 120.5752463  49.1366136
  63.9705577 120.8079850  48.9613834  62.5497368 121.1589507  48.5741215
  55.8673149 122.8547950  64.1755267  56.6087834 123.3932994  63.8990091
  55.1610135 123.4814239  64.3326819  61.3428489 124.9977091  62.7727429
  61.7511845 124.5559501  62.0282061  60.6205750 124.4229718  63.0261622
  57.6959559 119.9349698  60.1460986  58.5420754 120.3589111  60.2895635
  57.6358197 119.2783322  60.8399549  61.6657304 125.5578282  56.5279718
  61.0366166 125.7223996  55.8255786  61.2782966 125.9719891  57.2990682
  65.5446536 126.4932719  53.8824082  64.8597574 126.8731621  53.3321115
  65.6290385 127.1028046  54.6156029  60.8459004 117.5954066  61.8042159
  60.6019936 118.3496127  61.2676435  61.1218935 117.9739414  62.6389407
  62.7997467 124.1392678  60.4819425  63.0114362 124.7824438  59.8053806
  62.7527215 123.3054995  60.0141355  60.4023696 116.7510499  57.3855997
  59.5408175 117.0491753  57.6772735  60.4286131 116.9680898  56.4537030
  57.2185265 125.2952690  53.7929803  57.6823611 125.5740393  53.0034425
  56.9542064 124.3936134  53.6102894  54.1109347 124.8424171  56.7309566
  54.6810704 125.2711440  56.0927051  54.7017458 124.5606756  57.4293752
  56.1554152 121.4175842  50.6019368  56.8578195 121.8696886  51.0693294
  55.8234780 120.7759661  51.2299261  54.6034513 120.0087599  64.9770577
  53.9733174 120.6903880  65.2105974  54.4970601 119.8970680  64.0323716
  49.8979486 119.6759395  55.9036502  49.1078539 119.9316923  55.4276612
  50.3890733 120.4907733  56.0088542  63.9143295 127.0164634  58.6541782
  64.7360739 126.6144821  58.3724464  63.9105698 126.9132868  59.6057898
  51.8494231 120.0403974  52.8619978  51.0525394 120.1522668  53.3803474
  51.6219823 120.3790626  51.9960869  57.6799899 126.5648677  60.8102493
  57.7444331 127.0269084  61.6460665  56.9710822 125.9346042  60.9384803
  48.1817188 119.9289885  58.3351492  48.4325227 120.8136895  58.6009068
  48.7176737 119.7494487  57.5626584  72.0049288 123.3603382  55.0026754
  71.2512997 122.7910780  54.8470758  72.1396829 123.3266047  55.9497389
  57.3947916 128.2316785  50.6781473  57.2593591 129.0768320  51.1066321
  57.9357729 128.4336062  49.9147407  53.8815256 114.3108364  67.3395828
  53.4882201 113.7574563  68.0143473  54.6981396 114.6218943  67.7302346
  50.8477314 125.7492223  51.2509398  51.3601834 126.5435473  51.4014963
  51.5000026 125.0518513  51.1843000  52.6572198 128.8657979  53.3332151
  52.8338827 129.7875944  53.1453135  53.4529032 128.5516398  53.7626531
  56.7983217 115.7266244  64.9316085  57.5392930 116.3273397  64.8520547
  57.0301140 114.9843881  64.3734128  51.9424555 120.9122611  63.2094315
  51.8278070 120.0107868  63.5101414  51.0869073 121.1586308  62.8579131
  59.0216393 128.8540351  64.8081815  58.5780247 128.0676730  64.4902720
  59.6833606 129.0419502  64.1425706  53.7803514 130.3836153  59.3342494
  54.3310939 130.2553216  58.5619488  52.9414990 130.6831042  58.9837387
  61.1197631 129.1343151  62.8363217  61.1016106 129.9552032  62.3443486
  62.0417551 129.0097226  63.0613358  57.5770685 126.6487281  63.6786725
  58.1099022 125.8875569  63.4486033  57.0484766 126.3560932  64.4210879
  60.7440380 111.7547347  59.2080367  60.4004649 112.6448988  59.1319477
  61.1119342 111.5649004  58.3449952  48.8126230 124.0780877  52.0268969
  49.6501452 124.4877885  51.8102677  48.9904498 123.1380319  51.9969163
  60.7090662 121.7455958  47.7152802  60.1937286 122.5160562  47.9541189
  60.4367971 121.0721094  48.3385863  58.2937773 116.5905658  52.7738040
  57.4379370 116.2012509  52.5943679  58.7064725 116.6697619  51.9137826
  59.8236920 114.1252002  57.1729600  59.3201716 114.0882137  56.3597405
  60.1167527 115.0344744  57.2326257  56.0679806 114.2090731  56.1795782
  56.9332803 114.0133540  55.8201671  56.1357315 113.9801083  57.1065138
  65.6824937 124.4988312  49.6505975  64.9054379 124.1599472  49.2061137
  66.3616418 124.5040935  48.9760940  60.4976966 119.6183050  49.5412583
  60.1927101 119.9329199  50.3922726  61.4507408 119.6964470  49.5839916
  58.9423397 125.7773273  51.1905537  58.4144759 125.0426033  50.8778774
  58.4410900 126.5547949  50.9445505  63.9216243 123.9722294  56.3072583
  63.2639918 124.6621555  56.3952712  64.7256643 124.3618725  56.6506570
  53.6742125 116.4392939  53.5512148  54.2485877 116.2168121  52.8185341
  54.2613108 116.5081634  54.3040750  62.7321702 122.3266666  54.3576525
  63.2453584 122.9596658  54.8598235  63.3822926 121.7267862  53.9919885
  54.0011712 118.4697400  47.5708034  53.1649024 118.8072087  47.8917308
  53.8616482 118.3346380  46.6335171  55.9764793 113.3134188  52.2787218
  55.3229205 112.9983205  51.6543833  55.9345267 112.6909929  53.0047041
  57.0875998 123.5953483  44.1940510  56.1803059 123.3642737  44.3931659
  57.5847030 122.7991103  44.3814492  59.9944077 132.3050990  47.1137196
  59.3205775 132.6082687  47.7222154  60.3809899 133.1080071  46.7642653
  59.2102533 119.8016122  56.6034866  58.2925095 120.0231069  56.4456554
  59.6262677 119.8762432  55.7446573  59.9937581 121.2007537  51.7337546
  60.7409400 121.7128935  51.4244668  60.2629170 120.8791590  52.5941939
  58.2664231 123.6966078  48.7164500  57.3575450 123.4125111  48.8136970
  58.2959315 124.1165157  47.8567807  63.4983499 127.3072668  52.4855668
  63.0445826 126.4663578  52.5420858  62.8677465 127.9434066  52.8230448
  62.4416418 118.2364654  53.7156335  61.7039175 117.7242040  54.0466578
  62.6943192 117.7965035  52.9039612  61.9416438 129.1449164  53.4205486
  62.2339412 129.7054221  52.7017851  62.4515058 129.4377725  54.1758645
  62.5428045 111.0140906  54.3098104  62.8486922 110.1538269  54.0224019
  63.2680650 111.6058526  54.1097098  48.8352401 121.4171592  52.6979702
  48.6376801 120.8240953  51.9730769  48.2799065 121.1123802  53.4155641
  56.8149125 121.3094699  54.8174295  56.8697735 120.3568535  54.7416772
  56.0040327 121.4654138  55.3015594  57.9640319 125.2374822  46.0552579
  57.5259749 124.5210681  45.5958216  58.7050760 125.4650937  45.4937670
  54.7541485 119.9271759  52.5764674  53.9409351 120.2265929  52.9829866
  55.2500479 119.5327447  53.2939157  56.9050063 129.9229515  54.5098939
  56.8626242 130.1490362  53.5807471  57.8212762 129.6892890  54.6584740
  60.3515697 120.3913583  61.4079568  60.7065084 120.6185056  62.2674034
  60.9987828 120.7231960  60.7856823  66.0813434 123.5132019  52.1128897
  65.9431332 123.7033615  51.1850086  65.7249652 124.2751402  52.5696948
  54.2455560 117.4990114  58.1925909  54.8854939 117.3578873  57.4948873
  53.4133090 117.2124627  57.8164511  66.1082813 125.5808546  57.1240169
  66.5419320 125.4883835  57.9723223  66.8214394 125.5566046  56.4860185
  55.0215864 126.7992544  54.3060902  55.8156462 126.3042865  54.1043477
  54.3107556 126.2710408  53.9428607  59.8410708 129.1810640  58.6573269
  59.8947730 129.7501576  59.4250985  58.9725490 129.3512525  58.2927306
  51.3298627 120.9435626  50.3820654  50.3996215 120.8820082  50.5990617
  51.4256099 120.4211579  49.5857296  51.2484176 117.4690439  52.9698896
  51.5090994 118.3835772  52.8608057  52.0701349 117.0014882  53.1195509
  52.7209102 118.8828196  60.1397721  53.3932155 118.6745558  59.4910369
  51.8938888 118.6850282  59.7002953  66.9698363 125.6232247  59.6573054
  67.1634253 126.5278057  59.9032329  66.8698981 125.1639666  60.4911639
  58.6234674 115.5090137  62.1563381  57.9762589 116.2080087  62.0627858
  59.3935689 115.9426281  62.5239630  62.0313472 125.7738989  65.2313935
  61.8798978 125.5449541  64.3144018  62.0218151 126.7309591  65.2445280
  58.7998808 123.3470902  60.2160201  59.7290868 123.4982062  60.0429168
  58.3789838 123.4354923  59.3608848  57.5987140 127.3721566  57.9858739
  57.4598225 127.0040351  58.8584677  56.8101736 127.8869206  57.8142697
  58.1935292 132.4730663  49.3284275  58.3687047 132.0018706  50.1429898
  57.5068080 133.0996429  49.5565536  59.1492355 126.7503169  55.3747577
  58.8142187 126.7103939  56.2705226  58.6496301 126.0847885  54.9017987
  53.1236599 122.1570799  60.9000158  52.9856397 121.4251038  61.5011697
  54.0341522 122.0679699  60.6184345  62.0851547 124.0959203  45.6484636
  61.4680717 123.3706032  45.5517689  61.6168035 124.8568564  45.3051710
  55.7518899 121.8690759  60.3883837  56.4618518 121.2283951  60.3470456
  55.7088208 122.1203653  61.3110018  63.7405678 128.8058112  63.3090417
  63.6818224 128.1217332  62.6421000  64.1425197 129.5477102  62.8571043
  54.4647833 118.8555976  62.2079477  53.9285190 118.4046715  62.8601073
  53.8764542 118.9901885  61.4649941  53.8750092 118.3144628  44.7705941
  52.9979559 118.1933429  44.4068187  54.3507845 117.5230706  44.5184829
  63.7423085 126.7697696  61.5404396  62.8549864 126.4323618  61.6630795
  64.3121637 126.0380727  61.7773162  45.3952233 123.1021788  54.8647448
  46.0823272 122.7883518  54.2768463  45.2400361 124.0063152  54.5914699
  50.1986955 117.9911984  59.2932471  50.1145143 117.3837654  58.5582881
  49.3769661 118.4821002  59.2941968  57.2724239 131.4299148  58.5065639
  57.1994410 132.2354120  59.0184944  56.8301632 131.6291114  57.6813661
  57.0614018 130.6670918  52.0168461  56.2781540 131.2092598  52.1106686
  57.7606764 131.1844898  52.4162702  60.3710669 116.4765548  54.6602666
  60.8679368 115.7235510  54.3403737  59.5997650 116.5129864  54.0945876
  68.2240426 122.1805913  56.3020958  68.2130302 123.0630629  55.9314891
  67.3557805 121.8277464  56.1075495  59.7322922 131.3285982  60.6623798
  60.4450895 131.9633447  60.5899700  59.2412951 131.4249848  59.8463800
  61.4540449 125.2337235  52.2341090  60.5196728 125.3538697  52.0645794
  61.6317118 124.3309702  51.9701100  56.9545637 118.6182931  54.3874351
  56.5843425 118.0653971  55.0755257  57.4504730 118.0141064  53.8349351
  64.8413001 121.0754554  52.7691124  65.3073453 121.9082546  52.6951427
  65.2920501 120.6099536  53.4736382  54.7834836 129.0780426  61.4829369
  55.4844295 129.7116909  61.6358763  54.3129951 129.4195157  60.7225008
  62.9089232 127.4198375  49.7677276  63.1849076 127.3054970  50.6771150
  62.0393730 127.0215860  49.7289449  62.8129663 113.4435141  56.8082025
  61.8992743 113.6739368  56.9764232  63.2422765 113.5273585  57.6596058
  62.5836122 121.6325033  59.3081919  61.9307572 121.8800941  58.6534372
  62.9616502 120.8189171  58.9744397  59.5443296 131.6684726  53.4110090
  59.7265690 130.8506382  53.8737842  60.3676282 131.8852418  52.9734980
  59.8785461 130.5952911  50.6725138  60.4073228 130.0845366  50.0595300
  60.1413681 130.2795442  51.5370671  58.6323695 122.3744844  65.7947956
  57.9564332 122.2738973  66.4650332  59.4551329 122.2184058  66.2583954
  50.3802554 128.6116781  58.4160472  50.9655991 127.8660469  58.5488376
  50.1827392 128.9220737  59.2997136  53.2341209 131.6468028  53.4322914
  52.5651584 132.1314156  52.9486954  53.0954079 131.8937249  54.3466293
  44.9720209 121.1822381  57.1364915  45.0104308 120.6485972  57.9302033
  44.4660502 120.6557586  56.5175892  57.3746478 133.6811772  60.0305572
  57.9264786 133.8443393  60.7954658  57.7152671 134.2716209  59.3585597
  52.3510971 116.0286921  60.6327457  52.4152297 116.8901752  60.2204855
  52.2878091 115.4160923  59.8999816  51.8263244 118.1010054  64.2800491
  52.4535282 117.7187131  64.8938016  50.9691162 117.8824256  64.6456184
  62.2257352 128.5073029  65.8854227  62.7697256 129.1202987  65.3909182
  61.6444197 129.0652607  66.4021240  48.6028786 119.9086483  50.2118846
  48.8982227 118.9997161  50.1585900  47.7016822 119.8874222  49.8899849
  60.5114865 131.6293747  57.0169255  60.3866004 130.8283487  56.5080200
  61.1693956 132.1239940  56.5283225  52.1323033 117.9842480  56.1946395
  51.4109619 118.5978447  56.0553868  52.9216289 118.5200244  56.1163041
  62.5749773 129.4302767  58.6448805  61.6280109 129.3108118  58.5727131
  62.9232547 128.5425265  58.7275066  54.9349347 115.3196906  62.4687047
  55.4583749 115.5659203  63.2313356  54.7161680 116.1516941  62.0490184
  50.3316628 117.5900581  50.3358171  50.0029334 116.7097960  50.1533277
  50.6855999 117.5348249  51.2234561  59.5796207 129.2255483  54.8453157
  59.4321169 128.2972191  55.0260727  60.4049700 129.2475574  54.3610232
  53.4458451 117.8773550  50.7033649  53.7854524 118.4059472  49.9812257
  53.8930571 118.2153957  51.4792216  63.1830329 130.0484042  55.9318030
  64.1076876 129.8426903  55.7942481  63.0145632 129.8000443  56.8407371
  56.1401892 116.2610601  60.1536717  55.7998712 115.4618414  60.5557397
  55.4340898 116.5612312  59.5813550  56.7918364 113.3459914  58.6064040
  57.6144433 112.8720392  58.4842930  57.0356427 114.1250397  59.1062726
  55.4326598 116.3748172  48.9026942  56.1534961 116.7529425  48.3990659
  54.8091902 117.0937049  49.0061920  59.5757721 117.0793321  49.8385274
  59.7921335 117.9617959  49.5374102  59.0951788 116.6879534  49.1090916
  54.3156942 120.0379034  56.4156019  54.1701523 120.3519337  57.3080300
  53.8382146 120.6563935  55.8626917  56.1753325 117.0281582  56.4636908
  56.1614894 116.1322676  56.1269206  56.8925753 117.0352246  57.0975194
  58.0279456 117.4618922  58.5090036  57.7697234 118.3835993  58.5074366
  57.4964496 117.0649357  59.1990500  62.9725645 130.5669710  51.2880121
  63.1462522 130.0016132  50.5353974  63.4654536 131.3670604  51.1059611
  48.7902605 122.5784379  59.3543680  48.2456073 123.3544187  59.4863954
  49.6681954 122.9255183  59.1962801  55.5790221 115.9095963  51.7324478
  55.7006132 114.9812609  51.9315366  55.2892264 115.9234649  50.8202794
  58.4481412 113.5950873  54.8691198  58.4703108 113.6590206  53.9143178
  58.8649471 112.7555382  55.0631704  68.8265036 123.3306133  52.9070421
  69.2696182 122.5813458  52.5089544  67.9491546 123.3216269  52.5244153
  63.9600817 129.8836474  48.3877019  64.6551722 130.5043167  48.6064334
  64.3023967 129.0331825  48.6629397  49.5768626 121.7054275  62.2473837
  48.8350362 121.8536910  62.8338467  49.2561371 121.9662541  61.3840586
  65.8592240 127.3336180  49.9164350  66.3843564 127.6723452  49.1913670
  65.7714593 126.3983195  49.7327485  57.5212289 131.2470253  62.0454227
  57.8299416 131.0019400  62.9176926  58.3187771 131.4516892  61.5573097
  57.5432901 133.4008163  54.2759603  57.1037891 132.9084541  54.9692460
  58.2941018 132.8581130  54.0351679  50.0225240 129.5919704  54.2784231
  50.8483260 129.2923476  53.8982875  49.6719292 128.8227326  54.7274020
  54.9906773 128.9446172  56.3481905  54.3686783 128.2816877  56.0484133
  55.6611640 128.9707304  55.6655553  48.2233845 127.5106030  55.2373165
  47.3865753 127.0828204  55.0557166  48.1957491 127.7038473  56.1743956
  55.0631301 117.4227960  65.9414411  55.1119456 118.2990083  65.5592181
  55.6053815 116.8805353  65.3686054  65.5486146 127.9669083  65.2215548
  64.7581690 127.9493222  64.6820047  65.3119501 128.5057377  65.9764585
  65.6684021 124.8161550  62.5348277  65.7182026 124.6511557  63.4763799
  65.5597945 123.9488809  62.1446157  54.5520280 127.4950095  49.8240366
  54.7008401 128.1785560  49.1707038  55.3586724 127.4755185  50.3389821
  62.9587784 120.7992478  63.8507583  63.8597647 120.6598942  63.5591581
  63.0335758 120.9646932  64.7905761  57.2930589 118.1759332  62.6960770
  56.4233899 118.4692898  62.4243358  57.5290070 118.7599777  63.4168033
  67.1702218 127.2358491  62.7790298  66.8787027 127.5988472  63.6153759
  66.5574350 126.5225499  62.6003630  68.3697901 124.8011371  55.2992868
  69.2044792 125.2401175  55.4630429  68.5057029 124.3250024  54.4801114
  65.4189407 122.3591106  61.2470356  65.8943528 122.5518752  60.4389208
  64.4954972 122.4150292  61.0013740  52.3072913 123.5215273  50.8301434
  52.0618955 122.6177603  51.0281645  52.4768828 123.5232423  49.8880912
  59.9969623 114.3938949  60.2126190  60.5151567 115.1299976  59.8872679
  59.6424756 114.7002943  61.0472949  51.5768561 119.2543630  48.3287596
  50.8837806 119.3287985  47.6727632  51.3320313 118.4903974  48.8509113
  60.2482217 110.8139232  55.7327087  60.5283971 110.1462421  56.3587513
  61.0332824 111.0068327  55.2201750  58.0515686 129.9898226  47.2952113
  57.4789653 130.6088413  46.8422585  58.6248479 130.5397587  47.8292035
  64.1191076 119.2356866  59.4798662  65.0708498 119.3354963  59.5010886
  63.9494526 118.4435134  59.9896746  62.1405455 116.3212449  59.6658063
  61.5455387 116.6017462  58.9704551  61.8555152 116.8106350  60.4374804
  61.2712945 130.2735376  48.4260695  62.2043619 130.2080937  48.6293571
  61.1836158 131.1091643  47.9675228  63.9000962 129.5901246  45.3864643
  63.8214594 129.2561110  46.2800401  64.7210629 130.0823014  45.3856115
  66.5979153 122.4562985  58.5940961  66.5655473 121.5178986  58.7800645
  67.2079777 122.5347022  57.8606786  58.4362484 121.3259038  44.6368165
  59.3821589 121.1965247  44.7056583  58.0576729 120.5873700  45.1137594
  66.7473642 119.2474029  58.6399245  66.2312690 118.4632486  58.4529173
  67.6313590 118.9192746  58.8045764  64.4084369 112.9915044  54.5995057
  64.2109190 112.6830133  55.4838389  65.0184074 113.7176683  54.7292987
  72.4155703 123.5178992  57.7346998  73.1459092 123.2564280  58.2954702
  71.8062649 122.7807714  57.7749066  70.4971000 121.6586855  58.3321449
  69.7704164 121.5242820  57.7237941  70.0818287 121.9663683  59.1378167
  58.3201177 125.3776785  66.0968822  59.2404186 125.5555384  66.2908869
  58.2850760 124.4332830  65.9448522  56.6205401 119.2509015  44.5723051
  55.7136857 118.9542128  44.6485764  56.8981382 118.9538833  43.7057337
  47.5383342 120.5715378  55.0222097  47.2186126 119.7180686  54.7296471
  46.9916770 120.7863956  55.7780064  51.3163249 123.2877819  58.7391604
  51.5349259 124.2194927  58.7579637  51.7289023 122.9285794  59.5246407
  58.2367467 113.7945905  50.7267292  57.4268195 113.4492990  51.1022538
  58.9251884 113.4853448  51.3154904  60.1658015 112.8723951  52.3491589
  60.7189054 113.2919405  53.0081612  60.4028102 111.9459699  52.3914545
  56.1891115 118.8611025  68.1294353  56.0887842 119.8105382  68.0606444
  55.9712657 118.5329264  67.2570423  55.3904186 116.1095950  44.7135030
  56.2523350 116.4350848  44.9730847  55.5754530 115.3227446  44.2008096
  47.4071602 124.1918290  56.9915219  46.7135073 123.7772243  56.4785173
  48.1544593 124.2338826  56.3948638  63.5436822 114.9824476  51.8570253
  62.9635492 115.6409281  51.4748305  63.2772755 114.1601821  51.4457670
  61.9940389 114.3829534  54.0591573  62.4940167 114.4946069  53.2505892
  62.6375997 114.0790587  54.6992382  56.0522385 122.2908164  66.9459414
  55.5689466 123.0908524  67.1523303  56.1383324 122.3016109  65.9926858
  49.3208344 124.1236543  54.8681234  49.2979032 124.2224231  53.9163117
  49.6308981 124.9701694  55.1898400  51.9795722 126.1812699  58.9827848
  52.9338976 126.1496641  58.9157780  51.7808246 125.7203322  59.7978074
  52.5695104 124.7513815  61.5498646  53.3887993 125.2457893  61.5733483
  52.8431912 123.8345783  61.5216213  62.3261700 117.1424567  50.9126601
  61.4387556 117.4274218  50.6946796  62.7415690 116.9818330  50.0653878
  65.6776237 117.1671088  54.6280940  66.4536627 117.6567540  54.9005557
  64.9524371 117.5929142  55.0852810  68.1148795 117.8798707  55.6854881
  68.7093286 117.6394443  54.9748189  68.1875379 117.1605838  56.3128417
  50.3345951 131.7232318  55.9998046  50.2000419 130.9632719  55.4336044
  49.9178013 132.4473218  55.5326835  61.4704914 126.9069242  45.0074621
  62.1740764 127.1119244  45.6232277  60.7467563 127.4746003  45.2723705
  62.3002724 122.6579103  51.1276891  62.2437926 123.1147654  50.2884524
  62.8531067 121.8969787  50.9499734  66.1107530 118.4468835  51.9527011
  65.8544464 118.0465470  52.7835218  65.4860398 119.1612629  51.8277150
  70.4219868 121.1864908  54.4598302  69.8619426 121.2558097  55.2329864
  69.8163371 121.0105893  53.7397798  53.4915077 132.6201635  56.2116488
  53.3747461 133.5647068  56.1095179  52.6707523 132.3175197  56.6002288
  63.3791611 127.3451771  47.0573081  64.2137215 126.9132969  46.8750556
  63.2175954 127.1733784  47.9849976  63.0337504 123.8483884  48.4229420
  62.9786307 123.6828155  47.4817865  62.4083559 124.5559917  48.5791610
  47.8230019 119.0851948  62.2490843  48.4688882 118.5750902  62.7378068
  47.6147170 119.8220630  62.8234268  60.3483411 126.1532796  67.7482983
  61.2174570 126.3273448  67.3869618  59.8690162 126.9727213  67.6258713
  56.3433629 113.3491993  48.0014739  56.3312299 114.2933833  48.1583010
  57.2357051 113.1662138  47.7074200  54.5169591 133.2729897  59.4272417
  55.4196838 133.3053507  59.7438912  54.2906961 132.3430348  59.4418753
  56.2723193 132.0260883  56.0882496  55.3218824 132.0262745  55.9746868
  56.5755679 131.2793618  55.5718530  60.1585748 109.9434770  52.2560676
  59.3918144 109.3893256  52.4017358  60.5696453 110.0156638  53.1174827
  52.1627510 116.2319566  66.3465857  53.0258971 115.8756370  66.5569181
  51.5892920 115.8933460  67.0341261  72.0075886 137.8621422  57.1528258
  72.6454296 137.7428169  56.4491598  71.8896729 138.8102266  57.2116210
  68.8165593 137.8148850  57.0889783  68.4784104 137.6989915  56.2010317
  69.6855361 137.4140015  57.0690789  64.6752408 139.6684326  53.0786674
  64.1117274 139.5774263  52.3102961  64.5604803 138.8484231  53.5589166
  69.2985376 138.9683702  63.0475988  69.2874016 138.5736500  62.1756492
  69.4606015 138.2349774  63.6409760  66.9448844 139.1297662  58.5856532
  67.5412416 138.9053684  57.8713495  67.0023815 138.3882407  59.1881980
  66.5173872 136.5837097  46.4206723  66.7699393 136.0618619  45.6590186
  65.5798431 136.4203243  46.5233406  71.5617155 135.5872876  54.2281466
  72.3480244 135.1692299  53.8771883  71.8255859 136.4918968  54.3963114
  71.7327232 141.0245726  48.9270123  71.0973065 141.0980353  49.6391027
  71.4024639 141.6139325  48.2489202  76.9625582 135.5248109  55.1314444
  77.6950754 134.9547326  55.3652274  76.2064938 135.1369709  55.5720950
  66.2370161 138.4865203  48.6231098  66.1206419 137.8110107  49.2912182
  66.3472421 137.9997577  47.8063251  68.5801702 137.9475350  52.3277787
  68.2159909 137.4205971  53.0390708  69.4368818 137.5573819  52.1544272
  74.4851002 129.2369683  59.5909053  74.1534327 130.1065094  59.3670268
  73.8896616 128.9205967  60.2703083  68.2207189 132.9765250  47.3239135
  68.3881591 133.8445487  47.6909606  68.0304358 133.1392532  46.4000425
  70.9782522 141.4382229  58.9904966  70.6783245 142.3407268  58.8820773
  70.6333581 141.1714412  59.8426119  64.4295003 137.8896026  55.0241670
  63.5045500 137.7572240  55.2319362  64.6779417 138.6690245  55.5211613
  74.3779666 133.9564769  56.6702403  73.4696543 133.8880178  56.3761164
  74.3267262 134.4336714  57.4984229  68.1996410 135.4322908  48.3085802
  68.0796035 135.8779958  49.1471283  67.5048998 135.7808225  47.7499340
  61.7903814 137.5329299  55.8585459  61.9196196 137.7863778  56.7724871
  61.1101266 138.1257007  55.5390114  68.4520532 135.3754415  64.6137300
  67.6753866 135.9348335  64.6040165  69.0911095 135.8611198  65.1352170
  76.2441312 132.1581208  58.4480277  75.6015692 132.4513741  57.8020072
  75.7396241 132.0434128  59.2533474  73.8981476 135.9044381  49.1366136
  74.8099332 136.1371768  48.9613834  73.3891123 136.4881425  48.5741215
  66.7066904 138.1839868  64.1755267  67.4481588 138.7224912  63.8990091
  66.0003889 138.8106157  64.3326819  72.1822243 140.3269009  62.7727429
  72.5905599 139.8851419  62.0282061  71.4599505 139.7521636  63.0261622
  68.5353314 135.2641615  60.1460986  69.3814509 135.6881029  60.2895635
  68.4751951 134.6075240  60.8399549  72.5051058 140.8870199  56.5279718
  71.8759921 141.0515913  55.8255786  72.1176720 141.3011809  57.2990682
  76.3840290 141.8224637  53.8824082  75.6991328 142.2023538  53.3321115
  76.4684139 142.4319964  54.6156029  71.6852759 132.9245984  61.8042159
  71.4413691 133.6788044  61.2676435  71.9612689 133.3031331  62.6389407
  73.6391222 139.4684596  60.4819425  73.8508117 140.1116356  59.8053806
  73.5920970 138.6346913  60.0141355  71.2417451 132.0802417  57.3855997
  70.3801930 132.3783670  57.6772735  71.2679885 132.2972816  56.4537030
  68.0579020 140.6244607  53.7929803  68.5217366 140.9032310  53.0034425
  67.7935818 139.7228052  53.6102894  66.9947906 136.7467760  50.6019368
  67.6971949 137.1988803  51.0693294  66.6628535 136.1051579  51.2299261
  65.4428268 135.3379516  64.9770577  64.8126928 136.0195797  65.2105974
  65.3364355 135.2262598  64.0323716  60.7373240 135.0051312  55.9036502
  59.9472294 135.2608841  55.4276612  61.2284487 135.8199650  56.0088542
  74.7537050 142.3456552  58.6541782  75.5754493 141.9436739  58.3724464
  74.7499452 142.2424786  59.6057898  62.6887985 135.3695892  52.8619978
  61.8919149 135.4814586  53.3803474  62.4613578 135.7082544  51.9960869
  59.0210943 135.2581803  58.3351492  59.2718981 136.1428813  58.6009068
  59.5570491 135.0786404  57.5626584  82.8443043 138.6895300  55.0026754
  82.0906751 138.1202698  54.8470758  82.9790584 138.6557965  55.9497389
  64.7209010 129.6400282  67.3395828  64.3275956 129.0866481  68.0143473
  65.5375151 129.9510861  67.7302346  67.6376971 131.0558161  64.9316085
  68.3786685 131.6565314  64.8520547  67.8694894 130.3135799  64.3734128
  62.7818309 136.2414529  63.2094315  62.6671824 135.3399786  63.5101414
  61.9262827 136.4878225  62.8579131  71.5834134 127.0839264  59.2080367
  71.2398404 127.9740906  59.1319477  71.9513097 126.8940922  58.3449952
  71.5484417 137.0747875  47.7152802  71.0331040 137.8452480  47.9541189
  71.2761725 136.4013011  48.3385863  69.1331528 131.9197576  52.7738040
  68.2773124 131.5304426  52.5943679  69.5458480 131.9989537  51.9137826
  70.6630675 129.4543919  57.1729600  70.1595470 129.4174055  56.3597405
  70.9561281 130.3636662  57.2326257  66.9073560 129.5382649  56.1795782
  67.7726557 129.3425458  55.8201671  66.9751069 129.3093001  57.1065138
  76.5218691 139.8280230  49.6505975  75.7448134 139.4891389  49.2061137
  77.2010172 139.8332853  48.9760940  71.3370720 134.9474967  49.5412583
  71.0320856 135.2621117  50.3922726  72.2901162 135.0256387  49.5839916
  74.7609998 139.3014211  56.3072583  74.1033672 139.9913473  56.3952712
  75.5650397 139.6910643  56.6506570  64.5135880 131.7684857  53.5512148
  65.0879631 131.5460038  52.8185341  65.1006862 131.8373552  54.3040750
  73.5715457 137.6558584  54.3576525  74.0847339 138.2888576  54.8598235
  74.2216681 137.0559779  53.9919885  64.8405467 133.7989318  47.5708034
  64.0042779 134.1364005  47.8917308  64.7010236 133.6638298  46.6335171
  66.8158547 128.6426106  52.2787218  66.1622960 128.3275123  51.6543833
  66.7739021 128.0201846  53.0047041  67.9269752 138.9245401  44.1940510
  67.0196814 138.6934654  44.3931659  68.4240784 138.1283020  44.3814492
  70.0496288 135.1308039  56.6034866  69.1318849 135.3522986  56.4456554
  70.4656431 135.2054350  55.7446573  70.8331335 136.5299455  51.7337546
  71.5803154 137.0420852  51.4244668  71.1022925 136.2083508  52.5941939
  69.1057986 139.0257996  48.7164500  68.1969205 138.7417029  48.8136970
  69.1353069 139.4457074  47.8567807  74.3377253 142.6364585  52.4855668
  73.8839580 141.7955495  52.5420858  73.7071220 143.2725984  52.8230448
  73.2810173 133.5656571  53.7156335  72.5432929 133.0533958  54.0466578
  73.5336946 133.1256953  52.9039612  73.3821800 126.3432823  54.3098104
  73.6880677 125.4830187  54.0224019  74.1074405 126.9350444  54.1097098
  59.6746156 136.7463510  52.6979702  59.4770556 136.1532871  51.9730769
  59.1192820 136.4415720  53.4155641  67.6542880 136.6386616  54.8174295
  67.7091489 135.6860453  54.7416772  66.8434082 136.7946056  55.3015594
  68.8034073 140.5666740  46.0552579  68.3653503 139.8502598  45.5958216
  69.5444514 140.7942854  45.4937670  65.5935240 135.2563676  52.5764674
  64.7803105 135.5557847  52.9829866  66.0894234 134.8619365  53.2939157
  71.1909451 135.7205501  61.4079568  71.5458839 135.9476974  62.2674034
  71.8381582 136.0523877  60.7856823  76.9207188 138.8423937  52.1128897
  76.7825087 139.0325533  51.1850086  76.5643407 139.6043319  52.5696948
  65.0849314 132.8282032  58.1925909  65.7248694 132.6870791  57.4948873
  64.2526845 132.5416545  57.8164511  76.9476568 140.9100464  57.1240169
  77.3813074 140.8175753  57.9723223  77.6608148 140.8857964  56.4860185
  62.1692382 136.2727544  50.3820654  61.2389970 136.2111999  50.5990617
  62.2649854 135.7503497  49.5857296  62.0877931 132.7982357  52.9698896
  62.3484748 133.7127690  52.8608057  62.9095103 132.3306799  53.1195509
  63.5602856 134.2120114  60.1397721  64.2325909 134.0037476  59.4910369
  62.7332643 134.0142200  59.7002953  77.8092117 140.9524164  59.6573054
  78.0028007 141.8569975  59.9032329  77.7092735 140.4931583  60.4911639
  69.4628428 130.8382055  62.1563381  68.8156343 131.5372004  62.0627858
  70.2329443 131.2718199  62.5239630  72.8707226 141.1030907  65.2313935
  72.7192732 140.8741459  64.3144018  72.8611905 142.0601508  65.2445280
  69.6392562 138.6762820  60.2160201  70.5684622 138.8273979  60.0429168
  69.2183592 138.7646840  59.3608848  63.9630353 137.4862717  60.9000158
  63.8250151 136.7542956  61.5011697  64.8735277 137.3971617  60.6184345
  72.9245301 139.4251121  45.6484636  72.3074472 138.6997949  45.5517689
  72.4561789 140.1860481  45.3051710  66.5912654 137.1982676  60.3883837
  67.3012273 136.5575868  60.3470456  66.5481962 137.4495571  61.3110018
  65.3041588 134.1847894  62.2079477  64.7678945 133.7338633  62.8601073
  64.7158296 134.3193803  61.4649941  64.7143847 133.6436545  44.7705941
  63.8373313 133.5225346  44.4068187  65.1901600 132.8522624  44.5184829
  74.5816840 142.0989613  61.5404396  73.6943619 141.7615535  61.6630795
  75.1515391 141.3672645  61.7773162  61.0380709 133.3203902  59.2932471
  60.9538898 132.7129571  58.5582881  60.2163416 133.8112920  59.2941968
  71.2104423 131.8057465  54.6602666  71.7073123 131.0527428  54.3403737
  70.4391405 131.8421782  54.0945876  79.0634180 137.5097831  56.3020958
  79.0524057 138.3922546  55.9314891  78.1951560 137.1569382  56.1075495
  72.2934204 140.5629153  52.2341090  71.3590482 140.6830615  52.0645794
  72.4710872 139.6601619  51.9701100  67.7939392 133.9474848  54.3874351
  67.4237179 133.3945889  55.0755257  68.2898484 133.3432982  53.8349351
  75.6806755 136.4046472  52.7691124  76.1467207 137.2374463  52.6951427
  76.1314256 135.9391453  53.4736382  73.7482986 142.7490293  49.7677276
  74.0242830 142.6346888  50.6771150  72.8787485 142.3507778  49.7289449
  73.6523418 128.7727059  56.8082025  72.7386498 129.0031286  56.9764232
  74.0816519 128.8565503  57.6596058  73.4229876 136.9616951  59.3081919
  72.7701327 137.2092858  58.6534372  73.8010256 136.1481089  58.9744397
  69.4717449 137.7036762  65.7947956  68.7958086 137.6030891  66.4650332
  70.2945083 137.5475976  66.2583954  55.8113963 136.5114299  57.1364915
  55.8498063 135.9777889  57.9302033  55.3054256 135.9849504  56.5175892
  63.1904725 131.3578839  60.6327457  63.2546052 132.2193670  60.2204855
  63.1271846 130.7452841  59.8999816  62.6656998 133.4301972  64.2800491
  63.2929037 133.0479049  64.8938016  61.8084917 133.2116174  64.6456184
  59.4422541 135.2378401  50.2118846  59.7375982 134.3289079  50.1585900
  58.5410577 135.2166140  49.8899849  62.9716788 133.3134397  56.1946395
  62.2503374 133.9270365  56.0553868  63.7610044 133.8492162  56.1163041
  65.7743101 130.6488824  62.4687047  66.2977503 130.8951120  63.2313356
  65.5555435 131.4808859  62.0490184  61.1710382 132.9192498  50.3358171
  60.8423088 132.0389877  50.1533277  61.5249753 132.8640167  51.2234561
  64.2852205 133.2065468  50.7033649  64.6248278 133.7351389  49.9812257
  64.7324326 133.5445874  51.4792216  66.9795646 131.5902519  60.1536717
  66.6392467 130.7910332  60.5557397  66.2734653 131.8904230  59.5813550
  67.6312118 128.6751831  58.6064040  68.4538187 128.2012310  58.4842930
  67.8750182 129.4542315  59.1062726  66.2720353 131.7040090  48.9026942
  66.9928715 132.0821343  48.3990659  65.6485657 132.4228967  49.0061920
  70.4151476 132.4085239  49.8385274  70.6315090 133.2909877  49.5374102
  69.9345543 132.0171452  49.1090916  65.1550697 135.3670952  56.4156019
  65.0095278 135.6811255  57.3080300  64.6775901 135.9855852  55.8626917
  67.0147080 132.3573500  56.4636908  67.0008649 131.4614593  56.1269206
  67.7319508 132.3644164  57.0975194  68.8673211 132.7910840  58.5090036
  68.6090988 133.7127911  58.5074366  68.3358251 132.3941275  59.1990500
  66.4183976 131.2387880  51.7324478  66.5399887 130.3104526  51.9315366
  66.1286018 131.2526566  50.8202794  69.2875166 128.9242791  54.8691198
  69.3096863 128.9882124  53.9143178  69.7043225 128.0847299  55.0631704
  79.6658790 138.6598050  52.9070421  80.1089936 137.9105375  52.5089544
  78.7885301 138.6508187  52.5244153  60.4162381 137.0346193  62.2473837
  59.6744117 137.1828828  62.8338467  60.0955125 137.2954458  61.3840586
  76.6985995 142.6628097  49.9164350  77.2237319 143.0015370  49.1913670
  76.6108347 141.7275113  49.7327485  65.9025055 132.7519878  65.9414411
  65.9513211 133.6282000  65.5592181  66.4447569 132.2097271  65.3686054
  76.3879901 143.2961001  65.2215548  75.5975445 143.2785140  64.6820047
  76.1513256 143.8349295  65.9764585  76.5077776 140.1453467  62.5348277
  76.5575781 139.9803475  63.4763799  76.3991699 139.2780726  62.1446157
  73.7981538 136.1284395  63.8507583  74.6991401 135.9890860  63.5591581
  73.8729513 136.2938850  64.7905761  68.1324344 133.5051250  62.6960770
  67.2627653 133.7984816  62.4243358  68.3683824 134.0891695  63.4168033
  78.0095973 142.5650409  62.7790298  77.7180781 142.9280389  63.6153759
  77.3968104 141.8517417  62.6003630  79.2091655 140.1303289  55.2992868
  80.0438547 140.5693093  55.4630429  79.3450784 139.6541942  54.4801114
  76.2583161 137.6883023  61.2470356  76.7337283 137.8810670  60.4389208
  75.3348726 137.7442209  61.0013740  63.1466668 138.8507191  50.8301434
  62.9012710 137.9469521  51.0281645  63.3162582 138.8524341  49.8880912
  70.8363378 129.7230867  60.2126190  71.3545321 130.4591894  59.8872679
  70.4818510 130.0294860  61.0472949  62.4162315 134.5835548  48.3287596
  61.7231560 134.6579903  47.6727632  62.1714067 133.8195892  48.8509113
  71.0875972 126.1431149  55.7327087  71.3677725 125.4754339  56.3587513
  71.8726579 126.3360245  55.2201750  74.9584830 134.5648783  59.4798662
  75.9102253 134.6646881  59.5010886  74.7888280 133.7727052  59.9896746
  72.9799210 131.6504367  59.6658063  72.3849142 131.9309379  58.9704551
  72.6948906 132.1398268  60.4374804  77.4372908 137.7854903  58.5940961
  77.4049228 136.8470904  58.7800645  78.0473531 137.8638940  57.8606786
  69.2756239 136.6550956  44.6368165  70.2215343 136.5257164  44.7056583
  68.8970484 135.9165618  45.1137594  77.5867396 134.5765947  58.6399245
  77.0706445 133.7924403  58.4529173  78.4707345 134.2484663  58.8045764
  75.2478123 128.3206962  54.5995057  75.0502944 128.0122050  55.4838389
  75.8577829 129.0468601  54.7292987  83.2549458 138.8470910  57.7346998
  83.9852846 138.5856198  58.2954702  82.6456403 138.1099632  57.7749066
  81.3364755 136.9878773  58.3321449  80.6097918 136.8534737  57.7237941
  80.9212042 137.2955601  59.1378167  69.1594931 140.7068702  66.0968822
  70.0797941 140.8847301  66.2908869  69.1244514 139.7624748  65.9448522
  67.4599156 134.5800932  44.5723051  66.5530611 134.2834045  44.6485764
  67.7375137 134.2830751  43.7057337  58.3777096 135.9007296  55.0222097
  58.0579881 135.0472604  54.7296471  57.8310524 136.1155874  55.7780064
  69.0761222 129.1237822  50.7267292  68.2661950 128.7784907  51.1022538
  69.7645639 128.8145366  51.3154904  71.0051770 128.2015869  52.3491589
  71.5582808 128.6211322  53.0081612  71.2421856 127.2751617  52.3914545
  67.0284869 134.1902943  68.1294353  66.9281596 135.1397300  68.0606444
  66.8106411 133.8621182  67.2570423  66.2297940 131.4387868  44.7135030
  67.0917104 131.7642766  44.9730847  66.4148285 130.6519364  44.2008096
  74.3830577 130.3116394  51.8570253  73.8029246 130.9701198  51.4748305
  74.1166510 129.4893739  51.4457670  72.8334143 129.7121452  54.0591573
  73.3333922 129.8237986  53.2505892  73.4769751 129.4082505  54.6992382
  66.8916139 137.6200081  66.9459414  66.4083221 138.4200442  67.1523303
  66.9777078 137.6308026  65.9926858  73.1655455 132.4716485  50.9126601
  72.2781310 132.7566135  50.6946796  73.5809444 132.3110248  50.0653878
  76.5169991 132.4963006  54.6280940  77.2930381 132.9859458  54.9005557
  75.7918125 132.9221060  55.0852810  78.9542550 133.2090625  55.6854881
  79.5487041 132.9686361  54.9748189  79.0269133 132.4897755  56.3128417
  73.1396479 137.9871020  51.1276891  73.0831680 138.4439572  50.2884524
  73.6924821 137.2261705  50.9499734  76.9501285 133.7760752  51.9527011
  76.6938219 133.3757388  52.7835218  76.3254153 134.4904546  51.8277150
  81.2613622 136.5156826  54.4598302  80.7013180 136.5850015  55.2329864
  80.6557126 136.3397810  53.7397798  74.2185366 142.6743688  47.0573081
  75.0530970 142.2424887  46.8750556  74.0569709 142.5025702  47.9849976
  73.8731258 139.1775802  48.4229420  73.8180062 139.0120073  47.4817865
  73.2477313 139.8851835  48.5791610  58.6623773 134.4143866  62.2490843
  59.3082637 133.9042820  62.7378068  58.4540924 135.1512548  62.8234268
  71.1877165 141.4824714  67.7482983  72.0568325 141.6565366  67.3869618
  70.7083917 142.3019130  67.6258713  67.1827383 128.6783911  48.0014739
  67.1706053 129.6225751  48.1583010  68.0750805 128.4954056  47.7074200
  70.9979503 125.2726687  52.2560676  70.2311899 124.7185174  52.4017358
  71.4090208 125.3448556  53.1174827  63.0021264 131.5611483  66.3465857
  63.8652726 131.2048288  66.5569181  62.4286675 131.2225378  67.0341261
  85.3244757 144.5661601  59.5909053  84.9928082 145.4357012  59.3670268
  84.7290370 144.2497885  60.2703083  87.0835067 147.4873125  58.4480277
  86.4409447 147.7805658  57.8020072  86.5789995 147.3726046  59.2533474
  82.4227889 142.4131182  59.2080367  82.0792158 143.3032824  59.1319477
  82.7906851 142.2232840  58.3449952  81.5024429 144.7835837  57.1729600
  80.9989225 144.7465972  56.3597405  81.7955036 145.6928580  57.2326257
  77.6552302 143.9718024  52.2787218  77.0016714 143.6567041  51.6543833
  77.6132776 143.3493764  53.0047041  84.2215554 141.6724741  54.3098104
  84.5274431 140.8122104  54.0224019  84.9468159 142.2642361  54.1097098
  84.4917172 144.1018976  56.8082025  83.5780252 144.3323203  56.9764232
  84.9210274 144.1857421  57.6596058  78.4705873 144.0043749  58.6064040
  79.2931942 143.5304227  58.4842930  78.7143936 144.7834233  59.1062726
  80.1268921 144.2534708  54.8691198  80.1490617 144.3174041  53.9143178
  80.5436980 143.4139217  55.0631704  81.6757132 145.0522785  60.2126190
  82.1939076 145.7883812  59.8872679  81.3212265 145.3586778  61.0472949
  81.9269726 141.4723067  55.7327087  82.2071480 140.8046256  56.3587513
  82.7120333 141.6652163  55.2201750  86.0871878 143.6498880  54.5995057
  85.8896699 143.3413968  55.4838389  86.6971583 144.3760519  54.7292987
  79.9154976 144.4529740  50.7267292  79.1055704 144.1076825  51.1022538
  80.6039393 144.1437284  51.3154904  81.8445524 143.5307787  52.3491589
  82.3976563 143.9503240  53.0081612  82.0815611 142.6043535  52.3914545
  85.2224331 145.6408312  51.8570253  84.6423000 146.2993116  51.4748305
  84.9560264 144.8185656  51.4457670  83.6727898 145.0413370  54.0591573
  84.1727676 145.1529904  53.2505892  84.3163506 144.7374422  54.6992382
  89.7936304 148.5382542  55.6854881  90.3880795 148.2978278  54.9748189
  89.8662888 147.8189673  56.3128417  81.8373257 140.6018605  52.2560676
  81.0705653 140.0477092  52.4017358  82.2483962 140.6740474  53.1174827
   6.9713361  22.8932038  43.8773565   7.6091771  22.7738786  43.1736905
   6.8534204  23.8412882  43.9361517   3.7803067  22.8459467  43.8135089
   3.4421579  22.7300531  42.9255624   4.6492835  22.4450632  43.7936095
   4.2622850  23.9994318  49.7721295   4.2511491  23.6047117  48.9001798
   4.4243490  23.2660391  50.3655066   5.2189441  28.3665911  35.1146445
   4.5677421  28.9519991  34.7280459   6.0133804  28.8972106  35.1741483
   0.9830111  26.7831430  48.7200479   0.6919977  27.6877061  48.6047145
   1.6187096  26.8247958  49.4344548   1.9086318  24.1608279  45.3101838
   2.5049890  23.9364301  44.5958801   1.9661290  23.4193024  45.9127286
   6.5254629  20.6183492  40.9526773   7.3117718  20.2002915  40.6017190
   6.7893334  21.5229584  41.1208421  11.9263056  20.5558725  41.8559751
  12.6588228  19.9857942  42.0897581  11.1702412  20.1680326  42.2966257
   3.5439176  22.9785967  39.0523094   3.1797383  22.4516588  39.7636015
   4.4006292  22.5884436  38.8789579   5.9419996  26.4692846  45.7150272
   5.6420719  27.3717884  45.6066080   5.5971056  26.2025029  46.5671425
   9.3417140  18.9875386  43.3947710   8.4334017  18.9190794  43.1006471
   9.2904736  19.4647331  44.2229535   3.4158006  20.4065031  51.3382607
   2.6391340  20.9658951  51.3285472   4.0548569  20.8921814  51.8597477
  11.2078786  17.1891824  45.1725584  10.5653167  17.4824357  44.5265378
  10.7033715  17.0744744  45.9778780   1.6704378  23.2150485  50.9000574
   2.4119063  23.7535529  50.6235398   0.9641364  23.8416773  51.0572126
   7.1459718  25.3579625  49.4972736   7.5543074  24.9162036  48.7527368
   6.4236979  24.7832253  49.7506928   3.4990788  20.2952232  46.8706292
   4.3451983  20.7191645  47.0140941   3.4389425  19.6385856  47.5644856
   7.4688532  25.9180816  43.2525024   6.8397395  26.0826530  42.5501092
   7.0814195  26.3322425  44.0235988  11.3477764  26.8535254  40.6069388
  10.6628802  27.2334155  40.0566421  11.4321614  27.4630580  41.3401336
   6.6490233  17.9556600  48.5287466   6.4051165  18.7098661  47.9921742
   6.9250164  18.3341948  49.3634713   8.6028696  24.4995213  47.2064732
   8.8145591  25.1426973  46.5299113   8.5558444  23.6657529  46.7386662
   6.2054925  17.1113033  44.1101304   5.3439404  17.4094287  44.4018041
   6.2317360  17.3283432  43.1782336   3.0216494  25.6555224  40.5175109
   3.4854840  25.9342927  39.7279732   2.7573292  24.7538668  40.3348200
   9.7174524  27.3767168  45.3787089  10.5391968  26.9747355  45.0969771
   9.7136927  27.2735402  46.3303205   3.4831127  26.9251211  47.5347800
   3.5475560  27.3871619  48.3705971   2.7742051  26.2948576  47.6630109
  17.8080517  23.7205917  41.7272060  17.0544225  23.1513315  41.5716065
  17.9428058  23.6868581  42.6742695   3.1979145  28.5919319  37.4026780
   3.0624820  29.4370855  37.8311628   3.7388957  28.7938597  36.6392714
   4.8247621  29.2142885  51.5327122   4.3811476  28.4279264  51.2148026
   5.4864835  29.4022036  50.8671013   6.9228859  29.4945685  49.5608523
   6.9047335  30.3154566  49.0688792   7.8448779  29.3699761  49.7858664
   3.3801914  27.0089815  50.4032032   3.9130250  26.2478103  50.1731340
   2.8515995  26.7163467  51.1456186  11.4856165  24.8590846  36.3751282
  10.7085608  24.5202006  35.9306444  12.1647646  24.8643470  35.7006247
   4.7454626  26.1375807  37.9150844   4.2175988  25.4028567  37.6024081
   4.2442129  26.9150484  37.6690812   9.7247472  24.3324828  43.0317890
   9.0671147  25.0224089  43.1198019  10.5287872  24.7221260  43.3751876
   8.5352931  22.6869200  41.0821832   9.0484813  23.3199192  41.5843541
   9.1854155  22.0870396  40.7165192   5.7975305  32.6653525  33.8382503
   5.1237004  32.9685221  34.4467461   6.1841127  33.4682605  33.4887960
   5.0133762  20.1618656  43.3280172   4.0956323  20.3833603  43.1701860
   5.4293906  20.2364966  42.4691880   5.7968810  21.5610072  38.4582852
   6.5440629  22.0731469  38.1489974   6.0660399  21.2394124  39.3187246
   9.3014727  27.6675202  39.2100974   8.8477054  26.8266112  39.2666165
   8.6708694  28.3036600  39.5475754   8.2447647  18.5967188  40.4401642
   7.5070404  18.0844574  40.7711884   8.4974420  18.1567570  39.6284919
   7.7447667  29.5051699  40.1450792   8.0370641  30.0656756  39.4263158
   8.2546287  29.7980260  40.9003952   2.6180354  21.6697233  41.5419602
   2.6728964  20.7171069  41.4662079   1.8071556  21.8256672  42.0260900
   2.7081292  30.2832050  41.2344246   2.6657471  30.5092896  40.3052778
   3.6243991  30.0495424  41.3830047   6.1546926  20.7516117  48.1324875
   6.5096313  20.9787590  48.9919341   6.8019057  21.0834494  47.5102130
  11.8844662  23.8734553  38.8374204  11.7462561  24.0636149  37.9095393
  11.5280881  24.6353936  39.2942255  11.9114042  25.9411080  43.8485475
  12.3450549  25.8486369  44.6968529  12.6245623  25.9168581  43.2105491
   5.6441937  29.5413174  45.3818576   5.6978959  30.1104111  46.1496292
   4.7756718  29.7115059  45.0172613  12.7729592  25.9834781  46.3818361
  12.9665482  26.8880591  46.6277636  12.6730210  25.5242200  47.2156946
   7.8344700  26.1341524  51.9559241   7.6830207  25.9052075  51.0389325
   7.8249380  27.0912125  51.9690586   4.6030037  23.7073436  46.9405508
   5.5322097  23.8584596  46.7674475   4.1821067  23.7957457  46.0854154
   3.4018369  27.7324101  44.7104045   3.2629454  27.3642885  45.5829984
   2.6132965  28.2471740  44.5388003   3.9966520  32.8333197  36.0529582
   4.1718276  32.3621240  36.8675205   3.3099309  33.4598963  36.2810843
   4.9523584  27.1105703  42.0992883   4.6173416  27.0706473  42.9950533
   4.4527529  26.4450419  41.6263293   1.5550128  22.2293293  47.1129144
   2.2649747  21.5886485  47.0715762   1.5119436  22.4806188  48.0355325
   9.5436907  29.1660646  50.0335723   9.4849453  28.4819866  49.3666306
   9.9456425  29.9079636  49.5816349   9.5454314  27.1300230  48.2649703
   8.6581093  26.7926152  48.3876102  10.1152865  26.3983261  48.5018468
   3.0755468  31.7901682  45.2310946   3.0025639  32.5956654  45.7430251
   2.6332861  31.9893648  44.4058967   2.8645247  31.0273452  38.7413768
   2.0812769  31.5695133  38.8351992   3.5637992  31.5447432  39.1408009
  14.0271655  22.5408447  43.0266265  14.0161531  23.4233163  42.6560198
  13.1589034  22.1879998  42.8320802   5.5354151  31.6888516  47.3869105
   6.2482123  32.3235981  47.3145006   5.0444180  31.7852382  46.5709107
   7.2571678  25.5939769  38.9586396   6.3227957  25.7141232  38.7891101
   7.4348347  24.6912236  38.6946406  10.6444229  21.4357088  39.4936431
  11.1104682  22.2685080  39.4196733  11.0951730  20.9702070  40.1981689
   8.7120461  27.7800910  36.4922583   8.9880304  27.6657504  37.4016457
   7.8424959  27.3818394  36.4534756   8.3867351  21.9927567  46.0327226
   7.7338801  22.2403475  45.3779679   8.7647731  21.1791705  45.6989703
   5.3474525  32.0287260  40.1355396   5.5296919  31.2108916  40.5983149
   6.1707511  32.2454953  39.6980286   5.6816690  30.9555446  37.3970445
   6.2104456  30.4447900  36.7840607   5.9444910  30.6397976  38.2615978
   4.4354924  22.7347378  52.5193263   3.7595561  22.6341508  53.1895638
   5.2582558  22.5786592  52.9829260   3.1777707  34.0414306  46.7550879
   3.7296015  34.2045927  47.5199964   3.5183900  34.6318744  46.0830904
   8.0288581  28.8675563  52.6099533   8.5728485  29.4805522  52.1154488
   7.4475426  29.4255142  53.1266546   6.3146094  31.9896281  43.7414561
   6.1897233  31.1886021  43.2325507   6.9725185  32.4842475  43.2528531
   8.3781002  29.7905301  45.3694111   7.4311338  29.6710653  45.2972438
   8.7263775  28.9027799  45.4520373   5.3827436  29.5858018  41.5698463
   5.2352398  28.6574725  41.7506034   6.2080929  29.6078108  41.0855539
   8.9861557  30.4086576  42.6563336   9.9108105  30.2029438  42.5187787
   8.8176861  30.1602978  43.5652678   8.7756874  30.9272244  38.0125428
   8.9493751  30.3618666  37.2599280   9.2685765  31.7273139  37.8304918
  14.6296265  23.6908667  39.6315727  15.0727411  22.9415992  39.2334851
  13.7522775  23.6818803  39.2489459   9.7632046  30.2439008  35.1122326
  10.4582951  30.8645701  35.3309641  10.1055196  29.3934359  35.3874704
  11.6623469  27.6938714  36.6409657  12.1874793  28.0325986  35.9158977
  11.5745822  26.7585729  36.4572791   3.3243518  31.6072787  48.7699533
   3.6330644  31.3621934  49.6422233   4.1219000  31.8119426  48.2818404
   3.3464130  33.7610697  41.0004910   2.9069120  33.2687076  41.6937767
   4.0972247  33.2183665  40.7596985  11.3517375  28.3271617  51.9460855
  10.5612919  28.3095756  51.4065354  11.1150730  28.8659911  52.7009891
  11.4715250  25.1764084  49.2593583  11.5213255  25.0114091  50.2009106
  11.3629174  24.3091343  48.8691464   8.7619013  21.1595012  50.5752890
   9.6628875  21.0201477  50.2836888   8.8366987  21.3249467  51.5151067
  12.9733447  27.5961025  49.5035605  12.6818255  27.9591006  50.3399066
  12.3605578  26.8828034  49.3248937  14.1729129  25.1613905  42.0238175
  15.0076021  25.6003709  42.1875735  14.3088258  24.6852558  41.2046421
  11.2220635  22.7193640  47.9715663  11.6974757  22.9121286  47.1634514
  10.2986201  22.7752826  47.7259046   9.9222304  19.5959400  46.2043968
  10.8739727  19.6957498  46.2256192   9.7525755  18.8037669  46.7142053
   7.9436684  16.6814983  46.3903369   7.3486616  16.9619996  45.6949858
   7.6586381  17.1708884  47.1620110   7.0744174  30.6337910  35.1506002
   8.0074847  30.5683472  35.3538877   6.9867387  31.4694177  34.6920535
   9.7032191  29.9503780  32.1109949   9.6245823  29.6163644  33.0045707
  10.5241858  30.4425548  32.1101422  12.4010382  22.8165520  45.3186268
  12.3686702  21.8781520  45.5045952  13.0111006  22.8949556  44.5852093
  12.5504871  19.6076563  45.3644551  12.0343919  18.8235020  45.1774480
  13.4344819  19.2795280  45.5291071  18.2186932  23.8781527  44.4592305
  18.9490320  23.6166815  45.0200008  17.6093877  23.1410248  44.4994373
  16.3002229  22.0189389  45.0566756  15.5735393  21.8845354  44.4483248
  15.8849516  22.3266218  45.8623474   4.1232406  25.7379319  52.8214129
   5.0435415  25.9157918  53.0154176   4.0881989  24.7935364  52.6693828
   1.8553613  22.6510698  53.6704721   1.3720695  23.4511058  53.8768610
   1.9414553  22.6618643  52.7172165  11.4807465  17.5273622  41.3526247
  12.2567856  18.0170075  41.6250864  10.7555600  17.9531676  41.8098116
  13.9180024  18.2401241  42.4100188  14.5124515  17.9996977  41.6993496
  13.9906608  17.5208372  43.0373724   8.1033953  23.0181637  37.8522198
   8.0469154  23.4750188  37.0129830   8.6562295  22.2572322  37.6745041
  11.9138759  18.8071369  38.6772317  11.6575693  18.4068005  39.5080525
  11.2891627  19.5215163  38.5522457  16.2251097  21.5467442  41.1843609
  15.6650655  21.6160631  41.9575171  15.6194600  21.3708427  40.4643105
   9.1822840  27.7054305  33.7818388  10.0168444  27.2735503  33.5995863
   9.0207183  27.5336319  34.7095282   6.1514640  26.5135330  54.4728290
   7.0205799  26.6875982  54.1114925   5.6721391  27.3329747  54.3504019
   2.0754422  32.3863418  42.8127802   1.1250053  32.3865279  42.6992174
   2.3786908  31.6396152  42.2963837  17.8107115  38.2223956  43.8773565
  18.4485525  38.1030703  43.1736905  17.6927958  39.1704800  43.9361517
  14.6196822  38.1751384  43.8135089  14.2815333  38.0592449  42.9255624
  15.4886590  37.7742549  43.7936095  10.4783637  40.0286861  39.8031980
   9.9148502  39.9376798  39.0348268  10.3636032  39.2086765  40.2834473
  15.1016605  39.3286236  49.7721295  15.0905245  38.9339034  48.9001798
  15.2637244  38.5952309  50.3655066   8.0248069  41.5238052  42.6416201
   8.8169361  41.1828877  42.2262500   8.2644719  41.6333027  43.5618354
  16.0583196  43.6957828  35.1146445  15.4071176  44.2811909  34.7280459
  16.8527559  44.2264023  35.1741483   9.9838823  40.7846965  35.5133579
  10.7569699  40.2375953  35.3746455  10.3364222  41.6491215  35.7248041
  11.8223866  42.1123348  48.7200479  11.5313732  43.0168979  48.6047145
  12.4580850  42.1539875  49.4344548  12.7480073  39.4900196  45.3101838
  13.3443645  39.2656219  44.5958801  12.8055044  38.7484942  45.9127286
  12.3205101  36.9439632  33.1452029  12.5730622  36.4221153  32.3835492
  11.3829660  36.7805777  33.2478713  17.3648384  35.9475410  40.9526773
  18.1511473  35.5294833  40.6017190  17.6287088  36.8521502  41.1208421
  17.5358461  41.3848260  35.6515429  16.9004294  41.4582887  36.3636334
  17.2055868  41.9741859  34.9734509  22.7656811  35.8850643  41.8559751
  23.4981983  35.3149860  42.0897581  22.0096167  35.4972244  42.2966257
  12.0401390  38.8467738  35.3476404  11.9237648  38.1712641  36.0157489
  12.1503650  38.3600111  34.5308557  14.3832931  38.3077885  39.0523094
  14.0191138  37.7808506  39.7636015  15.2400047  37.9176354  38.8789579
  20.2882231  29.5972217  46.3154360  19.9565556  30.4667628  46.0915575
  19.6927845  29.2808501  46.9948390  14.0238418  33.3367784  34.0484442
  14.1912820  34.2048021  34.4154913  13.8335587  33.4995066  33.1245731
  16.7813751  41.7984763  45.7150272  16.4814474  42.7009802  45.6066080
  16.4364810  41.5316946  46.5671425  10.2326232  38.2498560  41.7486977
   9.3076729  38.1174774  41.9564669  10.4810645  39.0292779  42.2456919
  20.1810895  34.3167303  43.3947710  19.2727772  34.2482712  43.1006471
  20.1298490  34.7939248  44.2229535  14.0027638  35.7925442  35.0331109
  13.8827264  36.2382493  35.8716589  13.3080227  36.1410759  34.4744647
   7.5935043  37.8931834  42.5830766   7.7227424  38.1466313  43.4970178
   6.9132495  38.4859542  42.2635421  11.7634531  48.5629084  38.6821240
  11.6858560  49.5136909  38.7609721  11.1596174  48.2174956  39.3396166
  14.2551760  35.7356949  51.3382607  13.4785094  36.2950869  51.3285472
  14.8942323  36.2213732  51.8597477  22.0472541  32.5183742  45.1725584
  21.4046921  32.8116275  44.5265378  21.5427469  32.4036662  45.9778780
  19.7012705  36.2646915  35.8611443  20.6130561  36.4974302  35.6859140
  19.1922352  36.8483959  35.2986522  12.5098133  38.5442402  50.9000574
  13.2512817  39.0827446  50.6235398  11.8035118  39.1708691  51.0572126
  17.9853472  40.6871543  49.4972736  18.3936828  40.2453953  48.7527368
  17.2630734  40.1124170  49.7506928  14.3384542  35.6244150  46.8706292
  15.1845738  36.0483563  47.0140941  14.2783180  34.9677774  47.5644856
  18.3082287  41.2472733  43.2525024  17.6791149  41.4118448  42.5501092
  17.9207949  41.6614343  44.0235988  22.1871519  42.1827171  40.6069388
  21.5022557  42.5626073  40.0566421  22.2715368  42.7922498  41.3401336
  17.4883988  33.2848518  48.5287466  17.2444920  34.0390578  47.9921742
  17.7643918  33.6633866  49.3634713  19.4422450  39.8287130  47.2064732
  19.6539346  40.4718890  46.5299113  19.3952199  38.9949447  46.7386662
  17.0448679  32.4404951  44.1101304  16.1833158  32.7386205  44.4018041
  17.0711114  32.6575350  43.1782336  13.8610249  40.9847142  40.5175109
  14.3248594  41.2634845  39.7279732  13.5967047  40.0830586  40.3348200
  10.7534330  40.5318623  43.4554873  11.3235687  40.9605891  42.8172357
  11.3442442  40.2501208  44.1539058  12.7979135  37.1070294  37.3264675
  13.5003178  37.5591338  37.7938601  12.4659763  36.4654113  37.9544568
  11.2459496  35.6982051  51.7015884  10.6158157  36.3798331  51.9351281
  11.1395584  35.5865132  50.7569022   6.5404469  35.3653847  42.6281808
   5.7503523  35.6211375  42.1521919   7.0315716  36.1802184  42.7333849
  20.5568278  42.7059086  45.3787089  21.3785722  42.3039273  45.0969771
  20.5530681  42.6027320  46.3303205   8.4919214  35.7298426  39.5865285
   7.6950377  35.8417120  40.1048781   8.2644806  36.0685078  38.7206175
  14.3224882  42.2543129  47.5347800  14.3869314  42.7163536  48.3705971
  13.6135806  41.6240494  47.6630109   4.8242172  35.6184337  45.0596799
   5.0750210  36.5031347  45.3254375   5.3601720  35.4388939  44.2871891
  28.6474271  39.0497834  41.7272060  27.8937980  38.4805232  41.5716065
  28.7821813  39.0160499  42.6742695  14.0372899  43.9211237  37.4026780
  13.9018574  44.7662772  37.8311628  14.5782712  44.1230514  36.6392714
  10.5240239  30.0002816  54.0641135  10.1307185  29.4469015  54.7388779
  11.3406379  30.3113395  54.4547653   7.4902297  41.4386675  37.9754705
   8.0026817  42.2329925  38.1260270   8.1425010  40.7412965  37.9088306
   9.2997182  44.5552431  40.0577458   9.4763810  45.4770396  39.8698442
  10.0954015  44.2410850  40.4871838  13.4408200  31.4160695  51.6561392
  14.1817913  32.0167849  51.5765854  13.6726123  30.6738333  51.0979434
   8.5849538  36.6017063  49.9339621   8.4703053  35.7002320  50.2346720
   7.7294056  36.8480759  49.5824438  15.6641376  44.5434803  51.5327122
  15.2205230  43.7571182  51.2148026  16.3258589  44.7313954  50.8671013
  10.4228497  46.0730605  46.0587800  10.9735922  45.9447668  45.2864794
   9.5839973  46.3725494  45.7082693  17.7622614  44.8237603  49.5608523
  17.7441089  45.6446484  49.0688792  18.6842534  44.6991678  49.7858664
  14.2195668  42.3381732  50.4032032  14.7524005  41.5770021  50.1731340
  13.6909749  42.0455384  51.1456186  17.3865363  27.4441798  45.9325673
  17.0429632  28.3343440  45.8564784  17.7544326  27.2543456  45.0695258
   5.4551214  39.7675329  38.7514275   6.2926436  40.1772337  38.5347983
   5.6329481  38.8274771  38.7214469  17.3515646  37.4350410  34.4398108
  16.8362269  38.2055014  34.6786496  17.0792954  36.7615546  35.0631170
  14.9362757  32.2800110  39.4983347  14.0804353  31.8906961  39.3188986
  15.3489709  32.3592071  38.6383132  16.4661903  29.8146454  43.8974907
  15.9626699  29.7776589  43.0842712  16.7592510  30.7239196  43.9571563
  12.7104789  29.8985183  42.9041088  13.5757786  29.7027992  42.5446978
  12.7782298  29.6695535  43.8310445  22.3249920  40.1882764  36.3751282
  21.5479363  39.8493924  35.9306444  23.0041401  40.1935387  35.7006247
  17.1401949  35.3077502  36.2657890  16.8352084  35.6223651  37.1168033
  18.0932391  35.3858922  36.3085223  15.5848381  41.4667725  37.9150844
  15.0569742  40.7320485  37.6024081  15.0835883  42.2442401  37.6690812
  20.5641227  39.6616745  43.0317890  19.9064901  40.3516007  43.1198019
  21.3681626  40.0513177  43.3751876  10.3167108  32.1287391  40.2757455
  10.8910860  31.9062573  39.5430648  10.9038091  32.1976086  41.0286056
  19.3746686  38.0161118  41.0821832  19.8878567  38.6491110  41.5843541
  20.0247909  37.4162314  40.7165192  10.6436695  34.1591852  34.2953340
   9.8074008  34.4966539  34.6162615  10.5041465  34.0240832  33.3580477
  12.6189776  29.0028640  39.0032525  11.9654188  28.6877657  38.3789139
  12.5770250  28.3804381  39.7292347  13.7300981  39.2847935  30.9185817
  12.8228043  39.0537189  31.1176966  14.2272013  38.4885554  31.1059798
  16.6369060  47.9945442  33.8382503  15.9630759  48.2977139  34.4467461
  17.0234882  48.7974523  33.4887960  15.8527516  35.4910574  43.3280172
  14.9350078  35.7125521  43.1701860  16.2687660  35.5656884  42.4691880
  16.6362564  36.8901989  38.4582852  17.3834383  37.4023387  38.1489974
  16.9054154  36.5686042  39.3187246  14.9089214  39.3860530  35.4409807
  14.0000434  39.1019563  35.5382276  14.9384298  39.8059609  34.5813114
  20.1408482  42.9967120  39.2100974  19.6870809  42.1558029  39.2666165
  19.5102449  43.6328518  39.5475754  19.0841401  33.9259106  40.4401642
  18.3464158  33.4136492  40.7711884  19.3368175  33.4859487  39.6284919
  18.5841421  44.8343616  40.1450792  18.8764395  45.3948673  39.4263158
  19.0940042  45.1272177  40.9003952  19.1853029  26.7035358  41.0343411
  19.4911905  25.8432721  40.7469326  19.9105634  27.2952978  40.8342405
   5.4777385  37.1066044  39.4225009   5.2801785  36.5135405  38.6976075
   4.9224049  36.8018254  40.1400948  13.4574108  36.9989151  41.5419602
  13.5122718  36.0462987  41.4662079  12.6465310  37.1548590  42.0260900
  14.6065302  40.9269274  32.7797885  14.1684732  40.2105133  32.3203523
  15.3475743  41.1545389  32.2182977  11.3966468  35.6166210  39.3009981
  10.5834334  35.9160381  39.7075173  11.8925463  35.2221899  40.0184463
  13.5475046  45.6123967  41.2344246  13.5051225  45.8384814  40.3052778
  14.4637745  45.3787342  41.3830047  16.9940680  36.0808035  48.1324875
  17.3490068  36.3079508  48.9919341  17.6412811  36.4126412  47.5102130
  22.7238417  39.2026471  38.8374204  22.5856316  39.3928067  37.9095393
  22.3674636  39.9645854  39.2942255  10.8880543  33.1884566  44.9171216
  11.5279922  33.0473325  44.2194179  10.0558074  32.9019079  44.5409818
  22.7507797  41.2702998  43.8485475  23.1844303  41.1778287  44.6968529
  23.4639377  41.2460498  43.2105491  11.6640847  42.4886996  41.0306208
  12.4581446  41.9937316  40.8288783  10.9532539  41.9604859  40.6673914
  16.4835691  44.8705092  45.3818576  16.5372714  45.4396028  46.1496292
  15.6150473  45.0406977  45.0172613   7.9723610  36.6330078  37.1065961
   7.0421199  36.5714534  37.3235923   8.0681082  36.1106031  36.3102602
   7.8909160  33.1584891  39.6944203   8.1515977  34.0730224  39.5853363
   8.7126332  32.6909333  39.8440815   9.3634085  34.5722648  46.8643027
  10.0357138  34.3640010  46.2155676   8.5363871  34.3744734  46.4248260
  23.6123346  41.3126698  46.3818361  23.8059236  42.2172509  46.6277636
  23.5123964  40.8534118  47.2156946  15.2659657  31.1984589  48.8808688
  14.6187572  31.8974539  48.7873164  16.0360672  31.6320733  49.2484936
  18.6738455  41.4633441  51.9559241  18.5223961  41.2343993  51.0389325
  18.6643134  42.4204043  51.9690586  15.4423791  39.0365354  46.9405508
  16.3715851  39.1876514  46.7674475  15.0214821  39.1249375  46.0854154
  14.2412123  43.0616018  44.7104045  14.1023209  42.6934803  45.5829984
  13.4526719  43.5763658  44.5388003  14.8360275  48.1625115  36.0529582
  15.0112031  47.6913158  36.8675205  14.1493063  48.7890881  36.2810843
  15.7917338  42.4397621  42.0992883  15.4567171  42.3998391  42.9950533
  15.2921284  41.7742337  41.6263293   9.7661582  37.8465251  47.6245464
   9.6281380  37.1145490  48.2257003  10.6766506  37.7574151  47.3429652
  18.7276530  39.7853655  32.3729943  18.1105700  39.0600484  32.2762996
  18.2593018  40.5463016  32.0297017  12.3943883  37.5585210  47.1129144
  13.1043501  36.9178403  47.0715762  12.3513191  37.8098105  48.0355325
  20.3830661  44.4952564  50.0335723  20.3243208  43.8111784  49.3666306
  20.7850180  45.2371554  49.5816349  11.1072817  34.5450428  48.9324783
  10.5710174  34.0941167  49.5846380  10.5189525  34.6796337  48.1895248
   9.4021360  51.3114478  42.8269442   9.6417958  51.9433002  43.5048461
   8.5590557  50.9602518  43.1134801  10.5175076  34.0039080  31.4951247
   9.6404542  33.8827880  31.1313494  10.9932829  33.2125158  31.2430136
  20.3848069  42.4592148  48.2649703  19.4974847  42.1218069  48.3876102
  20.9546620  41.7275179  48.5018468   2.0377216  38.7916239  41.5892754
   2.7248256  38.4777969  41.0013770   1.8825345  39.6957604  41.3160006
   6.8411938  33.6806436  46.0177778   6.7570127  33.0732106  45.2828188
   6.0194644  34.1715454  46.0187274  13.9149222  47.1193600  45.2310946
  13.8419394  47.9248572  45.7430251  13.4726615  47.3185566  44.4058967
  13.7039002  46.3565370  38.7413768  12.9206524  46.8987050  38.8351992
  14.4031747  46.8739350  39.1408009  17.0135652  32.1660000  41.3847973
  17.5104351  31.4129962  41.0649043  16.2422633  32.2024316  40.8191182
  24.8665409  37.8700365  43.0266265  24.8555286  38.7525080  42.6560198
  23.9982789  37.5171916  42.8320802  16.3747906  47.0180434  47.3869105
  17.0875878  47.6527899  47.3145006  15.8837934  47.1144300  46.5709107
  18.0965433  40.9231687  38.9586396  17.1621711  41.0433149  38.7891101
  18.2742101  40.0204153  38.6946406  13.5970621  34.3077382  41.1119658
  13.2268408  33.7548423  41.8000563  14.0929713  33.7035516  40.5594658
  21.4837984  36.7649006  39.4936431  21.9498436  37.5976998  39.4196733
  21.9345484  36.2993988  40.1981689  11.4259819  44.7674878  48.2074676
  12.1269279  45.4011360  48.3604070  10.9554934  45.1089609  47.4470315
  19.5514215  43.1092827  36.4922583  19.8274059  42.9949422  37.4016457
  18.6818714  42.7110312  36.4534756  19.4554647  29.1329593  43.5327332
  18.5417726  29.3633820  43.7009539  19.8847748  29.2168037  44.3841364
  19.2261105  37.3219485  46.0327226  18.5732555  37.5695392  45.3779679
  19.6041485  36.5083623  45.6989703  16.1868279  47.3579178  40.1355396
  16.3690674  46.5400834  40.5983149  17.0101265  47.5746870  39.6980286
  16.5210445  46.2847363  37.3970445  17.0498211  45.7739818  36.7840607
  16.7838664  45.9689893  38.2615978  15.2748678  38.0639296  52.5193263
  14.5989315  37.9633425  53.1895638  16.0976312  37.9078510  52.9829260
   7.0227537  44.3011233  45.1405778   7.6080974  43.5554920  45.2733682
   6.8252376  44.6115189  46.0242442   9.8766192  47.3362480  40.1568221
   9.2076568  47.8208608  39.6732261   9.7379062  47.5831700  41.0711599
   1.6145192  36.8716833  43.8610221   1.6529291  36.3380423  44.6547340
   1.1085485  36.3452038  43.2421199  14.0171461  49.3706223  46.7550879
  14.5689769  49.5337845  47.5199964  14.3577655  49.9610661  46.0830904
   8.9935954  31.7181373  47.3572764   9.0577281  32.5796204  46.9450161
   8.9303075  31.1055375  46.6245122   8.4688227  33.7904506  51.0045798
   9.0960266  33.4081583  51.6183322   7.6116146  33.5718708  51.3701490
  18.8682335  44.1967481  52.6099533  19.4122239  44.8097439  52.1154488
  18.2869180  44.7547059  53.1266546   5.2453770  35.5980935  36.9364153
   5.5407211  34.6891613  36.8831207   4.3441805  35.5768674  36.6145155
  17.1539848  47.3188199  43.7414561  17.0290988  46.5177939  43.2325507
  17.8118939  47.8134392  43.2528531   8.7748017  33.6736931  42.9191701
   8.0534602  34.2872899  42.7799175   9.5641272  34.2094696  42.8408347
  19.2174757  45.1197219  45.3694111  18.2705092  45.0002570  45.2972438
  19.5657530  44.2319717  45.4520373  11.5774330  31.0091358  49.1932353
  12.1008732  31.2553655  49.9558662  11.3586663  31.8411393  48.7735490
   6.9741611  33.2795033  37.0603478   6.6454317  32.3992412  36.8778584
   7.3280982  33.2242701  37.9479867  16.2221190  44.9149935  41.5698463
  16.0746152  43.9866643  41.7506034  17.0474684  44.9370026  41.0855539
  10.0883434  33.5668002  37.4278956  10.4279507  34.0953924  36.7057564
  10.5355555  33.9048409  38.2037522  19.8255312  45.7378494  42.6563336
  20.7501859  45.5321355  42.5187787  19.6570615  45.4894895  43.5652678
  12.7826875  31.9505053  46.8782024  12.4423695  31.1512866  47.2802704
  12.0765881  32.2506764  46.3058857  13.4343347  29.0354366  45.3309347
  14.2569416  28.5614844  45.2088237  13.6781410  29.8144849  45.8308033
  12.0751581  32.0642624  35.6272248  12.7959944  32.4423877  35.1235965
  11.4516886  32.7831501  35.7307226  16.2182704  32.7687773  36.5630581
  16.4346319  33.6512411  36.2619409  15.7376771  32.3773986  35.8336223
  10.9581926  35.7273486  43.1401325  10.8126506  36.0413789  44.0325607
  10.4807129  36.3458386  42.5872224  12.8178309  32.7176034  43.1882215
  12.8039877  31.8217127  42.8514513  13.5350737  32.7246698  43.8220501
  14.6704439  33.1513374  45.2335342  14.4122217  34.0730445  45.2319673
  14.1389480  32.7543809  45.9235806  19.6150628  46.2564161  38.0125428
  19.7887506  45.6910584  37.2599280  20.1079519  47.0565056  37.8304918
   5.4327588  38.2678831  46.0788987   4.8881056  39.0438639  46.2109261
   6.3106938  38.6149635  45.9208108  12.2215205  31.5990414  38.4569785
  12.3431116  30.6707061  38.6560673  11.9317247  31.6129100  37.5448100
  15.0906395  29.2845325  41.5936505  15.1128092  29.3484658  40.6388484
  15.5074454  28.4449834  41.7877011  25.4690019  39.0200584  39.6315727
  25.9121165  38.2707910  39.2334851  24.5916530  39.0110721  39.2489459
  20.6025801  45.5730926  35.1122326  21.2976705  46.1937619  35.3309641
  20.9448951  44.7226277  35.3874704   6.2193610  37.3948727  48.9719143
   5.4775346  37.5431362  49.5583774   5.8986354  37.6556992  48.1085893
  22.5017224  43.0230631  36.6409657  23.0268548  43.3617904  35.9158977
  22.4139576  42.0877647  36.4572791  14.1637272  46.9364705  48.7699533
  14.4724399  46.6913852  49.6422233  14.9612754  47.1411344  48.2818404
  14.1857884  49.0902615  41.0004910  13.7462875  48.5978993  41.6937767
  14.9366001  48.5475582  40.7596985   6.6650223  45.2814156  41.0029538
   7.4908243  44.9817927  40.6228182   6.3144275  44.5121778  41.4519327
  11.6331757  44.6340624  43.0727212  11.0111766  43.9711329  42.7729439
  12.3036623  44.6601756  42.3900859   4.8658828  43.2000482  41.9618472
   4.0290737  42.7722656  41.7802473   4.8382474  43.3932925  42.8989263
  11.7056284  33.1122412  52.6659718  11.7544440  33.9884535  52.2837487
  12.2478798  32.5699805  52.0931361  22.1911130  43.6563535  51.9460855
  21.4006673  43.6387674  51.4065354  21.9544484  44.1951829  52.7009891
  22.3109005  40.5056001  49.2593583  22.3607010  40.3406009  50.2009106
  22.2022928  39.6383260  48.8691464  11.1945263  43.1844547  36.5485672
  11.3433384  43.8680012  35.8952345  12.0011707  43.1649637  37.0635128
  19.6012767  36.4886929  50.5752890  20.5022630  36.3493394  50.2836888
  19.6760742  36.6541384  51.5151067  13.9355573  33.8653784  49.4206076
  13.0658882  34.1587350  49.1488665  14.1715053  34.4494229  50.1413340
  23.8127202  42.9252943  49.5035605  23.5212010  43.2882923  50.3399066
  23.1999333  42.2119951  49.3248937  25.0122884  40.4905823  42.0238175
  25.8469775  40.9295627  42.1875735  25.1482013  40.0144476  41.2046421
  22.0614390  38.0485558  47.9715663  22.5368511  38.2413204  47.1634514
  21.1379955  38.1044743  47.7259046   8.9497896  39.2109725  37.5546741
   8.7043938  38.3072055  37.7526951   9.1193811  39.2126875  36.6126219
  16.6394606  30.0833401  46.9371497  17.1576550  30.8194428  46.6117985
  16.2849739  30.3897394  47.7718256   8.2193544  34.9438082  35.0532903
   7.5262789  35.0182437  34.3972938   7.9745296  34.1798426  35.5754419
  16.8907201  26.5033684  42.4572393  17.1708954  25.8356873  43.0832820
  17.6757807  26.6962779  41.9447057  14.6940669  45.6792678  34.0197420
  14.1214636  46.2982865  33.5667891  15.2673463  46.2292039  34.5537342
  20.7616059  34.9251318  46.2043968  21.7133482  35.0249415  46.2256192
  20.5919509  34.1329586  46.7142053  18.7830438  32.0106901  46.3903369
  18.1880370  32.2911914  45.6949858  18.4980135  32.5000802  47.1620110
  17.9137929  45.9629828  35.1506002  18.8468602  45.8975389  35.3538877
  17.8261142  46.7986095  34.6920535  20.5425945  45.2795698  32.1109949
  20.4639577  44.9455562  33.0045707  21.3635612  45.7717466  32.1101422
  23.2404137  38.1457437  45.3186268  23.2080457  37.2073438  45.5045952
  23.8504760  38.2241474  44.5852093  15.0787468  37.0153490  31.3613472
  16.0246572  36.8859698  31.4301890  14.7001712  36.2768152  31.8382900
  23.3898625  34.9368481  45.3644551  22.8737674  34.1526937  45.1774480
  24.2738574  34.6087197  45.5291071  21.0509352  28.6809496  41.3240364
  20.8534173  28.3724585  42.2083696  21.6609058  29.4071135  41.4538294
  29.0580686  39.2073444  44.4592305  29.7884075  38.9458732  45.0200008
  28.4487632  38.4702166  44.4994373  27.1395984  37.3481307  45.0566756
  26.4129147  37.2137272  44.4483248  26.7243270  37.6558135  45.8623474
  14.9626160  41.0671236  52.8214129  15.8829170  41.2449835  53.0154176
  14.9275743  40.1227282  52.6693828  13.2630385  34.9403467  31.2968357
  12.3561840  34.6436579  31.3731071  13.5406366  34.6433285  30.4302644
   4.1808325  36.2609830  41.7467404   3.8611109  35.4075138  41.4541778
   3.6341753  36.4758408  42.5025371   7.9588233  38.9772271  45.4636910
   8.1774242  39.9089379  45.4824944   8.3714006  38.6180246  46.2491714
  14.8792450  29.4840356  37.4512599  14.0693179  29.1387441  37.8267845
  15.5676867  29.1747900  38.0400210  16.8082999  28.5618403  39.0736895
  17.3614037  28.9813857  39.7326918  17.0453085  27.6354151  39.1159851
  12.8316098  34.5505477  54.8539659  12.7312825  35.4999834  54.7851750
  12.6137640  34.2223716  53.9815729  12.0329169  31.7990402  31.4380336
  12.8948333  32.1245300  31.6976154  12.2179513  31.0121898  30.9253402
   4.0496585  39.8812742  43.7160525   3.3560056  39.4666694  43.2030480
   4.7969576  39.9233278  43.1193944  20.1861806  30.6718928  38.5815559
  19.6060475  31.3303732  38.1993612  19.9197738  29.8496273  38.1702977
  18.6365372  30.0723986  40.7836880  19.1365150  30.1840521  39.9751199
  19.2800980  29.7685039  41.4237688  12.6947368  37.9802616  53.6704721
  12.2114450  38.7802976  53.8768610  12.7808307  37.9910561  52.7172165
   5.9633328  39.8130995  41.5926540   5.9404016  39.9118683  40.6408423
   6.2733964  40.6596146  41.9143706   8.6220705  41.8707150  45.7073155
   9.5763959  41.8391093  45.6403086   8.4233229  41.4097774  46.5223380
   9.2120088  40.4408266  48.2743952  10.0312977  40.9352345  48.2978790
   9.4856895  39.5240235  48.2461520  18.9686684  32.8319019  37.6371908
  18.0812539  33.1168669  37.4192103  19.3840673  32.6712782  36.7899185
  22.3201220  32.8565540  41.3526247  23.0961610  33.3461992  41.6250864
  21.5949354  33.2823594  41.8098116  24.7573779  33.5693159  42.4100188
  25.3518269  33.3288895  41.6993496  24.8300362  32.8500290  43.0373724
   6.9770934  47.4126770  42.7243352   6.8425402  46.6527171  42.1581350
   6.5602997  48.1367670  42.2572141  18.1129897  42.5963693  31.7319928
  18.8165747  42.8013696  32.3477583  17.3892546  43.1640455  31.9969011
  18.9427708  38.3473555  37.8522198  18.8862909  38.8042106  37.0129830
  19.4956050  37.5864239  37.6745041  22.7532513  34.1363287  38.6772317
  22.4969448  33.7359922  39.5080525  22.1285381  34.8507081  38.5522457
  27.0644851  36.8759360  41.1843609  26.5044409  36.9452549  41.9575171
  26.4588355  36.7000344  40.4643105  10.1340060  48.3096087  42.9361795
  10.0172444  49.2541519  42.8340485   9.3132506  48.0069648  43.3247594
  20.0216595  43.0346223  33.7818388  20.8562199  42.6027421  33.5995863
  19.8600938  42.8628236  34.7095282  19.6762487  39.5378336  35.1474727
  19.6211291  39.3722607  34.2063171  19.0508542  40.2454369  35.3036917
   4.4655002  34.7746400  48.9736149   5.1113865  34.2645354  49.4623374
   4.2572153  35.5115082  49.5479575  16.9908394  41.8427248  54.4728290
  17.8599554  42.0167900  54.1114925  16.5115145  42.6621665  54.3504019
  12.9858612  29.0386445  34.7260045  12.9737282  29.9828285  34.8828316
  13.8782034  28.8556590  34.4319507  11.1594574  48.9624349  46.1517724
  12.0621821  48.9947959  46.4684218  10.9331944  48.0324800  46.1664059
  12.9148176  47.7155335  42.8127802  11.9643807  47.7157197  42.6992174
  13.2180662  46.9688070  42.2963837  16.8010732  25.6329222  38.9805982
  16.0343128  25.0787708  39.1262665  17.2121437  25.7051090  39.8420134
   8.8052493  31.9214017  53.0711164   9.6683954  31.5650822  53.2814488
   8.2317903  31.5827912  53.7586568  28.6500870  53.5515874  43.8773565
  29.2879280  53.4322621  43.1736905  28.5321713  54.4996718  43.9361517
  25.4590576  53.5043302  43.8135089  25.1209088  53.3884367  42.9255624
  26.3280344  53.1034467  43.7936095  21.3177392  55.3578778  39.8031980
  20.7542257  55.2668715  39.0348268  21.2029787  54.5378683  40.2834473
  25.9410359  54.6578154  49.7721295  25.9299000  54.2630952  48.9001798
  26.1030998  53.9244226  50.3655066  18.8641824  56.8529970  42.6416201
  19.6563116  56.5120795  42.2262500  19.1038474  56.9624945  43.5618354
  26.8976950  59.0249746  35.1146445  26.2464930  59.6103826  34.7280459
  27.6921313  59.5555941  35.1741483  20.8232578  56.1138883  35.5133579
  21.5963454  55.5667870  35.3746455  21.1757976  56.9783132  35.7248041
  22.6617620  57.4415265  48.7200479  22.3707486  58.3460896  48.6047145
  23.2974605  57.4831793  49.4344548  23.5873827  54.8192114  45.3101838
  24.1837399  54.5948136  44.5958801  23.6448799  54.0776859  45.9127286
  23.1598855  52.2731549  33.1452029  23.4124376  51.7513071  32.3835492
  22.2223415  52.1097695  33.2478713  28.2042138  51.2767328  40.9526773
  28.9905227  50.8586751  40.6017190  28.4680843  52.1813420  41.1208421
  28.3752216  56.7140178  35.6515429  27.7398049  56.7874804  36.3636334
  28.0449622  57.3033777  34.9734509  33.6050565  51.2142561  41.8559751
  34.3375737  50.6441778  42.0897581  32.8489921  50.8264161  42.2966257
  22.8795144  54.1759655  35.3476404  22.7631402  53.5004559  36.0157489
  22.9897404  53.6892029  34.5308557  25.2226685  53.6369802  39.0523094
  24.8584892  53.1100423  39.7636015  26.0793801  53.2468271  38.8789579
  31.1275986  44.9264135  46.3154360  30.7959310  45.7959546  46.0915575
  30.5321599  44.6100419  46.9948390  24.8632172  48.6659702  34.0484442
  25.0306574  49.5339938  34.4154913  24.6729341  48.8286984  33.1245731
  27.6207505  57.1276681  45.7150272  27.3208228  58.0301720  45.6066080
  27.2758565  56.8608864  46.5671425  21.0719987  53.5790478  41.7486977
  20.1470483  53.4466692  41.9564669  21.3204400  54.3584697  42.2456919
  31.0204649  49.6459221  43.3947710  30.1121526  49.5774630  43.1006471
  30.9692245  50.1231166  44.2229535  24.8421393  51.1217359  35.0331109
  24.7221018  51.5674410  35.8716589  24.1473981  51.4702677  34.4744647
  18.4328798  53.2223751  42.5830766  18.5621179  53.4758230  43.4970178
  17.7526249  53.8151459  42.2635421  22.6028285  63.8921001  38.6821240
  22.5252315  64.8428826  38.7609721  21.9989929  63.5466874  39.3396166
  25.0945515  51.0648867  51.3382607  24.3178849  51.6242787  51.3285472
  25.7336078  51.5505650  51.8597477  32.8866295  47.8475659  45.1725584
  32.2440676  48.1408193  44.5265378  32.3821224  47.7328580  45.9778780
  30.5406459  51.5938833  35.8611443  31.4524315  51.8266219  35.6859140
  30.0316106  52.1775877  35.2986522  23.3491887  53.8734320  50.9000574
  24.0906571  54.4119364  50.6235398  22.6428873  54.5000609  51.0572126
  28.8247227  56.0163461  49.4972736  29.2330583  55.5745871  48.7527368
  28.1024488  55.4416088  49.7506928  25.1778297  50.9536067  46.8706292
  26.0239492  51.3775481  47.0140941  25.1176934  50.2969692  47.5644856
  29.1476041  56.5764651  43.2525024  28.5184904  56.7410365  42.5501092
  28.7601703  56.9906261  44.0235988  33.0265273  57.5119089  40.6069388
  32.3416311  57.8917990  40.0566421  33.1109123  58.1214416  41.3401336
  28.3277742  48.6140436  48.5287466  28.0838674  49.3682496  47.9921742
  28.6037673  48.9925783  49.3634713  30.2816205  55.1579048  47.2064732
  30.4933100  55.8010808  46.5299113  30.2345953  54.3241365  46.7386662
  27.8842434  47.7696869  44.1101304  27.0226913  48.0678122  44.4018041
  27.9104869  47.9867268  43.1782336  24.7004003  56.3139059  40.5175109
  25.1642349  56.5926762  39.7279732  24.4360801  55.4122504  40.3348200
  21.5928084  55.8610541  43.4554873  22.1629441  56.2897809  42.8172357
  22.1836196  55.5793125  44.1539058  23.6372889  52.4362212  37.3264675
  24.3396933  52.8883255  37.7938601  23.3053518  51.7946030  37.9544568
  22.0853251  51.0273968  51.7015884  21.4551911  51.7090249  51.9351281
  21.9789339  50.9157050  50.7569022  17.3798223  50.6945764  42.6281808
  16.5897277  50.9503293  42.1521919  17.8709471  51.5094102  42.7333849
  31.3962033  58.0351003  45.3787089  32.2179477  57.6331191  45.0969771
  31.3924436  57.9319238  46.3303205  19.3312969  51.0590343  39.5865285
  18.5344132  51.1709038  40.1048781  19.1038561  51.3976996  38.7206175
  25.1618636  57.5835047  47.5347800  25.2263069  58.0455454  48.3705971
  24.4529560  56.9532412  47.6630109  15.6635926  50.9476255  45.0596799
  15.9143965  51.8323265  45.3254375  16.1995475  50.7680856  44.2871891
  39.4868026  54.3789752  41.7272060  38.7331734  53.8097150  41.5716065
  39.6215567  54.3452416  42.6742695  24.8766654  59.2503154  37.4026780
  24.7412329  60.0954690  37.8311628  25.4176466  59.4522432  36.6392714
  21.3633994  45.3294734  54.0641135  20.9700939  44.7760933  54.7388779
  22.1800134  45.6405313  54.4547653  18.3296051  56.7678592  37.9754705
  18.8420572  57.5621842  38.1260270  18.9818764  56.0704883  37.9088306
  20.1390936  59.8844349  40.0577458  20.3157564  60.8062313  39.8698442
  20.9347770  59.5702768  40.4871838  24.2801955  46.7452613  51.6561392
  25.0211668  47.3459766  51.5765854  24.5119877  46.0030251  51.0979434
  19.4243293  51.9308980  49.9339621  19.3096808  51.0294238  50.2346720
  18.5687810  52.1772677  49.5824438  26.5035130  59.8726721  51.5327122
  26.0598985  59.0863099  51.2148026  27.1652344  60.0605871  50.8671013
  21.2622252  61.4022522  46.0587800  21.8129677  61.2739586  45.2864794
  20.4233727  61.7017411  45.7082693  28.6016368  60.1529521  49.5608523
  28.5834844  60.9738402  49.0688792  29.5236288  60.0283596  49.7858664
  25.0589423  57.6673650  50.4032032  25.5917759  56.9061938  50.1731340
  24.5303504  57.3747302  51.1456186  28.2259118  42.7733716  45.9325673
  27.8823387  43.6635358  45.8564784  28.5938080  42.5835374  45.0695258
  16.2944968  55.0967247  38.7514275  17.1320190  55.5064255  38.5347983
  16.4723236  54.1566689  38.7214469  28.1909400  52.7642327  34.4398108
  27.6756024  53.5346932  34.6786496  27.9186709  52.0907463  35.0631170
  25.7756511  47.6092028  39.4983347  24.9198108  47.2198878  39.3188986
  26.1883463  47.6883989  38.6383132  27.3055658  45.1438371  43.8974907
  26.8020454  45.1068506  43.0842712  27.5986265  46.0531114  43.9571563
  23.5498544  45.2277101  42.9041088  24.4151541  45.0319910  42.5446978
  23.6176053  44.9987453  43.8310445  33.1643674  55.5174682  36.3751282
  32.3873117  55.1785841  35.9306444  33.8435155  55.5227305  35.7006247
  27.9795703  50.6369419  36.2657890  27.6745839  50.9515568  37.1168033
  28.9326146  50.7150839  36.3085223  26.4242135  56.7959643  37.9150844
  25.8963497  56.0612402  37.6024081  25.9229638  57.5734319  37.6690812
  31.4034981  54.9908663  43.0317890  30.7458656  55.6807924  43.1198019
  32.2075380  55.3805095  43.3751876  21.1560863  47.4579309  40.2757455
  21.7304615  47.2354490  39.5430648  21.7431845  47.5268003  41.0286056
  30.2140440  53.3453036  41.0821832  30.7272322  53.9783028  41.5843541
  30.8641664  52.7454231  40.7165192  21.4830450  49.4883770  34.2953340
  20.6467762  49.8258456  34.6162615  21.3435220  49.3532750  33.3580477
  23.4583531  44.3320558  39.0032525  22.8047943  44.0169575  38.3789139
  23.4164005  43.7096298  39.7292347  24.5694735  54.6139853  30.9185817
  23.6621797  54.3829106  31.1176966  25.0665767  53.8177472  31.1059798
  27.4762814  63.3237360  33.8382503  26.8024513  63.6269057  34.4467461
  27.8628636  64.1266440  33.4887960  26.6921271  50.8202491  43.3280172
  25.7743832  51.0417438  43.1701860  27.1081415  50.8948802  42.4691880
  27.4756319  52.2193907  38.4582852  28.2228138  52.7315304  38.1489974
  27.7447908  51.8977960  39.3187246  25.7482969  54.7152448  35.4409807
  24.8394188  54.4311481  35.5382276  25.7778053  55.1351526  34.5813114
  30.9802236  58.3259037  39.2100974  30.5264563  57.4849947  39.2666165
  30.3496203  58.9620436  39.5475754  29.9235156  49.2551023  40.4401642
  29.1857913  48.7428409  40.7711884  30.1761929  48.8151405  39.6284919
  29.4235176  60.1635534  40.1450792  29.7158150  60.7240591  39.4263158
  29.9333796  60.4564095  40.9003952  30.0246783  42.0327275  41.0343411
  30.3305660  41.1724639  40.7469326  30.7499388  42.6244895  40.8342405
  16.3171139  52.4357962  39.4225009  16.1195539  51.8427323  38.6976075
  15.7617803  52.1310172  40.1400948  24.2967863  52.3281068  41.5419602
  24.3516473  51.3754905  41.4662079  23.4859065  52.4840507  42.0260900
  25.4459057  56.2561191  32.7797885  25.0078487  55.5397050  32.3203523
  26.1869498  56.4837306  32.2182977  22.2360223  50.9458128  39.3009981
  21.4228088  51.2452299  39.7075173  22.7319217  50.5513817  40.0184463
  24.3868801  60.9415885  41.2344246  24.3444980  61.1676731  40.3052778
  25.3031500  60.7079260  41.3830047  27.8334435  51.4099953  48.1324875
  28.1883822  51.6371426  48.9919341  28.4806566  51.7418329  47.5102130
  33.5632171  54.5318388  38.8374204  33.4250070  54.7219984  37.9095393
  33.2068390  55.2937771  39.2942255  21.7274298  48.5176484  44.9171216
  22.3673677  48.3765243  44.2194179  20.8951828  48.2310997  44.5409818
  33.5901551  56.5994915  43.8485475  34.0238058  56.5070205  44.6968529
  34.3033132  56.5752416  43.2105491  22.5034602  57.8178914  41.0306208
  23.2975200  57.3229234  40.8288783  21.7926294  57.2896777  40.6673914
  27.3229446  60.1997010  45.3818576  27.3766468  60.7687946  46.1496292
  26.4544227  60.3698895  45.0172613  18.8117365  51.9621996  37.1065961
  17.8814953  51.9006451  37.3235923  18.9074837  51.4397949  36.3102602
  18.7302914  48.4876809  39.6944203  18.9909731  49.4022142  39.5853363
  19.5520086  48.0201251  39.8440815  20.2027839  49.9014566  46.8643027
  20.8750893  49.6931928  46.2155676  19.3757626  49.7036652  46.4248260
  34.4517101  56.6418616  46.3818361  34.6452991  57.5464427  46.6277636
  34.3517719  56.1826035  47.2156946  26.1053411  46.5276507  48.8808688
  25.4581326  47.2266456  48.7873164  26.8754427  46.9612651  49.2484936
  29.5132209  56.7925359  51.9559241  29.3617716  56.5635911  51.0389325
  29.5036889  57.7495960  51.9690586  26.2817546  54.3657272  46.9405508
  27.2109606  54.5168431  46.7674475  25.8608576  54.4541292  46.0854154
  25.0805877  58.3907936  44.7104045  24.9416963  58.0226720  45.5829984
  24.2920474  58.9055575  44.5388003  25.6754029  63.4917032  36.0529582
  25.8505785  63.0205076  36.8675205  24.9886817  64.1182799  36.2810843
  26.6311093  57.7689539  42.0992883  26.2960925  57.7290309  42.9950533
  26.1315038  57.1034255  41.6263293  20.6055337  53.1757169  47.6245464
  20.4675135  52.4437408  48.2257003  21.5160260  53.0866069  47.3429652
  29.5670284  55.1145573  32.3729943  28.9499455  54.3892401  32.2762996
  29.0986773  55.8754933  32.0297017  23.2337637  52.8877128  47.1129144
  23.9437256  52.2470320  47.0715762  23.1906945  53.1390023  48.0355325
  31.2224416  59.8244481  50.0335723  31.1636962  59.1403702  49.3666306
  31.6243934  60.5663471  49.5816349  21.9466571  49.8742346  48.9324783
  21.4103928  49.4233084  49.5846380  21.3583280  50.0088255  48.1895248
  20.2415115  66.6406395  42.8269442  20.4811713  67.2724919  43.5048461
  19.3984311  66.2894435  43.1134801  21.3568830  49.3330997  31.4951247
  20.4798297  49.2119798  31.1313494  21.8326583  48.5417076  31.2430136
  31.2241823  57.7884065  48.2649703  30.3368602  57.4509987  48.3876102
  31.7940374  57.0567097  48.5018468  12.8770970  54.1208157  41.5892754
  13.5642010  53.8069887  41.0013770  12.7219099  55.0249522  41.3160006
  17.6805692  49.0098354  46.0177778  17.5963881  48.4024023  45.2828188
  16.8588399  49.5007372  46.0187274  24.7542977  62.4485518  45.2310946
  24.6813148  63.2540489  45.7430251  24.3120370  62.6477484  44.4058967
  24.5432756  61.6857288  38.7413768  23.7600278  62.2278968  38.8351992
  25.2425501  62.2031267  39.1408009  27.8529406  47.4951917  41.3847973
  28.3498106  46.7421880  41.0649043  27.0816388  47.5316234  40.8191182
  35.7059164  53.1992283  43.0266265  35.6949040  54.0816998  42.6560198
  34.8376543  52.8463834  42.8320802  27.2141660  62.3472352  47.3869105
  27.9269632  62.9819817  47.3145006  26.7231689  62.4436218  46.5709107
  28.9359187  56.2523604  38.9586396  28.0015466  56.3725067  38.7891101
  29.1135856  55.3496071  38.6946406  24.4364375  49.6369300  41.1119658
  24.0662163  49.0840341  41.8000563  24.9323468  49.0327434  40.5594658
  32.3231738  52.0940924  39.4936431  32.7892191  52.9268915  39.4196733
  32.7739239  51.6285905  40.1981689  22.2653574  60.0966795  48.2074676
  22.9663033  60.7303278  48.3604070  21.7948689  60.4381527  47.4470315
  30.3907970  58.4384745  36.4922583  30.6667813  58.3241340  37.4016457
  29.5212468  58.0402230  36.4534756  30.2948401  44.4621511  43.5327332
  29.3811481  44.6925738  43.7009539  30.7241503  44.5459955  44.3841364
  30.0654860  52.6511403  46.0327226  29.4126310  52.8987310  45.3779679
  30.4435240  51.8375541  45.6989703  27.0262034  62.6871096  40.1355396
  27.2084428  61.8692752  40.5983149  27.8495020  62.9038788  39.6980286
  27.3604199  61.6139281  37.3970445  27.8891965  61.1031736  36.7840607
  27.6232419  61.2981811  38.2615978  26.1142433  53.3931214  52.5193263
  25.4383070  53.2925343  53.1895638  26.9370067  53.2370427  52.9829260
  17.8621292  59.6303150  45.1405778  18.4474729  58.8846838  45.2733682
  17.6646130  59.9407107  46.0242442  20.7159947  62.6654398  40.1568221
  20.0470322  63.1500525  39.6732261  20.5772817  62.9123618  41.0711599
  12.4538946  52.2008750  43.8610221  12.4923046  51.6672341  44.6547340
  11.9479239  51.6743956  43.2421199  24.8565216  64.6998141  46.7550879
  25.4083524  64.8629763  47.5199964  25.1971409  65.2902579  46.0830904
  19.8329709  47.0473291  47.3572764  19.8971035  47.9088122  46.9450161
  19.7696829  46.4347293  46.6245122  19.3081981  49.1196423  51.0045798
  19.9354020  48.7373501  51.6183322  18.4509900  48.9010625  51.3701490
  29.7076090  59.5259399  52.6099533  30.2515994  60.1389357  52.1154488
  29.1262935  60.0838977  53.1266546  16.0847524  50.9272853  36.9364153
  16.3800965  50.0183531  36.8831207  15.1835560  50.9060592  36.6145155
  27.9933603  62.6480117  43.7414561  27.8684742  61.8469857  43.2325507
  28.6512694  63.1426310  43.2528531  19.6141771  49.0028849  42.9191701
  18.8928357  49.6164817  42.7799175  20.4035027  49.5386614  42.8408347
  30.0568511  60.4489137  45.3694111  29.1098847  60.3294488  45.2972438
  30.4051284  59.5611635  45.4520373  22.4168085  46.3383276  49.1932353
  22.9402486  46.5845572  49.9558662  22.1980418  47.1703310  48.7735490
  17.8135366  48.6086950  37.0603478  17.4848072  47.7284329  36.8778584
  18.1674736  48.5534619  37.9479867  27.0614945  60.2441853  41.5698463
  26.9139907  59.3158560  41.7506034  27.8868438  60.2661944  41.0855539
  20.9277189  48.8959920  37.4278956  21.2673261  49.4245841  36.7057564
  21.3749309  49.2340326  38.2037522  30.6649066  61.0670412  42.6563336
  31.5895614  60.8613273  42.5187787  30.4964370  60.8186813  43.5652678
  23.6220630  47.2796971  46.8782024  23.2817450  46.4804784  47.2802704
  22.9159636  47.5798682  46.3058857  24.2737101  44.3646283  45.3309347
  25.0963171  43.8906761  45.2088237  24.5175165  45.1436767  45.8308033
  22.9145336  47.3934542  35.6272248  23.6353698  47.7715794  35.1235965
  22.2910640  48.1123418  35.7307226  27.0576459  48.0979691  36.5630581
  27.2740073  48.9804328  36.2619409  26.5770526  47.7065904  35.8336223
  21.7975680  51.0565404  43.1401325  21.6520261  51.3705707  44.0325607
  21.3200884  51.6750304  42.5872224  23.6572063  48.0467952  43.1882215
  23.6433632  47.1509045  42.8514513  24.3744491  48.0538616  43.8220501
  25.5098194  48.4805292  45.2335342  25.2515972  49.4022363  45.2319673
  24.9783234  48.0835727  45.9235806  30.4544383  61.5856079  38.0125428
  30.6281260  61.0202502  37.2599280  30.9473274  62.3856974  37.8304918
  16.2721342  53.5970748  46.0788987  15.7274810  54.3730556  46.2109261
  17.1500692  53.9441553  45.9208108  23.0608959  46.9282332  38.4569785
  23.1824870  45.9998978  38.6560673  22.7711001  46.9421018  37.5448100
  25.9300149  44.6137243  41.5936505  25.9521846  44.6776576  40.6388484
  26.3468208  43.7741751  41.7877011  36.3083774  54.3492502  39.6315727
  36.7514920  53.5999827  39.2334851  35.4310284  54.3402638  39.2489459
  31.4419555  60.9022844  35.1122326  32.1370460  61.5229536  35.3309641
  31.7842705  60.0518195  35.3874704  17.0587364  52.7240645  48.9719143
  16.3169100  52.8723280  49.5583774  16.7380109  52.9848910  48.1085893
  33.3410978  58.3522549  36.6409657  33.8662302  58.6909822  35.9158977
  33.2533331  57.4169564  36.4572791  25.0031027  62.2656623  48.7699533
  25.3118153  62.0205770  49.6422233  25.8006509  62.4703261  48.2818404
  25.0251639  64.4194532  41.0004910  24.5856629  63.9270911  41.6937767
  25.7759756  63.8767500  40.7596985  17.5043978  60.6106073  41.0029538
  18.3301998  60.3109845  40.6228182  17.1538030  59.8413696  41.4519327
  22.4725511  59.9632541  43.0727212  21.8505520  59.3003246  42.7729439
  23.1430378  59.9893673  42.3900859  15.7052583  58.5292400  41.9618472
  14.8684491  58.1014574  41.7802473  15.6776228  58.7224843  42.8989263
  22.5450039  48.4414329  52.6659718  22.5938194  49.3176452  52.2837487
  23.0872553  47.8991723  52.0931361  33.0304884  58.9855453  51.9460855
  32.2400428  58.9679592  51.4065354  32.7938239  59.5243746  52.7009891
  33.1502759  55.8347919  49.2593583  33.2000764  55.6697927  50.2009106
  33.0416683  54.9675178  48.8691464  22.0339018  58.5136465  36.5485672
  22.1827138  59.1971929  35.8952345  22.8405461  58.4941555  37.0635128
  30.4406522  51.8178847  50.5752890  31.3416384  51.6785312  50.2836888
  30.5154496  51.9833302  51.5151067  24.7749327  49.1945702  49.4206076
  23.9052636  49.4879268  49.1488665  25.0108807  49.7786147  50.1413340
  34.6520956  58.2544861  49.5035605  34.3605764  58.6174841  50.3399066
  34.0393087  57.5411869  49.3248937  35.8516638  55.8197740  42.0238175
  36.6863530  56.2587544  42.1875735  35.9875767  55.3436394  41.2046421
  32.9008144  53.3777475  47.9715663  33.3762266  53.5705122  47.1634514
  31.9773710  53.4336661  47.7259046  19.7891651  54.5401642  37.5546741
  19.5437693  53.6363972  37.7526951  19.9587565  54.5418793  36.6126219
  27.4788361  45.4125319  46.9371497  27.9970305  46.1486346  46.6117985
  27.1243494  45.7189312  47.7718256  19.0587298  50.2730000  35.0532903
  18.3656543  50.3474355  34.3972938  18.8139050  49.5090344  35.5754419
  27.7300955  41.8325601  42.4572393  28.0102709  41.1648790  43.0832820
  28.5151562  42.0254697  41.9447057  25.5334423  61.0084595  34.0197420
  24.9608391  61.6274782  33.5667891  26.1067217  61.5583957  34.5537342
  31.6009813  50.2543235  46.2043968  32.5527236  50.3541333  46.2256192
  31.4313264  49.4621504  46.7142053  29.6224193  47.3398819  46.3903369
  29.0274125  47.6203831  45.6949858  29.3373890  47.8292719  47.1620110
  28.7531683  61.2921745  35.1506002  29.6862356  61.2267307  35.3538877
  28.6654896  62.1278012  34.6920535  31.3819700  60.6087616  32.1109949
  31.3033331  60.2747479  33.0045707  32.2029367  61.1009384  32.1101422
  34.0797891  53.4749355  45.3186268  34.0474211  52.5365356  45.5045952
  34.6898515  53.5533392  44.5852093  25.9181222  52.3445408  31.3613472
  26.8640327  52.2151616  31.4301890  25.5395467  51.6060070  31.8382900
  34.2292380  50.2660398  45.3644551  33.7131428  49.4818855  45.1774480
  35.1132328  49.9379115  45.5291071  31.8903107  44.0101414  41.3240364
  31.6927928  43.7016502  42.2083696  32.5002812  44.7363053  41.4538294
  39.8974441  54.5365362  44.4592305  40.6277829  54.2750650  45.0200008
  39.2881386  53.7994084  44.4994373  37.9789738  52.6773224  45.0566756
  37.2522902  52.5429189  44.4483248  37.5637025  52.9850053  45.8623474
  25.8019915  56.3963154  52.8214129  26.7222924  56.5741753  53.0154176
  25.7669498  55.4519199  52.6693828  24.1024139  50.2695384  31.2968357
  23.1955595  49.9728497  31.3731071  24.3800120  49.9725202  30.4302644
  15.0202080  51.5901748  41.7467404  14.7004864  50.7367056  41.4541778
  14.4735508  51.8050326  42.5025371  18.7981987  54.3064189  45.4636910
  19.0167997  55.2381297  45.4824944  19.2107761  53.9472163  46.2491714
  25.7186205  44.8132274  37.4512599  24.9086933  44.4679359  37.8267845
  26.4070622  44.5039818  38.0400210  27.6476753  43.8910321  39.0736895
  28.2007792  44.3105774  39.7326918  27.8846840  42.9646069  39.1159851
  23.6709852  49.8797395  54.8539659  23.5706579  50.8291752  54.7851750
  23.4531394  49.5515633  53.9815729  22.8722924  47.1282320  31.4380336
  23.7342088  47.4537218  31.6976154  23.0573268  46.3413816  30.9253402
  14.8890340  55.2104659  43.7160525  14.1953811  54.7958612  43.2030480
  15.6363331  55.2525196  43.1193944  31.0255560  46.0010846  38.5815559
  30.4454229  46.6595650  38.1993612  30.7591493  45.1788191  38.1702977
  29.4759127  45.4015904  40.7836880  29.9758905  45.5132438  39.9751199
  30.1194735  45.0976957  41.4237688  23.5341122  53.3094533  53.6704721
  23.0508204  54.1094894  53.8768610  23.6202061  53.3202478  52.7172165
  16.8027082  55.1422913  41.5926540  16.7797770  55.2410600  40.6408423
  17.1127719  55.9888064  41.9143706  19.4614460  57.1999068  45.7073155
  20.4157713  57.1683010  45.6403086  19.2626984  56.7389692  46.5223380
  20.0513842  55.7700184  48.2743952  20.8706731  56.2644263  48.2978790
  20.3250650  54.8532152  48.2461520  29.8080438  48.1610936  37.6371908
  28.9206293  48.4460587  37.4192103  30.2234427  48.0004700  36.7899185
  33.1594974  48.1857457  41.3526247  33.9355365  48.6753910  41.6250864
  32.4343109  48.6115512  41.8098116  35.5967533  48.8985077  42.4100188
  36.1912024  48.6580813  41.6993496  35.6694117  48.1792207  43.0373724
  17.8164689  62.7418688  42.7243352  17.6819157  61.9819088  42.1581350
  17.3996751  63.4659587  42.2572141  28.9523652  57.9255611  31.7319928
  29.6559502  58.1305614  32.3477583  28.2286301  58.4932373  31.9969011
  29.7821462  53.6765472  37.8522198  29.7256663  54.1334024  37.0129830
  30.3349804  52.9156157  37.6745041  33.5926268  49.4655204  38.6772317
  33.3363202  49.0651840  39.5080525  32.9679136  50.1798998  38.5522457
  37.9038606  52.2051277  41.1843609  37.3438164  52.2744467  41.9575171
  37.2982109  52.0292262  40.4643105  20.9733815  63.6388005  42.9361795
  20.8566199  64.5833437  42.8340485  20.1526261  63.3361566  43.3247594
  30.8610349  58.3638140  33.7818388  31.6955953  57.9319339  33.5995863
  30.6994692  58.1920154  34.7095282  30.5156241  54.8670254  35.1474727
  30.4605045  54.7014525  34.2063171  29.8902297  55.5746287  35.3036917
  15.3048756  50.1038318  48.9736149  15.9507620  49.5937272  49.4623374
  15.0965907  50.8407000  49.5479575  27.8302149  57.1719165  54.4728290
  28.6993308  57.3459818  54.1114925  27.3508900  57.9913582  54.3504019
  23.8252367  44.3678363  34.7260045  23.8131037  45.3120203  34.8828316
  24.7175789  44.1848508  34.4319507  21.9988329  64.2916266  46.1517724
  22.9015575  64.3239877  46.4684218  21.7725699  63.3616717  46.1664059
  23.7541931  63.0447253  42.8127802  22.8037562  63.0449115  42.6992174
  24.0574417  62.2979988  42.2963837  27.6404486  40.9621139  38.9805982
  26.8736882  40.4079626  39.1262665  28.0515191  41.0343008  39.8420134
  19.6446247  47.2505935  53.0711164  20.5077709  46.8942740  53.2814488
  19.0711658  46.9119830  53.7586568  39.4894624  68.8807791  43.8773565
  40.1273034  68.7614539  43.1736905  39.3715467  69.8288635  43.9361517
  36.2984331  68.8335220  43.8135089  35.9602842  68.7176284  42.9255624
  37.1674099  68.4326385  43.7936095  32.1571146  70.6870696  39.8031980
  31.5936011  70.5960633  39.0348268  32.0423541  69.8670600  40.2834473
  36.7804114  69.9870071  49.7721295  36.7692754  69.5922870  48.9001798
  36.9424753  69.2536144  50.3655066  29.7035578  72.1821888  42.6416201
  30.4956870  71.8412712  42.2262500  29.9432228  72.2916863  43.5618354
  37.7370705  74.3541664  35.1146445  37.0858685  74.9395744  34.7280459
  38.5315068  74.8847859  35.1741483  31.6626332  71.4430801  35.5133579
  32.4357208  70.8959788  35.3746455  32.0151731  72.3075050  35.7248041
  33.5011375  72.7707183  48.7200479  33.2101241  73.6752814  48.6047145
  34.1368359  72.8123711  49.4344548  34.4267582  70.1484032  45.3101838
  35.0231154  69.9240054  44.5958801  34.4842553  69.4068777  45.9127286
  33.9992610  67.6023467  33.1452029  34.2518131  67.0804988  32.3835492
  33.0617169  67.4389612  33.2478713  39.0435893  66.6059245  40.9526773
  39.8298982  66.1878668  40.6017190  39.3074597  67.5105337  41.1208421
  39.2145970  72.0432096  35.6515429  38.5791803  72.1166722  36.3636334
  38.8843376  72.6325694  34.9734509  44.4444320  66.5434478  41.8559751
  45.1769492  65.9733695  42.0897581  43.6883676  66.1556079  42.2966257
  33.7188899  69.5051573  35.3476404  33.6025157  68.8296476  36.0157489
  33.8291159  69.0183947  34.5308557  36.0620440  68.9661720  39.0523094
  35.6978647  68.4392341  39.7636015  36.9187555  68.5760189  38.8789579
  41.9669740  60.2556053  46.3154360  41.6353065  61.1251464  46.0915575
  41.3715354  59.9392337  46.9948390  35.7025927  63.9951620  34.0484442
  35.8700329  64.8631856  34.4154913  35.5123096  64.1578901  33.1245731
  38.4601260  72.4568599  45.7150272  38.1601983  73.3593637  45.6066080
  38.1152319  72.1900782  46.5671425  31.9113741  68.9082395  41.7486977
  30.9864238  68.7758610  41.9564669  32.1598154  69.6876615  42.2456919
  41.8598404  64.9751139  43.3947710  40.9515281  64.9066547  43.1006471
  41.8085999  65.4523084  44.2229535  35.6815147  66.4509277  35.0331109
  35.5614773  66.8966328  35.8716589  34.9867736  66.7994595  34.4744647
  29.2722552  68.5515669  42.5830766  29.4014933  68.8050148  43.4970178
  28.5920004  69.1443377  42.2635421  33.4422040  79.2212919  38.6821240
  33.3646069  80.1720744  38.7609721  32.8383683  78.8758791  39.3396166
  35.9339269  66.3940784  51.3382607  35.1572603  66.9534704  51.3285472
  36.5729832  66.8797567  51.8597477  43.7260050  63.1767577  45.1725584
  43.0834430  63.4700110  44.5265378  43.2214978  63.0620497  45.9778780
  41.3800214  66.9230750  35.8611443  42.2918070  67.1558137  35.6859140
  40.8709861  67.5067795  35.2986522  34.1885642  69.2026238  50.9000574
  34.9300326  69.7411282  50.6235398  33.4822627  69.8292526  51.0572126
  39.6640981  71.3455378  49.4972736  40.0724337  70.9037789  48.7527368
  38.9418243  70.7708006  49.7506928  36.0172051  66.2827985  46.8706292
  36.8633246  66.7067399  47.0140941  35.9570689  65.6261609  47.5644856
  39.9869796  71.9056569  43.2525024  39.3578658  72.0702283  42.5501092
  39.5995458  72.3198178  44.0235988  43.8659028  72.8411007  40.6069388
  43.1810066  73.2209908  40.0566421  43.9502877  73.4506333  41.3401336
  39.1671497  63.9432353  48.5287466  38.9232429  64.6974414  47.9921742
  39.4431427  64.3217701  49.3634713  41.1209959  70.4870966  47.2064732
  41.3326855  71.1302726  46.5299113  41.0739708  69.6533282  46.7386662
  38.7236188  63.0988786  44.1101304  37.8620667  63.3970040  44.4018041
  38.7498623  63.3159185  43.1782336  35.5397758  71.6430977  40.5175109
  36.0036103  71.9218680  39.7279732  35.2754556  70.7414421  40.3348200
  32.4321839  71.1902458  43.4554873  33.0023196  71.6189727  42.8172357
  33.0229951  70.9085043  44.1539058  34.4766644  67.7654129  37.3264675
  35.1790687  68.2175173  37.7938601  34.1447272  67.1237948  37.9544568
  32.9247005  66.3565886  51.7015884  32.2945666  67.0382167  51.9351281
  32.8183093  66.2448967  50.7569022  28.2191978  66.0237682  42.6281808
  27.4291032  66.2795210  42.1521919  28.7103225  66.8386020  42.7333849
  42.2355787  73.3642921  45.3787089  43.0573231  72.9623108  45.0969771
  42.2318190  73.2611155  46.3303205  30.1706723  66.3882261  39.5865285
  29.3737886  66.5000955  40.1048781  29.9432315  66.7268913  38.7206175
  36.0012391  72.9126964  47.5347800  36.0656823  73.3747372  48.3705971
  35.2923315  72.2824329  47.6630109  26.5029681  66.2768172  45.0596799
  26.7537719  67.1615182  45.3254375  27.0389229  66.0972774  44.2871891
  35.7160408  74.5795072  37.4026780  35.5806083  75.4246608  37.8311628
  36.2570221  74.7814350  36.6392714  32.2027748  60.6586652  54.0641135
  31.8094694  60.1052850  54.7388779  33.0193888  60.9697230  54.4547653
  29.1689806  72.0970510  37.9754705  29.6814326  72.8913760  38.1260270
  29.8212519  71.3996800  37.9088306  30.9784691  75.2136266  40.0577458
  31.1551319  76.1354231  39.8698442  31.7741524  74.8994685  40.4871838
  35.1195709  62.0744531  51.6561392  35.8605422  62.6751684  51.5765854
  35.3513632  61.3322169  51.0979434  30.2637047  67.2600898  49.9339621
  30.1490562  66.3586155  50.2346720  29.4081565  67.5064595  49.5824438
  37.3428885  75.2018638  51.5327122  36.8992739  74.4155017  51.2148026
  38.0046098  75.3897789  50.8671013  32.1016006  76.7314440  46.0587800
  32.6523431  76.6031503  45.2864794  31.2627482  77.0309329  45.7082693
  39.4410123  75.4821438  49.5608523  39.4228598  76.3030319  49.0688792
  40.3630043  75.3575514  49.7858664  35.8983177  72.9965568  50.4032032
  36.4311514  72.2353856  50.1731340  35.3697258  72.7039220  51.1456186
  39.0652872  58.1025634  45.9325673  38.7217141  58.9927275  45.8564784
  39.4331835  57.9127291  45.0695258  27.1338723  70.4259164  38.7514275
  27.9713945  70.8356173  38.5347983  27.3116990  69.4858606  38.7214469
  39.0303155  68.0934245  34.4398108  38.5149778  68.8638850  34.6786496
  38.7580463  67.4199381  35.0631170  36.6150266  62.9383946  39.4983347
  35.7591862  62.5490796  39.3188986  37.0277218  63.0175906  38.6383132
  38.1449412  60.4730289  43.8974907  37.6414208  60.4360424  43.0842712
  38.4380019  61.3823032  43.9571563  34.3892298  60.5569019  42.9041088
  35.2545295  60.3611827  42.5446978  34.4569807  60.3279370  43.8310445
  44.0037429  70.8466600  36.3751282  43.2266872  70.5077759  35.9306444
  44.6828910  70.8519223  35.7006247  38.8189458  65.9661337  36.2657890
  38.5139593  66.2807486  37.1168033  39.7719900  66.0442757  36.3085223
  37.2635890  72.1251560  37.9150844  36.7357251  71.3904320  37.6024081
  36.7623392  72.9026237  37.6690812  42.2428736  70.3200581  43.0317890
  41.5852410  71.0099842  43.1198019  43.0469135  70.7097013  43.3751876
  31.9954617  62.7871227  40.2757455  32.5698369  62.5646408  39.5430648
  32.5825600  62.8559921  41.0286056  41.0534195  68.6744953  41.0821832
  41.5666076  69.3074945  41.5843541  41.7035418  68.0746149  40.7165192
  32.3224204  64.8175688  34.2953340  31.4861517  65.1550374  34.6162615
  32.1828974  64.6824667  33.3580477  34.2977285  59.6612475  39.0032525
  33.6441697  59.3461493  38.3789139  34.2557759  59.0388216  39.7292347
  35.4088490  69.9431771  30.9185817  34.5015552  69.7121024  31.1176966
  35.9059522  69.1469390  31.1059798  38.3156569  78.6529278  33.8382503
  37.6418268  78.9560974  34.4467461  38.7022391  79.4558358  33.4887960
  37.5315025  66.1494409  43.3280172  36.6137587  66.3709356  43.1701860
  37.9475169  66.2240719  42.4691880  38.3150073  67.5485825  38.4582852
  39.0621892  68.0607222  38.1489974  38.5841663  67.2269877  39.3187246
  36.5876723  70.0444365  35.4409807  35.6787943  69.7603398  35.5382276
  36.6171807  70.4643444  34.5813114  41.8195991  73.6550955  39.2100974
  41.3658318  72.8141865  39.2666165  41.1889957  74.2912353  39.5475754
  40.7628910  64.5842941  40.4401642  40.0251667  64.0720327  40.7711884
  41.0155684  64.1443323  39.6284919  40.2628930  75.4927452  40.1450792
  40.5551904  76.0532509  39.4263158  40.7727551  75.7856013  40.9003952
  40.8640538  57.3619193  41.0343411  41.1699414  56.5016556  40.7469326
  41.5893142  57.9536813  40.8342405  27.1564894  67.7649880  39.4225009
  26.9589294  67.1719240  38.6976075  26.6011558  67.4602090  40.1400948
  35.1361617  67.6572986  41.5419602  35.1910227  66.7046822  41.4662079
  34.3252819  67.8132425  42.0260900  36.2852811  71.5853109  32.7797885
  35.8472241  70.8688968  32.3203523  37.0263252  71.8129224  32.2182977
  33.0753977  66.2750046  39.3009981  32.2621843  66.5744216  39.7075173
  33.5712972  65.8805735  40.0184463  35.2262555  76.2707803  41.2344246
  35.1838734  76.4968649  40.3052778  36.1425254  76.0371177  41.3830047
  38.6728189  66.7391870  48.1324875  39.0277577  66.9663343  48.9919341
  39.3200320  67.0710247  47.5102130  44.4025926  69.8610306  38.8374204
  44.2643825  70.0511902  37.9095393  44.0462145  70.6229689  39.2942255
  32.5668052  63.8468401  44.9171216  33.2067431  63.7057160  44.2194179
  31.7345583  63.5602915  44.5409818  44.4295306  71.9286833  43.8485475
  44.8631812  71.8362122  44.6968529  45.1426886  71.9044334  43.2105491
  33.3428356  73.1470832  41.0306208  34.1368954  72.6521152  40.8288783
  32.6320048  72.6188695  40.6673914  38.1623200  75.5288927  45.3818576
  38.2160223  76.0979864  46.1496292  37.2937982  75.6990812  45.0172613
  29.6511119  67.2913913  37.1065961  28.7208708  67.2298369  37.3235923
  29.7468591  66.7689866  36.3102602  29.5696669  63.8168726  39.6944203
  29.8303486  64.7314060  39.5853363  30.3913841  63.3493169  39.8440815
  31.0421594  65.2306483  46.8643027  31.7144647  65.0223846  46.2155676
  30.2151380  65.0328569  46.4248260  45.2910855  71.9710534  46.3818361
  45.4846745  72.8756344  46.6277636  45.1911473  71.5117953  47.2156946
  36.9447166  61.8568424  48.8808688  36.2975081  62.5558374  48.7873164
  37.7148181  62.2904568  49.2484936  40.3525964  72.1217277  51.9559241
  40.2011470  71.8927828  51.0389325  40.3430643  73.0787878  51.9690586
  37.1211300  69.6949189  46.9405508  38.0503360  69.8460349  46.7674475
  36.7002330  69.7833210  46.0854154  35.9199632  73.7199854  44.7104045
  35.7810718  73.3518638  45.5829984  35.1314228  74.2347493  44.5388003
  36.5147784  78.8208950  36.0529582  36.6899540  78.3496993  36.8675205
  35.8280572  79.4474716  36.2810843  37.4704847  73.0981456  42.0992883
  37.1354680  73.0582226  42.9950533  36.9708793  72.4326172  41.6263293
  31.4449091  68.5049086  47.6245464  31.3068889  67.7729325  48.2257003
  32.3554015  68.4157987  47.3429652  40.4064039  70.4437491  32.3729943
  39.7893209  69.7184319  32.2762996  39.9380527  71.2046851  32.0297017
  34.0731392  68.2169046  47.1129144  34.7831010  67.5762238  47.0715762
  34.0300700  68.4681941  48.0355325  42.0618170  75.1536399  50.0335723
  42.0030717  74.4695619  49.3666306  42.4637689  75.8955389  49.5816349
  32.7860326  65.2034264  48.9324783  32.2497683  64.7525002  49.5846380
  32.1977034  65.3380172  48.1895248  31.0808869  81.9698313  42.8269442
  31.3205467  82.6016837  43.5048461  30.2378066  81.6186353  43.1134801
  32.1962585  64.6622915  31.4951247  31.3192051  64.5411716  31.1313494
  32.6720338  63.8708993  31.2430136  42.0635578  73.1175983  48.2649703
  41.1762356  72.7801905  48.3876102  42.6334129  72.3859014  48.5018468
  23.7164725  69.4500075  41.5892754  24.4035765  69.1361805  41.0013770
  23.5612854  70.3541439  41.3160006  28.5199447  64.3390271  46.0177778
  28.4357636  63.7315941  45.2828188  27.6982153  64.8299290  46.0187274
  35.5936731  77.7777435  45.2310946  35.5206903  78.5832407  45.7430251
  35.1514124  77.9769401  44.4058967  35.3826511  77.0149205  38.7413768
  34.5994033  77.5570886  38.8351992  36.0819256  77.5323185  39.1408009
  38.6923161  62.8243835  41.3847973  39.1891860  62.0713797  41.0649043
  37.9210142  62.8608152  40.8191182  46.5452918  68.5284200  43.0266265
  46.5342794  69.4108916  42.6560198  45.6770298  68.1755751  42.8320802
  38.0535415  77.6764269  47.3869105  38.7663387  78.3111734  47.3145006
  37.5625443  77.7728135  46.5709107  39.7752942  71.5815522  38.9586396
  38.8409220  71.7016985  38.7891101  39.9529610  70.6787989  38.6946406
  35.2758130  64.9661218  41.1119658  34.9055917  64.4132258  41.8000563
  35.7717222  64.3619351  40.5594658  43.1625493  67.4232841  39.4936431
  43.6285945  68.2560833  39.4196733  43.6132993  66.9577823  40.1981689
  33.1047328  75.4258713  48.2074676  33.8056788  76.0595196  48.3604070
  32.6342443  75.7673444  47.4470315  41.2301724  73.7676663  36.4922583
  41.5061568  73.6533257  37.4016457  40.3606223  73.3694148  36.4534756
  41.1342156  59.7913428  43.5327332  40.2205235  60.0217655  43.7009539
  41.5635257  59.8751872  44.3841364  40.9048614  67.9803320  46.0327226
  40.2520064  68.2279228  45.3779679  41.2828994  67.1667459  45.6989703
  37.8655788  78.0163013  40.1355396  38.0478183  77.1984669  40.5983149
  38.6888774  78.2330706  39.6980286  38.1997954  76.9431199  37.3970445
  38.7285720  76.4323653  36.7840607  38.4626173  76.6273729  38.2615978
  36.9536187  68.7223131  52.5193263  36.2776824  68.6217261  53.1895638
  37.7763821  68.5662345  52.9829260  28.7015046  74.9595068  45.1405778
  29.2868483  74.2138756  45.2733682  28.5039885  75.2699025  46.0242442
  31.5553701  77.9946315  40.1568221  30.8864077  78.4792443  39.6732261
  31.4166571  78.2415536  41.0711599  23.2932701  67.5300668  43.8610221
  23.3316800  66.9964259  44.6547340  22.7872994  67.0035874  43.2421199
  35.6958970  80.0290059  46.7550879  36.2477278  80.1921680  47.5199964
  36.0365163  80.6194497  46.0830904  30.6723463  62.3765209  47.3572764
  30.7364790  63.2380040  46.9450161  30.6090584  61.7639210  46.6245122
  30.1475736  64.4488341  51.0045798  30.7747775  64.0665418  51.6183322
  29.2903655  64.2302543  51.3701490  40.5469844  74.8551316  52.6099533
  41.0909748  75.4681275  52.1154488  39.9656689  75.4130895  53.1266546
  26.9241279  66.2564770  36.9364153  27.2194720  65.3475449  36.8831207
  26.0229314  66.2352510  36.6145155  38.8327357  77.9772034  43.7414561
  38.7078497  77.1761774  43.2325507  39.4906448  78.4718228  43.2528531
  30.4535526  64.3320767  42.9191701  29.7322111  64.9456735  42.7799175
  31.2428781  64.8678532  42.8408347  40.8962266  75.7781054  45.3694111
  39.9492601  75.6586406  45.2972438  41.2445039  74.8903552  45.4520373
  33.2561839  61.6675193  49.1932353  33.7796241  61.9137490  49.9558662
  33.0374172  62.4995228  48.7735490  28.6529120  63.9378868  37.0603478
  28.3241826  63.0576247  36.8778584  29.0068491  63.8826537  37.9479867
  37.9008699  75.5733771  41.5698463  37.7533661  74.6450478  41.7506034
  38.7262193  75.5953861  41.0855539  31.7670943  64.2251838  37.4278956
  32.1067016  64.7537759  36.7057564  32.2143064  64.5632244  38.2037522
  41.5042821  76.3962329  42.6563336  42.4289368  76.1905191  42.5187787
  41.3358124  76.1478731  43.5652678  34.4614384  62.6088888  46.8782024
  34.1211204  61.8096702  47.2802704  33.7553390  62.9090599  46.3058857
  35.1130856  59.6938201  45.3309347  35.9356925  59.2198679  45.2088237
  35.3568919  60.4728685  45.8308033  33.7539090  62.7226459  35.6272248
  34.4747453  63.1007712  35.1235965  33.1304395  63.4415336  35.7307226
  37.8970213  63.4271608  36.5630581  38.1133828  64.3096246  36.2619409
  37.4164280  63.0357822  35.8336223  32.6369435  66.3857322  43.1401325
  32.4914015  66.6997625  44.0325607  32.1594638  67.0042222  42.5872224
  34.4965818  63.3759870  43.1882215  34.4827386  62.4800963  42.8514513
  35.2138246  63.3830533  43.8220501  36.3491948  63.8097210  45.2335342
  36.0909726  64.7314280  45.2319673  35.8176989  63.4127644  45.9235806
  41.2938137  76.9147997  38.0125428  41.4675015  76.3494419  37.2599280
  41.7867028  77.7148892  37.8304918  27.1115097  68.9262666  46.0788987
  26.5668565  69.7022474  46.2109261  27.9894447  69.2733470  45.9208108
  33.9002714  62.2574250  38.4569785  34.0218625  61.3290896  38.6560673
  33.6104756  62.2712936  37.5448100  36.7693904  59.9429160  41.5936505
  36.7915601  60.0068493  40.6388484  37.1861963  59.1033669  41.7877011
  47.1477528  69.6784420  39.6315727  47.5908674  68.9291745  39.2334851
  46.2704039  69.6694556  39.2489459  42.2813310  76.2314761  35.1122326
  42.9764214  76.8521454  35.3309641  42.6236460  75.3810112  35.3874704
  27.8981119  68.0532562  48.9719143  27.1562855  68.2015198  49.5583774
  27.5773863  68.3140828  48.1085893  44.1804733  73.6814467  36.6409657
  44.7056057  74.0201740  35.9158977  44.0927085  72.7461482  36.4572791
  35.8424781  77.5948540  48.7699533  36.1511908  77.3497687  49.6422233
  36.6400263  77.7995179  48.2818404  35.8645393  79.7486450  41.0004910
  35.4250384  79.2562829  41.6937767  36.6153510  79.2059418  40.7596985
  28.3437732  75.9397991  41.0029538  29.1695752  75.6401763  40.6228182
  27.9931784  75.1705613  41.4519327  33.3119266  75.2924459  43.0727212
  32.6899275  74.6295164  42.7729439  33.9824132  75.3185591  42.3900859
  26.5446337  73.8584317  41.9618472  25.7078246  73.4306492  41.7802473
  26.5169983  74.0516761  42.8989263  33.3843793  63.7706247  52.6659718
  33.4331949  64.6468370  52.2837487  33.9266307  63.2283640  52.0931361
  43.8698639  74.3147370  51.9460855  43.0794182  74.2971509  51.4065354
  43.6331993  74.8535664  52.7009891  43.9896514  71.1639837  49.2593583
  44.0394519  70.9989844  50.2009106  43.8810437  70.2967096  48.8691464
  32.8732772  73.8428382  36.5485672  33.0220893  74.5263847  35.8952345
  33.6799216  73.8233473  37.0635128  41.2800276  67.1470765  50.5752890
  42.1810139  67.0077230  50.2836888  41.3548251  67.3125220  51.5151067
  35.6143081  64.5237620  49.4206076  34.7446391  64.8171186  49.1488665
  35.8502562  65.1078065  50.1413340  45.4914711  73.5836778  49.5035605
  45.1999519  73.9466759  50.3399066  44.8786842  72.8703787  49.3248937
  46.6910393  71.1489658  42.0238175  47.5257284  71.5879462  42.1875735
  46.8269522  70.6728311  41.2046421  43.7401899  68.7069393  47.9715663
  44.2156020  68.8997039  47.1634514  42.8167464  68.7628579  47.7259046
  30.6285405  69.8693560  37.5546741  30.3831447  68.9655890  37.7526951
  30.7981320  69.8710711  36.6126219  38.3182115  60.7417236  46.9371497
  38.8364059  61.4778263  46.6117985  37.9637248  61.0481230  47.7718256
  29.8981053  65.6021918  35.0532903  29.2050298  65.6766273  34.3972938
  29.6532805  64.8382261  35.5754419  38.5694709  57.1617519  42.4572393
  38.8496463  56.4940708  43.0832820  39.3545316  57.3546615  41.9447057
  36.3728178  76.3376513  34.0197420  35.8002145  76.9566700  33.5667891
  36.9460972  76.8875875  34.5537342  42.4403568  65.5835153  46.2043968
  43.3920991  65.6833251  46.2256192  42.2707018  64.7913422  46.7142053
  40.4617947  62.6690736  46.3903369  39.8667879  62.9495749  45.6949858
  40.1767644  63.1584637  47.1620110  39.5925438  76.6213663  35.1506002
  40.5256111  76.5559225  35.3538877  39.5048651  77.4569930  34.6920535
  42.2213454  75.9379533  32.1109949  42.1427086  75.6039397  33.0045707
  43.0423121  76.4301301  32.1101422  44.9191646  68.8041273  45.3186268
  44.8867966  67.8657273  45.5045952  45.5292269  68.8825309  44.5852093
  36.7574976  67.6737326  31.3613472  37.7034081  67.5443534  31.4301890
  36.3789221  66.9351988  31.8382900  45.0686134  65.5952316  45.3644551
  44.5525183  64.8110773  45.1774480  45.9526083  65.2671033  45.5291071
  42.7296861  59.3393332  41.3240364  42.5321682  59.0308420  42.2083696
  43.3396567  60.0654971  41.4538294  50.7368195  69.8657280  44.4592305
  51.4671584  69.6042568  45.0200008  50.1275141  69.1286001  44.4994373
  48.8183493  68.0065142  45.0566756  48.0916656  67.8721107  44.4483248
  48.4030779  68.3141971  45.8623474  36.6413669  71.7255072  52.8214129
  37.5616678  71.9033671  53.0154176  36.6063252  70.7811117  52.6693828
  34.9417894  65.5987302  31.2968357  34.0349349  65.3020415  31.3731071
  35.2193875  65.3017120  30.4302644  25.8595834  66.9193665  41.7467404
  25.5398618  66.0658974  41.4541778  25.3129262  67.1342244  42.5025371
  29.6375742  69.6356106  45.4636910  29.8561751  70.5673214  45.4824944
  30.0501515  69.2764081  46.2491714  36.5579959  60.1424192  37.4512599
  35.7480688  59.7971277  37.8267845  37.2464376  59.8331736  38.0400210
  38.4870508  59.2202239  39.0736895  39.0401546  59.6397692  39.7326918
  38.7240594  58.2937987  39.1159851  34.5103607  65.2089312  54.8539659
  34.4100334  66.1583669  54.7851750  34.2925149  64.8807551  53.9815729
  33.7116678  62.4574237  31.4380336  34.5735842  62.7829136  31.6976154
  33.8967022  61.6705733  30.9253402  25.7284094  70.5396577  43.7160525
  25.0347565  70.1250530  43.2030480  26.4757085  70.5817113  43.1193944
  41.8649315  61.3302764  38.5815559  41.2847984  61.9887568  38.1993612
  41.5985247  60.5080108  38.1702977  40.3152881  60.7307821  40.7836880
  40.8152659  60.8424356  39.9751199  40.9588489  60.4268874  41.4237688
  34.3734877  68.6386451  53.6704721  33.8901959  69.4386811  53.8768610
  34.4595816  68.6494396  52.7172165  27.6420837  70.4714831  41.5926540
  27.6191525  70.5702518  40.6408423  27.9521473  71.3179982  41.9143706
  30.3008214  72.5290986  45.7073155  31.2551468  72.4974928  45.6403086
  30.1020738  72.0681610  46.5223380  30.8907597  71.0992102  48.2743952
  31.7100486  71.5936180  48.2978790  31.1644404  70.1824070  48.2461520
  40.6474193  63.4902854  37.6371908  39.7600048  63.7752505  37.4192103
  41.0628182  63.3296617  36.7899185  43.9988729  63.5149375  41.3526247
  44.7749119  64.0045828  41.6250864  43.2736863  63.9407429  41.8098116
  46.4361288  64.2276994  42.4100188  47.0305778  63.9872730  41.6993496
  46.5087871  63.5084125  43.0373724  28.6558443  78.0710605  42.7243352
  28.5212911  77.3111006  42.1581350  28.2390505  78.7951505  42.2572141
  39.7917406  73.2547529  31.7319928  40.4953256  73.4597531  32.3477583
  39.0680055  73.8224291  31.9969011  40.6215217  69.0057390  37.8522198
  40.5650418  69.4625941  37.0129830  41.1743559  68.2448075  37.6745041
  44.4320022  64.7947122  38.6772317  44.1756957  64.3943758  39.5080525
  43.8072890  65.5090916  38.5522457  48.7432360  67.5343195  41.1843609
  48.1831918  67.6036384  41.9575171  48.1375864  67.3584180  40.4643105
  31.8127569  78.9679922  42.9361795  31.6959953  79.9125355  42.8340485
  30.9920015  78.6653484  43.3247594  41.7004104  73.6930058  33.7818388
  42.5349708  73.2611256  33.5995863  41.5388447  73.5212072  34.7095282
  41.3549996  70.1962171  35.1474727  41.2998800  70.0306443  34.2063171
  40.7296051  70.9038204  35.3036917  26.1442511  65.4330236  48.9736149
  26.7901374  64.9229190  49.4623374  25.9359662  66.1698917  49.5479575
  38.6695903  72.5011083  54.4728290  39.5387063  72.6751735  54.1114925
  38.1902654  73.3205500  54.3504019  34.6646121  59.6970280  34.7260045
  34.6524791  60.6412120  34.8828316  35.5569543  59.5140426  34.4319507
  32.8382083  79.6208184  46.1517724  33.7409330  79.6531794  46.4684218
  32.6119453  78.6908635  46.1664059  34.5935685  78.3739171  42.8127802
  33.6431316  78.3741032  42.6992174  34.8968171  77.6271905  42.2963837
  38.4798241  56.2913057  38.9805982  37.7130637  55.7371544  39.1262665
  38.8908946  56.3634926  39.8420134  30.4840002  62.5797853  53.0711164
  31.3471463  62.2234658  53.2814488  29.9105412  62.2411748  53.7586568
  50.3288379  84.2099709  43.8773565  50.9666789  84.0906456  43.1736905
  50.2109222  85.1580553  43.9361517  47.1378085  84.1627137  43.8135089
  46.7996597  84.0468202  42.9255624  48.0067853  83.7618302  43.7936095
  42.9964901  86.0162614  39.8031980  42.4329766  85.9252551  39.0348268
  42.8817296  85.1962518  40.2834473  47.6197868  85.3161989  49.7721295
  47.6086509  84.9214787  48.9001798  47.7818507  84.5828062  50.3655066
  40.5429333  87.5113805  42.6416201  41.3350625  87.1704630  42.2262500
  40.7825983  87.6208780  43.5618354  48.5764459  89.6833581  35.1146445
  47.9252439  90.2687662  34.7280459  49.3708822  90.2139776  35.1741483
  42.5020087  86.7722718  35.5133579  43.2750963  86.2251706  35.3746455
  42.8545485  87.6366968  35.7248041  44.3405129  88.0999101  48.7200479
  44.0494995  89.0044732  48.6047145  44.9762113  88.1415628  49.4344548
  45.2661336  85.4775949  45.3101838  45.8624908  85.2531972  44.5958801
  45.3236308  84.7360695  45.9127286  44.8386364  82.9315385  33.1452029
  45.0911885  82.4096906  32.3835492  43.9010923  82.7681530  33.2478713
  49.8829647  81.9351163  40.9526773  50.6692736  81.5170586  40.6017190
  50.1468352  82.8397255  41.1208421  50.0539725  87.3724013  35.6515429
  49.4185558  87.4458640  36.3636334  49.7237131  87.9617612  34.9734509
  44.5582653  84.8343491  35.3476404  44.4418911  84.1588394  36.0157489
  44.6684913  84.3475864  34.5308557  46.9014194  84.2953638  39.0523094
  46.5372401  83.7684259  39.7636015  47.7581310  83.9052107  38.8789579
  46.5419681  79.3243537  34.0484442  46.7094083  80.1923774  34.4154913
  46.3516850  79.4870819  33.1245731  49.2995014  87.7860516  45.7150272
  48.9995737  88.6885555  45.6066080  48.9546074  87.5192699  46.5671425
  42.7507496  84.2374313  41.7486977  41.8257992  84.1050527  41.9564669
  42.9991909  85.0168532  42.2456919  52.6992158  80.3043056  43.3947710
  51.7909035  80.2358465  43.1006471  52.6479754  80.7815001  44.2229535
  46.5208902  81.7801195  35.0331109  46.4008527  82.2258246  35.8716589
  45.8261490  82.1286513  34.4744647  40.1116307  83.8807587  42.5830766
  40.2408688  84.1342066  43.4970178  39.4313758  84.4735295  42.2635421
  44.2815794  94.5504837  38.6821240  44.2039824  95.5012662  38.7609721
  43.6777438  94.2050709  39.3396166  52.2193968  82.2522668  35.8611443
  53.1311824  82.4850055  35.6859140  51.7103615  82.8359712  35.2986522
  50.5034736  86.6747296  49.4972736  50.9118092  86.2329706  48.7527368
  49.7811997  86.0999923  49.7506928  46.8565806  81.6119903  46.8706292
  47.7027001  82.0359316  47.0140941  46.7964443  80.9553527  47.5644856
  50.8263550  87.2348486  43.2525024  50.1972413  87.3994201  42.5501092
  50.4389212  87.6490096  44.0235988  54.7052782  88.1702924  40.6069388
  54.0203820  88.5501826  40.0566421  54.7896632  88.7798251  41.3401336
  50.0065251  79.2724271  48.5287466  49.7626183  80.0266332  47.9921742
  50.2825182  79.6509619  49.3634713  51.9603714  85.8162883  47.2064732
  52.1720609  86.4594643  46.5299113  51.9133462  84.9825200  46.7386662
  49.5629943  78.4280704  44.1101304  48.7014422  78.7261958  44.4018041
  49.5892378  78.6451103  43.1782336  46.3791512  86.9722895  40.5175109
  46.8429858  87.2510598  39.7279732  46.1148310  86.0706339  40.3348200
  43.2715593  86.5194376  43.4554873  43.8416950  86.9481644  42.8172357
  43.8623705  86.2376961  44.1539058  45.3160398  83.0946047  37.3264675
  46.0184442  83.5467091  37.7938601  44.9841027  82.4529866  37.9544568
  43.7640760  81.6857804  51.7015884  43.1339420  82.3674084  51.9351281
  43.6576848  81.5740885  50.7569022  39.0585732  81.3529600  42.6281808
  38.2684786  81.6087128  42.1521919  39.5496980  82.1677937  42.7333849
  53.0749542  88.6934839  45.3787089  53.8966986  88.2915026  45.0969771
  53.0711945  88.5903073  46.3303205  41.0100478  81.7174179  39.5865285
  40.2131641  81.8292873  40.1048781  40.7826070  82.0560831  38.7206175
  46.8406145  88.2418882  47.5347800  46.9050578  88.7039289  48.3705971
  46.1317069  87.6116247  47.6630109  37.3423435  81.6060090  45.0596799
  37.5931474  82.4907100  45.3254375  37.8782984  81.4264692  44.2871891
  46.5554163  89.9086990  37.4026780  46.4199838  90.7538525  37.8311628
  47.0963975  90.1106267  36.6392714  43.0421503  75.9878569  54.0641135
  42.6488448  75.4344768  54.7388779  43.8587643  76.2989148  54.4547653
  40.0083560  87.4262428  37.9754705  40.5208081  88.2205678  38.1260270
  40.6606273  86.7288718  37.9088306  41.8178445  90.5428184  40.0577458
  41.9945073  91.4646149  39.8698442  42.6135279  90.2286603  40.4871838
  45.9589464  77.4036449  51.6561392  46.6999177  78.0043602  51.5765854
  46.1907386  76.6614086  51.0979434  41.1030802  82.5892816  49.9339621
  40.9884317  81.6878073  50.2346720  40.2475319  82.8356513  49.5824438
  42.9409760  92.0606358  46.0587800  43.4917186  91.9323421  45.2864794
  42.1021236  92.3601247  45.7082693  46.7376932  88.3257485  50.4032032
  47.2705268  87.5645774  50.1731340  46.2091013  88.0331137  51.1456186
  49.9046627  73.4317551  45.9325673  49.5610896  74.3219193  45.8564784
  50.2725589  73.2419209  45.0695258  37.9732477  85.7551082  38.7514275
  38.8107699  86.1648090  38.5347983  38.1510745  84.8150524  38.7214469
  49.8696909  83.4226163  34.4398108  49.3543533  84.1930767  34.6786496
  49.5974218  82.7491299  35.0631170  47.4544020  78.2675863  39.4983347
  46.5985617  77.8782714  39.3188986  47.8670972  78.3467824  38.6383132
  48.9843167  75.8022207  43.8974907  48.4807962  75.7652342  43.0842712
  49.2773774  76.7114949  43.9571563  45.2286053  75.8860936  42.9041088
  46.0939050  75.6903745  42.5446978  45.2963562  75.6571288  43.8310445
  54.8431183  86.1758517  36.3751282  54.0660626  85.8369677  35.9306444
  55.5222664  86.1811140  35.7006247  49.6583212  81.2953255  36.2657890
  49.3533348  81.6099404  37.1168033  50.6113655  81.3734675  36.3085223
  48.1029644  87.4543478  37.9150844  47.5751006  86.7196238  37.6024081
  47.6017147  88.2318154  37.6690812  53.0822490  85.6492498  43.0317890
  52.4246165  86.3391760  43.1198019  53.8862889  86.0388930  43.3751876
  42.8348372  78.1163144  40.2757455  43.4092124  77.8938326  39.5430648
  43.4219354  78.1851839  41.0286056  51.8927949  84.0036871  41.0821832
  52.4059831  84.6366863  41.5843541  52.5429173  83.4038067  40.7165192
  43.1617959  80.1467605  34.2953340  42.3255271  80.4842292  34.6162615
  43.0222729  80.0116585  33.3580477  45.1371040  74.9904393  39.0032525
  44.4835452  74.6753410  38.3789139  45.0951514  74.3680134  39.7292347
  46.2482244  85.2723688  30.9185817  45.3409306  85.0412942  31.1176966
  46.7453276  84.4761307  31.1059798  49.1550323  93.9821195  33.8382503
  48.4812022  94.2852892  34.4467461  49.5416145  94.7850276  33.4887960
  48.3708780  81.4786327  43.3280172  47.4531341  81.7001274  43.1701860
  48.7868924  81.5532637  42.4691880  49.1543828  82.8777742  38.4582852
  49.9015647  83.3899140  38.1489974  49.4235417  82.5561795  39.3187246
  47.4270478  85.3736283  35.4409807  46.5181697  85.0895316  35.5382276
  47.4565562  85.7935362  34.5813114  52.6589745  88.9842873  39.2100974
  52.2052072  88.1433782  39.2666165  52.0283712  89.6204271  39.5475754
  51.6022665  79.9134859  40.4401642  50.8645422  79.4012245  40.7711884
  51.8549438  79.4735240  39.6284919  51.1022685  90.8219369  40.1450792
  51.3945659  91.3824426  39.4263158  51.6121305  91.1147930  40.9003952
  37.9958648  83.0941797  39.4225009  37.7983048  82.5011158  38.6976075
  37.4405312  82.7894007  40.1400948  45.9755372  82.9864904  41.5419602
  46.0303982  82.0338740  41.4662079  45.1646574  83.1424343  42.0260900
  47.1246566  86.9145027  32.7797885  46.6865996  86.1980886  32.3203523
  47.8657007  87.1421142  32.2182977  43.9147732  81.6041963  39.3009981
  43.1015597  81.9036134  39.7075173  44.4106726  81.2097652  40.0184463
  46.0656310  91.5999720  41.2344246  46.0232489  91.8260567  40.3052778
  46.9819009  91.3663095  41.3830047  49.5121944  82.0683788  48.1324875
  49.8671331  82.2955261  48.9919341  50.1594075  82.4002165  47.5102130
  55.2419680  85.1902224  38.8374204  55.1037579  85.3803820  37.9095393
  54.8855899  85.9521607  39.2942255  43.4061807  79.1760319  44.9171216
  44.0461186  79.0349078  44.2194179  42.5739337  78.8894832  44.5409818
  44.1822110  88.4762749  41.0306208  44.9762709  87.9813070  40.8288783
  43.4713803  87.9480613  40.6673914  49.0016955  90.8580845  45.3818576
  49.0553977  91.4271781  46.1496292  48.1331736  91.0282730  45.0172613
  40.4904874  82.6205831  37.1065961  39.5602462  82.5590287  37.3235923
  40.5862346  82.0981784  36.3102602  40.4090423  79.1460644  39.6944203
  40.6697240  80.0605977  39.5853363  41.2307595  78.6785087  39.8440815
  41.8815348  80.5598401  46.8643027  42.5538402  80.3515763  46.2155676
  41.0545135  80.3620487  46.4248260  47.7840920  77.1860342  48.8808688
  47.1368835  77.8850292  48.7873164  48.5541936  77.6196486  49.2484936
  47.9605055  85.0241107  46.9405508  48.8897115  85.1752267  46.7674475
  47.5396085  85.1125128  46.0854154  46.7593386  89.0491771  44.7104045
  46.6204472  88.6810556  45.5829984  45.9707983  89.5639411  44.5388003
  47.3541538  94.1500868  36.0529582  47.5293294  93.6788911  36.8675205
  46.6674326  94.7766634  36.2810843  48.3098602  88.4273374  42.0992883
  47.9748434  88.3874144  42.9950533  47.8102547  87.7618090  41.6263293
  42.2842846  83.8341004  47.6245464  42.1462644  83.1021243  48.2257003
  43.1947769  83.7449904  47.3429652  51.2457793  85.7729408  32.3729943
  50.6286964  85.0476237  32.2762996  50.7774282  86.5338769  32.0297017
  44.9125146  83.5460963  47.1129144  45.6224765  82.9054156  47.0715762
  44.8694454  83.7973858  48.0355325  43.6254080  80.5326181  48.9324783
  43.0891437  80.0816920  49.5846380  43.0370789  80.6672090  48.1895248
  41.9202624  97.2990231  42.8269442  42.1599222  97.9308755  43.5048461
  41.0771820  96.9478271  43.1134801  43.0356339  79.9914833  31.4951247
  42.1585806  79.8703633  31.1313494  43.5114092  79.2000911  31.2430136
  52.9029332  88.4467901  48.2649703  52.0156111  88.1093822  48.3876102
  53.4727883  87.7150932  48.5018468  34.5558479  84.7791992  41.5892754
  35.2429519  84.4653722  41.0013770  34.4006608  85.6833357  41.3160006
  39.3593201  79.6682189  46.0177778  39.2751390  79.0607859  45.2828188
  38.5375908  80.1591207  46.0187274  46.4330486  93.1069353  45.2310946
  46.3600657  93.9124325  45.7430251  45.9907879  93.3061319  44.4058967
  46.2220265  92.3441123  38.7413768  45.4387787  92.8862803  38.8351992
  46.9213010  92.8615103  39.1408009  49.5316915  78.1535753  41.3847973
  50.0285615  77.4005715  41.0649043  48.7603897  78.1900069  40.8191182
  48.8929169  93.0056187  47.3869105  49.6057141  93.6403652  47.3145006
  48.4019198  93.1020053  46.5709107  50.6146696  86.9107440  38.9586396
  49.6802975  87.0308902  38.7891101  50.7923364  86.0079907  38.6946406
  46.1151884  80.2953136  41.1119658  45.7449672  79.7424176  41.8000563
  46.6110977  79.6911269  40.5594658  54.0019247  82.7524759  39.4936431
  54.4679700  83.5852751  39.4196733  54.4526748  82.2869741  40.1981689
  43.9441083  90.7550631  48.2074676  44.6450542  91.3887114  48.3604070
  43.4736198  91.0965362  47.4470315  52.0695478  89.0968580  36.4922583
  52.3455322  88.9825175  37.4016457  51.1999977  88.6986065  36.4534756
  51.7442369  83.3095238  46.0327226  51.0913819  83.5571145  45.3779679
  52.1222749  82.4959376  45.6989703  48.7049543  93.3454931  40.1355396
  48.8871937  92.5276587  40.5983149  49.5282529  93.5622623  39.6980286
  49.0391708  92.2723116  37.3970445  49.5679474  91.7615571  36.7840607
  49.3019928  91.9565647  38.2615978  39.5408801  90.2886986  45.1405778
  40.1262238  89.5430673  45.2733682  39.3433639  90.5990942  46.0242442
  42.3947456  93.3238233  40.1568221  41.7257831  93.8084361  39.6732261
  42.2560326  93.5707453  41.0711599  34.1326455  82.8592586  43.8610221
  34.1710555  82.3256176  44.6547340  33.6266748  82.3327791  43.2421199
  46.5352725  95.3581976  46.7550879  47.0871033  95.5213598  47.5199964
  46.8758918  95.9486414  46.0830904  41.5117218  77.7057126  47.3572764
  41.5758544  78.5671957  46.9450161  41.4484338  77.0931128  46.6245122
  40.9869490  79.7780259  51.0045798  41.6141529  79.3957336  51.6183322
  40.1297409  79.5594461  51.3701490  37.7635033  81.5856688  36.9364153
  38.0588474  80.6767366  36.8831207  36.8623069  81.5644427  36.6145155
  49.6721112  93.3063952  43.7414561  49.5472251  92.5053692  43.2325507
  50.3300203  93.8010145  43.2528531  41.2929280  79.6612685  42.9191701
  40.5715866  80.2748652  42.7799175  42.0822536  80.1970449  42.8408347
  51.7356020  91.1072972  45.3694111  50.7886356  90.9878323  45.2972438
  52.0838793  90.2195470  45.4520373  44.0955594  76.9967111  49.1932353
  44.6189995  77.2429408  49.9558662  43.8767927  77.8287146  48.7735490
  39.4922875  79.2670786  37.0603478  39.1635581  78.3868165  36.8778584
  39.8462245  79.2118454  37.9479867  48.7402453  90.9025688  41.5698463
  48.5927416  89.9742396  41.7506034  49.5655947  90.9245779  41.0855539
  42.6064698  79.5543755  37.4278956  42.9460770  80.0829677  36.7057564
  43.0536818  79.8924162  38.2037522  52.3436575  91.7254247  42.6563336
  53.2683123  91.5197108  42.5187787  52.1751879  91.4770648  43.5652678
  45.3008139  77.9380806  46.8782024  44.9604959  77.1388619  47.2802704
  44.5947145  78.2382517  46.3058857  45.9524610  75.0230119  45.3309347
  46.7750680  74.5490597  45.2088237  46.1962674  75.8020602  45.8308033
  44.5932845  78.0518377  35.6272248  45.3141207  78.4299630  35.1235965
  43.9698149  78.7707254  35.7307226  48.7363968  78.7563526  36.5630581
  48.9527582  79.6388164  36.2619409  48.2558035  78.3649739  35.8336223
  43.4763189  81.7149239  43.1401325  43.3307770  82.0289542  44.0325607
  42.9988393  82.3334140  42.5872224  45.3359572  78.7051787  43.1882215
  45.3221141  77.8092880  42.8514513  46.0532000  78.7122451  43.8220501
  47.1885703  79.1389127  45.2335342  46.9303481  80.0606198  45.2319673
  46.6570743  78.7419562  45.9235806  52.1331892  92.2439915  38.0125428
  52.3068769  91.6786337  37.2599280  52.6260783  93.0440809  37.8304918
  37.9508851  84.2554584  46.0788987  37.4062319  85.0314392  46.2109261
  38.8288201  84.6025388  45.9208108  44.7396468  77.5866167  38.4569785
  44.8612379  76.6582814  38.6560673  44.4498510  77.6004853  37.5448100
  47.6087658  75.2721078  41.5936505  47.6309355  75.3360411  40.6388484
  48.0255717  74.4325587  41.7877011  53.1207064  91.5606679  35.1122326
  53.8157969  92.1813372  35.3309641  53.4630214  90.7102030  35.3874704
  38.7374873  83.3824480  48.9719143  37.9956609  83.5307115  49.5583774
  38.4167617  83.6432745  48.1085893  55.0198487  89.0106384  36.6409657
  55.5449811  89.3493657  35.9158977  54.9320840  88.0753400  36.4572791
  46.6818536  92.9240458  48.7699533  46.9905662  92.6789605  49.6422233
  47.4794018  93.1287097  48.2818404  46.7039148  95.0778368  41.0004910
  46.2644138  94.5854746  41.6937767  47.4547265  94.5351335  40.7596985
  39.1831487  91.2689909  41.0029538  40.0089507  90.9693680  40.6228182
  38.8325539  90.4997531  41.4519327  44.1513020  90.6216377  43.0727212
  43.5293029  89.9587082  42.7729439  44.8217887  90.6477509  42.3900859
  37.3840092  89.1876235  41.9618472  36.5472000  88.7598409  41.7802473
  37.3563737  89.3808678  42.8989263  44.2237548  79.0998165  52.6659718
  44.2725703  79.9760288  52.2837487  44.7660062  78.5575558  52.0931361
  54.8290268  86.4931754  49.2593583  54.8788273  86.3281762  50.2009106
  54.7204192  85.6259013  48.8691464  43.7126527  89.1720300  36.5485672
  43.8614647  89.8555765  35.8952345  44.5192970  89.1525390  37.0635128
  46.4536836  79.8529537  49.4206076  45.5840145  80.1463103  49.1488665
  46.6896316  80.4369982  50.1413340  41.4679160  85.1985478  37.5546741
  41.2225202  84.2947808  37.7526951  41.6375074  85.2002628  36.6126219
  49.1575870  76.0709154  46.9371497  49.6757814  76.8070181  46.6117985
  48.8031003  76.3773147  47.7718256  40.7374807  80.9313835  35.0532903
  40.0444052  81.0058190  34.3972938  40.4926559  80.1674179  35.5754419
  49.4088464  72.4909437  42.4572393  49.6890218  71.8232626  43.0832820
  50.1939071  72.6838532  41.9447057  47.2121932  91.6668431  34.0197420
  46.6395900  92.2858618  33.5667891  47.7854726  92.2167792  34.5537342
  53.2797322  80.9127071  46.2043968  54.2314745  81.0125168  46.2256192
  53.1100773  80.1205339  46.7142053  50.4319192  91.9505581  35.1506002
  51.3649865  91.8851142  35.3538877  50.3442405  92.7861848  34.6920535
  53.0607209  91.2671451  32.1109949  52.9820840  90.9331315  33.0045707
  53.8816876  91.7593219  32.1101422  47.5968731  83.0029243  31.3613472
  48.5427836  82.8735451  31.4301890  47.2182976  82.2643905  31.8382900
  45.7811648  80.9279220  31.2968357  44.8743104  80.6312332  31.3731071
  46.0587629  80.6309038  30.4302644  36.6989589  82.2485583  41.7467404
  36.3792373  81.3950891  41.4541778  36.1523017  82.4634161  42.5025371
  40.4769496  84.9648024  45.4636910  40.6955506  85.8965132  45.4824944
  40.8895270  84.6055999  46.2491714  47.3973714  75.4716109  37.4512599
  46.5874442  75.1263194  37.8267845  48.0858131  75.1623653  38.0400210
  49.3264262  74.5494156  39.0736895  49.8795301  74.9689610  39.7326918
  49.5634349  73.6229904  39.1159851  44.5510433  77.7866155  31.4380336
  45.4129597  78.1121053  31.6976154  44.7360777  76.9997651  30.9253402
  36.5677849  85.8688495  43.7160525  35.8741320  85.4542447  43.2030480
  37.3150840  85.9109031  43.1193944  51.1546636  76.0599739  40.7836880
  51.6546414  76.1716274  39.9751199  51.7982244  75.7560792  41.4237688
  38.4814591  85.8006748  41.5926540  38.4585279  85.8994436  40.6408423
  38.7915228  86.6471899  41.9143706  41.1401969  87.8582903  45.7073155
  42.0945222  87.8266846  45.6403086  40.9414493  87.3973527  46.5223380
  41.7301351  86.4284019  48.2743952  42.5494240  86.9228098  48.2978790
  42.0038159  85.5115988  48.2461520  51.4867947  78.8194772  37.6371908
  50.5993802  79.1044422  37.4192103  51.9021936  78.6588535  36.7899185
  39.4952198  93.4002523  42.7243352  39.3606666  92.6402924  42.1581350
  39.0784260  94.1243423  42.2572141  50.6311161  88.5839446  31.7319928
  51.3347011  88.7889449  32.3477583  49.9073809  89.1516208  31.9969011
  51.4608971  84.3349308  37.8522198  51.4044172  84.7917859  37.0129830
  52.0137313  83.5739992  37.6745041  42.6521324  94.2971840  42.9361795
  42.5353708  95.2417272  42.8340485  41.8313770  93.9945402  43.3247594
  52.5397858  89.0221976  33.7818388  53.3743462  88.5903174  33.5995863
  52.3782201  88.8503989  34.7095282  52.1943750  85.5254089  35.1474727
  52.1392554  85.3598360  34.2063171  51.5689806  86.2330122  35.3036917
  36.9836265  80.7622153  48.9736149  37.6295129  80.2521107  49.4623374
  36.7753416  81.4990835  49.5479575  45.5039876  75.0262198  34.7260045
  45.4918546  75.9704038  34.8828316  46.3963298  74.8432343  34.4319507
  43.6775838  94.9500102  46.1517724  44.5803084  94.9823712  46.4684218
  43.4513208  94.0200553  46.1664059  45.4329440  93.7031088  42.8127802
  44.4825071  93.7032950  42.6992174  45.7361926  92.9563823  42.2963837
  41.3233756  77.9089770  53.0711164  42.1865218  77.5526575  53.2814488
  40.7499167  77.5703665  53.7586568  57.9771840  99.4919055  43.8135089
  57.6390351  99.3760120  42.9255624  58.8461608  99.0910220  43.7936095
  53.8358655 101.3454531  39.8031980  53.2723520 101.2544468  39.0348268
  53.7211050 100.5254436  40.2834473  58.4591622 100.6453907  49.7721295
  58.4480263 100.2506705  48.9001798  58.6212262  99.9119979  50.3655066
  51.3823087 102.8405723  42.6416201  52.1744379 102.4996548  42.2262500
  51.6219737 102.9500698  43.5618354  59.4158214 105.0125499  35.1146445
  58.7646194 105.5979579  34.7280459  60.2102577 105.5431694  35.1741483
  53.3413841 102.1014636  35.5133579  54.1144717 101.5543623  35.3746455
  53.6939240 102.9658885  35.7248041  55.1798884 103.4291018  48.7200479
  54.8888750 104.3336649  48.6047145  55.8155868 103.4707546  49.4344548
  56.1055090 100.8067867  45.3101838  56.7018663 100.5823889  44.5958801
  56.1630062 100.0652612  45.9127286  55.6780119  98.2607302  33.1452029
  55.9305640  97.7388824  32.3835492  54.7404678  98.0973448  33.2478713
  60.8933479 102.7015931  35.6515429  60.2579312 102.7750557  36.3636334
  60.5630885 103.2909530  34.9734509  55.3976408 100.1635408  35.3476404
  55.2812666  99.4880312  36.0157489  55.5078668  99.6767782  34.5308557
  57.3813436  94.6535455  34.0484442  57.5487838  95.5215691  34.4154913
  57.1910605  94.8162737  33.1245731  60.1388769 103.1152434  45.7150272
  59.8389492 104.0177473  45.6066080  59.7939828 102.8484617  46.5671425
  53.5901250  99.5666231  41.7486977  52.6651747  99.4342445  41.9564669
  53.8385663 100.3460450  42.2456919  57.3602656  97.1093113  35.0331109
  57.2402282  97.5550163  35.8716589  56.6655245  97.4578430  34.4744647
  50.9510061  99.2099504  42.5830766  51.0802442  99.4633983  43.4970178
  50.2707513  99.8027212  42.2635421  55.1209549 109.8796754  38.6821240
  55.0433578 110.8304579  38.7609721  54.5171192 109.5342627  39.3396166
  55.8673151  99.8610073  50.9000574  56.6087835 100.3995117  50.6235398
  55.1610136 100.4876362  51.0572126  61.3428490 102.0039214  49.4972736
  61.7511846 101.5621624  48.7527368  60.6205752 101.4291841  49.7506928
  57.2185267 102.3014812  40.5175109  57.6823612 102.5802515  39.7279732
  56.9542065 101.3998257  40.3348200  54.1109348 101.8486294  43.4554873
  54.6810705 102.2773562  42.8172357  54.7017460 101.5668878  44.1539058
  56.1554153  98.4237965  37.3264675  56.8578196  98.8759008  37.7938601
  55.8234781  97.7821783  37.9544568  49.8979487  96.6821517  42.6281808
  49.1078541  96.9379046  42.1521919  50.3890734  97.4969855  42.7333849
  51.8494232  97.0466097  39.5865285  51.0525395  97.1584791  40.1048781
  51.6219824  97.3852749  38.7206175  57.6799900 103.5710800  47.5347800
  57.7444332 104.0331207  48.3705971  56.9710824 102.9408165  47.6630109
  48.1817190  96.9352008  45.0596799  48.4325228  97.8199018  45.3254375
  48.7176738  96.7556609  44.2871891  57.3947917 105.2378907  37.4026780
  57.2593592 106.0830443  37.8311628  57.9357730 105.4398185  36.6392714
  50.8477315 102.7554345  37.9754705  51.3601835 103.5497596  38.1260270
  51.5000028 102.0580636  37.9088306  52.6572200 105.8720102  40.0577458
  52.8338828 106.7938066  39.8698442  53.4529033 105.5578521  40.4871838
  51.9424556  97.9184733  49.9339621  51.8278071  97.0169991  50.2346720
  51.0869074  98.1648430  49.5824438  59.0216394 105.8602474  51.5327122
  58.5780248 105.0738852  51.2148026  59.6833607 106.0481624  50.8671013
  53.7803515 107.3898275  46.0587800  54.3310940 107.2615339  45.2864794
  52.9414991 107.6893164  45.7082693  61.1197632 106.1405274  49.5608523
  61.1016107 106.9614155  49.0688792  62.0417552 106.0159349  49.7858664
  57.5770686 103.6549403  50.4032032  58.1099023 102.8937691  50.1731340
  57.0484767 103.3623055  51.1456186  48.8126232 101.0843000  38.7514275
  49.6501454 101.4940008  38.5347983  48.9904499 100.1442442  38.7214469
  60.7090664  98.7518080  34.4398108  60.1937287  99.5222685  34.6786496
  60.4367972  98.0783216  35.0631170  65.6824938 101.5050435  36.3751282
  64.9054381 101.1661594  35.9306444  66.3616419 101.5103058  35.7006247
  58.9423399 102.7835396  37.9150844  58.4144760 102.0488155  37.6024081
  58.4410901 103.5610072  37.6690812  53.6742126  93.4455062  40.2757455
  54.2485878  93.2230243  39.5430648  54.2613109  93.5143756  41.0286056
  54.0011713  95.4759523  34.2953340  53.1649026  95.8134209  34.6162615
  53.8616483  95.3408503  33.3580477  57.0875999 100.6015606  30.9185817
  56.1803061 100.3704859  31.1176966  57.5847031  99.8053225  31.1059798
  59.9944078 109.3113113  33.8382503  59.3205777 109.6144810  34.4467461
  60.3809900 110.1142193  33.4887960  58.2664232 100.7028201  35.4409807
  57.3575452 100.4187234  35.5382276  58.2959316 101.1227279  34.5813114
  63.4983500 104.3134790  39.2100974  63.0445827 103.4725700  39.2666165
  62.8677466 104.9496189  39.5475754  61.9416439 106.1511287  40.1450792
  62.2339413 106.7116344  39.4263158  62.4515060 106.4439848  40.9003952
  48.8352403  98.4233715  39.4225009  48.6376803  97.8303076  38.6976075
  48.2799067  98.1185925  40.1400948  56.8149126  98.3156821  41.5419602
  56.8697736  97.3630658  41.4662079  56.0040328  98.4716260  42.0260900
  57.9640320 102.2436944  32.7797885  57.5259750 101.5272803  32.3203523
  58.7050761 102.4713059  32.2182977  54.7541486  96.9333881  39.3009981
  53.9409352  97.2328052  39.7075173  55.2500481  96.5389570  40.0184463
  56.9050064 106.9291638  41.2344246  56.8626243 107.1552484  40.3052778
  57.8212763 106.6955013  41.3830047  54.2455561  94.5052237  44.9171216
  54.8854940  94.3640996  44.2194179  53.4133092  94.2186750  44.5409818
  55.0215865 103.8054667  41.0306208  55.8156463 103.3104987  40.8288783
  54.3107557 103.2772530  40.6673914  59.8410709 106.1872763  45.3818576
  59.8947732 106.7563699  46.1496292  58.9725491 106.3574648  45.0172613
  51.3298628  97.9497749  37.1065961  50.3996217  97.8882204  37.3235923
  51.4256100  97.4273702  36.3102602  51.2484177  94.4752562  39.6944203
  51.5090995  95.3897895  39.5853363  52.0701350  94.0077004  39.8440815
  52.7209103  95.8890319  46.8643027  53.3932156  95.6807681  46.2155676
  51.8938889  95.6912405  46.4248260  57.5987141 104.3783689  44.7104045
  57.4598227 104.0102473  45.5829984  56.8101737 104.8931328  44.5388003
  58.1935293 109.4792786  36.0529582  58.3687049 109.0080829  36.8675205
  57.5068081 110.1058552  36.2810843  59.1492356 103.7565292  42.0992883
  58.8142189 103.7166062  42.9950533  58.6496302 103.0910008  41.6263293
  53.1236600  99.1632922  47.6245464  52.9856398  98.4313161  48.2257003
  54.0341524  99.0741822  47.3429652  62.0851548 101.1021326  32.3729943
  61.4680718 100.3768154  32.2762996  61.6168036 101.8630686  32.0297017
  55.7518901  98.8752881  47.1129144  56.4618519  98.2346073  47.0715762
  55.7088209  99.1265776  48.0355325  52.7596378 112.6282148  42.8269442
  52.9992976 113.2600672  43.5048461  51.9165575 112.2770188  43.1134801
  53.8750094  95.3206750  31.4951247  52.9979560  95.1995551  31.1313494
  54.3507847  94.5292829  31.2430136  45.3952234 100.1083910  41.5892754
  46.0823274  99.7945640  41.0013770  45.2400363 101.0125275  41.3160006
  50.1986956  94.9974107  46.0177778  50.1145145  94.3899776  45.2828188
  49.3769662  95.4883125  46.0187274  57.2724240 108.4361271  45.2310946
  57.1994412 109.2416242  45.7430251  56.8301633 108.6353237  44.4058967
  57.0614020 107.6733041  38.7413768  56.2781542 108.2154721  38.8351992
  57.7606765 108.1907020  39.1408009  59.7322924 108.3348105  47.3869105
  60.4450896 108.9695570  47.3145006  59.2412952 108.4311971  46.5709107
  61.4540451 102.2399357  38.9586396  60.5196729 102.3600820  38.7891101
  61.6317119 101.3371824  38.6946406  54.7834837 106.0842548  48.2074676
  55.4844297 106.7179031  48.3604070  54.3129952 106.4257280  47.4470315
  62.9089233 104.4260498  36.4922583  63.1849077 104.3117093  37.4016457
  62.0393732 104.0277983  36.4534756  59.5443297 108.6746849  40.1355396
  59.7265692 107.8568505  40.5983149  60.3676283 108.8914541  39.6980286
  59.8785462 107.6015034  37.3970445  60.4073229 107.0907489  36.7840607
  60.1413682 107.2857564  38.2615978  50.3802555 105.6178903  45.1405778
  50.9655992 104.8722591  45.2733682  50.1827394 105.9282860  46.0242442
  53.2341210 108.6530151  40.1568221  52.5651586 109.1376278  39.6732261
  53.0954080 108.8999371  41.0711599  44.9720210  98.1884503  43.8610221
  45.0104309  97.6548094  44.6547340  44.4660503  97.6619709  43.2421199
  57.3746479 110.6873894  46.7550879  57.9264787 110.8505516  47.5199964
  57.7152672 111.2778332  46.0830904  52.3510972  93.0349044  47.3572764
  52.4152299  93.8963875  46.9450161  52.2878092  92.4223046  46.6245122
  51.8263245  95.1072177  51.0045798  52.4535284  94.7249254  51.6183322
  50.9691164  94.8886378  51.3701490  62.2257353 105.5135152  52.6099533
  62.7697257 106.1265110  52.1154488  61.6444198 106.0714730  53.1266546
  48.6028788  96.9148606  36.9364153  48.8982229  96.0059284  36.8831207
  47.7016823  96.8936345  36.6145155  60.5114866 108.6355870  43.7414561
  60.3866006 107.8345610  43.2325507  61.1693957 109.1302063  43.2528531
  52.1323035  94.9904602  42.9191701  51.4109620  95.6040570  42.7799175
  52.9216290  95.5262367  42.8408347  62.5749775 106.4364890  45.3694111
  61.6280110 106.3170241  45.2972438  62.9232548 105.5487388  45.4520373
  50.3316629  94.5962703  37.0603478  50.0029335  93.7160082  36.8778584
  50.6856000  94.5410372  37.9479867  59.5796208 106.2317606  41.5698463
  59.4321170 105.3034313  41.7506034  60.4049701 106.2537697  41.0855539
  53.4458452  94.8835673  37.4278956  53.7854525  95.4121594  36.7057564
  53.8930573  95.2216079  38.2037522  63.1830330 107.0546165  42.6563336
  64.1076877 106.8489026  42.5187787  63.0145633 106.8062566  43.5652678
  55.4326599  93.3810295  35.6272248  56.1534962  93.7591547  35.1235965
  54.8091904  94.0999171  35.7307226  54.3156944  97.0441157  43.1401325
  54.1701524  97.3581460  44.0325607  53.8382147  97.6626057  42.5872224
  56.1753327  94.0343705  43.1882215  56.1614895  93.1384798  42.8514513
  56.8925755  94.0414369  43.8220501  62.9725646 107.5731832  38.0125428
  63.1462524 107.0078255  37.2599280  63.4654537 108.3732727  37.8304918
  48.7902606  99.5846501  46.0788987  48.2456074 100.3606309  46.2109261
  49.6681956  99.9317306  45.9208108  63.9600819 106.8898597  35.1122326
  64.6551723 107.5105289  35.3309641  64.3023969 106.0393948  35.3874704
  49.5768628  98.7116398  48.9719143  48.8350364  98.8599033  49.5583774
  49.2561372  98.9724663  48.1085893  65.8592242 104.3398302  36.6409657
  66.3843566 104.6785575  35.9158977  65.7714594 103.4045317  36.4572791
  57.5212290 108.2532376  48.7699533  57.8299417 108.0081523  49.6422233
  58.3187772 108.4579014  48.2818404  57.5432902 110.4070285  41.0004910
  57.1037893 109.9146664  41.6937767  58.2941019 109.8643253  40.7596985
  50.0225241 106.5981826  41.0029538  50.8483261 106.2985598  40.6228182
  49.6719293 105.8289449  41.4519327  54.9906775 105.9508294  43.0727212
  54.3686784 105.2879000  42.7729439  55.6611641 105.9769426  42.3900859
  48.2233846 104.5168153  41.9618472  47.3865755 104.0890327  41.7802473
  48.1957492 104.7100596  42.8989263  54.5520281 104.5012218  36.5485672
  54.7008402 105.1847682  35.8952345  55.3586725 104.4817308  37.0635128
  52.3072914 100.5277395  37.5546741  52.0618956  99.6239725  37.7526951
  52.4768829 100.5294546  36.6126219  51.5768562  96.2605753  35.0532903
  50.8837807  96.3350108  34.3972938  51.3320314  95.4966097  35.5754419
  58.0515687 106.9960348  34.0197420  57.4789654 107.6150535  33.5667891
  58.6248481 107.5459710  34.5537342  61.2712947 107.2797498  35.1506002
  62.2043620 107.2143060  35.3538877  61.1836160 108.1153765  34.6920535
  63.9000963 106.5963369  32.1109949  63.8214595 106.2623232  33.0045707
  64.7210630 107.0885137  32.1101422  58.4362485  98.3321161  31.3613472
  59.3821590  98.2027369  31.4301890  58.0576730  97.5935823  31.8382900
  58.3201178 102.3838907  52.8214129  59.2404187 102.5617506  53.0154176
  58.2850761 101.4394953  52.6693828  56.6205403  96.2571137  31.2968357
  55.7136858  95.9604250  31.3731071  56.8981384  95.9600955  30.4302644
  47.5383343  97.5777501  41.7467404  47.2186127  96.7242809  41.4541778
  46.9916771  97.7926079  42.5025371  51.3163251 100.2939942  45.4636910
  51.5349260 101.2257050  45.4824944  51.7289024  99.9347916  46.2491714
  55.3904187  93.1158073  31.4380336  56.2523351  93.4412971  31.6976154
  55.5754531  92.3289569  30.9253402  47.4071603 101.1980412  43.7160525
  46.7135074 100.7834365  43.2030480  48.1544594 101.2400949  43.1193944
  56.0522386  99.2970286  53.6704721  55.5689468 100.0970647  53.8768610
  56.1383325  99.3078231  52.7172165  49.3208346 101.1298666  41.5926540
  49.2979034 101.2286353  40.6408423  49.6308982 101.9763817  41.9143706
  51.9795723 103.1874821  45.7073155  52.9338977 103.1558763  45.6403086
  51.7808247 102.7265445  46.5223380  52.5695106 101.7575937  48.2743952
  53.3887995 102.2520016  48.2978790  52.8431913 100.8407905  48.2461520
  50.3345952 108.7294441  42.7243352  50.2000420 107.9694841  42.1581350
  49.9178014 109.4535340  42.2572141  61.4704915 103.9131364  31.7319928
  62.1740765 104.1181367  32.3477583  60.7467564 104.4808126  31.9969011
  62.3002725  99.6641225  37.8522198  62.2437927 100.1209777  37.0129830
  62.8531068  98.9031910  37.6745041  53.4915078 109.6263758  42.9361795
  53.3747462 110.5709190  42.8340485  52.6707524 109.3237319  43.3247594
  63.3791613 104.3513893  33.7818388  64.2137217 103.9195092  33.5995863
  63.2175956 104.1795907  34.7095282  63.0337505 100.8546007  35.1474727
  62.9786309 100.6890278  34.2063171  62.4083560 101.5622040  35.3036917
  47.8230020  96.0914071  48.9736149  48.4688883  95.5813025  49.4623374
  47.6147171  96.8282753  49.5479575  60.3483412 103.1594919  54.4728290
  61.2174572 103.3335571  54.1114925  59.8690163 103.9789335  54.3504019
  56.3433630  90.3554116  34.7260045  56.3312300  91.2995956  34.8828316
  57.2357052  90.1724261  34.4319507  54.5169592 110.2792020  46.1517724
  55.4196839 110.3115630  46.4684218  54.2906962 109.3492470  46.1664059
  56.2723194 109.0323006  42.8127802  55.3218825 109.0324868  42.6992174
  56.5755680 108.2855741  42.2963837  72.0075888 114.8683544  43.8773565
  72.6454298 114.7490292  43.1736905  71.8896731 115.8164388  43.9361517
  68.8165594 114.8210973  43.8135089  68.4784106 114.7052037  42.9255624
  69.6855362 114.4202138  43.7936095  64.6752410 116.6746449  39.8031980
  64.1117275 116.5836386  39.0348268  64.5604805 115.8546353  40.2834473
  69.2985377 115.9745824  49.7721295  69.2874018 115.5798623  48.9001798
  69.4606016 115.2411897  50.3655066  62.2216842 118.1697641  42.6416201
  63.0138134 117.8288465  42.2262500  62.4613492 118.2792616  43.5618354
  70.2551968 120.3417417  35.1146445  69.6039948 120.9271497  34.7280459
  71.0496331 120.8723612  35.1741483  64.1807596 117.4306554  35.5133579
  64.9538472 116.8835541  35.3746455  64.5332994 118.2950803  35.7248041
  66.0192638 118.7582936  48.7200479  65.7282504 119.6628567  48.6047145
  66.6549622 118.7999464  49.4344548  66.9448845 116.1359785  45.3101838
  67.5412417 115.9115807  44.5958801  67.0023817 115.3944530  45.9127286
  66.5173873 113.5899220  33.1452029  66.7699394 113.0680741  32.3835492
  65.5798432 113.4265365  33.2478713  71.5617156 112.5934998  40.9526773
  72.3480245 112.1754421  40.6017190  71.8255861 113.4981090  41.1208421
  71.7327234 118.0307849  35.6515429  71.0973067 118.1042475  36.3636334
  71.4024640 118.6201447  34.9734509  76.9625583 112.5310232  41.8559751
  77.6950755 111.9609448  42.0897581  76.2064939 112.1431832  42.2966257
  66.2370162 115.4927326  35.3476404  66.1206420 114.8172229  36.0157489
  66.3472422 115.0059700  34.5308557  68.5801703 114.9537473  39.0523094
  68.2159910 114.4268094  39.7636015  69.4368819 114.5635942  38.8789579
  74.4851004 106.2431806  46.3154360  74.1534328 107.1127217  46.0915575
  73.8896617 105.9268090  46.9948390  68.2207190 109.9827373  34.0484442
  68.3881592 110.8507609  34.4154913  68.0304359 110.1454654  33.1245731
  70.9782523 118.4444352  45.7150272  70.6783246 119.3469390  45.6066080
  70.6333583 118.1776535  46.5671425  64.4295005 114.8958148  41.7486977
  63.5045501 114.7634363  41.9564669  64.6779418 115.6752368  42.2456919
  74.3779667 110.9626892  43.3947710  73.4696544 110.8942300  43.1006471
  74.3267263 111.4398837  44.2229535  68.1996411 112.4385030  35.0331109
  68.0796036 112.8842081  35.8716589  67.5048999 112.7870348  34.4744647
  61.7903816 114.5391422  42.5830766  61.9196197 114.7925901  43.4970178
  61.1101267 115.1319130  42.2635421  65.9603303 125.2088672  38.6821240
  65.8827333 126.1596497  38.7609721  65.3564947 124.8634544  39.3396166
  68.4520533 112.3816537  51.3382607  67.6753867 112.9410458  51.3285472
  69.0911096 112.8673320  51.8597477  76.2441313 109.1643330  45.1725584
  75.6015694 109.4575863  44.5265378  75.7396242 109.0496251  45.9778780
  73.8981477 112.9106503  35.8611443  74.8099333 113.1433890  35.6859140
  73.3891124 113.4943548  35.2986522  66.7066905 115.1901991  50.9000574
  67.4481589 115.7287035  50.6235398  66.0003891 115.8168279  51.0572126
  72.1822245 117.3331131  49.4972736  72.5905601 116.8913542  48.7527368
  71.4599506 116.7583759  49.7506928  68.5353315 112.2703738  46.8706292
  69.3814510 112.6943152  47.0140941  68.4751952 111.6137362  47.5644856
  72.5051059 117.8932322  43.2525024  71.8759922 118.0578036  42.5501092
  72.1176721 118.3073931  44.0235988  76.3840291 118.8286760  40.6069388
  75.6991329 119.2085661  40.0566421  76.4684141 119.4382086  41.3401336
  71.6852760 109.9308106  48.5287466  71.4413692 110.6850167  47.9921742
  71.9612691 110.3093454  49.3634713  73.6391223 116.4746719  47.2064732
  73.8508118 117.1178479  46.5299113  73.5920971 115.6409035  46.7386662
  71.2417452 109.0864539  44.1101304  70.3801931 109.3845793  44.4018041
  71.2679886 109.3034938  43.1782336  68.0579021 117.6306730  40.5175109
  68.5217367 117.9094433  39.7279732  67.7935819 116.7290174  40.3348200
  64.9503102 117.1778211  43.4554873  65.5204459 117.6065480  42.8172357
  65.5411214 116.8960796  44.1539058  66.9947907 113.7529882  37.3264675
  67.6971951 114.2050926  37.7938601  66.6628536 113.1113701  37.9544568
  65.4428269 112.3441639  51.7015884  64.8126929 113.0257920  51.9351281
  65.3364357 112.2324721  50.7569022  60.7373241 112.0113435  42.6281808
  59.9472295 112.2670963  42.1521919  61.2284489 112.8261773  42.7333849
  74.7537051 119.3518674  45.3787089  75.5754495 118.9498861  45.0969771
  74.7499454 119.2486908  46.3303205  62.6887987 112.3758014  39.5865285
  61.8919150 112.4876708  40.1048781  62.4613579 112.7144666  38.7206175
  68.5193654 118.9002717  47.5347800  68.5838087 119.3623125  48.3705971
  67.8104578 118.2700082  47.6630109  59.0210944 112.2643925  45.0596799
  59.2718983 113.1490935  45.3254375  59.5570493 112.0848527  44.2871891
  82.8443044 115.6957423  41.7272060  82.0906752 115.1264821  41.5716065
  82.9790585 115.6620087  42.6742695  68.2341672 120.5670825  37.4026780
  68.0987347 121.4122361  37.8311628  68.7751484 120.7690103  36.6392714
  61.6871069 118.0846263  37.9754705  62.1995590 118.8789513  38.1260270
  62.3393782 117.3872553  37.9088306  63.4965954 121.2012019  40.0577458
  63.6732582 122.1229984  39.8698442  64.2922788 120.8870438  40.4871838
  62.7818311 113.2476651  49.9339621  62.6671826 112.3461908  50.2346720
  61.9262828 113.4940348  49.5824438  69.8610148 121.1894391  51.5327122
  69.4174002 120.4030770  51.2148026  70.5227362 121.3773542  50.8671013
  64.6197269 122.7190193  46.0587800  65.1704695 122.5907256  45.2864794
  63.7808745 123.0185082  45.7082693  71.9591386 121.4697191  49.5608523
  71.9409862 122.2906072  49.0688792  72.8811306 121.3451267  49.7858664
  68.4164441 118.9841321  50.4032032  68.9492777 118.2229609  50.1731340
  67.8878522 118.6914973  51.1456186  59.6519986 116.4134917  38.7514275
  60.4895208 116.8231926  38.5347983  59.8298254 115.4734359  38.7214469
  71.5484418 114.0809998  34.4398108  71.0331042 114.8514603  34.6786496
  71.2761727 113.4075134  35.0631170  69.1331529 108.9259699  39.4983347
  68.2773126 108.5366549  39.3188986  69.5458481 109.0051659  38.6383132
  76.5218692 116.8342353  36.3751282  75.7448135 116.4953512  35.9306444
  77.2010173 116.8394976  35.7006247  71.3370721 111.9537090  36.2657890
  71.0320857 112.2683239  37.1168033  72.2901164 112.0318510  36.3085223
  69.7817153 118.1127313  37.9150844  69.2538515 117.3780073  37.6024081
  69.2804656 118.8901990  37.6690812  74.7609999 116.3076334  43.0317890
  74.1033674 116.9975595  43.1198019  75.5650398 116.6972766  43.3751876
  64.5135881 108.7746980  40.2757455  65.0879633 108.5522161  39.5430648
  65.1006863 108.8435674  41.0286056  73.5715458 114.6620706  41.0821832
  74.0847340 115.2950698  41.5843541  74.2216682 114.0621902  40.7165192
  64.8405468 110.8051441  34.2953340  64.0042780 111.1426127  34.6162615
  64.7010238 110.6700420  33.3580477  66.8158549 105.6488228  39.0032525
  66.1622961 105.3337246  38.3789139  66.7739023 105.0263969  39.7292347
  67.9269753 115.9307524  30.9185817  67.0196815 115.6996777  31.1176966
  68.4240785 115.1345143  31.1059798  70.8337832 124.6405031  33.8382503
  70.1599531 124.9436728  34.4467461  71.2203654 125.4434111  33.4887960
  70.0496289 112.1370162  43.3280172  69.1318850 112.3585109  43.1701860
  70.4656433 112.2116473  42.4691880  70.8331337 113.5361578  38.4582852
  71.5803156 114.0482975  38.1489974  71.1022926 113.2145630  39.3187246
  69.1057987 116.0320118  35.4409807  68.1969206 115.7479151  35.5382276
  69.1353071 116.4519197  34.5813114  74.3377254 119.6426708  39.2100974
  73.8839581 118.8017618  39.2666165  73.7071221 120.2788106  39.5475754
  73.2810174 110.5718694  40.4401642  72.5432931 110.0596080  40.7711884
  73.5336947 110.1319076  39.6284919  72.7810194 121.4803205  40.1450792
  73.0733168 122.0408262  39.4263158  73.2908814 121.7731766  40.9003952
  59.6746157 113.7525633  39.4225009  59.4770557 113.1594993  38.6976075
  59.1192821 113.4477843  40.1400948  67.6542881 113.6448739  41.5419602
  67.7091491 112.6922575  41.4662079  66.8434083 113.8008178  42.0260900
  68.8034075 117.5728862  32.7797885  68.3653505 116.8564721  32.3203523
  69.5444516 117.8004977  32.2182977  65.5935241 112.2625799  39.3009981
  64.7803106 112.5619969  39.7075173  66.0894235 111.8681488  40.0184463
  67.7443819 122.2583556  41.2344246  67.7019997 122.4844402  40.3052778
  68.6606518 122.0246930  41.3830047  71.1909452 112.7267623  48.1324875
  71.5458840 112.9539096  48.9919341  71.8381584 113.0586000  47.5102130
  76.9207189 115.8486059  38.8374204  76.7825088 116.0387655  37.9095393
  76.5643408 116.6105442  39.2942255  65.0849316 109.8344154  44.9171216
  65.7248695 109.6932913  44.2194179  64.2526846 109.5478668  44.5409818
  76.9476569 117.9162586  43.8485475  77.3813076 117.8237875  44.6968529
  77.6608150 117.8920087  43.2105491  65.8609619 119.1346585  41.0306208
  66.6550218 118.6396905  40.8288783  65.1501312 118.6064448  40.6673914
  70.6804464 121.5164680  45.3818576  70.7341486 122.0855617  46.1496292
  69.8119245 121.6866565  45.0172613  62.1692383 113.2789666  37.1065961
  61.2389971 113.2174122  37.3235923  62.2649855 112.7565619  36.3102602
  62.0877932 109.8044479  39.6944203  62.3484749 110.7189813  39.5853363
  62.9095104 109.3368922  39.8440815  63.5602857 111.2182236  46.8643027
  64.2325911 111.0099599  46.2155676  62.7332644 111.0204322  46.4248260
  77.8092119 117.9586287  46.3818361  78.0028009 118.8632097  46.6277636
  77.7092737 117.4993706  47.2156946  72.8707227 118.1093030  51.9559241
  72.7192734 117.8803581  51.0389325  72.8611907 119.0663631  51.9690586
  69.6392564 115.6824942  46.9405508  70.5684624 115.8336102  46.7674475
  69.2183594 115.7708963  46.0854154  68.4380895 119.7075607  44.7104045
  68.2991981 119.3394391  45.5829984  67.6495492 120.2223246  44.5388003
  69.0329047 124.8084703  36.0529582  69.2080803 124.3372746  36.8675205
  68.3461835 125.4350469  36.2810843  69.9886111 119.0857209  42.0992883
  69.6535943 119.0457979  42.9950533  69.4890056 118.4201925  41.6263293
  63.9630355 114.4924839  47.6245464  63.8250153 113.7605078  48.2257003
  64.8735278 114.4033740  47.3429652  72.9245302 116.4313244  32.3729943
  72.3074473 115.7060072  32.2762996  72.4561791 117.1922604  32.0297017
  66.5912655 114.2044799  47.1129144  67.3012274 113.5637991  47.0715762
  66.5481963 114.4557694  48.0355325  74.5799434 121.1412152  50.0335723
  74.5211980 120.4571372  49.3666306  74.9818952 121.8831142  49.5816349
  65.3041589 111.1910017  48.9324783  64.7678946 110.7400755  49.5846380
  64.7158298 111.3255925  48.1895248  63.5990133 127.9574066  42.8269442
  63.8386731 128.5892590  43.5048461  62.7559329 127.6062106  43.1134801
  64.7143848 110.6498668  31.4951247  63.8373314 110.5287469  31.1313494
  65.1901601 109.8584746  31.2430136  74.5816841 119.1051736  48.2649703
  73.6943620 118.7677658  48.3876102  75.1515392 118.3734767  48.5018468
  56.2345988 115.4375828  41.5892754  56.9217028 115.1237558  41.0013770
  56.0794117 116.3417192  41.3160006  61.0380710 110.3266024  46.0177778
  60.9538899 109.7191694  45.2828188  60.2163417 110.8175043  46.0187274
  68.1117995 123.7653188  45.2310946  68.0388166 124.5708160  45.7430251
  67.6695388 123.9645154  44.4058967  67.9007774 123.0024958  38.7413768
  67.1175296 123.5446639  38.8351992  68.6000519 123.5198938  39.1408009
  71.2104424 108.8119588  41.3847973  71.7073124 108.0589550  41.0649043
  70.4391406 108.8483905  40.8191182  79.0634182 114.5159953  43.0266265
  79.0524058 115.3984669  42.6560198  78.1951561 114.1631504  42.8320802
  70.5716678 123.6640022  47.3869105  71.2844650 124.2987487  47.3145006
  70.0806707 123.7603888  46.5709107  72.2934205 117.5691275  38.9586396
  71.3590484 117.6892738  38.7891101  72.4710873 116.6663742  38.6946406
  67.7939393 110.9536971  41.1119658  67.4237181 110.4008011  41.8000563
  68.2898486 110.3495104  40.5594658  75.6806756 113.4108594  39.4936431
  76.1467209 114.2436586  39.4196733  76.1314257 112.9453576  40.1981689
  65.6228592 121.4134466  48.2074676  66.3238051 122.0470949  48.3604070
  65.1523707 121.7549197  47.4470315  73.7482987 119.7552416  36.4922583
  74.0242831 119.6409010  37.4016457  72.8787486 119.3569901  36.4534756
  73.4229878 113.9679073  46.0327226  72.7701328 114.2154981  45.3779679
  73.8010258 113.1543212  45.6989703  70.3837051 124.0038767  40.1355396
  70.5659446 123.1860422  40.5983149  71.2070037 124.2206459  39.6980286
  70.7179217 122.9306952  37.3970445  71.2466983 122.4199406  36.7840607
  70.9807437 122.6149482  38.2615978  69.4717451 114.7098884  52.5193263
  68.7958088 114.6093014  53.1895638  70.2945085 114.5538098  52.9829260
  61.2196310 120.9470821  45.1405778  61.8049747 120.2014509  45.2733682
  61.0221148 121.2574778  46.0242442  64.0734965 123.9822068  40.1568221
  63.4045340 124.4668196  39.6732261  63.9347835 124.2291289  41.0711599
  55.8113964 113.5176421  43.8610221  55.8498064 112.9840012  44.6547340
  55.3054257 112.9911627  43.2421199  68.2140234 126.0165812  46.7550879
  68.7658542 126.1797433  47.5199964  68.5546427 126.6070250  46.0830904
  63.1904727 108.3640962  47.3572764  63.2546053 109.2255793  46.9450161
  63.1271847 107.7514963  46.6245122  62.6656999 110.4364094  51.0045798
  63.2929038 110.0541172  51.6183322  61.8084918 110.2178296  51.3701490
  73.0651108 120.8427069  52.6099533  73.6091012 121.4557028  52.1154488
  72.4837953 121.4006648  53.1266546  59.4422542 112.2440523  36.9364153
  59.7375983 111.3351202  36.8831207  58.5410578 112.2228263  36.6145155
  71.3508621 123.9647787  43.7414561  71.2259760 123.1637527  43.2325507
  72.0087712 124.4593981  43.2528531  62.9716789 110.3196520  42.9191701
  62.2503375 110.9332488  42.7799175  63.7610045 110.8554285  42.8408347
  73.4143529 121.7656807  45.3694111  72.4673865 121.6462159  45.2972438
  73.7626302 120.8779306  45.4520373  65.7743103 107.6550946  49.1932353
  66.2977504 107.9013243  49.9558662  65.5555436 108.4870981  48.7735490
  61.1710384 109.9254621  37.0603478  60.8423090 109.0452000  36.8778584
  61.5249754 109.8702290  37.9479867  70.4189962 121.5609524  41.5698463
  70.2714925 120.6326231  41.7506034  71.2443456 121.5829614  41.0855539
  64.2852207 110.2127591  37.4278956  64.6248279 110.7413512  36.7057564
  64.7324327 110.5507997  38.2037522  74.0224084 122.3838082  42.6563336
  74.9470632 122.1780944  42.5187787  73.8539388 122.1354484  43.5652678
  66.9795648 108.5964641  46.8782024  66.6392468 107.7972455  47.2802704
  66.2734654 108.8966352  46.3058857  66.2720354 108.7102212  35.6272248
  66.9928716 109.0883465  35.1235965  65.6485658 109.4291089  35.7307226
  70.4151477 109.4147361  36.5630581  70.6315091 110.2971999  36.2619409
  69.9345544 109.0233575  35.8336223  65.1550698 112.3733075  43.1401325
  65.0095279 112.6873378  44.0325607  64.6775902 112.9917975  42.5872224
  67.0147081 109.3635623  43.1882215  67.0008650 108.4676716  42.8514513
  67.7319509 109.3706286  43.8220501  68.8673212 109.7972963  45.2335342
  68.6090990 110.7190033  45.2319673  68.3358252 109.4003397  45.9235806
  73.8119401 122.9023750  38.0125428  73.9856278 122.3370172  37.2599280
  74.3048292 123.7024645  37.8304918  59.6296360 114.9138419  46.0788987
  59.0849828 115.6898227  46.2109261  60.5075710 115.2609223  45.9208108
  66.4183977 108.2450003  38.4569785  66.5399888 107.3166649  38.6560673
  66.1286019 108.2588689  37.5448100  79.6658792 115.6660173  39.6315727
  80.1089938 114.9167498  39.2334851  78.7885302 115.6570309  39.2489459
  74.7994573 122.2190514  35.1122326  75.4945478 122.8397207  35.3309641
  75.1417723 121.3685865  35.3874704  60.4162382 114.0408315  48.9719143
  59.6744118 114.1890951  49.5583774  60.0955126 114.3016581  48.1085893
  76.6985996 119.6690220  36.6409657  77.2237320 120.0077493  35.9158977
  76.6108349 118.7337235  36.4572791  68.3606045 123.5824293  48.7699533
  68.6693171 123.3373440  49.6422233  69.1581527 123.7870932  48.2818404
  68.3826657 125.7362203  41.0004910  67.9431647 125.2438582  41.6937767
  69.1334774 125.1935171  40.7596985  60.8618996 121.9273744  41.0029538
  61.6877016 121.6277516  40.6228182  60.5113048 121.1581366  41.4519327
  65.8300529 121.2800212  43.0727212  65.2080538 120.6170917  42.7729439
  66.5005396 121.3061344  42.3900859  59.0627601 119.8460070  41.9618472
  58.2259509 119.4182245  41.7802473  59.0351246 120.0392514  42.8989263
  76.3879902 120.3023123  51.9460855  75.5975446 120.2847262  51.4065354
  76.1513257 120.8411417  52.7009891  76.5077777 117.1515590  49.2593583
  76.5575782 116.9865597  50.2009106  76.3991701 116.2842849  48.8691464
  65.3914036 119.8304136  36.5485672  65.5402156 120.5139600  35.8952345
  66.1980479 119.8109226  37.0635128  73.7981540 113.1346518  50.5752890
  74.6991402 112.9952983  50.2836888  73.8729514 113.3000973  51.5151067
  68.1324345 110.5113373  49.4206076  67.2627654 110.8046939  49.1488665
  68.3683825 111.0953818  50.1413340  78.0095974 119.5712531  49.5035605
  77.7180782 119.9342512  50.3399066  77.3968105 118.8579540  49.3248937
  79.2091656 117.1365411  42.0238175  80.0438548 117.5755215  42.1875735
  79.3450785 116.6604064  41.2046421  76.2583162 114.6945146  47.9715663
  76.7337284 114.8872792  47.1634514  75.3348728 114.7504332  47.7259046
  63.1466669 115.8569313  37.5546741  62.9012711 114.9531643  37.7526951
  63.3162583 115.8586464  36.6126219  70.8363379 106.7292990  46.9371497
  71.3545323 107.4654016  46.6117985  70.4818512 107.0356983  47.7718256
  62.4162316 111.5897671  35.0532903  61.7231561 111.6642026  34.3972938
  62.1714068 110.8258014  35.5754419  68.8909441 122.3252266  34.0197420
  68.3183409 122.9442453  33.5667891  69.4642235 122.8751628  34.5537342
  74.9584831 111.5710906  46.2043968  75.9102254 111.6709004  46.2256192
  74.7888282 110.7789175  46.7142053  72.9799211 108.6566489  46.3903369
  72.3849143 108.9371502  45.6949858  72.6948907 109.1460390  47.1620110
  72.1106701 122.6089416  35.1506002  73.0437374 122.5434978  35.3538877
  72.0229914 123.4445683  34.6920535  74.7394718 121.9255286  32.1109949
  74.6608349 121.5915150  33.0045707  75.5604385 122.4177054  32.1101422
  77.4372909 114.7917026  45.3186268  77.4049229 113.8533026  45.5045952
  78.0473533 114.8701062  44.5852093  69.2756240 113.6613079  31.3613472
  70.2215345 113.5319287  31.4301890  68.8970485 112.9227741  31.8382900
  77.5867398 111.5828069  45.3644551  77.0706446 110.7986526  45.1774480
  78.4707346 111.2546786  45.5291071  75.2478125 105.3269085  41.3240364
  75.0502946 105.0184173  42.2083696  75.8577830 106.0530724  41.4538294
  83.2549459 115.8533033  44.4592305  83.9852847 115.5918321  45.0200008
  82.6456404 115.1161755  44.4994373  81.3364756 113.9940895  45.0566756
  80.6097920 113.8596860  44.4483248  80.9212043 114.3017724  45.8623474
  69.1594932 117.7130825  52.8214129  70.0797942 117.8909424  53.0154176
  69.1244516 116.7686870  52.6693828  67.4599157 111.5863055  31.2968357
  66.5530613 111.2896168  31.3731071  67.7375138 111.2892873  30.4302644
  58.3777097 112.9069419  41.7467404  58.0579882 112.0534727  41.4541778
  57.8310526 113.1217997  42.5025371  62.1557005 115.6231860  45.4636910
  62.3743015 116.5548967  45.4824944  62.5682779 115.2639834  46.2491714
  69.0761223 106.1299945  37.4512599  68.2661951 105.7847030  37.8267845
  69.7645640 105.8207489  38.0400210  71.0051771 105.2077992  39.0736895
  71.5582810 105.6273445  39.7326918  71.2421857 104.2813740  39.1159851
  66.2297942 108.4449990  31.4380336  67.0917106 108.7704889  31.6976154
  66.4148286 107.6581486  30.9253402  58.2465357 116.5272330  43.7160525
  57.5528829 116.1126283  43.2030480  58.9938348 116.5692867  43.1193944
  74.3830578 107.3178517  38.5815559  73.8029247 107.9763321  38.1993612
  74.1166511 106.4955861  38.1702977  72.8334145 106.7183574  40.7836880
  73.3333923 106.8300109  39.9751199  73.4769753 106.4144627  41.4237688
  66.8916140 114.6262204  53.6704721  66.4083222 115.4262564  53.8768610
  66.9777079 114.6370149  52.7172165  60.1602100 116.4590584  41.5926540
  60.1372788 116.5578271  40.6408423  60.4702737 117.3055735  41.9143706
  62.8189478 118.5166739  45.7073155  63.7732731 118.4850681  45.6403086
  62.6202001 118.0557363  46.5223380  63.4088860 117.0867855  48.2743952
  64.2281749 117.5811934  48.2978790  63.6825668 116.1699823  48.2461520
  73.1655456 109.4778607  37.6371908  72.2781311 109.7628258  37.4192103
  73.5809445 109.3172371  36.7899185  76.5169992 109.5025128  41.3526247
  77.2930382 109.9921581  41.6250864  75.7918127 109.9283182  41.8098116
  78.9542551 110.2152747  42.4100188  79.5487042 109.9748483  41.6993496
  79.0269135 109.4959878  43.0373724  61.1739707 124.0586358  42.7243352
  61.0394175 123.2986759  42.1581350  60.7571769 124.7827258  42.2572141
  72.3098670 119.2423282  31.7319928  73.0134520 119.4473284  32.3477583
  71.5861318 119.8100044  31.9969011  73.1396480 114.9933143  37.8522198
  73.0831681 115.4501695  37.0129830  73.6924822 114.2323828  37.6745041
  76.9501286 110.7822875  38.6772317  76.6938220 110.3819511  39.5080525
  76.3254154 111.4966669  38.5522457  81.2613624 113.5218948  41.1843609
  80.7013182 113.5912138  41.9575171  80.6557127 113.3459933  40.4643105
  64.3308833 124.9555675  42.9361795  64.2141217 125.9001108  42.8340485
  63.5101279 124.6529237  43.3247594  74.2185367 119.6805811  33.7818388
  75.0530971 119.2487010  33.5995863  74.0569710 119.5087825  34.7095282
  73.8731259 116.1837924  35.1474727  73.8180063 116.0182196  34.2063171
  73.2477315 116.8913957  35.3036917  58.6623774 111.4205989  48.9736149
  59.3082638 110.9104943  49.4623374  58.4540925 112.1574670  49.5479575
  71.1877166 118.4886836  54.4728290  72.0568326 118.6627488  54.1114925
  70.7083918 119.3081253  54.3504019  67.1827385 105.6846033  34.7260045
  67.1706055 106.6287873  34.8828316  68.0750807 105.5016179  34.4319507
  65.3563347 125.6083937  46.1517724  66.2590593 125.6407547  46.4684218
  65.1300717 124.6784388  46.1664059  67.1116949 124.3614924  42.8127802
  66.1612580 124.3616785  42.6992174  67.4149435 123.6147658  42.2963837
  63.0021265 108.5673606  53.0711164  63.8652727 108.2110411  53.2814488
  62.4286676 108.2287501  53.7586568  82.8469642 130.1975462  43.8773565
  83.4848052 130.0782209  43.1736905  82.7290485 131.1456306  43.9361517
  79.6559348 130.1502890  43.8135089  79.3177860 130.0343955  42.9255624
  80.5249117 129.7494055  43.7936095  75.5146164 132.0038367  39.8031980
  74.9511029 131.9128304  39.0348268  75.3998559 131.1838271  40.2834473
  80.1379131 131.3037742  49.7721295  80.1267772 130.9090540  48.9001798
  80.2999771 130.5703815  50.3655066  73.0610596 133.4989558  42.6416201
  73.8531888 133.1580383  42.2262500  73.3007246 133.6084533  43.5618354
  81.0945723 135.6709334  35.1146445  80.4433703 136.2563415  34.7280459
  81.8890086 136.2015529  35.1741483  75.0201350 132.7598472  35.5133579
  75.7932226 132.2127459  35.3746455  75.3726749 133.6242721  35.7248041
  76.8586393 134.0874854  48.7200479  76.5676259 134.9920485  48.6047145
  77.4943377 134.1291381  49.4344548  77.7842599 131.4651702  45.3101838
  78.3806172 131.2407725  44.5958801  77.8417571 130.7236448  45.9127286
  77.3567628 128.9191138  33.1452029  77.6093149 128.3972659  32.3835492
  76.4192187 128.7557283  33.2478713  82.4010911 127.9226916  40.9526773
  83.1874000 127.5046339  40.6017190  82.6649615 128.8273008  41.1208421
  82.5720988 133.3599766  35.6515429  81.9366821 133.4334393  36.3636334
  82.2418394 133.9493365  34.9734509  87.8019338 127.8602149  41.8559751
  88.5344510 127.2901366  42.0897581  87.0458694 127.4723750  42.2966257
  77.0763917 130.8219244  35.3476404  76.9600175 130.1464147  36.0157489
  77.1866176 130.3351618  34.5308557  79.4195458 130.2829391  39.0523094
  79.0553665 129.7560012  39.7636015  80.2762573 129.8927860  38.8789579
  85.3244758 121.5723723  46.3154360  84.9928083 122.4419134  46.0915575
  84.7290372 121.2560007  46.9948390  79.0600945 125.3119290  34.0484442
  79.2275347 126.1799527  34.4154913  78.8698114 125.4746572  33.1245731
  81.8176278 133.7736269  45.7150272  81.5177001 134.6761308  45.6066080
  81.4727337 133.5068452  46.5671425  75.2688759 130.2250066  41.7486977
  74.3439256 130.0926280  41.9564669  75.5173172 131.0044285  42.2456919
  85.2173421 126.2918809  43.3947710  84.3090299 126.2234218  43.1006471
  85.1661017 126.7690754  44.2229535  79.0390165 127.7676948  35.0331109
  78.9189791 128.2133999  35.8716589  78.3442754 128.1162266  34.4744647
  72.6297570 129.8683340  42.5830766  72.7589951 130.1217819  43.4970178
  71.9495022 130.4611048  42.2635421  76.7997058 140.5380590  38.6821240
  76.7221087 141.4888415  38.7609721  76.1958701 140.1926462  39.3396166
  79.2914287 127.7108455  51.3382607  78.5147621 128.2702375  51.3285472
  79.9304850 128.1965238  51.8597477  87.0835068 124.4935248  45.1725584
  86.4409448 124.7867781  44.5265378  86.5789996 124.3788168  45.9778780
  84.7375232 128.2398421  35.8611443  85.6493088 128.4725808  35.6859140
  84.2284879 128.8235465  35.2986522  77.5460660 130.5193908  50.9000574
  78.2875344 131.0578952  50.6235398  76.8397645 131.1460197  51.0572126
  83.0215999 132.6623049  49.4972736  83.4299355 132.2205459  48.7527368
  82.2993261 132.0875676  49.7506928  79.3747069 127.5995656  46.8706292
  80.2208264 128.0235069  47.0140941  79.3145707 126.9429280  47.5644856
  83.3444814 133.2224240  43.2525024  82.7153676 133.3869954  42.5501092
  82.9570476 133.6365849  44.0235988  87.2234046 134.1578677  40.6069388
  86.5385084 134.5377579  40.0566421  87.3077895 134.7674004  41.3401336
  82.5246515 125.2600024  48.5287466  82.2807446 126.0142085  47.9921742
  82.8006445 125.6385372  49.3634713  84.4784977 131.8038636  47.2064732
  84.6901873 132.4470396  46.5299113  84.4314726 130.9700953  46.7386662
  82.0811206 124.4156457  44.1101304  81.2195685 124.7137711  44.4018041
  82.1073641 124.6326856  43.1782336  78.8972776 132.9598648  40.5175109
  79.3611121 133.2386351  39.7279732  78.6329574 132.0582092  40.3348200
  75.7896857 132.5070129  43.4554873  76.3598214 132.9357398  42.8172357
  76.3804969 132.2252714  44.1539058  77.8341662 129.0821800  37.3264675
  78.5365705 129.5342844  37.7938601  77.5022290 128.4405619  37.9544568
  76.2822023 127.6733557  51.7015884  75.6520684 128.3549837  51.9351281
  76.1758111 127.5616638  50.7569022  71.5766996 127.3405353  42.6281808
  70.7866050 127.5962881  42.1521919  72.0678243 128.1553690  42.7333849
  85.5930805 134.6810592  45.3787089  86.4148249 134.2790779  45.0969771
  85.5893208 134.5778826  46.3303205  73.5281741 127.7049932  39.5865285
  72.7312904 127.8168626  40.1048781  73.3007333 128.0436584  38.7206175
  79.3587409 134.2294635  47.5347800  79.4231841 134.6915042  48.3705971
  78.6498333 133.5992000  47.6630109  69.8604699 127.5935843  45.0596799
  70.1112737 128.4782853  45.3254375  70.3964247 127.4140445  44.2871891
  93.6836798 131.0249340  41.7272060  92.9300507 130.4556738  41.5716065
  93.8184340 130.9912005  42.6742695  79.0735426 135.8962743  37.4026780
  78.9381101 136.7414278  37.8311628  79.6145239 136.0982020  36.6392714
  75.5602766 121.9754322  54.0641135  75.1669712 121.4220521  54.7388779
  76.3768906 122.2864901  54.4547653  72.5264824 133.4138181  37.9754705
  73.0389344 134.2081431  38.1260270  73.1787537 132.7164471  37.9088306
  74.3359709 136.5303937  40.0577458  74.5126337 137.4521902  39.8698442
  75.1316542 136.2162356  40.4871838  78.4770727 123.3912202  51.6561392
  79.2180440 123.9919355  51.5765854  78.7088650 122.6489839  51.0979434
  73.6212065 128.5768569  49.9339621  73.5065580 127.6753826  50.2346720
  72.7656583 128.8232266  49.5824438  80.7003903 136.5186309  51.5327122
  80.2567757 135.7322688  51.2148026  81.3621116 136.7065460  50.8671013
  75.4591024 138.0482111  46.0587800  76.0098449 137.9199174  45.2864794
  74.6202500 138.3477000  45.7082693  82.7985141 136.7989109  49.5608523
  82.7803616 137.6197990  49.0688792  83.7205061 136.6743184  49.7858664
  79.2558195 134.3133239  50.4032032  79.7886532 133.5521527  50.1731340
  78.7272276 134.0206890  51.1456186  82.4227890 119.4193304  45.9325673
  82.0792159 120.3094946  45.8564784  82.7906853 119.2294962  45.0695258
  70.4913741 131.7426835  38.7514275  71.3288963 132.1523843  38.5347983
  70.6692008 130.8026277  38.7214469  82.3878173 129.4101916  34.4398108
  81.8724796 130.1806520  34.6786496  82.1155481 128.7367052  35.0631170
  79.9725284 124.2551616  39.4983347  79.1166880 123.8658467  39.3188986
  80.3852235 124.3343577  38.6383132  81.5024430 121.7897960  43.8974907
  80.9989226 121.7528095  43.0842712  81.7955037 122.6990702  43.9571563
  77.7467316 121.8736689  42.9041088  78.6120313 121.6779498  42.5446978
  77.8144825 121.6447041  43.8310445  87.3612447 132.1634270  36.3751282
  86.5841890 131.8245430  35.9306444  88.0403928 132.1686893  35.7006247
  82.1764476 127.2829008  36.2657890  81.8714611 127.5975157  37.1168033
  83.1294918 127.3610428  36.3085223  80.6210908 133.4419231  37.9150844
  80.0932269 132.7071991  37.6024081  80.1198410 134.2193907  37.6690812
  85.6003754 131.6368251  43.0317890  84.9427428 132.3267513  43.1198019
  86.4044153 132.0264683  43.3751876  75.3529635 124.1038897  40.2757455
  75.9273387 123.8814079  39.5430648  75.9400618 124.1727592  41.0286056
  84.4109213 129.9912624  41.0821832  84.9241094 130.6242616  41.5843541
  85.0610436 129.3913820  40.7165192  75.6799222 126.1343358  34.2953340
  74.8436535 126.4718045  34.6162615  75.5403992 125.9992338  33.3580477
  77.6552303 120.9780146  39.0032525  77.0016715 120.6629163  38.3789139
  77.6132777 120.3555887  39.7292347  78.7663508 131.2599441  30.9185817
  77.8590570 131.0288695  31.1176966  79.2634540 130.4637061  31.1059798
  81.6731587 139.9696948  33.8382503  80.9993286 140.2728645  34.4467461
  82.0597409 140.7726029  33.4887960  80.8890043 127.4662080  43.3280172
  79.9712605 127.6877027  43.1701860  81.3050187 127.5408390  42.4691880
  81.6725091 128.8653495  38.4582852  82.4196910 129.3774893  38.1489974
  81.9416681 128.5437548  39.3187246  79.9451741 131.3612036  35.4409807
  79.0362961 131.0771069  35.5382276  79.9746825 131.7811115  34.5813114
  85.1771009 134.9718626  39.2100974  84.7233336 134.1309536  39.2666165
  84.5464975 135.6080024  39.5475754  84.1203928 125.9010612  40.4401642
  83.3826685 125.3887998  40.7711884  84.3730702 125.4610993  39.6284919
  83.6203948 136.8095122  40.1450792  83.9126922 137.3700179  39.4263158
  84.1302569 137.1023683  40.9003952  84.2215556 118.6786864  41.0343411
  84.5274432 117.8184227  40.7469326  84.9468160 119.2704484  40.8342405
  70.5139912 129.0817550  39.4225009  70.3164312 128.4886911  38.6976075
  69.9586576 128.7769760  40.1400948  78.4936635 128.9740657  41.5419602
  78.5485245 128.0214493  41.4662079  77.6827837 129.1300096  42.0260900
  79.6427829 132.9020780  32.7797885  79.2047259 132.1856639  32.3203523
  80.3838270 133.1296895  32.2182977  76.4328995 127.5917716  39.3009981
  75.6196861 127.8911887  39.7075173  76.9287989 127.1973405  40.0184463
  78.5837573 137.5875473  41.2344246  78.5413752 137.8136320  40.3052778
  79.5000272 137.3538848  41.3830047  82.0303207 128.0559541  48.1324875
  82.3852595 128.2831014  48.9919341  82.6775338 128.3877918  47.5102130
  87.7600944 131.1777977  38.8374204  87.6218843 131.3679573  37.9095393
  87.4037163 131.9397360  39.2942255  75.9243070 125.1636072  44.9171216
  76.5642449 125.0224831  44.2194179  75.0920601 124.8770585  44.5409818
  87.7870324 133.2454504  43.8485475  88.2206830 133.1529793  44.6968529
  88.5001904 133.2212004  43.2105491  76.7003374 134.4638502  41.0306208
  77.4943972 133.9688823  40.8288783  75.9895066 133.9356366  40.6673914
  81.5198218 136.8456598  45.3818576  81.5735241 137.4147534  46.1496292
  80.6513000 137.0158483  45.0172613  73.0086137 128.6081584  37.1065961
  72.0783726 128.5466040  37.3235923  73.1043609 128.0857537  36.3102602
  72.9271686 125.1336397  39.6944203  73.1878504 126.0481730  39.5853363
  73.7488859 124.6660840  39.8440815  74.3996612 126.5474154  46.8643027
  75.0719665 126.3391516  46.2155676  73.5726398 126.3496240  46.4248260
  88.6485873 133.2878204  46.3818361  88.8421763 134.1924015  46.6277636
  88.5486491 132.8285624  47.2156946  80.3022184 123.1736095  48.8808688
  79.6550099 123.8726045  48.7873164  81.0723199 123.6072239  49.2484936
  83.7100982 133.4384947  51.9559241  83.5586488 133.2095499  51.0389325
  83.7005661 134.3955549  51.9690586  80.4786318 131.0116860  46.9405508
  81.4078378 131.1628020  46.7674475  80.0577348 131.1000881  46.0854154
  79.2774650 135.0367524  44.7104045  79.1385736 134.6686309  45.5829984
  78.4889246 135.5515164  44.5388003  79.8722802 140.1376621  36.0529582
  80.0474558 139.6664664  36.8675205  79.1855590 140.7642387  36.2810843
  80.8279865 134.4149127  42.0992883  80.4929698 134.3749897  42.9950533
  80.3283811 133.7493843  41.6263293  74.8024109 129.8216757  47.6245464
  74.6643907 129.0896996  48.2257003  75.7129033 129.7325657  47.3429652
  83.7639057 131.7605161  32.3729943  83.1468227 131.0351990  32.2762996
  83.2955545 132.5214522  32.0297017  77.4306410 129.5336716  47.1129144
  78.1406028 128.8929909  47.0715762  77.3875718 129.7849611  48.0355325
  85.4193188 136.4704070  50.0335723  85.3605735 135.7863290  49.3666306
  85.8212707 137.2123060  49.5816349  76.1435344 126.5201934  48.9324783
  75.6072701 126.0692673  49.5846380  75.5552052 126.6547843  48.1895248
  75.5537603 125.9790586  31.4951247  74.6767069 125.8579387  31.1313494
  76.0295356 125.1876664  31.2430136  85.4210596 134.4343654  48.2649703
  84.5337374 134.0969576  48.3876102  85.9909147 133.7026685  48.5018468
  67.0739743 130.7667745  41.5892754  67.7610783 130.4529475  41.0013770
  66.9187871 131.6709110  41.3160006  71.8774465 125.6557942  46.0177778
  71.7932654 125.0483612  45.2828188  71.0557171 126.1466960  46.0187274
  78.9511749 139.0945106  45.2310946  78.8781921 139.9000078  45.7430251
  78.5089142 139.2937072  44.4058967  78.7401529 138.3316876  38.7413768
  77.9569051 138.8738556  38.8351992  79.4394274 138.8490856  39.1408009
  82.0498179 124.1411506  41.3847973  82.5466878 123.3881468  41.0649043
  81.2785160 124.1775822  40.8191182  89.9027936 129.8451871  43.0266265
  89.8917812 130.7276587  42.6560198  89.0345316 129.4923422  42.8320802
  81.4110433 138.9931940  47.3869105  82.1238405 139.6279405  47.3145006
  80.9200461 139.0895806  46.5709107  83.1327960 132.8983193  38.9586396
  82.1984238 133.0184655  38.7891101  83.3104628 131.9955660  38.6946406
  78.6333148 126.2828889  41.1119658  78.2630935 125.7299929  41.8000563
  79.1292240 125.6787022  40.5594658  86.5200511 128.7400512  39.4936431
  86.9860963 129.5728504  39.4196733  86.9708011 128.2745494  40.1981689
  76.4622346 136.7426384  48.2074676  77.1631806 137.3762867  48.3604070
  75.9917461 137.0841115  47.4470315  84.5876742 135.0844333  36.4922583
  84.8636586 134.9700928  37.4016457  83.7181241 134.6861818  36.4534756
  84.4917174 121.1081099  43.5327332  83.5780253 121.3385326  43.7009539
  84.9210275 121.1919543  44.3841364  84.2623632 129.2970991  46.0327226
  83.6095082 129.5446898  45.3779679  84.6404012 128.4835129  45.6989703
  81.2230806 139.3330684  40.1355396  81.4053201 138.5152340  40.5983149
  82.0463792 139.5498376  39.6980286  81.5572971 138.2598869  37.3970445
  82.0860738 137.7491324  36.7840607  81.8201191 137.9441400  38.2615978
  80.3111205 130.0390802  52.5193263  79.6351842 129.9384931  53.1895638
  81.1338839 129.8830016  52.9829260  72.0590064 136.2762739  45.1405778
  72.6443501 135.5306427  45.2733682  71.8614903 136.5866695  46.0242442
  74.9128719 139.3113986  40.1568221  74.2439095 139.7960114  39.6732261
  74.7741589 139.5583206  41.0711599  66.6507719 128.8468339  43.8610221
  66.6891818 128.3131930  44.6547340  66.1448012 128.3203544  43.2421199
  79.0533988 141.3457730  46.7550879  79.6052296 141.5089351  47.5199964
  79.3940181 141.9362167  46.0830904  74.0298481 123.6932879  47.3572764
  74.0939808 124.5547710  46.9450161  73.9665601 123.0806881  46.6245122
  73.5050754 125.7656012  51.0045798  74.1322793 125.3833089  51.6183322
  72.6478673 125.5470214  51.3701490  83.9044862 136.1718987  52.6099533
  84.4484766 136.7848945  52.1154488  83.3231707 136.7298565  53.1266546
  70.2816297 127.5732441  36.9364153  70.5769738 126.6643119  36.8831207
  69.3804332 127.5520180  36.6145155  82.1902375 139.2939705  43.7414561
  82.0653515 138.4929445  43.2325507  82.8481466 139.7885898  43.2528531
  73.8110544 125.6488438  42.9191701  73.0897129 126.2624405  42.7799175
  74.6003799 126.1846202  42.8408347  84.2537284 137.0948725  45.3694111
  83.3067619 136.9754076  45.2972438  84.6020057 136.2071223  45.4520373
  76.6136857 122.9842864  49.1932353  77.1371259 123.2305161  49.9558662
  76.3949190 123.8162899  48.7735490  72.0104138 125.2546539  37.0603478
  71.6816844 124.3743918  36.8778584  72.3643509 125.1994207  37.9479867
  81.2583717 136.8901441  41.5698463  81.1108679 135.9618149  41.7506034
  82.0837210 136.9121532  41.0855539  75.1245961 125.5419508  37.4278956
  75.4642034 126.0705430  36.7057564  75.5718082 125.8799915  38.2037522
  84.8617839 137.7130000  42.6563336  85.7864386 137.5072861  42.5187787
  84.6933142 137.4646401  43.5652678  77.8189402 123.9256559  46.8782024
  77.4786222 123.1264372  47.2802704  77.1128408 124.2258270  46.3058857
  78.4705874 121.0105872  45.3309347  79.2931943 120.5366350  45.2088237
  78.7143937 121.7896355  45.8308033  77.1114108 124.0394130  35.6272248
  77.8322471 124.4175383  35.1235965  76.4879413 124.7583007  35.7307226
  81.2545231 124.7439279  36.5630581  81.4708846 125.6263917  36.2619409
  80.7739298 124.3525492  35.8336223  75.9944453 127.7024992  43.1401325
  75.8489033 128.0165295  44.0325607  75.5169656 128.3209893  42.5872224
  77.8540836 124.6927540  43.1882215  77.8402404 123.7968634  42.8514513
  78.5713264 124.6998204  43.8220501  79.7066966 125.1264880  45.2335342
  79.4484744 126.0481951  45.2319673  79.1752007 124.7295315  45.9235806
  84.6513155 138.2315668  38.0125428  84.8250033 137.6662090  37.2599280
  85.1442046 139.0316562  37.8304918  70.4690115 130.2430337  46.0788987
  69.9243583 131.0190145  46.2109261  71.3469465 130.5901141  45.9208108
  77.2577731 123.5741920  38.4569785  77.3793643 122.6458567  38.6560673
  76.9679774 123.5880606  37.5448100  80.1268922 121.2596831  41.5936505
  80.1490619 121.3236164  40.6388484  80.5436981 120.4201340  41.7877011
  90.5052546 130.9952090  39.6315727  90.9483692 130.2459416  39.2334851
  89.6279056 130.9862227  39.2489459  85.6388328 137.5482432  35.1122326
  86.3339232 138.1689125  35.3309641  85.9811478 136.6977783  35.3874704
  71.2556137 129.3700233  48.9719143  70.5137873 129.5182868  49.5583774
  70.9348881 129.6308499  48.1085893  87.5379751 134.9982137  36.6409657
  88.0631075 135.3369410  35.9158977  87.4502103 134.0629153  36.4572791
  79.1999799 138.9116211  48.7699533  79.5086926 138.6665358  49.6422233
  79.9975281 139.1162850  48.2818404  79.2220411 141.0654121  41.0004910
  78.7825402 140.5730499  41.6937767  79.9728528 140.5227088  40.7596985
  71.7012750 137.2565662  41.0029538  72.5270770 136.9569433  40.6228182
  71.3506802 136.4873284  41.4519327  76.6694284 136.6092130  43.0727212
  76.0474293 135.9462835  42.7729439  77.3399150 136.6353262  42.3900859
  69.9021355 135.1751988  41.9618472  69.0653264 134.7474162  41.7802473
  69.8745001 135.3684431  42.8989263  76.7418811 125.0873918  52.6659718
  76.7906966 125.9636041  52.2837487  77.2841325 124.5451311  52.0931361
  87.2273657 135.6315041  51.9460855  86.4369200 135.6139180  51.4065354
  86.9907011 136.1703335  52.7009891  87.3471532 132.4807507  49.2593583
  87.3969537 132.3157515  50.2009106  87.2385455 131.6134767  48.8691464
  76.2307790 135.1596053  36.5485672  76.3795911 135.8431518  35.8952345
  77.0374234 135.1401143  37.0635128  84.6375294 128.4638436  50.5752890
  85.5385157 128.3244900  50.2836888  84.7123269 128.6292890  51.5151067
  78.9718099 125.8405290  49.4206076  78.1021409 126.1338856  49.1488665
  79.2077580 126.4245735  50.1413340  88.8489729 134.9004449  49.5035605
  88.5574537 135.2634430  50.3399066  88.2361860 134.1871457  49.3248937
  90.0485411 132.4657329  42.0238175  90.8832302 132.9047133  42.1875735
  90.1844540 131.9895982  41.2046421  87.0976917 130.0237064  47.9715663
  87.5731038 130.2164710  47.1634514  86.1742482 130.0796249  47.7259046
  73.9860423 131.1861231  37.5546741  73.7406465 130.2823561  37.7526951
  74.1556338 131.1878381  36.6126219  81.6757133 122.0584907  46.9371497
  82.1939077 122.7945934  46.6117985  81.3212266 122.3648900  47.7718256
  73.2556071 126.9189588  35.0532903  72.5625316 126.9933943  34.3972938
  73.0107823 126.1549932  35.5754419  81.9269727 118.4785190  42.4572393
  82.2071481 117.8108379  43.0832820  82.7120334 118.6714285  41.9447057
  79.7303196 137.6544184  34.0197420  79.1577163 138.2734371  33.5667891
  80.3035990 138.2043545  34.5537342  85.7978586 126.9002824  46.2043968
  86.7496009 127.0000921  46.2256192  85.6282036 126.1081092  46.7142053
  83.8192965 123.9858407  46.3903369  83.2242897 124.2663420  45.6949858
  83.5342662 124.4752308  47.1620110  82.9500456 137.9381334  35.1506002
  83.8831129 137.8726895  35.3538877  82.8623669 138.7737601  34.6920535
  85.5788472 137.2547204  32.1109949  85.5002104 136.9207068  33.0045707
  86.3998139 137.7468972  32.1101422  88.2766664 130.1208943  45.3186268
  88.2442984 129.1824944  45.5045952  88.8867287 130.1992980  44.5852093
  80.1149994 128.9904996  31.3613472  81.0609099 128.8611204  31.4301890
  79.7364239 128.2519658  31.8382900  88.4261152 126.9119987  45.3644551
  87.9100201 126.1278443  45.1774480  89.3101101 126.5838703  45.5291071
  86.0871879 120.6561002  41.3240364  85.8896700 120.3476091  42.2083696
  86.6971585 121.3822641  41.4538294  94.0943213 131.1824950  44.4592305
  94.8246602 130.9210238  45.0200008  93.4850159 130.4453672  44.4994373
  92.1758511 129.3232813  45.0566756  91.4491674 129.1888778  44.4483248
  91.7605797 129.6309641  45.8623474  79.9988687 133.0422743  52.8214129
  80.9191696 133.2201342  53.0154176  79.9638270 132.0978788  52.6693828
  78.2992912 126.9154973  31.2968357  77.3924367 126.6188085  31.3731071
  78.5768893 126.6184791  30.4302644  69.2170852 128.2361336  41.7467404
  68.8973636 127.3826644  41.4541778  68.6704280 128.4509914  42.5025371
  72.9950760 130.9523777  45.4636910  73.2136769 131.8840885  45.4824944
  73.4076533 130.5931752  46.2491714  79.9154977 121.4591862  37.4512599
  79.1055706 121.1138947  37.8267845  80.6039394 121.1499406  38.0400210
  81.8445526 120.5369909  39.0736895  82.3976564 120.9565363  39.7326918
  82.0815612 119.6105657  39.1159851  77.8678625 126.5256983  54.8539659
  77.7675352 127.4751340  54.7851750  77.6500167 126.1975222  53.9815729
  77.0691696 123.7741908  31.4380336  77.9310860 124.0996806  31.6976154
  77.2542040 122.9873404  30.9253402  69.0859112 131.8564248  43.7160525
  68.3922583 131.4418200  43.2030480  69.8332103 131.8984784  43.1193944
  85.2224333 122.6470434  38.5815559  84.6423002 123.3055238  38.1993612
  84.9560265 121.8247779  38.1702977  83.6727899 122.0475492  40.7836880
  84.1727677 122.1592027  39.9751199  84.3163507 121.7436545  41.4237688
  77.7309895 129.9554122  53.6704721  77.2476977 130.7554482  53.8768610
  77.8170834 129.9662067  52.7172165  70.9995855 131.7882501  41.5926540
  70.9766543 131.8870189  40.6408423  71.3096491 132.6347652  41.9143706
  73.6583232 133.8458656  45.7073155  74.6126486 133.8142599  45.6403086
  73.4595756 133.3849280  46.5223380  74.2482615 132.4159773  48.2743952
  75.0675504 132.9103851  48.2978790  74.5219422 131.4991741  48.2461520
  84.0049211 124.8070525  37.6371908  83.1175066 125.0920175  37.4192103
  84.4203200 124.6464288  36.7899185  87.3563747 124.8317046  41.3526247
  88.1324137 125.3213498  41.6250864  86.6311881 125.2575100  41.8098116
  89.7936305 125.5444665  42.4100188  90.3880796 125.3040401  41.6993496
  89.8662889 124.8251796  43.0373724  72.0133461 139.3878276  42.7243352
  71.8787929 138.6278677  42.1581350  71.5965523 140.1119176  42.2572141
  83.1492424 134.5715199  31.7319928  83.8528274 134.7765202  32.3477583
  82.4255073 135.1391961  31.9969011  83.9790234 130.3225061  37.8522198
  83.9225436 130.7793612  37.0129830  84.5318577 129.5615745  37.6745041
  87.7895040 126.1114793  38.6772317  87.5331975 125.7111428  39.5080525
  87.1647908 126.8258587  38.5522457  92.1007378 128.8510866  41.1843609
  91.5406936 128.9204055  41.9575171  91.4950882 128.6751850  40.4643105
  75.1702587 140.2847593  42.9361795  75.0534971 141.2293025  42.8340485
  74.3495033 139.9821155  43.3247594  85.0579122 135.0097729  33.7818388
  85.8924726 134.5778927  33.5995863  84.8963465 134.8379742  34.7095282
  84.7125014 131.5129842  35.1474727  84.6573818 131.3474113  34.2063171
  84.0871069 132.2205875  35.3036917  69.5017529 126.7497906  48.9736149
  70.1476392 126.2396860  49.4623374  69.2934680 127.4866588  49.5479575
  82.0270921 133.8178754  54.4728290  82.8962081 133.9919406  54.1114925
  81.5477672 134.6373171  54.3504019  78.0221139 121.0137951  34.7260045
  78.0099809 121.9579791  34.8828316  78.9144561 120.8308096  34.4319507
  76.1957101 140.9375855  46.1517724  77.0984348 140.9699465  46.4684218
  75.9694471 140.0076306  46.1664059  77.9510703 139.6906841  42.8127802
  77.0006334 139.6908703  42.6992174  78.2543189 138.9439576  42.2963837
  81.8373259 117.6080728  38.9805982  81.0705655 117.0539214  39.1262665
  82.2483964 117.6802596  39.8420134  73.8415020 123.8965523  53.0711164
  74.7046481 123.5402328  53.2814488  73.2680430 123.5579418  53.7586568
  93.6863397 145.5267380  43.8773565  94.3241807 145.4074127  43.1736905
  93.5684240 146.4748224  43.9361517  90.4953103 145.4794808  43.8135089
  90.1571614 145.3635873  42.9255624  91.3642871 145.0785973  43.7936095
  86.3539919 147.3330284  39.8031980  85.7904784 147.2420221  39.0348268
  86.2392314 146.5130189  40.2834473  90.9772886 146.6329660  49.7721295
  90.9661527 146.2382458  48.9001798  91.1393525 145.8995732  50.3655066
  88.6236354 146.7943620  45.3101838  89.2199926 146.5699642  44.5958801
  88.6811325 146.0528365  45.9127286  93.2404665 143.2518834  40.9526773
  94.0267754 142.8338257  40.6017190  93.5043370 144.1564926  41.1208421
  98.6413092 143.1894067  41.8559751  99.3738264 142.6193284  42.0897581
  97.8852448 142.8015667  42.2966257  90.2589212 145.6121308  39.0523094
  89.8947419 145.0851929  39.7636015  91.1156328 145.2219777  38.8789579
  96.1638513 136.9015641  46.3154360  95.8321837 137.7711052  46.0915575
  95.5684126 136.5851925  46.9948390  86.1082514 145.5541984  41.7486977
  85.1833010 145.4218198  41.9564669  86.3566927 146.3336203  42.2456919
  96.0567176 141.6210727  43.3947710  95.1484053 141.5526136  43.1006471
  96.0054772 142.0982672  44.2229535  83.4691325 145.1975257  42.5830766
  83.5983706 145.4509736  43.4970178  82.7888776 145.7902965  42.2635421
  90.1308042 143.0400373  51.3382607  89.3541376 143.5994293  51.3285472
  90.7698605 143.5257156  51.8597477  97.9228822 139.8227166  45.1725584
  97.2803203 140.1159699  44.5265378  97.4183751 139.7080086  45.9778780
  88.3854414 145.8485826  50.9000574  89.1269098 146.3870870  50.6235398
  87.6791400 146.4752115  51.0572126  93.8609754 147.9914967  49.4972736
  94.2693110 147.5497377  48.7527368  93.1387015 147.4167594  49.7506928
  90.2140824 142.9287573  46.8706292  91.0602019 143.3526987  47.0140941
  90.1539461 142.2721198  47.5644856  93.3640269 140.5891942  48.5287466
  93.1201201 141.3434002  47.9921742  93.6400200 140.9677289  49.3634713
  92.9204961 139.7448375  44.1101304  92.0589440 140.0429628  44.4018041
  92.9467395 139.9618774  43.1782336  89.7366530 148.2890565  40.5175109
  90.2004876 148.5678268  39.7279732  89.4723328 147.3874010  40.3348200
  88.6735416 144.4113718  37.3264675  89.3759460 144.8634761  37.7938601
  88.3416045 143.7697537  37.9544568  87.1215778 143.0025474  51.7015884
  86.4914438 143.6841755  51.9351281  87.0151866 142.8908556  50.7569022
  82.4160750 142.6697270  42.6281808  81.6259804 142.9254799  42.1521919
  82.9071998 143.4845608  42.7333849  84.3675496 143.0341850  39.5865285
  83.5706659 143.1460544  40.1048781  84.1401088 143.3728502  38.7206175
  80.6998453 142.9227761  45.0596799  80.9506492 143.8074771  45.3254375
  81.2358002 142.7432362  44.2871891  86.3996521 137.3046240  54.0641135
  86.0063466 136.7512439  54.7388779  87.2162661 137.6156819  54.4547653
  89.3164482 138.7204119  51.6561392  90.0574195 139.3211272  51.5765854
  89.5482404 137.9781757  51.0979434  84.4605820 143.9060486  49.9339621
  84.3459335 143.0045744  50.2346720  83.6050337 144.1524183  49.5824438
  93.2621644 134.7485222  45.9325673  92.9185914 135.6386864  45.8564784
  93.6300607 134.5586880  45.0695258  90.8119038 139.5843534  39.4983347
  89.9560635 139.1950384  39.3188986  91.2245990 139.6635495  38.6383132
  92.3418185 137.1189877  43.8974907  91.8382980 137.0820012  43.0842712
  92.6348792 138.0282620  43.9571563  88.5861071 137.2028607  42.9041088
  89.4514068 137.0071416  42.5446978  88.6538580 136.9738959  43.8310445
  86.1923390 139.4330815  40.2757455  86.7667142 139.2105996  39.5430648
  86.7794372 139.5019509  41.0286056  95.2502967 145.3204542  41.0821832
  95.7634849 145.9534534  41.5843541  95.9004191 144.7205737  40.7165192
  88.4946058 136.3072064  39.0032525  87.8410470 135.9921081  38.3789139
  88.4526532 135.6847804  39.7292347  91.7283798 142.7953997  43.3280172
  90.8106359 143.0168944  43.1701860  92.1443942 142.8700308  42.4691880
  94.9597683 141.2302529  40.4401642  94.2220440 140.7179916  40.7711884
  95.2124456 140.7902911  39.6284919  95.0609310 134.0078781  41.0343411
  95.3668187 133.1476145  40.7469326  95.7861915 134.5996402  40.8342405
  81.3533666 144.4109468  39.4225009  81.1558066 143.8178829  38.6976075
  80.7980330 144.1061678  40.1400948  89.3330390 144.3032574  41.5419602
  89.3879000 143.3506411  41.4662079  88.5221592 144.4592013  42.0260900
  87.2722750 142.9209634  39.3009981  86.4590615 143.2203805  39.7075173
  87.7681744 142.5265323  40.0184463  92.8696961 143.3851459  48.1324875
  93.2246349 143.6122932  48.9919341  93.5169093 143.7169835  47.5102130
  86.7636825 140.4927990  44.9171216  87.4036204 140.3516749  44.2194179
  85.9314355 140.2062503  44.5409818  83.8479892 143.9373502  37.1065961
  82.9177480 143.8757957  37.3235923  83.9437364 143.4149455  36.3102602
  83.7665441 140.4628315  39.6944203  84.0272258 141.3773648  39.5853363
  84.5882613 139.9952757  39.8440815  85.2390366 141.8766072  46.8643027
  85.9113420 141.6683434  46.2155676  84.4120153 141.6788158  46.4248260
  91.1415938 138.5028013  48.8808688  90.4943853 139.2017962  48.7873164
  91.9116954 138.9364157  49.2484936  91.3180073 146.3408778  46.9405508
  92.2472133 146.4919937  46.7674475  90.8971103 146.4292798  46.0854154
  85.6417864 145.1508675  47.6245464  85.5037661 144.4188914  48.2257003
  86.5522787 145.0617575  47.3429652  88.2700164 144.8628634  47.1129144
  88.9799783 144.2221826  47.0715762  88.2269472 145.1141529  48.0355325
  86.9829098 141.8493852  48.9324783  86.4466455 141.3984590  49.5846380
  86.3945807 141.9839761  48.1895248  82.7168219 140.9849860  46.0177778
  82.6326408 140.3775529  45.2828188  81.8950926 141.4758878  46.0187274
  92.8891933 139.4703423  41.3847973  93.3860633 138.7173386  41.0649043
  92.1178915 139.5067740  40.8191182  89.4726902 141.6120806  41.1119658
  89.1024690 141.0591847  41.8000563  89.9685995 141.0078940  40.5594658
  95.3310928 136.4373017  43.5327332  94.4174008 136.6677244  43.7009539
  95.7604030 136.5211461  44.3841364  95.1017387 144.6262909  46.0327226
  94.4488837 144.8738816  45.3779679  95.4797766 143.8127047  45.6989703
  91.1504960 145.3682720  52.5193263  90.4745597 145.2676849  53.1895638
  91.9732593 145.2121933  52.9829260  77.4901473 144.1760257  43.8610221
  77.5285573 143.6423847  44.6547340  76.9841766 143.6495462  43.2421199
  84.8692236 139.0224797  47.3572764  84.9333562 139.8839628  46.9450161
  84.8059356 138.4098799  46.6245122  84.3444508 141.0947930  51.0045798
  84.9716547 140.7125007  51.6183322  83.4872427 140.8762131  51.3701490
  81.1210051 142.9024359  36.9364153  81.4163492 141.9935037  36.8831207
  80.2198087 142.8812098  36.6145155  84.6504298 140.9780355  42.9191701
  83.9290884 141.5916323  42.7799175  85.4397554 141.5138120  42.8408347
  87.4530612 138.3134782  49.1932353  87.9765013 138.5597078  49.9558662
  87.2342945 139.1454817  48.7735490  82.8497893 140.5838456  37.0603478
  82.5210599 139.7035835  36.8778584  83.2037263 140.5286125  37.9479867
  85.9639716 140.8711426  37.4278956  86.3035788 141.3997347  36.7057564
  86.4111836 141.2091832  38.2037522  88.6583157 139.2548477  46.8782024
  88.3179977 138.4556290  47.2802704  87.9522163 139.5550188  46.3058857
  89.3099628 136.3397789  45.3309347  90.1325698 135.8658267  45.2088237
  89.5537692 137.1188273  45.8308033  87.9507863 139.3686048  35.6272248
  88.6716225 139.7467300  35.1235965  87.3273167 140.0874925  35.7307226
  92.0938986 140.0731197  36.5630581  92.3102600 140.9555835  36.2619409
  91.6133053 139.6817410  35.8336223  86.8338207 143.0316910  43.1401325
  86.6882788 143.3457213  44.0325607  86.3563411 143.6501810  42.5872224
  88.6934590 140.0219458  43.1882215  88.6796159 139.1260551  42.8514513
  89.4107018 140.0290122  43.8220501  90.5460721 140.4556798  45.2335342
  90.2878499 141.3773869  45.2319673  90.0145761 140.0587233  45.9235806
  88.0971486 138.9033838  38.4569785  88.2187397 137.9750484  38.6560673
  87.8073528 138.9172524  37.5448100  90.9662676 136.5888749  41.5936505
  90.9884373 136.6528082  40.6388484  91.3830735 135.7493257  41.7877011
  82.0949891 144.6992151  48.9719143  81.3531627 144.8474786  49.5583774
  81.7742635 144.9600416  48.1085893  87.5812566 140.4165836  52.6659718
  87.6300721 141.2927958  52.2837487  88.1235080 139.8743229  52.0931361
  95.4769049 143.7930353  50.5752890  96.3778911 143.6536818  50.2836888
  95.5517023 143.9584808  51.5151067  89.8111854 141.1697208  49.4206076
  88.9415163 141.4630774  49.1488665  90.0471334 141.7537653  50.1413340
  84.8254178 146.5153148  37.5546741  84.5800220 145.6115478  37.7526951
  84.9950092 146.5170299  36.6126219  92.5150888 137.3876825  46.9371497
  93.0332832 138.1237852  46.6117985  92.1606021 137.6940818  47.7718256
  84.0949825 142.2481506  35.0532903  83.4019070 142.3225861  34.3972938
  83.8501577 141.4841850  35.5754419  92.7663482 133.8077107  42.4572393
  93.0465236 133.1400296  43.0832820  93.5514089 134.0006203  41.9447057
  96.6372340 142.2294741  46.2043968  97.5889763 142.3292839  46.2256192
  96.4675791 141.4373010  46.7142053  94.6586720 139.3150325  46.3903369
  94.0636652 139.5955337  45.6949858  94.3736416 139.8044226  47.1620110
  99.2654907 142.2411905  45.3644551  98.7493955 141.4570361  45.1774480
 100.1494855 141.9130621  45.5291071  96.9265633 135.9852920  41.3240364
  96.7290455 135.6768008  42.2083696  97.5365339 136.7114559  41.4538294
  90.8382441 148.3714660  52.8214129  91.7585451 148.5493259  53.0154176
  90.8032025 147.4270706  52.6693828  80.0564606 143.5653254  41.7467404
  79.7367391 142.7118562  41.4541778  79.5098035 143.7801832  42.5025371
  90.7548732 136.7883780  37.4512599  89.9449460 136.4430865  37.8267845
  91.4433149 136.4791324  38.0400210  92.6839280 135.8661827  39.0736895
  93.2370319 136.2857280  39.7326918  92.9209366 134.9397575  39.1159851
  88.7072379 141.8548901  54.8539659  88.6069106 142.8043258  54.7851750
  88.4893921 141.5267140  53.9815729  96.0618087 137.9762352  38.5815559
  95.4816756 138.6347156  38.1993612  95.7954020 137.1539697  38.1702977
  94.5121654 137.3767410  40.7836880  95.0121432 137.4883944  39.9751199
  95.1557261 137.0728463  41.4237688  88.5703649 145.2846039  53.6704721
  88.0870731 146.0846400  53.8768610  88.6564588 145.2953984  52.7172165
  94.8442965 140.1362443  37.6371908  93.9568820 140.4212093  37.4192103
  95.2596954 139.9756206  36.7899185  98.1957501 140.1608963  41.3526247
  98.9717891 140.6505416  41.6250864  97.4705636 140.5867018  41.8098116
 100.6330060 140.8736583  42.4100188 101.2274551 140.6332319  41.6993496
 100.7056644 140.1543713  43.0373724  80.3411283 142.0789824  48.9736149
  80.9870147 141.5688778  49.4623374  80.1328434 142.8158506  49.5479575
  88.8614894 136.3429869  34.7260045  88.8493564 137.2871709  34.8828316
  89.7538316 136.1600014  34.4319507  92.6767013 132.9372645  38.9805982
  91.9099409 132.3831132  39.1262665  93.0877718 133.0094514  39.8420134
  84.6808774 139.2257441  53.0711164  85.5440236 138.8694246  53.2814488
  84.1074185 138.8871336  53.7586568  15.6641377  21.5496926  38.2572429
  15.2205231  20.7633304  37.9393333  16.3258591  21.7376076  37.5916319
  17.7622615  21.8299726  36.2853830  17.7441091  22.6508607  35.7934099
  18.6842535  21.7053801  36.5103971  14.2195669  19.3443855  37.1277338
  14.7524006  18.5832143  36.8976646  13.6909750  19.0517507  37.8701493
  23.6123347  18.3188821  33.1063667  23.8059237  19.2234632  33.3522942
  23.5123966  17.8596240  33.9402252  18.6738456  18.4695564  38.6804548
  18.5223962  18.2406115  37.7634632  18.6643136  19.4266165  38.6935893
  20.3830663  21.5014686  36.7581030  20.3243209  20.8173906  36.0911613
  20.7850181  22.2433676  36.3061656  20.3848070  19.4654270  34.9895010
  19.4974849  19.1280192  35.1121408  20.9546621  18.7337301  35.2263775
  16.3747907  24.0242557  34.1114411  17.0875879  24.6590021  34.0390313
  15.8837936  24.1206423  33.2954413  15.2748679  15.0701419  39.2438570
  14.5989316  14.9695548  39.9140945  16.0976313  14.9140632  39.7074567
  14.0171462  26.3768346  33.4796186  14.5689770  26.5399968  34.2445271
  14.3577656  26.9672784  32.8076210  18.8682337  21.2029604  39.3344840
  19.4122241  21.8159562  38.8399795  18.2869181  21.7609182  39.8511853
  14.1637274  23.9426828  35.4944840  14.4724400  23.6975974  36.3667540
  14.9612756  24.1473466  35.0063710  22.1911131  20.6625658  38.6706161
  21.4006675  20.6449796  38.1310661  21.9544486  21.2013951  39.4255198
  22.3109006  17.5118124  35.9838890  22.3607011  17.3468131  36.9254413
  22.2022929  16.6445383  35.5936771  19.6012768  13.4949052  37.2998197
  20.5022631  13.3555517  37.0082194  19.6760743  13.6603507  38.2396374
  23.8127203  19.9315066  36.2280911  23.5212011  20.2945046  37.0644372
  23.1999334  19.2182074  36.0494243  14.9626161  18.0733359  39.5459436
  15.8829171  18.2511958  39.7399482  14.9275744  17.1289404  39.3939135
  12.6947369  14.9864738  40.3950027  12.2114451  15.7865098  40.6013916
  12.7808308  14.9972683  39.4417471  16.9908395  18.8489370  41.1973596
  17.8599555  19.0230023  40.8360231  16.5115147  19.6683787  41.0749326
  28.6500871  30.5577996  30.6018871  29.2879281  30.4384744  29.8982211
  28.5321714  31.5058840  30.6606823  25.4590577  30.5105424  30.5380396
  25.1209089  30.3946489  29.6500931  26.3280345  30.1096590  30.5181402
  25.9410360  31.6640276  36.4966601  25.9299001  31.2693074  35.6247105
  26.1031000  30.9306349  37.0900373  18.8641825  33.8592092  29.3661507
  19.6563117  33.5182917  28.9507807  19.1038475  33.9687068  30.2863661
  26.8976952  36.0311869  21.8391752  26.2464931  36.6165949  21.4525766
  27.6921314  36.5618063  21.8986789  22.6617621  34.4477388  35.4445785
  22.3707487  35.3523019  35.3292452  23.2974606  34.4893916  36.1589855
  23.5873828  31.8254237  32.0347145  24.1837401  31.6010259  31.3204108
  23.6448800  31.0838982  32.6372593  28.2042139  28.2829450  27.6772079
  28.9905229  27.8648873  27.3262496  28.4680844  29.1875542  27.8453728
  33.6050567  28.2204683  28.5805058  34.3375739  27.6503900  28.8142887
  32.8489922  27.8326284  29.0211563  25.2226686  30.6431925  25.7768400
  24.8584894  30.1162546  26.4881322  26.0793802  30.2530394  25.6034886
  31.1275987  21.9326258  33.0399666  30.7959312  22.8021668  32.8160881
  30.5321600  21.6162542  33.7193697  27.6207506  34.1338804  32.4395579
  27.3208230  35.0363842  32.3311386  27.2758566  33.8670987  33.2916732
  21.0719988  30.5852600  28.4732283  20.1470484  30.4528814  28.6809975
  21.3204401  31.3646820  28.9702226  31.0204650  26.6521344  30.1193016
  30.1121528  26.5836752  29.8251777  30.9692246  27.1293289  30.9474842
  18.4328799  30.2285874  29.3076073  18.5621180  30.4820353  30.2215484
  17.7526250  30.8213582  28.9880728  22.6028286  40.8983124  25.4066547
  22.5252316  41.8490949  25.4855027  21.9989930  40.5528996  26.0641473
  25.0945516  28.0710989  38.0627914  24.3178850  28.6304909  38.0530778
  25.7336079  28.5567772  38.5842784  32.8866297  24.8537782  31.8970890
  32.2440677  25.1470315  31.2510685  32.3821225  24.7390702  32.7024087
  23.3491888  30.8796443  37.6245881  24.0906573  31.4181487  37.3480704
  22.6428874  31.5062731  37.7817432  28.8247228  33.0225583  36.2218042
  29.2330584  32.5807994  35.4772675  28.1024490  32.4478211  36.4752235
  25.1778298  27.9598190  33.5951599  26.0239493  28.3837603  33.7386248
  25.1176936  27.3031814  34.2890162  29.1476043  33.5826774  29.9770331
  28.5184905  33.7472488  29.2746399  28.7601705  33.9968383  30.7481295
  33.0265275  34.5181212  27.3314695  32.3416313  34.8980113  26.7811728
  33.1109124  35.1276538  28.0646643  28.3277743  25.6202558  35.2532773
  28.0838675  26.3744619  34.7167048  28.6037674  25.9987906  36.0880020
  30.2816206  32.1641171  33.9310038  30.4933101  32.8072930  33.2544419
  30.2345954  31.3303487  33.4631968  27.8842435  24.7758991  30.8346610
  27.0226914  25.0740245  31.1263348  27.9104870  24.9929390  29.9027643
  24.7004005  33.3201182  27.2420416  25.1642350  33.5988885  26.4525039
  24.4360803  32.4184626  27.0593507  21.5928086  32.8672663  30.1800179
  22.1629443  33.2959932  29.5417664  22.1836197  32.5855248  30.8784365
  22.0853252  28.0336091  38.4261191  21.4551913  28.7152372  38.6596587
  21.9789340  27.9219172  37.4814329  31.3962034  35.0413126  32.1032396
  32.2179478  34.6393313  31.8215077  31.3924437  34.9381360  33.0548511
  25.1618638  34.5897169  34.2593106  25.2263070  35.0517577  35.0951278
  24.4529561  33.9594534  34.3875416  15.6635928  27.9538377  31.7842106
  15.9143966  28.8385387  32.0499682  16.1995476  27.7742979  31.0117197
  39.4868027  31.3851874  28.4517367  38.7331736  30.8159273  28.2961372
  39.6215568  31.3514539  29.3988002  24.8766655  36.2565277  24.1272086
  24.7412330  37.1016813  24.5556934  25.4176468  36.4584554  23.3638020
  21.3633995  22.3356857  40.7886442  20.9700940  21.7823055  41.4634086
  22.1800135  22.6467435  41.1792959  20.1390937  36.8906471  26.7822765
  20.3157566  37.8124436  26.5943749  20.9347771  36.5764890  27.2117145
  24.2801956  23.7514736  38.3806698  25.0211669  24.3521889  38.3011161
  24.5119879  23.0092374  37.8224741  19.4243294  28.9371103  36.6584928
  19.3096809  28.0356360  36.9592027  18.5687812  29.1834800  36.3069744
  26.5035132  36.8788843  38.2572429  26.0598986  36.0925222  37.9393333
  27.1652345  37.0667994  37.5916319  21.2622253  38.4084645  32.7833107
  21.8129678  38.2801708  32.0110101  20.4233729  38.7079534  32.4328000
  28.6016370  37.1591643  36.2853830  28.5834845  37.9800524  35.7934099
  29.5236290  37.0345718  36.5103971  25.0589424  34.6735773  37.1277338
  25.5917761  33.9124061  36.8976646  24.5303505  34.3809425  37.8701493
  28.2259119  19.7795839  32.6570980  27.8823388  20.6697480  32.5810091
  28.5938081  19.5897496  31.7940565  27.3055659  22.1500494  30.6220213
  26.8020455  22.1130629  29.8088018  27.5986266  23.0593237  30.6816870
  33.1643676  32.5236804  23.0996589  32.3873118  32.1847964  22.6551751
  33.8435157  32.5289428  22.4251554  26.4242137  33.8021765  24.6396150
  25.8963498  33.0674525  24.3269388  25.9229639  34.5796442  24.3936119
  31.4034983  31.9970786  29.7563197  30.7458657  32.6870047  29.8443325
  32.2075382  32.3867218  30.0997183  30.2140441  30.3515158  27.8067138
  30.7272323  30.9845150  28.3088848  30.8641665  29.7516354  27.4410498
  27.4762816  40.3299483  20.5627809  26.8024514  40.6331179  21.1712767
  27.8628638  41.1328563  20.2133266  26.6921272  27.8264614  30.0525479
  25.7743834  28.0479561  29.8947167  27.1081416  27.9010924  29.1937186
  27.4756320  29.2256030  25.1828159  28.2228139  29.7377427  24.8735281
  27.7447910  28.9040082  26.0432553  30.9802238  35.3321160  25.9346281
  30.5264565  34.4912070  25.9911471  30.3496204  35.9682558  26.2721061
  29.9235157  26.2613146  27.1646948  29.1857914  25.7490532  27.4957191
  30.1761931  25.8213527  26.3530225  29.4235177  37.1697657  26.8696099
  29.7158151  37.7302714  26.1508465  29.9333797  37.4626218  27.6249258
  24.2967864  29.3343191  28.2664909  24.3516474  28.3817027  28.1907385
  23.4859066  29.4902630  28.7506207  24.3868802  37.9478008  27.9589552
  24.3444981  38.1738854  27.0298084  25.3031501  37.7141382  28.1075353
  27.8334436  28.4162075  34.8570181  28.1883824  28.6433548  35.7164647
  28.4806567  28.7480452  34.2347437  33.5632173  31.5380511  25.5619510
  33.4250071  31.7282107  24.6340700  33.2068392  32.2999894  26.0187562
  21.7274299  25.5238606  31.6416523  22.3673678  25.3827365  30.9439486
  20.8951829  25.2373120  31.2655125  33.5901552  33.6057038  30.5730782
  34.0238059  33.5132327  31.4213836  34.3033133  33.5814539  29.9350798
  22.5034603  34.8241037  27.7551515  23.2975201  34.3291357  27.5534090
  21.7926295  34.2958900  27.3919221  27.3229447  37.2059132  32.1063883
  27.3766470  37.7750068  32.8741598  26.4544229  37.3761017  31.7417920
  20.2027841  26.9076688  33.5888334  20.8750894  26.6994050  32.9400983
  19.3757627  26.7098774  33.1493566  34.4517102  33.6480739  33.1063667
  34.6452992  34.5526549  33.3522942  34.3517720  33.1888158  33.9402252
  26.1053413  23.5338629  35.6053995  25.4581328  24.2328579  35.5118471
  26.8754428  23.9674773  35.9730243  29.5132211  33.7987481  38.6804548
  29.3617717  33.5698033  37.7634632  29.5036890  34.7558083  38.6935893
  26.2817547  31.3719394  33.6650814  27.2109607  31.5230554  33.4919782
  25.8608577  31.4603415  32.8099461  25.0805879  35.3970059  31.4349352
  24.9416964  35.0288843  32.3075290  24.2920475  35.9117698  31.2633310
  25.6754031  40.4979155  22.7774889  25.8505786  40.0267198  23.5920511
  24.9886819  41.1244921  23.0056149  26.6311094  34.7751661  28.8238190
  26.2960927  34.7352431  29.7195840  26.1315040  34.1096377  28.3508600
  20.6055338  30.1819291  34.3490771  20.4675136  29.4499530  34.9502310
  21.5160261  30.0928191  34.0674959  23.2337639  29.8939251  33.8374451
  23.9437257  29.2532443  33.7961069  23.1906947  30.1452146  34.7600631
  31.2224417  36.8306604  36.7581030  31.1636963  36.1465824  36.0911613
  31.6243936  37.5725594  36.3061656  21.9466573  26.8804469  35.6570090
  21.4103930  26.4295207  36.3091686  21.3583281  27.0150377  34.9140554
  20.2415116  43.6468518  29.5514749  20.4811714  44.2787042  30.2293767
  19.3984312  43.2956558  29.8380108  31.2241824  34.7946188  34.9895010
  30.3368603  34.4572110  35.1121408  31.7940376  34.0629219  35.2263775
  17.6805694  26.0160476  32.7423085  17.5963882  25.4086146  32.0073495
  16.8588400  26.5069495  32.7432581  24.7542978  39.4547640  31.9556253
  24.6813149  40.2602612  32.4675557  24.3120371  39.6539606  31.1304274
  24.5432757  38.6919410  25.4659074  23.7600279  39.2341091  25.5597299
  25.2425503  39.2093390  25.8653315  35.7059165  30.2054405  29.7511571
  35.6949041  31.0879121  29.3805504  34.8376544  29.8525956  29.5566108
  27.2141661  39.3534474  34.1114411  27.9269634  39.9881939  34.0390313
  26.7231690  39.4498340  33.2954413  28.9359188  33.2585727  25.6831703
  28.0015467  33.3787189  25.5136407  29.1135857  32.3558194  25.4191713
  32.3231740  29.1003046  26.2181737  32.7892192  29.9331038  26.1442040
  32.7739240  28.6348028  26.9226996  22.2653575  37.1028918  34.9319982
  22.9663034  37.7365401  35.0849376  21.7948690  37.4443649  34.1715621
  30.3907971  35.4446868  23.2167889  30.6667815  35.3303462  24.1261763
  29.5212469  35.0464352  23.1780062  30.2948402  21.4683633  30.2572639
  29.3811482  21.6987860  30.4254845  30.7241504  21.5522077  31.1086671
  30.0654861  29.6573525  32.7572533  29.4126311  29.9049433  32.1024985
  30.4435241  28.8437663  32.4235010  27.0262035  39.6933218  26.8600703
  27.2084429  38.8754874  27.3228455  27.8495021  39.9100911  26.4225593
  27.3604200  38.6201404  24.1215751  27.8891967  38.1093858  23.5085913
  27.6232420  38.3043934  24.9861284  26.1142434  30.3993336  39.2438570
  25.4383071  30.2987466  39.9140945  26.9370068  30.2432550  39.7074567
  17.8621293  36.6365273  31.8651085  18.4474730  35.8908961  31.9978989
  17.6646131  36.9469230  32.7487749  20.7159948  39.6716520  26.8813527
  20.0470323  40.1562648  26.3977567  20.5772818  39.9185741  27.7956906
  24.8565217  41.7060264  33.4796186  25.4083525  41.8691885  34.2445271
  25.1971410  42.2964702  32.8076210  19.8329710  24.0535414  34.0818070
  19.8971037  24.9150244  33.6695468  19.7696830  23.4409415  33.3490429
  19.3081983  26.1258546  37.7291105  19.9354021  25.7435623  38.3428629
  18.4509901  25.9072748  38.0946797  29.7076091  36.5321521  39.3344840
  30.2515995  37.1451480  38.8399795  29.1262936  37.0901100  39.8511853
  27.9933604  39.6542239  30.4659868  27.8684744  38.8531979  29.9570813
  28.6512695  40.1488433  29.9773838  30.0568512  37.4551259  32.0939418
  29.1098848  37.3356611  32.0217745  30.4051286  36.5673757  32.1765679
  22.4168086  23.3445398  35.9177660  22.9402488  23.5907695  36.6803969
  22.1980419  24.1765433  35.4980797  27.0614946  37.2503976  28.2943770
  26.9139908  36.3220683  28.4751340  27.8868439  37.2724066  27.8100845
  30.6649068  38.0732534  29.3808643  31.5895615  37.8675396  29.2433094
  30.4964371  37.8248935  30.2897984  23.6220631  24.2859093  33.6027330
  23.2817451  23.4866906  34.0048010  22.9159637  24.5860804  33.0304164
  24.2737103  21.3708406  32.0554653  25.0963172  20.8968884  31.9333544
  24.5175166  22.1498890  32.5553340  21.7975681  28.0627526  29.8646632
  21.6520262  28.3767830  30.7570913  21.3200885  28.6812427  29.3117531
  23.6572064  25.0530074  29.9127522  23.6433633  24.1571168  29.5759819
  24.3744492  25.0600738  30.5465808  25.5098195  25.4867415  31.9580649
  25.2515973  26.4084485  31.9564979  24.9783235  25.0897849  32.6481113
  30.4544384  38.5918202  24.7370734  30.6281261  38.0264624  23.9844587
  30.9473275  39.3919097  24.5550224  16.2721344  30.6032871  32.8034293
  15.7274812  31.3792679  32.9354567  17.1500693  30.9503675  32.6453415
  36.3083775  31.3554625  26.3561034  36.7514921  30.6061950  25.9580157
  35.4310285  31.3464761  25.9734766  31.4419556  37.9084966  21.8367633
  32.1370461  38.5291659  22.0554947  31.7842706  37.0580317  22.1120010
  17.0587365  29.7302767  35.6964450  16.3169102  29.8785402  36.2829080
  16.7380110  29.9911033  34.8331199  33.3410979  35.3584672  23.3654963
  33.8662304  35.6971944  22.6404283  33.2533332  34.4231687  23.1818098
  25.0031028  39.2718745  35.4944840  25.3118155  39.0267892  36.3667540
  25.8006510  39.4765384  35.0063710  25.0251640  41.4256655  27.7250217
  24.5856630  40.9333034  28.4183073  25.7759757  40.8829623  27.4842292
  17.5043979  37.6168196  27.7274845  18.3301999  37.3171968  27.3473488
  17.1538031  36.8475818  28.1764633  22.4725512  36.9694664  29.7972518
  21.8505522  36.3065369  29.4974746  23.1430379  36.9955796  29.1146166
  15.7052584  35.5354522  28.6863778  14.8684493  35.1076697  28.5047779
  15.6776230  35.7286966  29.6234569  22.5450040  25.4476452  39.3905024
  22.5938195  26.3238575  39.0082794  23.0872554  24.9053845  38.8176667
  33.0304885  35.9917575  38.6706161  32.2400429  35.9741714  38.1310661
  32.7938240  36.5305869  39.4255198  33.1502761  32.8410042  35.9838890
  33.2000765  32.6760049  36.9254413  33.0416684  31.9737301  35.5936771
  30.4406523  28.8240970  37.2998197  31.3416386  28.6847435  37.0082194
  30.5154497  28.9895425  38.2396374  24.7749328  26.2007824  36.1451383
  23.9052638  26.4941391  35.8733971  25.0108809  26.7848269  36.8658647
  34.6520957  35.2606983  36.2280911  34.3605766  35.6236964  37.0644372
  34.0393089  34.5473992  36.0494243  35.8516640  32.8259863  28.7483482
  36.6863531  33.2649667  28.9121042  35.9875768  32.3498516  27.9291727
  32.9008146  30.3839598  34.6960969  33.3762267  30.5767244  33.8879821
  31.9773711  30.4398784  34.4504353  27.4788362  22.4187441  33.6616803
  27.9970306  23.1548468  33.3363292  27.1243495  22.7251435  34.4963562
  31.6009815  27.2605358  32.9289275  32.5527237  27.3603456  32.9501499
  31.4313265  26.4683626  33.4387359  29.6224194  24.3460941  33.1148676
  29.0274126  24.6265954  32.4195165  29.3373891  24.8354842  33.8865417
  28.7531685  38.2983868  21.8751308  29.6862358  38.2329430  22.0784184
  28.6654897  39.1340135  21.4165841  31.3819701  37.6149738  18.8355256
  31.3033333  37.2809602  19.7291014  32.2029368  38.1071506  18.8346728
  34.0797892  30.4811478  32.0431575  34.0474212  29.5427478  32.2291258
  34.6898516  30.5595514  31.3097400  34.2292381  27.2722521  32.0889858
  33.7131430  26.4880978  31.9019787  35.1132329  26.9441238  32.2536377
  31.8903108  21.0163537  28.0485671  31.6927929  20.7078625  28.9329002
  32.5002813  21.7425176  28.1783600  39.8974442  31.5427484  31.1837611
  40.6277831  31.2812773  31.7445315  39.2881388  30.8056206  31.2239679
  37.9789739  29.6835347  31.7812063  37.2522903  29.5491312  31.1728554
  37.5637026  29.9912176  32.5868781  25.8019916  33.4025277  39.5459436
  26.7222925  33.5803876  39.7399482  25.7669499  32.4581322  39.3939135
  18.7981988  31.3126311  32.1882217  19.0167998  32.2443419  32.2070251
  19.2107762  30.9534286  32.9737021  23.6709854  26.8859517  41.5784966
  23.5706581  27.8353874  41.5097057  23.4531396  26.5577756  40.7061036
  14.8890341  32.2166782  30.4405832  14.1953812  31.8020735  29.9275786
  15.6363332  32.2587318  29.8439251  23.5341124  30.3156656  40.3950027
  23.0508205  31.1157016  40.6013916  23.6202063  30.3264601  39.4417471
  19.4614461  34.2061191  32.4318461  20.4157715  34.1745133  32.3648393
  19.2626985  33.7451814  33.2468687  20.0513843  32.7762307  34.9989259
  20.8706732  33.2706385  35.0224096  20.3250651  31.8594275  34.9706826
  33.1594976  25.1919580  28.0771554  33.9355366  25.6816032  28.3496170
  32.4343110  25.6177634  28.5343423  35.5967534  25.9047199  29.1345494
  36.1912025  25.6642935  28.4238802  35.6694118  25.1854330  29.7619031
  17.8164690  39.7480810  29.4488659  17.6819158  38.9881211  28.8826657
  17.3996752  40.4721710  28.9817448  29.7821463  30.6827595  24.5767505
  29.7256665  31.1396146  23.7375137  30.3349806  29.9218280  24.3990347
  33.5926269  26.4717327  25.4017624  33.3363203  26.0713963  26.2325832
  32.9679137  27.1861121  25.2767763  37.9038607  29.2113400  27.9088915
  37.3438165  29.2806589  28.6820477  37.2982110  29.0354385  27.1888412
  20.9733816  40.6450127  29.6607102  20.8566200  41.5895560  29.5585792
  20.1526262  40.3423689  30.0492901  30.8610350  35.3700263  20.5063694
  31.6955954  34.9381461  20.3241169  30.6994693  35.1982277  21.4340589
  15.3048758  27.1100441  35.6981456  15.9507621  26.5999395  36.1868681
  15.0965909  27.8469122  36.2724881  27.8302150  34.1781288  41.1973596
  28.6993309  34.3521940  40.8360231  27.3508901  34.9975705  41.0749326
  21.9988330  41.2978389  32.8763030  22.9015577  41.3301999  33.1929525
  21.7725700  40.3678840  32.8909366  23.7541932  40.0509376  29.5373109
  22.8037563  40.0511237  29.4237481  24.0574418  39.3042110  29.0209143
  19.6446249  24.2568058  39.7956470  20.5077710  23.9004863  40.0059795
  19.0711659  23.9181953  40.4831874  39.4894625  45.8869914  30.6018871
  40.1273035  45.7676661  29.8982211  39.3715468  46.8350758  30.6606823
  36.2984332  45.8397342  30.5380396  35.9602843  45.7238407  29.6500931
  37.1674100  45.4388507  30.5181402  32.1571147  47.6932819  26.5277287
  31.5936013  47.6022755  25.7593575  32.0423543  46.8732723  27.0079779
  36.7804115  46.9932194  36.4966601  36.7692756  46.5984992  35.6247105
  36.9424754  46.2598266  37.0900373  29.7035579  49.1884010  29.3661507
  30.4956871  48.8474835  28.9507807  29.9432230  49.2978985  30.2863661
  37.7370706  51.3603786  21.8391752  37.0858686  51.9457867  21.4525766
  38.5315069  51.8909981  21.8986789  31.6626333  48.4492923  22.2378886
  32.4357209  47.9021910  22.0991762  32.0151732  49.3137173  22.4493347
  33.5011376  49.7769306  35.4445785  33.2101242  50.6814937  35.3292452
  34.1368360  49.8185833  36.1589855  34.4267583  47.1546154  32.0347145
  35.0231155  46.9302177  31.3204108  34.4842554  46.4130900  32.6372593
  33.9992611  44.6085590  19.8697336  34.2518132  44.0867111  19.1080799
  33.0617170  44.4451735  19.9724020  39.0435894  43.6121368  27.6772079
  39.8298983  43.1940791  27.3262496  39.3074598  44.5167460  27.8453728
  39.2145971  49.0494218  22.3760736  38.5791804  49.1228845  23.0881641
  38.8843378  49.6387817  21.6979815  44.4444321  43.5496601  28.5805058
  45.1769493  42.9795818  28.8142887  43.6883677  43.1618202  29.0211563
  33.7188900  46.5113695  22.0721711  33.6025158  45.8358599  22.7402795
  33.8291160  46.0246069  21.2553864  36.0620441  45.9723843  25.7768400
  35.6978648  45.4454464  26.4881322  36.9187557  45.5822312  25.6034886
  41.9669741  37.2618175  33.0399666  41.6353066  38.1313586  32.8160881
  41.3715355  36.9454459  33.7193697  35.7025928  41.0013742  20.7729749
  35.8700330  41.8693979  21.1400220  35.5123097  41.1641024  19.8491038
  38.4601261  49.4630721  32.4395579  38.1601984  50.3655760  32.3311386
  38.1152321  49.1962904  33.2916732  31.9113742  45.9144518  28.4732283
  30.9864239  45.7820732  28.6809975  32.1598156  46.6938737  28.9702226
  41.8598405  41.9813261  30.1193016  40.9515282  41.9128670  29.8251777
  41.8086001  42.4585206  30.9474842  35.6815149  43.4571400  21.7576416
  35.5614774  43.9028451  22.5961896  34.9867737  43.8056717  21.1989954
  29.2722554  45.5577792  29.3076073  29.4014935  45.8112270  30.2215484
  28.5920005  46.1505500  28.9880728  33.4422041  56.2275042  25.4066547
  33.3646070  57.1782867  25.4855027  32.8383684  55.8820914  26.0641473
  35.9339271  43.4002907  38.0627914  35.1572605  43.9596827  38.0530778
  36.5729834  43.8859690  38.5842784  43.7260051  40.1829700  31.8970890
  43.0834431  40.4762233  31.2510685  43.2214980  40.0682620  32.7024087
  41.3800215  43.9292873  22.5856750  42.2918071  44.1620260  22.4104447
  40.8709862  44.5129917  22.0231828  34.1885643  46.2088360  37.6245881
  34.9300327  46.7473404  37.3480704  33.4822628  46.8354649  37.7817432
  39.6640983  48.3517501  36.2218042  40.0724339  47.9099911  35.4772675
  38.9418244  47.7770128  36.4752235  36.0172053  43.2890108  33.5951599
  36.8633248  43.7129521  33.7386248  35.9570690  42.6323732  34.2890162
  39.9869797  48.9118691  29.9770331  39.3578660  49.0764406  29.2746399
  39.5995459  49.3260301  30.7481295  43.8659029  49.8473129  27.3314695
  43.1810067  50.2272031  26.7811728  43.9502878  50.4568456  28.0646643
  39.1671498  40.9494476  35.2532773  38.9232430  41.7036536  34.7167048
  39.4431428  41.3279824  36.0880020  41.1209961  47.4933088  33.9310038
  41.3326856  48.1364848  33.2544419  41.0739709  46.6595405  33.4631968
  38.7236190  40.1050909  30.8346610  37.8620669  40.4032162  31.1263348
  38.7498624  40.3221308  29.9027643  35.5397759  48.6493099  27.2420416
  36.0036105  48.9280802  26.4525039  35.2754557  47.7476544  27.0593507
  32.4321840  48.1964581  30.1800179  33.0023197  48.6251849  29.5417664
  33.0229952  47.9147166  30.8784365  34.4766645  44.7716252  24.0509981
  35.1790688  45.2237296  24.5183908  34.1447274  44.1300071  24.6789874
  32.9247007  43.3628008  38.4261191  32.2945667  44.0444289  38.6596587
  32.8183094  43.2511090  37.4814329  28.2191979  43.0299805  29.3527115
  27.4291033  43.2857333  28.8767225  28.7103226  43.8448142  29.4579155
  42.2355789  50.3705044  32.1032396  43.0573232  49.9685231  31.8215077
  42.2318191  50.2673278  33.0548511  30.1706724  43.3944384  26.3110592
  29.3737888  43.5063078  26.8294087  29.9432317  43.7331036  25.4451482
  36.0012392  49.9189087  34.2593106  36.0656825  50.3809494  35.0951278
  35.2923316  49.2886452  34.3875416  26.5029682  43.2830295  31.7842106
  26.7537720  44.1677305  32.0499682  27.0389230  43.1034896  31.0117197
  50.3261782  46.7143792  28.4517367  49.5725490  46.1451190  28.2961372
  50.4609323  46.6806457  29.3988002  35.7160410  51.5857194  24.1272086
  35.5806084  52.4308730  24.5556934  36.2570222  51.7876472  23.3638020
  32.2027749  37.6648774  40.7886442  31.8094695  37.1114973  41.4634086
  33.0193890  37.9759353  41.1792959  29.1689807  49.1032633  24.7000012
  29.6814328  49.8975883  24.8505576  29.8212520  48.4058923  24.6333613
  30.9784692  52.2198389  26.7822765  31.1551320  53.1416353  26.5943749
  31.7741525  51.9056808  27.2117145  35.1195710  39.0806653  38.3806698
  35.8605424  39.6813807  38.3011161  35.3513633  38.3384291  37.8224741
  30.2637048  44.2663021  36.6584928  30.1490563  43.3648278  36.9592027
  29.4081566  44.5126717  36.3069744  37.3428886  52.2080761  38.2572429
  36.8992740  51.4217140  37.9393333  38.0046100  52.3959911  37.5916319
  32.1016007  53.7376563  32.7833107  32.6523432  53.6093626  32.0110101
  31.2627483  54.0371452  32.4328000  39.4410124  52.4883561  36.2853830
  39.4228599  53.3092442  35.7934099  40.3630044  52.3637636  36.5103971
  35.8983178  50.0027690  37.1277338  36.4311515  49.2415979  36.8976646
  35.3697259  49.7101342  37.8701493  39.0652873  35.1087756  32.6570980
  38.7217143  35.9989398  32.5810091  39.4331836  34.9189414  31.7940565
  27.1338724  47.4321287  25.4759582  27.9713946  47.8418295  25.2593290
  27.3116992  46.4920729  25.4459776  39.0303156  45.0996367  21.1643415
  38.5149779  45.8700972  21.4031802  38.7580464  44.4261504  21.7876477
  36.6150267  39.9446068  26.2228653  35.7591863  39.5552919  26.0434292
  37.0277219  40.0238029  25.3628439  38.1449414  37.4792412  30.6220213
  37.6414209  37.4422547  29.8088018  38.4380021  38.3885154  30.6816870
  34.3892300  37.5631141  29.6286395  35.2545296  37.3673950  29.2692284
  34.4569808  37.3341493  30.5555752  44.0037430  47.8528722  23.0996589
  43.2266873  47.5139882  22.6551751  44.6828911  47.8581345  22.4251554
  38.8189459  42.9723460  22.9903196  38.5139595  43.2869609  23.8413339
  39.7719901  43.0504879  23.0330529  37.2635891  49.1313683  24.6396150
  36.7357253  48.3966442  24.3269388  36.7623394  49.9088359  24.3936119
  42.2428737  47.3262703  29.7563197  41.5852411  48.0161965  29.8443325
  43.0469136  47.7159135  30.0997183  31.9954619  39.7933349  27.0002762
  32.5698371  39.5708531  26.2675955  32.5825601  39.8622044  27.7531363
  41.0534196  45.6807076  27.8067138  41.5666078  46.3137068  28.3088848
  41.7035420  45.0808272  27.4410498  32.3224206  41.8237810  21.0198647
  31.4861518  42.1612497  21.3407922  32.1828975  41.6886790  20.0825784
  34.2977286  36.6674598  25.7277831  33.6441699  36.3523615  25.1034446
  34.2557760  36.0450339  26.4537654  35.4088491  46.9493893  17.6431123
  34.5015553  46.7183147  17.8422272  35.9059523  46.1531512  17.8305105
  38.3156570  55.6591400  20.5627809  37.6418269  55.9623097  21.1712767
  38.7022392  56.4620481  20.2133266  37.5315027  43.1556532  30.0525479
  36.6137588  43.3771479  29.8947167  37.9475170  43.2302842  29.1937186
  38.3150074  44.5547947  25.1828159  39.0621893  45.0669345  24.8735281
  38.5841664  44.2332000  26.0432553  36.5876725  47.0506488  22.1655113
  35.6787944  46.7665521  22.2627583  36.6171808  47.4705567  21.3058420
  41.8195992  50.6613078  25.9346281  41.3658319  49.8203987  25.9911471
  41.1889959  51.2974476  26.2721061  40.7628912  41.5905064  27.1646948
  40.0251668  41.0782450  27.4957191  41.0155685  41.1505445  26.3530225
  40.2628931  52.4989574  26.8696099  40.5551906  53.0594631  26.1508465
  40.7727552  52.7918135  27.6249258  40.8640539  34.3681316  27.7588718
  41.1699416  33.5078679  27.4714633  41.5893144  34.9598936  27.5587712
  27.1564895  44.7712002  26.1470316  26.9589295  44.1781363  25.4221382
  26.6011559  44.4664212  26.8646254  35.1361619  44.6635109  28.2664909
  35.1910228  43.7108945  28.1907385  34.3252821  44.8194548  28.7506207
  36.2852812  48.5915232  19.5043192  35.8472242  47.8751091  19.0448829
  37.0263253  48.8191347  18.9428283  33.0753979  43.2812168  26.0255288
  32.2621844  43.5806339  26.4320480  33.5712973  42.8867857  26.7429770
  35.2262556  53.2769925  27.9589552  35.1838735  53.5030772  27.0298084
  36.1425255  53.0433300  28.1075353  38.6728190  43.7453993  34.8570181
  39.0277578  43.9725466  35.7164647  39.3200321  44.0772370  34.2347437
  44.4025927  46.8672429  25.5619510  44.2643826  47.0574025  24.6340700
  44.0462146  47.6291812  26.0187562  32.5668053  40.8530524  31.6416523
  33.2067433  40.7119283  30.9439486  31.7345584  40.5665037  31.2655125
  44.4295307  48.9348956  30.5730782  44.8631813  48.8424245  31.4213836
  45.1426888  48.9106456  29.9350798  33.3428357  50.1532954  27.7551515
  34.1368956  49.6583274  27.5534090  32.6320050  49.6250817  27.3919221
  38.1623202  52.5351050  32.1063883  38.2160224  53.1041986  32.8741598
  37.2937983  52.7052935  31.7417920  29.6511121  44.2976036  23.8311268
  28.7208709  44.2360492  24.0481230  29.7468593  43.7751989  23.0347909
  29.5696670  40.8230849  26.4189509  29.8303487  41.7376182  26.3098670
  30.3913842  40.3555291  26.5686122  31.0421595  42.2368606  33.5888334
  31.7144649  42.0285968  32.9400983  30.2151382  42.0390692  33.1493566
  45.2910856  48.9772656  33.1063667  45.4846746  49.8818467  33.3522942
  45.1911475  48.5180075  33.9402252  36.9447167  38.8630547  35.6053995
  36.2975082  39.5620497  35.5118471  37.7148183  39.2966691  35.9730243
  40.3525965  49.1279399  38.6804548  40.2011471  48.8989951  37.7634632
  40.3430645  50.0850001  38.6935893  37.1211301  46.7011312  33.6650814
  38.0503361  46.8522471  33.4919782  36.7002331  46.7895333  32.8099461
  35.9199633  50.7261976  31.4349352  35.7810719  50.3580761  32.3075290
  35.1314229  51.2409616  31.2633310  36.5147785  55.8271073  22.7774889
  36.6899541  55.3559116  23.5920511  35.8280573  56.4536839  23.0056149
  37.4704848  50.1043579  28.8238190  37.1354681  50.0644349  29.7195840
  36.9708794  49.4388295  28.3508600  31.4449092  45.5111209  34.3490771
  31.3068890  44.7791448  34.9502310  32.3554016  45.4220109  34.0674959
  40.4064040  47.4499613  19.0975250  39.7893211  46.7246441  19.0008302
  39.9380529  48.2108974  18.7542324  34.0731393  45.2231168  33.8374451
  34.7831012  44.5824361  33.7961069  34.0300701  45.4744063  34.7600631
  42.0618172  52.1598522  36.7581030  42.0030718  51.4757742  36.0911613
  42.4637690  52.9017512  36.3061656  32.7860327  42.2096386  35.6570090
  32.2497684  41.7587125  36.3091686  32.1977035  42.3442295  34.9140554
  31.0808871  58.9760436  29.5514749  31.3205469  59.6078960  30.2293767
  30.2378067  58.6248476  29.8380108  32.1962586  41.6685038  18.2196554
  31.3192052  41.5473838  17.8558800  32.6720339  40.8771116  17.9675442
  42.0635579  50.1238106  34.9895010  41.1762358  49.7864027  35.1121408
  42.6334130  49.3921137  35.2263775  23.7164726  46.4562197  28.3138061
  24.4035766  46.1423927  27.7259076  23.5612855  47.3603562  28.0405312
  28.5199448  41.3452394  32.7423085  28.4357637  40.7378063  32.0073495
  27.6982155  41.8361412  32.7432581  35.5936732  54.7839558  31.9556253
  35.5206904  55.5894529  32.4675557  35.1514125  54.9831524  31.1304274
  35.3826512  54.0211328  25.4659074  34.5994034  54.5633008  25.5597299
  36.0819257  54.5385308  25.8653315  38.6923162  39.8305957  28.1093280
  39.1891862  39.0775920  27.7894350  37.9210144  39.8670274  27.5436489
  46.5452920  45.5346323  29.7511571  46.5342796  46.4171038  29.3805504
  45.6770299  45.1817874  29.5566108  38.0535416  54.6826392  34.1114411
  38.7663388  55.3173857  34.0390313  37.5625445  54.7790258  33.2954413
  39.7752943  48.5877645  25.6831703  38.8409222  48.7079107  25.5136407
  39.9529611  47.6850111  25.4191713  35.2758131  41.9723340  27.8364964
  34.9055918  41.4194381  28.5245870  35.7717223  41.3681474  27.2839964
  43.1625494  44.4294964  26.2181737  43.6285946  45.2622956  26.1442040
  43.6132995  43.9639946  26.9226996  33.1047329  52.4320835  34.9319982
  33.8056789  53.0657318  35.0849376  32.6342444  52.7735567  34.1715621
  41.2301725  50.7738785  23.2167889  41.5061569  50.6595380  24.1261763
  40.3606224  50.3756270  23.1780062  41.1342157  36.7975551  30.2572639
  40.2205237  37.0279778  30.4254845  41.5635258  36.8813995  31.1086671
  40.9048615  44.9865443  32.7572533  40.2520066  45.2341350  32.1024985
  41.2828995  44.1729581  32.4235010  37.8655789  55.0225136  26.8600703
  38.0478184  54.2046792  27.3228455  38.6888775  55.2392828  26.4225593
  38.1997955  53.9493321  24.1215751  38.7285721  53.4385776  23.5085913
  38.4626174  53.6335851  24.9861284  36.9536188  45.7285254  39.2438570
  36.2776825  45.6279383  39.9140945  37.7763822  45.5724468  39.7074567
  28.7015047  51.9657191  31.8651085  29.2868484  51.2200878  31.9978989
  28.5039886  52.2761147  32.7487749  31.5553703  55.0008438  26.8813527
  30.8864078  55.4854566  26.3977567  31.4166572  55.2477658  27.7956906
  23.2932702  44.5362791  30.5855528  23.3316802  44.0026381  31.3792646
  22.7872995  44.0097996  29.9666505  35.6958971  57.0352181  33.4796186
  36.2477279  57.1983803  34.2445271  36.0365165  57.6256619  32.8076210
  30.6723465  39.3827331  34.0818070  30.7364791  40.2442162  33.6695468
  30.6090585  38.7701333  33.3490429  30.1475737  41.4550464  37.7291105
  30.7747776  41.0727541  38.3428629  29.2903656  41.2364666  38.0946797
  40.5469846  51.8613439  39.3344840  41.0909750  52.4743397  38.8399795
  39.9656690  52.4193017  39.8511853  26.9241280  43.2626893  23.6609459
  27.2194721  42.3537571  23.6076513  26.0229316  43.2414632  23.3390462
  38.8327359  54.9834157  30.4659868  38.7078498  54.1823897  29.9570813
  39.4906450  55.4780350  29.9773838  30.4535527  41.3382889  29.6437008
  29.7322113  41.9518857  29.5044481  31.2428783  41.8740654  29.5653654
  40.8962267  52.7843177  32.0939418  39.9492602  52.6648528  32.0217745
  41.2445040  51.8965675  32.1765679  33.2561840  38.6737316  35.9177660
  33.7796242  38.9199612  36.6803969  33.0374174  39.5057351  35.4980797
  28.6529121  40.9440991  23.7848785  28.3241828  40.0638369  23.6023891
  29.0068492  40.8888659  24.6725174  37.9008700  52.5795893  28.2943770
  37.7533663  51.6512601  28.4751340  38.7262194  52.6015984  27.8100845
  31.7670945  41.2313960  24.1524262  32.1067017  41.7599882  23.4302871
  32.2143065  41.5694366  24.9282829  41.5042822  53.4024452  29.3808643
  42.4289370  53.1967313  29.2433094  41.3358125  53.1540853  30.2897984
  34.4614385  39.6151011  33.6027330  34.1211206  38.8158824  34.0048010
  33.7553392  39.9152722  33.0304164  35.1130857  36.7000323  32.0554653
  35.9356927  36.2260802  31.9333544  35.3568921  37.4790807  32.5553340
  33.7539092  39.7288582  22.3517555  34.4747454  40.1069835  21.8481272
  33.1304396  40.4477459  22.4552533  37.8970215  40.4333731  23.2875887
  38.1133829  41.3158369  22.9864716  37.4164282  40.0419944  22.5581529
  32.6369436  43.3919444  29.8646632  32.4914017  43.7059747  30.7570913
  32.1594640  44.0104344  29.3117531  34.4965819  40.3821992  29.9127522
  34.4827388  39.4863085  29.5759819  35.2138247  40.3892656  30.5465808
  36.3491950  40.8159332  31.9580649  36.0909727  41.7376403  31.9564979
  35.8176990  40.4189767  32.6481113  41.2938138  53.9210119  24.7370734
  41.4675016  53.3556542  23.9844587  41.7867030  54.7211014  24.5550224
  27.1115098  45.9324789  32.8034293  26.5668566  46.7084596  32.9354567
  27.9894448  46.2795593  32.6453415  33.9002715  39.2636372  25.1815092
  34.0218626  38.3353019  25.3805979  33.6104757  39.2775058  24.2693407
  36.7693905  36.9491283  28.3181811  36.7915602  37.0130616  27.3633791
  37.1861964  36.1095791  28.5122318  47.1477529  46.6846542  26.3561034
  47.5908676  45.9353868  25.9580157  46.2704040  46.6756679  25.9734766
  42.2813311  53.2376884  21.8367633  42.9764215  53.8583577  22.0554947
  42.6236461  52.3872235  22.1120010  27.8981120  45.0594685  35.6964450
  27.1562856  45.2077320  36.2829080  27.5773864  45.3202950  34.8331199
  44.1804734  50.6876589  23.3654963  44.7056058  51.0263862  22.6404283
  44.0927086  49.7523605  23.1818098  35.8424783  54.6010663  35.4944840
  36.1511909  54.3559810  36.3667540  36.6400265  54.8057301  35.0063710
  35.8645395  56.7548573  27.7250217  35.4250385  56.2624951  28.4183073
  36.6153512  56.2121540  27.4842292  28.3437734  52.9460113  27.7274845
  29.1695754  52.6463885  27.3473488  27.9931786  52.1767736  28.1764633
  33.3119267  52.2986582  29.7972518  32.6899276  51.6357287  29.4974746
  33.9824134  52.3247714  29.1146166  26.5446339  50.8646440  28.6863778
  25.7078247  50.4368614  28.5047779  26.5169984  51.0578883  29.6234569
  33.3843794  40.7768370  39.3905024  33.4331950  41.6530493  39.0082794
  33.9266309  40.2345763  38.8176667  43.8698640  51.3209493  38.6706161
  43.0794184  51.3033632  38.1310661  43.6331995  51.8597787  39.4255198
  43.9896515  48.1701959  35.9838890  44.0394520  48.0051967  36.9254413
  43.8810438  47.3029218  35.5936771  32.8732774  50.8490505  23.2730979
  33.0220894  51.5325969  22.6197652  33.6799217  50.8295595  23.7880435
  41.2800277  44.1532887  37.2998197  42.1810140  44.0139352  37.0082194
  41.3548252  44.3187342  38.2396374  35.6143083  41.5299742  36.1451383
  34.7446392  41.8233308  35.8733971  35.8502563  42.1140187  36.8658647
  45.4914712  50.5898901  36.2280911  45.1999520  50.9528881  37.0644372
  44.8786843  49.8765909  36.0494243  46.6910394  48.1551781  28.7483482
  47.5257286  48.5941585  28.9121042  46.8269523  47.6790434  27.9291727
  43.7401900  45.7131516  34.6960969  44.2156022  45.9059162  33.8879821
  42.8167465  45.7690701  34.4504353  30.6285407  46.8755683  24.2792048
  30.3831449  45.9718013  24.4772258  30.7981321  46.8772833  23.3371526
  38.3182117  37.7479359  33.6616803  38.8364060  38.4840386  33.3363292
  37.9637249  38.0543352  34.4963562  29.8981054  42.6084040  21.7778209
  29.2050299  42.6828395  21.1218245  29.6532806  41.8444384  22.2999726
  38.5694711  34.1679642  29.1817700  38.8496465  33.5002831  29.8078126
  39.3545318  34.3608737  28.6692364  36.3728179  53.3438636  20.7442726
  35.8002146  53.9628823  20.2913198  36.9460973  53.8937997  21.2782648
  42.4403569  42.5897276  32.9289275  43.3920992  42.6895373  32.9501499
  42.2707020  41.7975544  33.4387359  40.4617949  39.6752859  33.1148676
  39.8667881  39.9557872  32.4195165  40.1767645  40.1646760  33.8865417
  39.5925439  53.6275786  21.8751308  40.5256112  53.5621347  22.0784184
  39.5048652  54.4632052  21.4165841  42.2213456  52.9441656  18.8355256
  42.1427087  52.6101520  19.7291014  43.0423122  53.4363424  18.8346728
  44.9191647  45.8103395  32.0431575  44.8867967  44.8719396  32.2291258
  45.5292271  45.8887432  31.3097400  36.7574978  44.6799448  18.0858779
  37.7034082  44.5505656  18.1547197  36.3789223  43.9414110  18.5628207
  45.0686135  42.6014439  32.0889858  44.5525184  41.8172895  31.9019787
  45.9526084  42.2733155  32.2536377  42.7296862  36.3455454  28.0485671
  42.5321683  36.0370542  28.9329002  43.3396568  37.0717093  28.1783600
  50.7368197  46.8719402  31.1837611  51.4671585  46.6104690  31.7445315
  50.1275142  46.1348124  31.2239679  48.8183494  45.0127265  31.7812063
  48.0916657  44.8783230  31.1728554  48.4030781  45.3204093  32.5868781
  36.6413670  48.7317194  39.5459436  37.5616680  48.9095793  39.7399482
  36.6063253  47.7873240  39.3939135  34.9417895  42.6049425  18.0213664
  34.0349350  42.3082537  18.0976378  35.2193876  42.3079243  17.1547950
  25.8595835  43.9255788  28.4712710  25.5398620  43.0721096  28.1787084
  25.3129263  44.1404366  29.2270678  29.6375743  46.6418229  32.1882217
  29.8561753  47.5735337  32.2070251  30.0501517  46.2826203  32.9737021
  36.5579961  37.1486314  24.1757905  35.7480689  36.8033399  24.5513151
  37.2464378  36.8393858  24.7645517  38.4870509  36.2264361  25.7982202
  39.0401548  36.6459815  26.4572225  38.7240595  35.3000109  25.8405158
  34.5103608  42.2151435  41.5784966  34.4100335  43.1645792  41.5097057
  34.2925150  41.8869674  40.7061036  33.7116680  39.4636360  18.1625643
  34.5735844  39.7891258  18.4221460  33.8967024  38.6767856  17.6498709
  25.7284095  47.5458700  30.4405832  25.0347567  47.1312652  29.9275786
  26.4757086  47.5879236  29.8439251  41.8649316  38.3364886  25.3060866
  41.2847985  38.9949690  24.9238919  41.5985249  37.5142231  24.8948284
  40.3152882  37.7369944  27.5082186  40.8152661  37.8486479  26.6996505
  40.9588490  37.4330997  28.1482995  34.3734878  45.6448574  40.3950027
  33.8901960  46.4448934  40.6013916  34.4595817  45.6556519  39.4417471
  27.6420838  47.4776953  28.3171847  27.6191526  47.5764641  27.3653730
  27.9521474  48.3242104  28.6389013  30.3008216  49.5353108  32.4318461
  31.2551469  49.5037051  32.3648393  30.1020739  49.0743732  33.2468687
  30.8907598  48.1054224  34.9989259  31.7100487  48.5998303  35.0224096
  31.1644406  47.1886193  34.9706826  40.6474194  40.4964977  24.3617214
  39.7600049  40.7814627  24.1437409  41.0628183  40.3358740  23.5144491
  43.9988730  40.5211498  28.0771554  44.7749120  41.0107950  28.3496170
  43.2736864  40.9469552  28.5343423  46.4361289  41.2339117  29.1345494
  47.0305780  40.9934853  28.4238802  46.5087872  40.5146247  29.7619031
  28.6558444  55.0772728  29.4488659  28.5212912  54.3173129  28.8826657
  28.2390507  55.8013628  28.9817448  39.7917407  50.2609651  18.4565234
  40.4953258  50.4659654  19.0722890  39.0680056  50.8286413  18.7214318
  40.6215218  46.0119513  24.5767505  40.5650419  46.4688064  23.7375137
  41.1743560  45.2510197  24.3990347  44.4320024  41.8009245  25.4017624
  44.1756958  41.4005880  26.2325832  43.8072892  42.5153038  25.2767763
  48.7432362  44.5405318  27.9088915  48.1831920  44.6098507  28.6820477
  48.1375865  44.3646302  27.1888412  31.8127570  55.9742045  29.6607102
  31.6959954  56.9187477  29.5585792  30.9920017  55.6715606  30.0492901
  41.7004105  50.6992181  20.5063694  42.5349709  50.2673379  20.3241169
  41.5388448  50.5274194  21.4340589  41.3549997  47.2024294  21.8720034
  41.2998801  47.0368565  20.9308478  40.7296052  47.9100327  22.0282223
  26.1442512  42.4392358  35.6981456  26.7901376  41.9291312  36.1868681
  25.9359663  43.1761040  36.2724881  38.6695904  49.5073206  41.1973596
  39.5387064  49.6813858  40.8360231  38.1902656  50.3267623  41.0749326
  34.6646123  36.7032403  21.4505352  34.6524792  37.6474243  21.6073623
  35.5569544  36.5202548  21.1564813  32.8382084  56.6270307  32.8763030
  33.7409331  56.6593917  33.1929525  32.6119455  55.6970758  32.8909366
  34.5935686  55.3801293  29.5373109  33.6431318  55.3803155  29.4237481
  34.8968173  54.6334028  29.0209143  38.4798242  33.2975180  25.7051289
  37.7130638  32.7433666  25.8507971  38.8908947  33.3697048  26.5665441
  30.4840003  39.5859975  39.7956470  31.3471465  39.2296780  40.0059795
  29.9105414  39.2473870  40.4831874  50.3288380  61.2161832  30.6018871
  50.9666790  61.0968579  29.8982211  50.2109223  62.1642676  30.6606823
  47.1378086  61.1689260  30.5380396  46.7996598  61.0530325  29.6500931
  48.0067854  60.7680425  30.5181402  42.9964902  63.0224736  26.5277287
  42.4329767  62.9314673  25.7593575  42.8817297  62.2024641  27.0079779
  47.6197869  62.3224112  36.4966601  47.6086510  61.9276910  35.6247105
  47.7818509  61.5890184  37.0900373  40.5429334  64.5175928  29.3661507
  41.3350626  64.1766752  28.9507807  40.7825984  64.6270903  30.2863661
  48.5764461  66.6895704  21.8391752  47.9252440  67.2749784  21.4525766
  49.3708823  67.2201899  21.8986789  42.5020088  63.7784841  22.2378886
  43.2750964  63.2313828  22.0991762  42.8545487  64.6429090  22.4493347
  44.3405130  65.1061223  35.4445785  44.0494996  66.0106854  35.3292452
  44.9762115  65.1477751  36.1589855  45.2661337  62.4838072  32.0347145
  45.8624909  62.2594094  31.3204108  45.3236309  61.7422817  32.6372593
  44.8386366  59.9377507  19.8697336  45.0911886  59.4159028  19.1080799
  43.9010925  59.7743653  19.9724020  49.8829648  58.9413286  27.6772079
  50.6692738  58.5232709  27.3262496  50.1468353  59.8459378  27.8453728
  50.0539726  64.3786136  22.3760736  49.4185559  64.4520762  23.0881641
  49.7237132  64.9679735  21.6979815  55.2838076  58.8788519  28.5805058
  56.0163248  58.3087736  28.8142887  54.5277431  58.4910119  29.0211563
  44.5582654  61.8405613  22.0721711  44.4418912  61.1650517  22.7402795
  44.6684914  61.3537987  21.2553864  46.9014195  61.3015760  25.7768400
  46.5372403  60.7746381  26.4881322  47.7581311  60.9114229  25.6034886
  52.8063496  52.5910093  33.0399666  52.4746821  53.4605504  32.8160881
  52.2109109  52.2746377  33.7193697  46.5419682  56.3305660  20.7729749
  46.7094085  57.1985896  21.1400220  46.3516851  56.4932942  19.8491038
  49.2995015  64.7922639  32.4395579  48.9995739  65.6947678  32.3311386
  48.9546075  64.5254822  33.2916732  42.7507497  61.2436436  28.4732283
  41.8257993  61.1112650  28.6809975  42.9991910  62.0230655  28.9702226
  52.6992159  57.3105179  30.1193016  51.7909037  57.2420587  29.8251777
  52.6479755  57.7877124  30.9474842  46.5208903  58.7863317  21.7576416
  46.4008528  59.2320368  22.5961896  45.8261492  59.1348635  21.1989954
  40.1116308  60.8869709  29.3076073  40.2408689  61.1404188  30.2215484
  39.4313759  61.4797417  28.9880728  44.2815795  71.5566959  25.4066547
  44.2039825  72.5074784  25.4855027  43.6777439  71.2112832  26.0641473
  46.7733025  58.7294825  38.0627914  45.9966359  59.2888745  38.0530778
  47.4123588  59.2151608  38.5842784  54.5653806  55.5121617  31.8970890
  53.9228186  55.8054151  31.2510685  54.0608734  55.3974538  32.7024087
  52.2193969  59.2584791  22.5856750  53.1311825  59.4912177  22.4104447
  51.7103616  59.8421835  22.0231828  45.0279397  61.5380278  37.6245881
  45.7694082  62.0765322  37.3480704  44.3216383  62.1646567  37.7817432
  50.5034737  63.6809418  36.2218042  50.9118093  63.2391829  35.4772675
  49.7811998  63.1062046  36.4752235  46.8565807  58.6182025  33.5951599
  47.7027002  59.0421439  33.7386248  46.7964445  57.9615650  34.2890162
  50.8263552  64.2410609  29.9770331  50.1972414  64.4056323  29.2746399
  50.4389214  64.6552219  30.7481295  54.7052784  65.1765047  27.3314695
  54.0203822  65.5563948  26.7811728  54.7896633  65.7860374  28.0646643
  50.0065252  56.2786394  35.2532773  49.7626184  57.0328454  34.7167048
  50.2825183  56.6571741  36.0880020  51.9603715  62.8225006  33.9310038
  52.1720610  63.4656766  33.2544419  51.9133463  61.9887323  33.4631968
  49.5629944  55.4342827  30.8346610  48.7014423  55.7324080  31.1263348
  49.5892379  55.6513225  29.9027643  46.3791514  63.9785017  27.2420416
  46.8429859  64.2572720  26.4525039  46.1148312  63.0768462  27.0593507
  43.2715595  63.5256499  30.1800179  43.8416952  63.9543767  29.5417664
  43.8623706  63.2439083  30.8784365  45.3160400  60.1008170  24.0509981
  46.0184443  60.5529213  24.5183908  44.9841028  59.4591988  24.6789874
  43.7640761  58.6919926  38.4261191  43.1339422  59.3736207  38.6596587
  43.6576849  58.5803008  37.4814329  39.0585734  58.3591722  29.3527115
  38.2684788  58.6149251  28.8767225  39.5496981  59.1740060  29.4579155
  53.0749543  65.6996961  32.1032396  53.8966987  65.2977149  31.8215077
  53.0711946  65.5965196  33.0548511  41.0100479  58.7236301  26.3110592
  40.2131642  58.8354996  26.8294087  40.7826071  59.0622954  25.4451482
  46.8406147  65.2481005  34.2593106  46.9050579  65.7101412  35.0951278
  46.1317070  64.6178370  34.3875416  37.3423437  58.6122213  31.7842106
  37.5931475  59.4969223  32.0499682  37.8782985  58.4326814  31.0117197
  61.1655536  62.0435710  28.4517367  60.4119245  61.4743108  28.2961372
  61.3003077  62.0098374  29.3988002  46.5554164  66.9149112  24.1272086
  46.4199839  67.7600648  24.5556934  47.0963977  67.1168390  23.3638020
  43.0421504  52.9940692  40.7886442  42.6488449  52.4406891  41.4634086
  43.8587644  53.3051270  41.1792959  40.0083562  64.4324550  24.7000012
  40.5208082  65.2267800  24.8505576  40.6606274  63.7350841  24.6333613
  41.8178446  67.5490306  26.7822765  41.9945075  68.4708271  26.5943749
  42.6135280  67.2348726  27.2117145  45.9589465  54.4098571  38.3806698
  46.6999178  55.0105724  38.3011161  46.1907388  53.6676209  37.8224741
  41.1030803  59.5954938  36.6584928  40.9884318  58.6940196  36.9592027
  40.2475321  59.8418635  36.3069744  48.1822641  67.5372679  38.2572429
  47.7386495  66.7509057  37.9393333  48.8439854  67.7251829  37.5916319
  42.9409762  69.0668480  32.7833107  43.4917187  68.9385544  32.0110101
  42.1021238  69.3663369  32.4328000  50.2803879  67.8175479  36.2853830
  50.2622354  68.6384360  35.7934099  51.2023799  67.6929554  36.5103971
  46.7376933  65.3319608  37.1277338  47.2705270  64.5707896  36.8976646
  46.2091014  65.0393260  37.8701493  49.9046628  50.4379674  32.6570980
  49.5610897  51.3281316  32.5810091  50.2725590  50.2481332  31.7940565
  37.9732478  62.7613204  25.4759582  38.8107700  63.1710213  25.2593290
  38.1510746  61.8212647  25.4459776  49.8696910  60.4288285  21.1643415
  49.3543534  61.1992890  21.4031802  49.5974219  59.7553421  21.7876477
  47.4544022  55.2737986  26.2228653  46.5985618  54.8844836  26.0434292
  47.8670973  55.3529947  25.3628439  48.9843168  52.8084329  30.6220213
  48.4807964  52.7714464  29.8088018  49.2773775  53.7177072  30.6816870
  45.2286054  52.8923059  29.6286395  46.0939051  52.6965868  29.2692284
  45.2963563  52.6633411  30.5555752  54.8431185  63.1820640  23.0996589
  54.0660627  62.8431799  22.6551751  55.5222666  63.1873263  22.4251554
  49.6583214  58.3015377  22.9903196  49.3533349  58.6161526  23.8413339
  50.6113656  58.3796797  23.0330529  48.1029646  64.4605601  24.6396150
  47.5751007  63.7258360  24.3269388  47.6017148  65.2380277  24.3936119
  53.0822492  62.6554621  29.7563197  52.4246166  63.3453882  29.8443325
  53.8862891  63.0451053  30.0997183  42.8348373  55.1225267  27.0002762
  43.4092125  54.9000448  26.2675955  43.4219356  55.1913961  27.7531363
  51.8927950  61.0098994  27.8067138  52.4059832  61.6428986  28.3088848
  52.5429174  60.4100189  27.4410498  43.1617960  57.1529728  21.0198647
  42.3255272  57.4904414  21.3407922  43.0222730  57.0178708  20.0825784
  45.1371041  51.9966516  25.7277831  44.4835453  51.6815533  25.1034446
  45.0951515  51.3742256  26.4537654  46.2482246  62.2785811  17.6431123
  45.3409307  62.0475064  17.8422272  46.7453278  61.4823430  17.8305105
  49.1550325  70.9883318  20.5627809  48.4812023  71.2915015  21.1712767
  49.5416147  71.7912398  20.2133266  48.3708781  58.4848449  30.0525479
  47.4531343  58.7063396  29.8947167  48.7868925  58.5594760  29.1937186
  49.1543829  59.8839865  25.1828159  49.9015648  60.3961262  24.8735281
  49.4235418  59.5623918  26.0432553  47.4270479  62.3798406  22.1655113
  46.5181698  62.0957439  22.2627583  47.4565563  62.7997484  21.3058420
  52.6589747  65.9904995  25.9346281  52.2052074  65.1495905  25.9911471
  52.0283713  66.6266394  26.2721061  51.6022666  56.9196981  27.1646948
  50.8645423  56.4074367  27.4957191  51.8549440  56.4797363  26.3530225
  51.1022686  67.8281492  26.8696099  51.3945660  68.3886549  26.1508465
  51.6121306  68.1210053  27.6249258  51.7034293  49.6973233  27.7588718
  52.0093170  48.8370597  27.4714633  52.4286898  50.2890853  27.5587712
  37.9958650  60.1003920  26.1470316  37.7983049  59.5073281  25.4221382
  37.4405313  59.7956130  26.8646254  45.9755373  59.9927026  28.2664909
  46.0303983  59.0400863  28.1907385  45.1646575  60.1486465  28.7506207
  47.1246567  63.9207149  19.5043192  46.6865997  63.2043008  19.0448829
  47.8657008  64.1483264  18.9428283  43.9147733  58.6104086  26.0255288
  43.1015599  58.9098257  26.4320480  44.4106727  58.2159775  26.7429770
  46.0656311  68.6061843  27.9589552  46.0232490  68.8322689  27.0298084
  46.9819010  68.3725218  28.1075353  49.5121945  59.0745911  34.8570181
  49.8671332  59.3017384  35.7164647  50.1594076  59.4064287  34.2347437
  55.2419682  62.1964346  25.5619510  55.1037580  62.3865942  24.6340700
  54.8855901  62.9583729  26.0187562  43.4061808  56.1822442  31.6416523
  44.0461187  56.0411201  30.9439486  42.5739338  55.8956955  31.2655125
  55.2689061  64.2640873  30.5730782  55.7025568  64.1716163  31.4213836
  55.9820642  64.2398374  29.9350798  44.1822112  65.4824872  27.7551515
  44.9762710  64.9875192  27.5534090  43.4713804  64.9542735  27.3919221
  49.0016956  67.8642968  32.1063883  49.0553978  68.4333904  32.8741598
  48.1331738  68.0344853  31.7417920  40.4904875  59.6267954  23.8311268
  39.5602463  59.5652409  24.0481230  40.5862347  59.1043906  23.0347909
  40.4090424  56.1522767  26.4189509  40.6697242  57.0668100  26.3098670
  41.2307597  55.6847209  26.5686122  41.8815350  57.5660524  33.5888334
  42.5538403  57.3577886  32.9400983  41.0545136  57.3682610  33.1493566
  56.1304611  64.3064574  33.1063667  56.3240501  65.2110385  33.3522942
  56.0305229  63.8471993  33.9402252  47.7840922  54.1922465  35.6053995
  47.1368837  54.8912414  35.5118471  48.5541937  54.6258609  35.9730243
  51.1919720  64.4571317  38.6804548  51.0405226  64.2281868  37.7634632
  51.1824399  65.4141918  38.6935893  47.9605056  62.0303230  33.6650814
  48.8897116  62.1814389  33.4919782  47.5396086  62.1187250  32.8099461
  46.7593388  66.0553894  31.4349352  46.6204473  65.6872678  32.3075290
  45.9707984  66.5701533  31.2633310  47.3541540  71.1562990  22.7774889
  47.5293295  70.6851034  23.5920511  46.6674328  71.7828757  23.0056149
  48.3098603  65.4335497  28.8238190  47.9748435  65.3936267  29.7195840
  47.8102549  64.7680213  28.3508600  42.2842847  60.8403127  34.3490771
  42.1462645  60.1083366  34.9502310  43.1947770  60.7512027  34.0674959
  51.2457795  62.7791531  19.0975250  50.6286965  62.0538359  19.0008302
  50.7774283  63.5400891  18.7542324  44.9125148  60.5523086  33.8374451
  45.6224766  59.9116278  33.7961069  44.8694456  60.8035981  34.7600631
  43.6254081  57.5388304  35.6570090  43.0891439  57.0879042  36.3091686
  43.0370790  57.6734213  34.9140554  41.9202625  74.3052353  29.5514749
  42.1599223  74.9370877  30.2293767  41.0771821  73.9540393  29.8380108
  43.0356340  56.9976955  18.2196554  42.1585807  56.8765756  17.8558800
  43.5114094  56.2063034  17.9675442  52.9029333  65.4530023  34.9895010
  52.0156112  65.1155945  35.1121408  53.4727885  64.7213055  35.2263775
  34.5558481  61.7854115  28.3138061  35.2429520  61.4715845  27.7259076
  34.4006609  62.6895480  28.0405312  39.3593203  56.6744312  32.7423085
  39.2751391  56.0669981  32.0073495  38.5375909  57.1653330  32.7432581
  46.4330487  70.1131476  31.9556253  46.3600658  70.9186447  32.4675557
  45.9907880  70.3123441  31.1304274  46.2220266  69.3503246  25.4659074
  45.4387788  69.8924926  25.5597299  46.9213012  69.8677225  25.8653315
  49.5316917  55.1597875  28.1093280  50.0285616  54.4067837  27.7894350
  48.7603898  55.1962192  27.5436489  57.3846674  60.8638241  29.7511571
  57.3736550  61.7462956  29.3805504  56.5164053  60.5109791  29.5566108
  48.8929170  70.0118310  34.1114411  49.6057143  70.6465774  34.0390313
  48.4019199  70.1082176  33.2954413  50.6146697  63.9169562  25.6831703
  49.6802976  64.0371025  25.5136407  50.7923366  63.0142029  25.4191713
  46.1151885  57.3015258  27.8364964  45.7449673  56.7486299  28.5245870
  46.6110978  56.6973392  27.2839964  54.0019249  59.7586882  26.2181737
  54.4679701  60.5914873  26.1442040  54.4526749  59.2931863  26.9226996
  43.9441084  67.7612753  34.9319982  44.6450543  68.3949236  35.0849376
  43.4736199  68.1027485  34.1715621  52.0695480  66.1030703  23.2167889
  52.3455324  65.9887298  24.1261763  51.1999978  65.7048188  23.1780062
  51.9735911  52.1267469  30.2572639  51.0598991  52.3571695  30.4254845
  52.4029013  52.2105913  31.1086671  51.7442370  60.3157361  32.7572533
  51.0913820  60.5633268  32.1024985  52.1222750  59.5021499  32.4235010
  48.7049544  70.3517054  26.8600703  48.8871938  69.5338710  27.3228455
  49.5282530  70.5684746  26.4225593  49.0391709  69.2785239  24.1215751
  49.5679476  68.7677693  23.5085913  49.3019929  68.9627769  24.9861284
  47.7929943  61.0577172  39.2438570  47.1170580  60.9571301  39.9140945
  48.6157577  60.9016385  39.7074567  39.5408802  67.2949108  31.8651085
  40.1262239  66.5492796  31.9978989  39.3433640  67.6053065  32.7487749
  42.3947457  70.3300356  26.8813527  41.7257832  70.8146483  26.3977567
  42.2560327  70.5769576  27.7956906  34.1326457  59.8654708  30.5855528
  34.1710556  59.3318299  31.3792646  33.6266750  59.3389914  29.9666505
  46.5352726  72.3644099  33.4796186  47.0871034  72.5275721  34.2445271
  46.8758919  72.9548537  32.8076210  41.5117219  54.7119249  34.0818070
  41.5758545  55.5734080  33.6695468  41.4484339  54.0993251  33.3490429
  40.9869492  56.7842381  37.7291105  41.6141530  56.4019459  38.3428629
  40.1297410  56.5656583  38.0946797  37.7635034  58.5918811  23.6609459
  38.0588475  57.6829489  23.6076513  36.8623070  58.5706550  23.3390462
  49.6721113  70.3126075  30.4659868  49.5472253  69.5115814  29.9570813
  50.3300204  70.8072268  29.9773838  41.2929281  56.6674807  29.6437008
  40.5715867  57.2810775  29.5044481  42.0822537  57.2032572  29.5653654
  51.7356021  68.1135095  32.0939418  50.7886357  67.9940446  32.0217745
  52.0838795  67.2257593  32.1765679  44.0955595  54.0029234  35.9177660
  44.6189997  54.2491530  36.6803969  43.8767928  54.8349268  35.4980797
  39.4922876  56.2732908  23.7848785  39.1635582  55.3930287  23.6023891
  39.8462247  56.2180577  24.6725174  48.7402455  67.9087811  28.2943770
  48.5927417  66.9804518  28.4751340  49.5655948  67.9307902  27.8100845
  42.6064699  56.5605878  24.1524262  42.9460772  57.0891799  23.4302871
  43.0536820  56.8986284  24.9282829  52.3436577  68.7316370  29.3808643
  53.2683124  68.5259231  29.2433094  52.1751880  68.4832771  30.2897984
  45.3008140  54.9442929  33.6027330  44.9604960  54.1450742  34.0048010
  44.5947146  55.2444640  33.0304164  45.9524612  52.0292241  32.0554653
  46.7750681  51.5552719  31.9333544  46.1962675  52.8082725  32.5553340
  44.5932846  55.0580500  22.3517555  45.3141209  55.4361752  21.8481272
  43.9698150  55.7769376  22.4552533  48.7363969  55.7625649  23.2875887
  48.9527583  56.6450286  22.9864716  48.2558036  55.3711862  22.5581529
  43.4763190  58.7211362  29.8646632  43.3307771  59.0351665  30.7570913
  42.9988394  59.3396262  29.3117531  45.3359573  55.7113910  29.9127522
  45.3221142  54.8155003  29.5759819  46.0532001  55.7184574  30.5465808
  47.1885704  56.1451250  31.9580649  46.9303482  57.0668321  31.9564979
  46.6570744  55.7481685  32.6481113  52.1331893  69.2502037  24.7370734
  52.3068770  68.6848460  23.9844587  52.6260784  70.0502932  24.5550224
  37.9508853  61.2616706  32.8034293  37.4062321  62.0376514  32.9354567
  38.8288202  61.6087511  32.6453415  44.7396469  54.5928290  25.1815092
  44.8612380  53.6644936  25.3805979  44.4498512  54.6066976  24.2693407
  47.6087660  52.2783200  28.3181811  47.6309356  52.3422534  27.3633791
  48.0255719  51.4387709  28.5122318  57.9871284  62.0138460  26.3561034
  58.4302430  61.2645785  25.9580157  57.1097794  62.0048596  25.9734766
  53.1207065  68.5668802  21.8367633  53.8157970  69.1875494  22.0554947
  53.4630215  67.7164153  22.1120010  38.7374874  60.3886602  35.6964450
  37.9956610  60.5369238  36.2829080  38.4167619  60.6494868  34.8331199
  55.0198488  66.0168507  23.3654963  55.5449812  66.3555780  22.6404283
  54.9320841  65.0815522  23.1818098  46.6818537  69.9302581  35.4944840
  46.9905664  69.6851727  36.3667540  47.4794019  70.1349219  35.0063710
  46.7039149  72.0840490  27.7250217  46.2644139  71.5916869  28.4183073
  47.4547266  71.5413458  27.4842292  39.1831488  68.2752031  27.7274845
  40.0089508  67.9755803  27.3473488  38.8325540  67.5059654  28.1764633
  44.1513021  67.6278499  29.7972518  43.5293031  66.9649204  29.4974746
  44.8217888  67.6539631  29.1146166  37.3840093  66.1938358  28.6863778
  36.5472001  65.7660532  28.5047779  37.3563739  66.3870801  29.6234569
  44.2237549  56.1060287  39.3905024  44.2725704  56.9822410  39.0082794
  44.7660063  55.5637680  38.8176667  54.8290270  63.4993877  35.9838890
  54.8788274  63.3343884  36.9254413  54.7204193  62.6321136  35.5936771
  43.7126528  66.1782423  23.2730979  43.8614649  66.8617887  22.6197652
  44.5192972  66.1587513  23.7880435  52.1194032  59.4824805  37.2998197
  53.0203895  59.3431270  37.0082194  52.1942006  59.6479260  38.2396374
  46.4536837  56.8591660  36.1451383  45.5840147  57.1525226  35.8733971
  46.6896318  57.4432105  36.8658647  56.3308466  65.9190819  36.2280911
  56.0393275  66.2820799  37.0644372  55.7180598  65.2057827  36.0494243
  57.5304149  63.4843698  28.7483482  58.3651040  63.9233502  28.9121042
  57.6663277  63.0082352  27.9291727  54.5795655  61.0423433  34.6960969
  55.0549776  61.2351080  33.8879821  53.6561220  61.0982619  34.4504353
  41.4679161  62.2047600  24.2792048  41.2225203  61.3009930  24.4772258
  41.6375076  62.2064751  23.3371526  49.1575871  53.0771277  33.6616803
  49.6757815  53.8132304  33.3363292  48.8031004  53.3835270  34.4963562
  40.7374809  57.9375958  21.7778209  40.0444054  58.0120313  21.1218245
  40.4926561  57.1736302  22.2999726  49.4088465  49.4971559  29.1817700
  49.6890219  48.8294748  29.8078126  50.1939072  49.6900655  28.6692364
  47.2121934  68.6730553  20.7442726  46.6395901  69.2920740  20.2913198
  47.7854727  69.2229915  21.2782648  53.2797324  57.9189193  32.9289275
  54.2314746  58.0187291  32.9501499  53.1100774  57.1267462  33.4387359
  51.3011703  55.0044776  33.1148676  50.7061635  55.2849789  32.4195165
  51.0161400  55.4938677  33.8865417  50.4319194  68.9567703  21.8751308
  51.3649867  68.8913265  22.0784184  50.3442406  69.7923970  21.4165841
  53.0607210  68.2733574  18.8355256  52.9820842  67.9393437  19.7291014
  53.8816877  68.7655342  18.8346728  55.7585401  61.1395313  32.0431575
  55.7261721  60.2011314  32.2291258  56.3686025  61.2179350  31.3097400
  47.5968732  60.0091366  18.0858779  48.5427837  59.8797574  18.1547197
  47.2182977  59.2706028  18.5628207  55.9079890  57.9306356  32.0889858
  55.3918939  57.1464813  31.9019787  56.7919838  57.6025073  32.2536377
  53.5690617  51.6747372  28.0485671  53.3715438  51.3662460  28.9329002
  54.1790322  52.4009011  28.1783600  61.5761951  62.2011320  31.1837611
  62.3065340  61.9396608  31.7445315  60.9668897  61.4640042  31.2239679
  59.6577248  60.3419182  31.7812063  58.9310412  60.2075147  31.1728554
  59.2424535  60.6496011  32.5868781  47.4807425  64.0609112  39.5459436
  48.4010434  64.2387711  39.7399482  47.4457008  63.1165157  39.3939135
  45.7811649  57.9341342  18.0213664  44.8743105  57.6374455  18.0976378
  46.0587630  57.6371160  17.1547950  36.6989590  59.2547706  28.4712710
  36.3792374  58.4013014  28.1787084  36.1523018  59.4696284  29.2270678
  40.4769497  61.9710147  32.1882217  40.6955507  62.9027255  32.2070251
  40.8895271  61.6118121  32.9737021  47.3973715  52.4778232  24.1757905
  46.5874443  52.1325317  24.5513151  48.0858132  52.1685776  24.7645517
  49.3264263  51.5556279  25.7982202  49.8795302  51.9751732  26.4572225
  49.5634350  50.6292027  25.8405158  45.3497363  57.5443352  41.5784966
  45.2494090  58.4937709  41.5097057  45.1318905  57.2161591  40.7061036
  44.5510434  54.7928278  18.1625643  45.4129598  55.1183176  18.4221460
  44.7360778  54.0059773  17.6498709  36.5677850  62.8750617  30.4405832
  35.8741321  62.4604570  29.9275786  37.3150841  62.9171154  29.8439251
  52.7043070  53.6656804  25.3060866  52.1241740  54.3241608  24.9238919
  52.4379003  52.8434149  24.8948284  51.1546637  53.0661862  27.5082186
  51.6546415  53.1778396  26.6996505  51.7982245  52.7622915  28.1482995
  45.2128633  60.9740491  40.3950027  44.7295714  61.7740851  40.6013916
  45.2989572  60.9848436  39.4417471  38.4814592  62.8068871  28.3171847
  38.4585280  62.9056558  27.3653730  38.7915229  63.6534022  28.6389013
  41.1401970  64.8645026  32.4318461  42.0945224  64.8328968  32.3648393
  40.9414494  64.4035650  33.2468687  41.7301352  63.4346142  34.9989259
  42.5494241  63.9290221  35.0224096  42.0038160  62.5178110  34.9706826
  51.4867949  55.8256894  24.3617214  50.5993804  56.1106545  24.1437409
  51.9021938  55.6650658  23.5144491  54.8382485  55.8503415  28.0771554
  55.6142875  56.3399868  28.3496170  54.1130619  56.2761470  28.5343423
  57.2755043  56.5631035  29.1345494  57.8699534  56.3226771  28.4238802
  57.3481627  55.8438165  29.7619031  39.4952199  70.4064646  29.4488659
  39.3606667  69.6465046  28.8826657  39.0784261  71.1305545  28.9817448
  50.6311162  65.5901569  18.4565234  51.3347012  65.7951572  19.0722890
  49.9073811  66.1578331  18.7214318  51.4608972  61.3411430  24.5767505
  51.4044174  61.7979982  23.7375137  52.0137315  60.5802115  24.3990347
  55.2713778  57.1301162  25.4017624  55.0150712  56.7297798  26.2325832
  54.6466646  57.8444956  25.2767763  59.5826116  59.8697235  27.9088915
  59.0225674  59.9390425  28.6820477  58.9769619  59.6938220  27.1888412
  42.6521325  71.3033963  29.6607102  42.5353709  72.2479395  29.5585792
  41.8313771  71.0007524  30.0492901  52.5397859  66.0284098  20.5063694
  53.3743463  65.5965297  20.3241169  52.3782202  65.8566112  21.4340589
  52.1943752  62.5316212  21.8720034  52.1392555  62.3660483  20.9308478
  51.5689807  63.2392244  22.0282223  36.9836267  57.7684276  35.6981456
  37.6295130  57.2583230  36.1868681  36.7753418  58.5052958  36.2724881
  49.5089659  64.8365123  41.1973596  50.3780818  65.0105776  40.8360231
  49.0296410  65.6559540  41.0749326  45.5039877  52.0324321  21.4505352
  45.4918547  52.9766160  21.6073623  46.3963299  51.8494466  21.1564813
  43.6775839  71.9562224  32.8763030  44.5803086  71.9885835  33.1929525
  43.4513209  71.0262675  32.8909366  45.4329441  70.7093211  29.5373109
  44.4825072  70.7095073  29.4237481  45.7361927  69.9625946  29.0209143
  49.3191996  48.6267097  25.7051289  48.5524392  48.0725584  25.8507971
  49.7302701  48.6988966  26.5665441  41.3233758  54.9151893  39.7956470
  42.1865219  54.5588698  40.0059795  40.7499168  54.5765788  40.4831874
  61.1682134  76.5453749  30.6018871  61.8060544  76.4260497  29.8982211
  61.0502977  77.4934593  30.6606823  57.9771841  76.4981177  30.5380396
  57.6390352  76.3822242  29.6500931  58.8461609  76.0972343  30.5181402
  53.8358656  78.3516654  26.5277287  53.2723522  78.2606591  25.7593575
  53.7211051  77.5316558  27.0079779  51.3823088  79.8467845  29.3661507
  52.1744380  79.5058670  28.9507807  51.6219739  79.9562821  30.2863661
  59.4158215  82.0187622  21.8391752  58.7646195  82.6041702  21.4525766
  60.2102578  82.5493817  21.8986789  53.3413842  79.1076759  22.2378886
  54.1144718  78.5605746  22.0991762  53.6939241  79.9721008  22.4493347
  56.1055092  77.8129990  32.0347145  56.7018664  77.5886012  31.3204108
  56.1630063  77.0714735  32.6372593  55.6780120  75.2669425  19.8697336
  55.9305641  74.7450946  19.1080799  54.7404679  75.1035570  19.9724020
  60.7223403  74.2705203  27.6772079  61.5086492  73.8524626  27.3262496
  60.9862107  75.1751295  27.8453728  60.8933480  79.7078054  22.3760736
  60.2579313  79.7812680  23.0881641  60.5630887  80.2971652  21.6979815
  55.3976409  77.1697531  22.0721711  55.2812667  76.4942434  22.7402795
  55.5078669  76.6829905  21.2553864  57.7407950  76.6307678  25.7768400
  57.3766157  76.1038299  26.4881322  58.5975066  76.2406147  25.6034886
  57.3813437  71.6597578  20.7729749  57.5487839  72.5277814  21.1400220
  57.1910606  71.8224859  19.8491038  60.1388770  80.1214557  32.4395579
  59.8389493  81.0239595  32.3311386  59.7939829  79.8546740  33.2916732
  53.5901251  76.5728353  28.4732283  52.6651748  76.4404567  28.6809975
  53.8385665  77.3522573  28.9702226  63.5385914  72.6397097  30.1193016
  62.6302791  72.5712505  29.8251777  63.4873510  73.1169042  30.9474842
  57.3602658  74.1155235  21.7576416  57.2402283  74.5612286  22.5961896
  56.6655246  74.4640553  21.1989954  50.9510062  76.2161627  29.3076073
  51.0802444  76.4696106  30.2215484  50.2707514  76.8089335  28.9880728
  55.1209550  86.8858877  25.4066547  55.0433579  87.8366702  25.4855027
  54.5171193  86.5404749  26.0641473  63.0587724  74.5876708  22.5856750
  63.9705580  74.8204095  22.4104447  62.5497371  75.1713753  22.0231828
  61.6657306  79.5702527  29.9770331  61.0366169  79.7348241  29.2746399
  61.2782968  79.9844136  30.7481295  65.5446538  80.5056965  27.3314695
  64.8597576  80.8855866  26.7811728  65.6290387  81.1152291  28.0646643
  60.4023699  70.7634744  30.8346610  59.5408178  71.0615998  31.1263348
  60.4286133  70.9805143  29.9027643  57.2185268  79.3076935  27.2420416
  57.6823614  79.5864638  26.4525039  56.9542066  78.4060379  27.0593507
  54.1109349  78.8548416  30.1800179  54.6810706  79.2835685  29.5417664
  54.7017461  78.5731001  30.8784365  56.1554154  75.4300087  24.0509981
  56.8578197  75.8821131  24.5183908  55.8234783  74.7883906  24.6789874
  49.8979488  73.6883640  29.3527115  49.1078542  73.9441168  28.8767225
  50.3890735  74.5031978  29.4579155  51.8494233  74.0528219  26.3110592
  51.0525397  74.1646913  26.8294087  51.6219826  74.3914871  25.4451482
  57.6799901  80.5772922  34.2593106  57.7444334  81.0393330  35.0951278
  56.9710825  79.9470287  34.3875416  48.1817191  73.9414130  31.7842106
  48.4325229  74.8261140  32.0499682  48.7176739  73.7618732  31.0117197
  72.0049291  77.3727628  28.4517367  71.2512999  76.8035026  28.2961372
  72.1396832  77.3390292  29.3988002  57.3947919  82.2441030  24.1272086
  57.2593593  83.0892566  24.5556934  57.9357731  82.4460307  23.3638020
  50.8477316  79.7616468  24.7000012  51.3601837  80.5559718  24.8505576
  51.5000029  79.0642758  24.6333613  52.6572201  82.8782224  26.7822765
  52.8338829  83.8000189  26.5943749  53.4529034  82.5640643  27.2117145
  51.9424557  74.9246856  36.6584928  51.8278072  74.0232113  36.9592027
  51.0869075  75.1710553  36.3069744  53.7803516  84.3960398  32.7833107
  54.3310941  84.2677461  32.0110101  52.9414992  84.6955287  32.4328000
  48.8126233  78.0905122  25.4759582  49.6501455  78.5002131  25.2593290
  48.9904501  77.1504564  25.4459776  60.7090665  75.7580203  21.1643415
  60.1937288  76.5284807  21.4031802  60.4367973  75.0845339  21.7876477
  58.2937776  70.6029904  26.2228653  57.4379372  70.2136754  26.0434292
  58.7064728  70.6821864  25.3628439  56.0679809  68.2214977  29.6286395
  56.9332805  68.0257785  29.2692284  56.1357317  67.9925328  30.5555752
  65.6824939  78.5112557  23.0996589  64.9054382  78.1723717  22.6551751
  66.3616420  78.5165181  22.4251554  60.4976968  73.6307295  22.9903196
  60.1927104  73.9453444  23.8413339  61.4507410  73.7088715  23.0330529
  58.9423400  79.7897518  24.6396150  58.4144762  79.0550278  24.3269388
  58.4410903  80.5672195  24.3936119  63.9216246  77.9846539  29.7563197
  63.2639920  78.6745800  29.8443325  64.7256645  78.3742971  30.0997183
  53.6742128  70.4517185  27.0002762  54.2485880  70.2292366  26.2675955
  54.2613110  70.5205879  27.7531363  62.7321705  76.3390911  27.8067138
  63.2453587  76.9720903  28.3088848  63.3822929  75.7392107  27.4410498
  54.0011715  72.4821646  21.0198647  53.1649027  72.8196332  21.3407922
  53.8616484  72.3470625  20.0825784  55.9764795  67.3258433  25.7277831
  55.3229208  67.0107451  25.1034446  55.9345269  66.7034174  26.4537654
  57.0876000  77.6077728  17.6431123  56.1803062  77.3766982  17.8422272
  57.5847032  76.8115348  17.8305105  59.9944079  86.3175236  20.5627809
  59.3205778  86.6206932  21.1712767  60.3809901  87.1204316  20.2133266
  59.2102536  73.8140367  30.0525479  58.2925097  74.0355314  29.8947167
  59.6262679  73.8886677  29.1937186  59.9937583  75.2131783  25.1828159
  60.7409402  75.7253180  24.8735281  60.2629173  74.8915835  26.0432553
  58.2664234  77.7090323  22.1655113  57.3575453  77.4249356  22.2627583
  58.2959317  78.1289402  21.3058420  63.4983501  81.3196913  25.9346281
  63.0445828  80.4787823  25.9911471  62.8677468  81.9558311  26.2721061
  62.4416421  72.2488899  27.1646948  61.7039177  71.7366285  27.4957191
  62.6943194  71.8089281  26.3530225  61.9416440  83.1573410  26.8696099
  62.2339415  83.7178467  26.1508465  62.4515061  83.4501971  27.6249258
  62.5428048  65.0265151  27.7588718  62.8486925  64.1662514  27.4714633
  63.2680653  65.6182771  27.5587712  48.8352404  75.4295837  26.1470316
  48.6376804  74.8365198  25.4221382  48.2799068  75.1248048  26.8646254
  56.8149128  75.3218944  28.2664909  56.8697737  74.3692780  28.1907385
  56.0040330  75.4778383  28.7506207  57.9640321  79.2499067  19.5043192
  57.5259751  78.5334926  19.0448829  58.7050762  79.4775182  18.9428283
  54.7541488  73.9396004  26.0255288  53.9409353  74.2390174  26.4320480
  55.2500482  73.5451692  26.7429770  56.9050065  83.9353761  27.9589552
  56.8626244  84.1614607  27.0298084  57.8212764  83.7017135  28.1075353
  66.0813436  77.5256264  25.5619510  65.9431335  77.7157860  24.6340700
  65.7249655  78.2875647  26.0187562  54.2455562  71.5114359  31.6416523
  54.8854942  71.3703118  30.9439486  53.4133093  71.2248873  31.2655125
  66.1082816  79.5932791  30.5730782  66.5419322  79.5008080  31.4213836
  66.8214397  79.5690292  29.9350798  55.0215866  80.8116790  27.7551515
  55.8156465  80.3167110  27.5534090  54.3107559  80.2834653  27.3919221
  59.8410711  83.1934885  32.1063883  59.8947733  83.7625822  32.8741598
  58.9725492  83.3636770  31.7417920  51.3298630  74.9559871  23.8311268
  50.3996218  74.8944327  24.0481230  51.4256102  74.4335824  23.0347909
  51.2484179  71.4814684  26.4189509  51.5090996  72.3960017  26.3098670
  52.0701351  71.0139127  26.5686122  52.7209104  72.8952441  33.5888334
  53.3932158  72.6869804  32.9400983  51.8938891  72.6974527  33.1493566
  58.7998810  77.3595147  33.6650814  59.7290870  77.5106307  33.4919782
  58.3789840  77.4479168  32.8099461  57.5987142  81.3845812  31.4349352
  57.4598228  81.0164596  32.3075290  56.8101738  81.8993451  31.2633310
  58.1935294  86.4854908  22.7774889  58.3687050  86.0142951  23.5920511
  57.5068082  87.1120674  23.0056149  59.1492357  80.7627414  28.8238190
  58.8142190  80.7228184  29.7195840  58.6496303  80.0972130  28.3508600
  53.1236601  76.1695044  34.3490771  52.9856399  75.4375283  34.9502310
  54.0341525  76.0803944  34.0674959  62.0851549  78.1083449  19.0975250
  61.4680720  77.3830277  19.0008302  61.6168037  78.8692809  18.7542324
  55.7518902  75.8815004  33.8374451  56.4618521  75.2408196  33.7961069
  55.7088210  76.1327899  34.7600631  52.7596379  89.6344271  29.5514749
  52.9992978  90.2662795  30.2293767  51.9165576  89.2832311  29.8380108
  53.8750095  72.3268873  18.2196554  52.9979561  72.2057674  17.8558800
  54.3507848  71.5354951  17.9675442  45.3952235  77.1146033  28.3138061
  46.0823275  76.8007763  27.7259076  45.2400364  78.0187397  28.0405312
  50.1986957  72.0036229  32.7423085  50.1145146  71.3961899  32.0073495
  49.3769664  72.4945248  32.7432581  57.2724241  85.4423393  31.9556253
  57.1994413  86.2478365  32.4675557  56.8301634  85.6415359  31.1304274
  57.0614021  84.6795163  25.4659074  56.2781543  85.2216844  25.5597299
  57.7606766  85.1969143  25.8653315  60.3710671  70.4889793  28.1093280
  60.8679371  69.7359755  27.7894350  59.5997653  70.5254109  27.5436489
  59.7322925  85.3410227  34.1114411  60.4450897  85.9757692  34.0390313
  59.2412954  85.4374093  33.2954413  61.4540452  79.2461480  25.6831703
  60.5196731  79.3662942  25.5136407  61.6317120  78.3433947  25.4191713
  56.9545640  72.6307176  27.8364964  56.5843427  72.0778216  28.5245870
  57.4504732  72.0265309  27.2839964  64.8413003  75.0878799  26.2181737
  65.3073455  75.9206791  26.1442040  65.2920504  74.6223781  26.9226996
  54.7834838  83.0904671  34.9319982  55.4844298  83.7241154  35.0849376
  54.3129953  83.4319402  34.1715621  62.9089234  81.4322621  23.2167889
  63.1849078  81.3179215  24.1261763  62.0393733  81.0340105  23.1780062
  62.8129666  67.4559386  30.2572639  61.8992746  67.6863613  30.4254845
  63.2422767  67.5397830  31.1086671  59.5443298  85.6808971  26.8600703
  59.7265693  84.8630627  27.3228455  60.3676284  85.8976664  26.4225593
  59.8785464  84.6077157  24.1215751  60.4073230  84.0969611  23.5085913
  60.1413683  84.2919687  24.9861284  50.3802556  82.6241026  31.8651085
  50.9655993  81.8784714  31.9978989  50.1827395  82.9344983  32.7487749
  53.2341212  85.6592273  26.8813527  52.5651587  86.1438401  26.3977567
  53.0954081  85.9061494  27.7956906  44.9720211  75.1946626  30.5855528
  45.0104311  74.6610217  31.3792646  44.4660504  74.6681832  29.9666505
  57.3746480  87.6936017  33.4796186  57.9264788  87.8567638  34.2445271
  57.7152674  88.2840455  32.8076210  52.3510973  70.0411167  34.0818070
  52.4152300  70.9025997  33.6695468  52.2878094  69.4285168  33.3490429
  48.6028789  73.9210728  23.6609459  48.8982230  73.0121407  23.6076513
  47.7016825  73.8998468  23.3390462  60.5114868  85.6417992  30.4659868
  60.3866007  84.8407732  29.9570813  61.1693959  86.1364186  29.9773838
  52.1323036  71.9966725  29.6437008  51.4109622  72.6102693  29.5044481
  52.9216292  72.5324490  29.5653654  62.5749776  83.4427012  32.0939418
  61.6280111  83.3232364  32.0217745  62.9232549  82.5549510  32.1765679
  50.3316630  71.6024826  23.7848785  50.0029337  70.7222205  23.6023891
  50.6856001  71.5472495  24.6725174  59.5796209  83.2379729  28.2943770
  59.4321172  82.3096436  28.4751340  60.4049703  83.2599819  27.8100845
  53.4458454  71.8897796  24.1524262  53.7854526  72.4183717  23.4302871
  53.8930574  72.2278202  24.9282829  63.1830331  84.0608287  29.3808643
  64.1076879  83.8551149  29.2433094  63.0145634  83.8124688  30.2897984
  56.1401894  70.2734846  33.6027330  55.7998715  69.4742659  34.0048010
  55.4340901  70.5736557  33.0304164  56.7918366  67.3584159  32.0554653
  57.6144435  66.8844637  31.9333544  57.0356430  68.1374643  32.5553340
  55.4326601  70.3872417  22.3517555  56.1534963  70.7653670  21.8481272
  54.8091905  71.1061294  22.4552533  59.5757724  71.0917566  23.2875887
  59.7921338  71.9742204  22.9864716  59.0951791  70.7003780  22.5581529
  54.3156945  74.0503279  29.8646632  54.1701526  74.3643583  30.7570913
  53.8382149  74.6688180  29.3117531  56.1753328  71.0405827  29.9127522
  56.1614897  70.1446921  29.5759819  56.8925756  71.0476491  30.5465808
  58.0279459  71.4743168  31.9580649  57.7697236  72.3960238  31.9564979
  57.4964499  71.0773602  32.6481113  62.9725647  84.5793955  24.7370734
  63.1462525  84.0140377  23.9844587  63.4654539  85.3794850  24.5550224
  48.7902607  76.5908624  32.8034293  48.2456075  77.3668432  32.9354567
  49.6681957  76.9379428  32.6453415  55.5790224  69.9220208  25.1815092
  55.7006135  68.9936854  25.3805979  55.2892266  69.9358894  24.2693407
  58.4481414  67.6075118  28.3181811  58.4703111  67.6714451  27.3633791
  58.8649473  66.7679627  28.5122318  68.8265038  77.3430378  26.3561034
  69.2696184  76.5937703  25.9580157  67.9491549  77.3340514  25.9734766
  63.9600820  83.8960719  21.8367633  64.6551724  84.5167412  22.0554947
  64.3023970  83.0456070  22.1120010  49.5768629  75.7178520  35.6964450
  48.8350365  75.8661155  36.2829080  49.2561373  75.9786786  34.8331199
  65.8592243  81.3460425  23.3654963  66.3843567  81.6847697  22.6404283
  65.7714595  80.4107440  23.1818098  57.5212292  85.2594498  35.4944840
  57.8299418  85.0143645  36.3667540  58.3187774  85.4641137  35.0063710
  57.5432904  87.4132408  27.7250217  57.1037894  86.9208787  28.4183073
  58.2941021  86.8705376  27.4842292  50.0225243  83.6043949  27.7274845
  50.8483263  83.3047721  27.3473488  49.6719295  82.8351571  28.1764633
  54.9906776  82.9570417  29.7972518  54.3686785  82.2941122  29.4974746
  55.6611643  82.9831549  29.1146166  48.2233848  81.5230275  28.6863778
  47.3865756  81.0952450  28.5047779  48.1957493  81.7162719  29.6234569
  54.5520283  81.5074340  23.2730979  54.7008403  82.1909805  22.6197652
  55.3586726  81.4879430  23.7880435  68.3697903  78.8135616  28.7483482
  69.2044795  79.2525420  28.9121042  68.5057032  78.3374269  27.9291727
  52.3072916  77.5339518  24.2792048  52.0618958  76.6301848  24.4772258
  52.4768830  77.5356669  23.3371526  51.5768563  73.2667876  21.7778209
  50.8837808  73.3412231  21.1218245  51.3320315  72.5028219  22.2999726
  60.2482220  64.8263477  29.1817700  60.5283974  64.1586666  29.8078126
  61.0332827  65.0192573  28.6692364  58.0515688  84.0022471  20.7442726
  57.4789655  84.6212658  20.2913198  58.6248482  84.5521833  21.2782648
  61.2712948  84.2859621  21.8751308  62.2043621  84.2205183  22.0784184
  61.1836161  85.1215888  21.4165841  63.9000965  83.6025491  18.8355256
  63.8214596  83.2685355  19.7291014  64.7210631  84.0947259  18.8346728
  58.4362487  75.3383284  18.0858779  59.3821591  75.2089492  18.1547197
  58.0576732  74.5997946  18.5628207  64.4084371  67.0039290  28.0485671
  64.2109192  66.6954378  28.9329002  65.0184077  67.7300929  28.1783600
  72.4155706  77.5303237  31.1837611  73.1459094  77.2688526  31.7445315
  71.8062651  76.7931959  31.2239679  56.6205404  73.2633260  18.0213664
  55.7136859  72.9666373  18.0976378  56.8981385  72.9663078  17.1547950
  47.5383344  74.5839623  28.4712710  47.2186129  73.7304932  28.1787084
  46.9916772  74.7988202  29.2270678  51.3163252  77.3002064  32.1882217
  51.5349262  78.2319172  32.2070251  51.7289026  76.9410039  32.9737021
  58.2367470  67.8070150  24.1757905  57.4268198  67.4617235  24.5513151
  58.9251887  67.4977693  24.7645517  60.1658018  66.8848197  25.7982202
  60.7189057  67.3043650  26.4572225  60.4028104  65.9583945  25.8405158
  55.3904189  70.1220195  18.1625643  56.2523353  70.4475094  18.4221460
  55.5754533  69.3351691  17.6498709  47.4071604  78.2042535  30.4405832
  46.7135076  77.7896488  29.9275786  48.1544595  78.2463071  29.8439251
  63.5436825  68.9948722  25.3060866  62.9635494  69.6533526  24.9238919
  63.2772758  68.1726066  24.8948284  61.9940391  68.3953779  27.5082186
  62.4940170  68.5070314  26.6996505  62.6375999  68.0914832  28.1482995
  49.3208347  78.1360789  28.3171847  49.2979035  78.2348476  27.3653730
  49.6308983  78.9825939  28.6389013  51.9795725  80.1936944  32.4318461
  52.9338978  80.1620886  32.3648393  51.7808248  79.7327567  33.2468687
  52.5695107  78.7638060  34.9989259  53.3887996  79.2582138  35.0224096
  52.8431915  77.8470028  34.9706826  62.3261703  71.1548812  24.3617214
  61.4387558  71.4398463  24.1437409  62.7415692  70.9942575  23.5144491
  65.6776239  71.1795333  28.0771554  66.4536629  71.6691785  28.3496170
  64.9524373  71.6053387  28.5343423  68.1148798  71.8922952  29.1345494
  68.7093289  71.6518688  28.4238802  68.1875381  71.1730083  29.7619031
  50.3345953  85.7356563  29.4488659  50.2000421  84.9756964  28.8826657
  49.9178016  86.4597463  28.9817448  61.4704916  80.9193487  18.4565234
  62.1740767  81.1243489  19.0722890  60.7467565  81.4870249  18.7214318
  62.3002727  76.6703348  24.5767505  62.2437928  77.1271899  23.7375137
  62.8531069  75.9094033  24.3990347  66.1107533  72.4593080  25.4017624
  65.8544467  72.0589716  26.2325832  65.4860401  73.1736874  25.2767763
  70.4219871  75.1989153  27.9088915  69.8619428  75.2682342  28.6820477
  69.8163374  75.0230138  27.1888412  53.4915079  86.6325880  29.6607102
  53.3747463  87.5771313  29.5585792  52.6707526  86.3299442  30.0492901
  63.3791614  81.3576016  20.5063694  64.2137218  80.9257214  20.3241169
  63.2175957  81.1858030  21.4340589  63.0337506  77.8608129  21.8720034
  62.9786310  77.6952401  20.9308478  62.4083561  78.5684162  22.0282223
  47.8230021  73.0976194  35.6981456  48.4688885  72.5875148  36.1868681
  47.6147172  73.8344875  36.2724881  56.3433632  67.3616238  21.4505352
  56.3312301  68.3058078  21.6073623  57.2357053  67.1786384  21.1564813
  54.5169593  87.2854142  32.8763030  55.4196840  87.3177752  33.1929525
  54.2906964  86.3554593  32.8909366  56.2723195  86.0385129  29.5373109
  55.3218826  86.0386990  29.4237481  56.5755682  85.2917863  29.0209143
  60.1585751  63.9559015  25.7051289  59.3918147  63.4017502  25.8507971
  60.5696456  64.0280884  26.5665441  72.0075889  91.8745667  30.6018871
  72.6454299  91.7552414  29.8982211  71.8896732  92.8226511  30.6606823
  68.8165595  91.8273095  30.5380396  68.4784107  91.7114160  29.6500931
  69.6855363  91.4264260  30.5181402  64.6752411  93.6808572  26.5277287
  64.1117276  93.5898509  25.7593575  64.5604806  92.8608476  27.0079779
  62.2216843  95.1759763  29.3661507  63.0138135  94.8350588  28.9507807
  62.4613493  95.2854738  30.2863661  70.2551970  97.3479539  21.8391752
  69.6039949  97.9333620  21.4525766  71.0496332  97.8785734  21.8986789
  64.1807597  94.4368676  22.2378886  64.9538473  93.8897664  22.0991762
  64.5332996  95.3012926  22.4493347  66.9448846  93.1421907  32.0347145
  67.5412418  92.9177930  31.3204108  67.0023818  92.4006653  32.6372593
  66.5173875  90.5961343  19.8697336  66.7699395  90.0742864  19.1080799
  65.5798434  90.4327488  19.9724020  71.5617157  89.5997121  27.6772079
  72.3480247  89.1816544  27.3262496  71.8255862  90.5043213  27.8453728
  71.7327235  95.0369971  22.3760736  71.0973068  95.1104598  23.0881641
  71.4024641  95.6263570  21.6979815  76.9625585  89.5372354  28.5805058
  77.6950757  88.9671571  28.8142887  76.2064940  89.1493955  29.0211563
  66.2370163  92.4989449  22.0721711  66.1206421  91.8234352  22.7402795
  66.3472423  92.0121822  21.2553864  68.5801704  91.9599596  25.7768400
  68.2159912  91.4330217  26.4881322  69.4368820  91.5698065  25.6034886
  68.2207191  86.9889495  20.7729749  68.3881594  87.8569732  21.1400220
  68.0304360  87.1516777  19.8491038  70.9782524  95.4506474  32.4395579
  70.6783248  96.3531513  32.3311386  70.6333584  95.1838657  33.2916732
  64.4295006  91.9020271  28.4732283  63.5045502  91.7696485  28.6809975
  64.6779419  92.6814490  28.9702226  74.3779668  87.9689014  30.1193016
  73.4696546  87.9004423  29.8251777  74.3267264  88.4460959  30.9474842
  68.1996412  89.4447153  21.7576416  68.0796037  89.8904204  22.5961896
  67.5049001  89.7932470  21.1989954  65.9603304 102.2150795  25.4066547
  65.8827334 103.1658620  25.4855027  65.3564948 101.8696667  26.0641473
  76.2441315  86.1705453  31.8970890  75.6015695  86.4637986  31.2510685
  75.7396243  86.0558373  32.7024087  73.8981478  89.9168626  22.5856750
  74.8099334  90.1496013  22.4104447  73.3891125  90.5005670  22.0231828
  72.1822246  94.3393254  36.2218042  72.5905602  93.8975664  35.4772675
  71.4599507  93.7645881  36.4752235  68.5353316  89.2765861  33.5951599
  69.3814511  89.7005274  33.7386248  68.4751954  88.6199485  34.2890162
  72.5051061  94.8994444  29.9770331  71.8759923  95.0640159  29.2746399
  72.1176723  95.3136054  30.7481295  76.3840293  95.8348882  27.3314695
  75.6991331  96.2147784  26.7811728  76.4684142  96.4444209  28.0646643
  73.6391224  93.4808841  33.9310038  73.8508119  94.1240601  33.2544419
  73.5920972  92.6471158  33.4631968  71.2417453  86.0926662  30.8346610
  70.3801932  86.3907916  31.1263348  71.2679888  86.3097061  29.9027643
  68.0579022  94.6368853  27.2420416  68.5217368  94.9156556  26.4525039
  67.7935821  93.7352297  27.0593507  64.9503104  94.1840334  30.1800179
  65.5204461  94.6127602  29.5417664  65.5411215  93.9022919  30.8784365
  66.9947909  90.7592005  24.0509981  67.6971952  91.2113049  24.5183908
  66.6628537  90.1175824  24.6789874  60.7373243  89.0175558  29.3527115
  59.9472296  89.2733086  28.8767225  61.2284490  89.8323895  29.4579155
  74.7537052  96.3580797  32.1032396  75.5754496  95.9560984  31.8215077
  74.7499455  96.2549031  33.0548511  62.6887988  89.3820137  26.3110592
  61.8919151  89.4938831  26.8294087  62.4613580  89.7206789  25.4451482
  68.5193656  95.9064840  34.2593106  68.5838088  96.3685247  35.0951278
  67.8104579  95.2762205  34.3875416  82.8443045  92.7019545  28.4517367
  82.0906754  92.1326943  28.2961372  82.9790586  92.6682210  29.3988002
  68.2341673  97.5732948  24.1272086  68.0987348  98.4184483  24.5556934
  68.7751486  97.7752225  23.3638020  61.6871071  95.0908386  24.7000012
  62.1995591  95.8851636  24.8505576  62.3393783  94.3934676  24.6333613
  63.4965955  98.2074142  26.7822765  63.6732584  99.1292107  26.5943749
  64.2922789  97.8932561  27.2117145  64.6197271  99.7252316  32.7833107
  65.1704696  99.5969379  32.0110101  63.7808747 100.0247205  32.4328000
  71.9591388  98.4759314  36.2853830  71.9409863  99.2968195  35.7934099
  72.8811308  98.3513389  36.5103971  59.6519987  93.4197040  25.4759582
  60.4895209  93.8294048  25.2593290  59.8298255  92.4796482  25.4459776
  71.5484419  91.0872120  21.1643415  71.0331043  91.8576725  21.4031802
  71.2761728  90.4137257  21.7876477  69.1331531  85.9321821  26.2228653
  68.2773127  85.5428672  26.0434292  69.5458482  86.0113782  25.3628439
  70.6630677  83.4668165  30.6220213  70.1595473  83.4298300  29.8088018
  70.9561284  84.3760907  30.6816870  66.9073563  83.5506894  29.6286395
  67.7726560  83.3549703  29.2692284  66.9751072  83.3217246  30.5555752
  76.5218694  93.8404475  23.0996589  75.7448136  93.5015635  22.6551751
  77.2010175  93.8457098  22.4251554  71.3370723  88.9599213  22.9903196
  71.0320858  89.2745362  23.8413339  72.2901165  89.0380632  23.0330529
  69.7817154  95.1189436  24.6396150  69.2538516  94.3842195  24.3269388
  69.2804657  95.8964112  24.3936119  74.7610001  93.3138456  29.7563197
  74.1033675  94.0037718  29.8443325  75.5650400  93.7034888  30.0997183
  64.5135882  85.7809102  27.0002762  65.0879634  85.5584284  26.2675955
  65.1006865  85.8497797  27.7531363  73.5715459  91.6682829  27.8067138
  74.0847341  92.3012821  28.3088848  74.2216683  91.0684025  27.4410498
  64.8405469  87.8113563  21.0198647  64.0042781  88.1488250  21.3407922
  64.7010239  87.6762543  20.0825784  66.8158550  82.6550351  25.7277831
  66.1622962  82.3399368  25.1034446  66.7739024  82.0326092  26.4537654
  67.9269755  92.9369646  17.6431123  67.0196816  92.7058900  17.8422272
  68.4240787  92.1407265  17.8305105  70.8337834 101.6467153  20.5627809
  70.1599532 101.9498850  21.1712767  71.2203656 102.4496234  20.2133266
  70.0496290  89.1432285  30.0525479  69.1318852  89.3647232  29.8947167
  70.4656434  89.2178595  29.1937186  70.8331338  90.5423700  25.1828159
  71.5803157  91.0545098  24.8735281  71.1022927  90.2207753  26.0432553
  69.1057988  93.0382241  22.1655113  68.1969207  92.7541274  22.2627583
  69.1353072  93.4581320  21.3058420  74.3377256  96.6488831  25.9346281
  73.8839583  95.8079740  25.9911471  73.7071222  97.2850229  26.2721061
  73.2810175  87.5780817  27.1646948  72.5432932  87.0658203  27.4957191
  73.5336949  87.1381198  26.3530225  72.7810195  98.4865327  26.8696099
  73.0733169  99.0470384  26.1508465  73.2908815  98.7793888  27.6249258
  73.3821802  80.3557069  27.7588718  73.6880679  79.4954432  27.4714633
  74.1074407  80.9474689  27.5587712  59.6746158  90.7587755  26.1470316
  59.4770558  90.1657116  25.4221382  59.1192822  90.4539965  26.8646254
  67.6542882  90.6510862  28.2664909  67.7091492  89.6984698  28.1907385
  66.8434084  90.8070301  28.7506207  68.8034076  94.5790985  19.5043192
  68.3653506  93.8626844  19.0448829  69.5444517  94.8067100  18.9428283
  65.5935242  89.2687921  26.0255288  64.7803108  89.5682092  26.4320480
  66.0894236  88.8743610  26.7429770  67.7443820  99.2645678  27.9589552
  67.7019999  99.4906525  27.0298084  68.6606519  99.0309053  28.1075353
  76.9207191  92.8548182  25.5619510  76.7825089  93.0449778  24.6340700
  76.5643409  93.6167565  26.0187562  65.0849317  86.8406277  31.6416523
  65.7248696  86.6995036  30.9439486  64.2526847  86.5540790  31.2655125
  76.9476570  94.9224709  30.5730782  77.3813077  94.8299998  31.4213836
  77.6608151  94.8982209  29.9350798  65.8609621  96.1408707  27.7551515
  66.6550219  95.6459027  27.5534090  65.1501313  95.6126570  27.3919221
  70.6804465  98.5226803  32.1063883  70.7341487  99.0917739  32.8741598
  69.8119247  98.6928688  31.7417920  62.1692384  90.2851789  23.8311268
  61.2389972  90.2236245  24.0481230  62.2649856  89.7627742  23.0347909
  62.0877933  86.8106602  26.4189509  62.3484751  87.7251935  26.3098670
  62.9095106  86.3431044  26.5686122  77.8092120  94.9648409  33.1063667
  78.0028010  95.8694220  33.3522942  77.7092738  94.5055828  33.9402252
  69.6392565  92.6887065  33.6650814  70.5684625  92.8398225  33.4919782
  69.2183595  92.7771086  32.8099461  68.4380897  96.7137729  31.4349352
  68.2991982  96.3456514  32.3075290  67.6495493  97.2285369  31.2633310
  69.0329049 101.8146826  22.7774889  69.2080804 101.3434869  23.5920511
  68.3461837 102.4412592  23.0056149  69.9886112  96.0919332  28.8238190
  69.6535944  96.0520102  29.7195840  69.4890058  95.4264048  28.3508600
  72.9245304  93.4375366  19.0975250  72.3074474  92.7122195  19.0008302
  72.4561792  94.1984727  18.7542324  74.5799435  98.1474275  36.7581030
  74.5211981  97.4633495  36.0911613  74.9818954  98.8893265  36.3061656
  63.5990134 104.9636189  29.5514749  63.8386732 105.5954713  30.2293767
  62.7559330 104.6124229  29.8380108  64.7143849  87.6560791  18.2196554
  63.8373316  87.5349591  17.8558800  65.1901602  86.8646869  17.9675442
  74.5816842  96.1113859  34.9895010  73.6943621  95.7739780  35.1121408
  75.1515394  95.3796890  35.2263775  56.2345990  92.4437950  28.3138061
  56.9217029  92.1299680  27.7259076  56.0794118  93.3479315  28.0405312
  68.1117996 100.7715311  31.9556253  68.0388167 101.5770282  32.4675557
  67.6695389 100.9707277  31.1304274  67.9007775 100.0087081  25.4659074
  67.1175297 100.5508761  25.5597299  68.6000521 100.5261061  25.8653315
  71.2104426  85.8181710  28.1093280  71.7073125  85.0651673  27.7894350
  70.4391407  85.8546027  27.5436489  79.0634183  91.5222076  29.7511571
  79.0524059  92.4046791  29.3805504  78.1951562  91.1693627  29.5566108
  70.5716679 100.6702145  34.1114411  71.2844652 101.3049610  34.0390313
  70.0806708 100.7666011  33.2954413  72.2934206  94.5753398  25.6831703
  71.3590485  94.6954860  25.5136407  72.4710875  93.6725864  25.4191713
  67.7939394  87.9599093  27.8364964  67.4237182  87.4070134  28.5245870
  68.2898487  87.3557227  27.2839964  75.6806758  90.4170717  26.2181737
  76.1467210  91.2498709  26.1442040  76.1314258  89.9515699  26.9226996
  65.6228593  98.4196588  34.9319982  66.3238052  99.0533071  35.0849376
  65.1523708  98.7611320  34.1715621  73.7482989  96.7614538  23.2167889
  74.0242833  96.6471133  24.1261763  72.8787487  96.3632023  23.1780062
  73.6523420  82.7851304  30.2572639  72.7386500  83.0155531  30.4254845
  74.0816522  82.8689748  31.1086671  70.3837053 101.0100889  26.8600703
  70.5659447 100.1922545  27.3228455  71.2070039 101.2268581  26.4225593
  70.7179218  99.9369074  24.1215751  71.2466985  99.4261529  23.5085913
  70.9807438  99.6211604  24.9861284  61.2196311  97.9532944  31.8651085
  61.8049748  97.2076631  31.9978989  61.0221149  98.2636900  32.7487749
  64.0734966 100.9884191  26.8813527  63.4045341 101.4730319  26.3977567
  63.9347836 101.2353411  27.7956906  55.8113966  90.5238544  30.5855528
  55.8498065  89.9902134  31.3792646  55.3054259  89.9973749  29.9666505
  68.2140235 103.0227934  33.4796186  68.7658543 103.1859556  34.2445271
  68.5546428 103.6132372  32.8076210  59.4422543  89.2502646  23.6609459
  59.7375984  88.3413324  23.6076513  58.5410579  89.2290385  23.3390462
  71.3508622 100.9709910  30.4659868  71.2259761 100.1699650  29.9570813
  72.0087713 101.4656103  29.9773838  62.9716790  87.3258642  29.6437008
  62.2503376  87.9394610  29.5044481  63.7610046  87.8616407  29.5653654
  73.4143530  98.7718930  32.0939418  72.4673866  98.6524281  32.0217745
  73.7626304  97.8841428  32.1765679  61.1710385  86.9316744  23.7848785
  60.8423091  86.0514122  23.6023891  61.5249756  86.8764412  24.6725174
  70.4189964  98.5671646  28.2943770  70.2714926  97.6388354  28.4751340
  71.2443457  98.5891737  27.8100845  64.2852208  87.2189713  24.1524262
  64.6248281  87.7475635  23.4302871  64.7324328  87.5570119  24.9282829
  74.0224086  99.3900205  29.3808643  74.9470633  99.1843066  29.2433094
  73.8539389  99.1416606  30.2897984  66.9795649  85.6026764  33.6027330
  66.6392469  84.8034577  34.0048010  66.2734655  85.9028475  33.0304164
  67.6312121  82.6876076  32.0554653  68.4538190  82.2136555  31.9333544
  67.8750184  83.4666560  32.5553340  66.2720355  85.7164335  22.3517555
  66.9928718  86.0945588  21.8481272  65.6485659  86.4353212  22.4552533
  70.4151478  86.4209484  23.2875887  70.6315092  87.3034122  22.9864716
  69.9345545  86.0295697  22.5581529  65.1550699  89.3795197  29.8646632
  65.0095280  89.6935500  30.7570913  64.6775903  89.9980097  29.3117531
  67.0147082  86.3697745  29.9127522  67.0008651  85.4738838  29.5759819
  67.7319510  86.3768409  30.5465808  68.8673213  86.8035085  31.9580649
  68.6090991  87.7252156  31.9564979  68.3358253  86.4065520  32.6481113
  73.8119402  99.9085872  24.7370734  73.9856279  99.3432295  23.9844587
  74.3048293 100.7086767  24.5550224  66.4183978  85.2512125  25.1815092
  66.5399889  84.3228772  25.3805979  66.1286021  85.2650811  24.2693407
  69.2875169  82.9367036  28.3181811  69.3096865  83.0006369  27.3633791
  69.7043228  82.0971544  28.5122318  79.6658793  92.6722295  26.3561034
  80.1089939  91.9229621  25.9580157  78.7885303  92.6632432  25.9734766
  74.7994574  99.2252637  21.8367633  75.4945479  99.8459330  22.0554947
  75.1417724  98.3747988  22.1120010  76.6985997  96.6752342  23.3654963
  77.2237321  97.0139615  22.6404283  76.6108350  95.7399358  23.1818098
  68.3606046 100.5886416  35.4944840  68.6693173 100.3435563  36.3667540
  69.1581528 100.7933055  35.0063710  68.3826658 102.7424326  27.7250217
  67.9431648 102.2500704  28.4183073  69.1334775 102.1997293  27.4842292
  60.8618997  98.9335867  27.7274845  61.6877017  98.6339638  27.3473488
  60.5113049  98.1643489  28.1764633  65.8300530  98.2862335  29.7972518
  65.2080540  97.6233040  29.4974746  66.5005397  98.3123467  29.1146166
  59.0627602  96.8522193  28.6863778  58.2259510  96.4244367  28.5047779
  59.0351248  97.0454636  29.6234569  65.3914037  96.8366258  23.2730979
  65.5402158  97.5201722  22.6197652  66.1980481  96.8171348  23.7880435
  79.2091658  94.1427534  28.7483482  80.0438549  94.5817338  28.9121042
  79.3450786  93.6666187  27.9291727  63.1466670  92.8631436  24.2792048
  62.9012712  91.9593766  24.4772258  63.3162585  92.8648586  23.3371526
  62.4162318  88.5959793  21.7778209  61.7231563  88.6704148  21.1218245
  62.1714070  87.8320137  22.2999726  71.0875974  80.1555395  29.1817700
  71.3677728  79.4878584  29.8078126  71.8726581  80.3484490  28.6692364
  68.8909443  99.3314389  20.7442726  68.3183410  99.9504576  20.2913198
  69.4642236  99.8813750  21.2782648  72.1106703  99.6151539  21.8751308
  73.0437376  99.5497100  22.0784184  72.0229915 100.4507806  21.4165841
  74.7394719  98.9317409  18.8355256  74.6608351  98.5977273  19.7291014
  75.5604386  99.4239177  18.8346728  69.2756241  90.6675201  18.0858779
  70.2215346  90.5381409  18.1547197  68.8970486  89.9289863  18.5628207
  75.2478126  82.3331207  28.0485671  75.0502947  82.0246296  28.9329002
  75.8577831  83.0592846  28.1783600  83.2549460  92.8595155  31.1837611
  83.9852849  92.5980443  31.7445315  82.6456406  92.1223877  31.2239679
  81.3364757  91.0003018  31.7812063  80.6097921  90.8658983  31.1728554
  80.9212044  91.3079846  32.5868781  67.4599158  88.5925178  18.0213664
  66.5530614  88.2958290  18.0976378  67.7375139  88.2954996  17.1547950
  58.3777099  89.9131541  28.4712710  58.0579883  89.0596849  28.1787084
  57.8310527  90.1280119  29.2270678  69.0761224  83.1362067  24.1757905
  68.2661952  82.7909152  24.5513151  69.7645641  82.8269611  24.7645517
  71.0051772  82.2140114  25.7982202  71.5582811  82.6335568  26.4572225
  71.2421859  81.2875862  25.8405158  66.2297943  85.4512113  18.1625643
  67.0917107  85.7767011  18.4221460  66.4148287  84.6643609  17.6498709
  58.2465359  93.5334453  30.4405832  57.5528830  93.1188405  29.9275786
  58.9938350  93.5754989  29.8439251  74.3830579  84.3240639  25.3060866
  73.8029249  84.9825443  24.9238919  74.1166512  83.5017984  24.8948284
  72.8334146  83.7245697  27.5082186  73.3333924  83.8362232  26.6996505
  73.4769754  83.4206750  28.1482995  60.1602101  93.4652706  28.3171847
  60.1372789  93.5640394  27.3653730  60.4702738  94.3117857  28.6389013
  73.1655457  86.4840730  24.3617214  72.2781313  86.7690380  24.1437409
  73.5809447  86.3234493  23.5144491  76.5169994  86.5087251  28.0771554
  77.2930384  86.9983703  28.3496170  75.7918128  86.9345305  28.5343423
  78.9542552  87.2214870  29.1345494  79.5487043  86.9810606  28.4238802
  79.0269136  86.5022001  29.7619031  61.1739708 101.0648481  29.4488659
  61.0394176 100.3048882  28.8826657  60.7571770 101.7889381  28.9817448
  72.3098671  96.2485404  18.4565234  73.0134521  96.4535407  19.0722890
  71.5861320  96.8162166  18.7214318  73.1396481  91.9995266  24.5767505
  73.0831683  92.4563817  23.7375137  73.6924824  91.2385950  24.3990347
  76.9501287  87.7884998  25.4017624  76.6938221  87.3881633  26.2325832
  76.3254155  88.5028791  25.2767763  81.2613625  90.5281071  27.9088915
  80.7013183  90.5974260  28.6820477  80.6557128  90.3522055  27.1888412
  64.3308834 101.9617798  29.6607102  64.2141218 102.9063230  29.5585792
  63.5101280 101.6591359  30.0492901  74.2185368  96.6867934  20.5063694
  75.0530972  96.2549132  20.3241169  74.0569711  96.5149947  21.4340589
  73.8731261  93.1900047  21.8720034  73.8180064  93.0244318  20.9308478
  73.2477316  93.8976080  22.0282223  67.1827386  82.6908156  21.4505352
  67.1706056  83.6349996  21.6073623  68.0750808  82.5078301  21.1564813
  65.3563348 102.6146060  32.8763030  66.2590595 102.6469670  33.1929525
  65.1300718 101.6846511  32.8909366  67.1116950 101.3677046  29.5373109
  66.1612581 101.3678908  29.4237481  67.4149436 100.6209781  29.0209143
  70.9979505  79.2850933  25.7051289  70.2311901  78.7309419  25.8507971
  71.4090210  79.3572801  26.5665441  82.8469643 107.2037585  30.6018871
  83.4848053 107.0844332  29.8982211  82.7290486 108.1518429  30.6606823
  79.6559350 107.1565013  30.5380396  79.3177861 107.0406078  29.6500931
  80.5249118 106.7556178  30.5181402  75.5146165 109.0100489  26.5277287
  74.9511031 108.9190426  25.7593575  75.3998560 108.1900394  27.0079779
  80.1379133 108.3099865  36.4966601  80.1267773 107.9152663  35.6247105
  80.2999772 107.5765937  37.0900373  73.0610597 110.5051681  29.3661507
  73.8531889 110.1642505  28.9507807  73.3007248 110.6146656  30.2863661
  81.0945724 112.6771457  21.8391752  80.4433704 113.2625537  21.4525766
  81.8890087 113.2077652  21.8986789  75.0201351 109.7660594  22.2378886
  75.7932227 109.2189581  22.0991762  75.3726750 110.6304843  22.4493347
  76.8586394 111.0936976  35.4445785  76.5676260 111.9982607  35.3292452
  77.4943378 111.1353504  36.1589855  77.7842601 108.4713825  32.0347145
  78.3806173 108.2469847  31.3204108  77.8417572 107.7298570  32.6372593
  77.3567629 105.9253260  19.8697336  77.6093150 105.4034781  19.1080799
  76.4192188 105.7619406  19.9724020  82.4010912 104.9289039  27.6772079
  83.1874001 104.5108462  27.3262496  82.6649616 105.8335131  27.8453728
  82.5720989 110.3661889  22.3760736  81.9366822 110.4396515  23.0881641
  82.2418396 110.9555488  21.6979815  87.8019339 104.8664272  28.5805058
  88.5344511 104.2963489  28.8142887  87.0458695 104.4785872  29.0211563
  77.0763918 107.8281366  22.0721711  76.9600176 107.1526270  22.7402795
  77.1866178 107.3413740  21.2553864  79.4195459 107.2891513  25.7768400
  79.0553666 106.7622134  26.4881322  80.2762575 106.8989982  25.6034886
  85.3244759  98.5785846  33.0399666  84.9928084  99.4481257  32.8160881
  84.7290373  98.2622130  33.7193697  79.0600946 102.3181413  20.7729749
  79.2275348 103.1861649  21.1400220  78.8698115 102.4808695  19.8491038
  81.8176279 110.7798392  32.4395579  81.5177002 111.6823431  32.3311386
  81.4727338 110.5130575  33.2916732  75.2688760 107.2312189  28.4732283
  74.3439257 107.0988403  28.6809975  75.5173174 108.0106408  28.9702226
  85.2173423 103.2980932  30.1193016  84.3090300 103.2296340  29.8251777
  85.1661019 103.7752877  30.9474842  79.0390167 104.7739070  21.7576416
  78.9189792 105.2196121  22.5961896  78.3442755 105.1224388  21.1989954
  72.6297571 106.8745462  29.3076073  72.7589953 107.1279941  30.2215484
  71.9495023 107.4673170  28.9880728  76.7997059 117.5442712  25.4066547
  76.7221088 118.4950537  25.4855027  76.1958702 117.1988585  26.0641473
  79.2914289 104.7170578  38.0627914  78.5147623 105.2764498  38.0530778
  79.9304852 105.2027361  38.5842784  87.0835069 101.4997370  31.8970890
  86.4409449 101.7929904  31.2510685  86.5789998 101.3850291  32.7024087
  84.7375233 105.2460544  22.5856750  85.6493089 105.4787930  22.4104447
  84.2284880 105.8297588  22.0231828  77.5460661 107.5256031  37.6245881
  78.2875345 108.0641075  37.3480704  76.8397646 108.1522320  37.7817432
  83.0216000 109.6685171  36.2218042  83.4299357 109.2267582  35.4772675
  82.2993262 109.0937799  36.4752235  79.3747071 104.6057778  33.5951599
  80.2208266 105.0297192  33.7386248  79.3145708 103.9491403  34.2890162
  83.3444815 110.2286362  29.9770331  82.7153678 110.3932076  29.2746399
  82.9570477 110.6427972  30.7481295  87.2234047 111.1640800  27.3314695
  86.5385085 111.5439701  26.7811728  87.3077896 111.7736127  28.0646643
  84.4784979 108.8100759  33.9310038  84.6901874 109.4532519  33.2544419
  84.4314727 107.9763076  33.4631968  82.0811208 101.4218580  30.8346610
  81.2195687 101.7199833  31.1263348  82.1073642 101.6388979  29.9027643
  78.8972777 109.9660770  27.2420416  79.3611123 110.2448473  26.4525039
  78.6329575 109.0644215  27.0593507  75.7896858 109.5132252  30.1800179
  76.3598215 109.9419520  29.5417664  76.3804970 109.2314836  30.8784365
  77.8341663 106.0883923  24.0509981  78.5365706 106.5404966  24.5183908
  77.5022292 105.4467741  24.6789874  76.2822025 104.6795679  38.4261191
  75.6520685 105.3611960  38.6596587  76.1758112 104.5678761  37.4814329
  71.5766997 104.3467475  29.3527115  70.7866051 104.6025004  28.8767225
  72.0678244 105.1615813  29.4579155  85.5930807 111.6872714  32.1032396
  86.4148250 111.2852902  31.8215077  85.5893209 111.5840949  33.0548511
  73.5281742 104.7112054  26.3110592  72.7312906 104.8230749  26.8294087
  73.3007335 105.0498707  25.4451482  79.3587410 111.2356758  34.2593106
  79.4231843 111.6977165  35.0951278  78.6498334 110.6054123  34.3875416
  69.8604700 104.5997966  31.7842106  70.1112738 105.4844976  32.0499682
  70.3964248 104.4202567  31.0117197  93.6836800 108.0311463  28.4517367
  92.9300508 107.4618861  28.2961372  93.8184341 107.9974127  29.3988002
  79.0735428 112.9024865  24.1272086  78.9381102 113.7476401  24.5556934
  79.6145240 113.1044143  23.3638020  72.5264825 110.4200303  24.7000012
  73.0389346 111.2143553  24.8505576  73.1787538 109.7226594  24.6333613
  74.3359710 113.5366060  26.7822765  74.5126338 114.4584024  26.5943749
  75.1316543 113.2224479  27.2117145  73.6212066 105.5830691  36.6584928
  73.5065581 104.6815949  36.9592027  72.7656584 105.8294388  36.3069744
  80.7003904 113.5248432  38.2572429  80.2567758 112.7384810  37.9393333
  81.3621118 113.7127582  37.5916319  75.4591025 115.0544233  32.7833107
  76.0098450 114.9261297  32.0110101  74.6202501 115.3539122  32.4328000
  82.7985142 113.8051232  36.2853830  82.7803617 114.6260113  35.7934099
  83.7205062 113.6805307  36.5103971  79.2558196 111.3195361  37.1277338
  79.7886533 110.5583649  36.8976646  78.7272277 111.0269013  37.8701493
  82.4227891  96.4255427  32.6570980  82.0792161  97.3157069  32.5810091
  82.7906854  96.2357085  31.7940565  70.4913742 108.7488958  25.4759582
  71.3288964 109.1585966  25.2593290  70.6692010 107.8088400  25.4459776
  82.3878174 106.4164038  21.1643415  81.8724797 107.1868643  21.4031802
  82.1155482 105.7429174  21.7876477  79.9725285 101.2613739  26.2228653
  79.1166881 100.8720589  26.0434292  80.3852237 101.3405700  25.3628439
  81.5024432  98.7960082  30.6220213  80.9989227  98.7590217  29.8088018
  81.7955038  99.7052825  30.6816870  77.7467318  98.8798812  29.6286395
  78.6120314  98.6841621  29.2692284  77.8144826  98.6509164  30.5555752
  87.3612448 109.1696393  23.0996589  86.5841891 108.8307552  22.6551751
  88.0403929 109.1749016  22.4251554  82.1764477 104.2891130  22.9903196
  81.8714613 104.6037279  23.8413339  83.1294919 104.3672550  23.0330529
  80.6210909 110.4481354  24.6396150  80.0932271 109.7134113  24.3269388
  80.1198412 111.2256030  24.3936119  85.6003755 108.6430374  29.7563197
  84.9427429 109.3329635  29.8443325  86.4044154 109.0326806  30.0997183
  75.3529637 101.1101020  27.0002762  75.9273388 100.8876201  26.2675955
  75.9400619 101.1789714  27.7531363  84.4109214 106.9974747  27.8067138
  84.9241096 107.6304739  28.3088848  85.0610438 106.3975942  27.4410498
  75.6799224 103.1405481  21.0198647  74.8436536 103.4780167  21.3407922
  75.5403993 103.0054461  20.0825784  77.6552304  97.9842269  25.7277831
  77.0016717  97.6691286  25.1034446  77.6132778  97.3618009  26.4537654
  78.7663509 108.2661564  17.6431123  77.8590571 108.0350817  17.8422272
  79.2634541 107.4699183  17.8305105  81.6731588 116.9759071  20.5627809
  80.9993287 117.2790768  21.1712767  82.0597410 117.7788151  20.2133266
  80.8890045 104.4724202  30.0525479  79.9712606 104.6939149  29.8947167
  81.3050188 104.5470513  29.1937186  81.6725092 105.8715618  25.1828159
  82.4196911 106.3837015  24.8735281  81.9416682 105.5499671  26.0432553
  79.9451743 108.3674159  22.1655113  79.0362962 108.0833192  22.2627583
  79.9746826 108.7873237  21.3058420  85.1771010 111.9780748  25.9346281
  84.7233337 111.1371658  25.9911471  84.5464977 112.6142147  26.2721061
  84.1203930 102.9072734  27.1646948  83.3826686 102.3950120  27.4957191
  84.3730703 102.4673116  26.3530225  83.6203949 113.8157245  26.8696099
  83.9126924 114.3762302  26.1508465  84.1302570 114.1085806  27.6249258
  84.2215557  95.6848986  27.7588718  84.5274434  94.8246350  27.4714633
  84.9468162  96.2766606  27.5587712  70.5139913 106.0879673  26.1470316
  70.3164313 105.4949034  25.4221382  69.9586577 105.7831883  26.8646254
  78.4936637 105.9802779  28.2664909  78.5485246 105.0276616  28.1907385
  77.6827839 106.1362218  28.7506207  79.6427830 109.9082902  19.5043192
  79.2047260 109.1918761  19.0448829  80.3838271 110.1359017  18.9428283
  76.4328997 104.5979839  26.0255288  75.6196862 104.8974010  26.4320480
  76.9287991 104.2035528  26.7429770  78.5837574 114.5937596  27.9589552
  78.5413753 114.8198442  27.0298084  79.5000273 114.3600971  28.1075353
  82.0303208 105.0621664  34.8570181  82.3852596 105.2893137  35.7164647
  82.6775339 105.3940040  34.2347437  87.7600945 108.1840099  25.5619510
  87.6218844 108.3741695  24.6340700  87.4037164 108.9459482  26.0187562
  75.9243071 102.1698195  31.6416523  76.5642451 102.0286954  30.9439486
  75.0920602 101.8832708  31.2655125  87.7870325 110.2516626  30.5730782
  88.2206831 110.1591916  31.4213836  88.5001905 110.2274127  29.9350798
  76.7003375 111.4700625  27.7551515  77.4943974 110.9750945  27.5534090
  75.9895068 110.9418488  27.3919221  81.5198220 113.8518721  32.1063883
  81.5735242 114.4209657  32.8741598  80.6513001 114.0220606  31.7417920
  73.0086139 105.6143707  23.8311268  72.0783727 105.5528162  24.0481230
  73.1043611 105.0919660  23.0347909  72.9271688 102.1398520  26.4189509
  73.1878505 103.0543853  26.3098670  73.7488860 101.6722962  26.5686122
  74.3996613 103.5536277  33.5888334  75.0719666 103.3453639  32.9400983
  73.5726400 103.3558363  33.1493566  88.6485874 110.2940327  33.1063667
  88.8421764 111.1986138  33.3522942  88.5486493 109.8347746  33.9402252
  83.7100983 110.4447070  38.6804548  83.5586489 110.2157622  37.7634632
  83.7005662 111.4017671  38.6935893  80.4786319 108.0178983  33.6650814
  81.4078379 108.1690142  33.4919782  80.0577349 108.1063003  32.8099461
  79.2774651 112.0429647  31.4349352  79.1385737 111.6748431  32.3075290
  78.4889247 112.5577286  31.2633310  79.8722803 117.1438743  22.7774889
  80.0474559 116.6726787  23.5920511  79.1855591 117.7704510  23.0056149
  80.8279866 111.4211250  28.8238190  80.4929699 111.3812020  29.7195840
  80.3283812 110.7555966  28.3508600  74.8024110 106.8278880  34.3490771
  74.6643908 106.0959119  34.9502310  75.7129034 106.7387780  34.0674959
  83.7639058 108.7667284  19.0975250  83.1468229 108.0414112  19.0008302
  83.2955546 109.5276644  18.7542324  77.4306411 106.5398839  33.8374451
  78.1406030 105.8992031  33.7961069  77.3875719 106.7911734  34.7600631
  85.4193190 113.4766192  36.7581030  85.3605736 112.7925413  36.0911613
  85.8212708 114.2185182  36.3061656  76.1435345 103.5264057  35.6570090
  75.6072702 103.0754795  36.3091686  75.5552053 103.6609966  34.9140554
  74.4383888 120.2928106  29.5514749  74.6780487 120.9246630  30.2293767
  73.5953085 119.9416146  29.8380108  75.5537604 102.9852708  18.2196554
  74.6767070 102.8641509  17.8558800  76.0295357 102.1938787  17.9675442
  85.4210597 111.4405776  34.9895010  84.5337376 111.1031698  35.1121408
  85.9909148 110.7088808  35.2263775  67.0739744 107.7729868  28.3138061
  67.7610784 107.4591598  27.7259076  66.9187873 108.6771233  28.0405312
  71.8774466 102.6620065  32.7423085  71.7932655 102.0545734  32.0073495
  71.0557173 103.1529083  32.7432581  78.9511750 116.1007229  31.9556253
  78.8781922 116.9062200  32.4675557  78.5089143 116.2999194  31.1304274
  78.7401530 115.3378999  25.4659074  77.9569052 115.8800679  25.5597299
  79.4394275 115.8552978  25.8653315  82.0498180 101.1473628  28.1093280
  82.5466880 100.3943590  27.7894350  81.2785162 101.1837945  27.5436489
  89.9027937 106.8513994  29.7511571  89.8917814 107.7338709  29.3805504
  89.0345317 106.4985545  29.5566108  81.4110434 115.9994063  34.1114411
  82.1238406 116.6341528  34.0390313  80.9200462 116.0957929  33.2954413
  83.1327961 109.9045315  25.6831703  82.1984239 110.0246778  25.5136407
  83.3104629 109.0017782  25.4191713  78.6333149 103.2891011  27.8364964
  78.2630936 102.7362052  28.5245870  79.1292241 102.6849145  27.2839964
  86.5200512 105.7462635  26.2181737  86.9860964 106.5790626  26.1442040
  86.9708013 105.2807616  26.9226996  76.4622347 113.7488506  34.9319982
  77.1631807 114.3824989  35.0849376  75.9917462 114.0903238  34.1715621
  84.5876743 112.0906456  23.2167889  84.8636587 111.9763051  24.1261763
  83.7181242 111.6923941  23.1780062  84.4917175  98.1143222  30.2572639
  83.5780255  98.3447448  30.4254845  84.9210276  98.1981666  31.1086671
  84.2623633 106.3033114  32.7572533  83.6095084 106.5509021  32.1024985
  84.6404013 105.4897252  32.4235010  81.2230807 116.3392807  26.8600703
  81.4053202 115.5214463  27.3228455  82.0463793 116.5560499  26.4225593
  81.5572973 115.2660992  24.1215751  82.0860739 114.7553447  23.5085913
  81.8201192 114.9503522  24.9861284  80.3111206 107.0452925  39.2438570
  79.6351843 106.9447054  39.9140945  81.1338840 106.8892138  39.7074567
  72.0590065 113.2824861  31.8651085  72.6443502 112.5368549  31.9978989
  71.8614904 113.5928818  32.7487749  74.9128721 116.3176109  26.8813527
  74.2439096 116.8022236  26.3977567  74.7741590 116.5645329  27.7956906
  66.6507720 105.8530461  30.5855528  66.6891820 105.3194052  31.3792646
  66.1448013 105.3265667  29.9666505  79.0533989 118.3519852  33.4796186
  79.6052297 118.5151474  34.2445271  79.3940183 118.9424290  32.8076210
  74.0298482 100.6995002  34.0818070  74.0939809 101.5609833  33.6695468
  73.9665603 100.0869004  33.3490429  73.5050755 102.7718134  37.7291105
  74.1322794 102.3895212  38.3428629  72.6478674 102.5532336  38.0946797
  83.9044864 113.1781110  39.3344840  84.4484768 113.7911068  38.8399795
  83.3231708 113.7360688  39.8511853  70.2816298 104.5794564  23.6609459
  70.5769739 103.6705242  23.6076513  69.3804334 104.5582303  23.3390462
  82.1902377 116.3001828  30.4659868  82.0653516 115.4991567  29.9570813
  82.8481468 116.7948021  29.9773838  73.8110545 102.6550560  29.6437008
  73.0897131 103.2686528  29.5044481  74.6003801 103.1908325  29.5653654
  84.2537285 114.1010848  32.0939418  83.3067620 113.9816199  32.0217745
  84.6020058 113.2133346  32.1765679  72.0104139 102.2608661  23.7848785
  71.6816846 101.3806040  23.6023891  72.3643510 102.2056330  24.6725174
  81.2583718 113.8963564  28.2943770  81.1108681 112.9680271  28.4751340
  82.0837212 113.9183655  27.8100845  75.1245963 102.5481631  24.1524262
  75.4642035 103.0767552  23.4302871  75.5718083 102.8862037  24.9282829
  84.8617840 114.7192123  29.3808643  85.7864388 114.5134984  29.2433094
  84.6933143 114.4708524  30.2897984  77.8189403 100.9318682  33.6027330
  77.4786224 100.1326495  34.0048010  77.1128410 101.2320393  33.0304164
  78.4705875  98.0167994  32.0554653  79.2931944  97.5428472  31.9333544
  78.7143939  98.7958478  32.5553340  77.1114110 101.0456253  22.3517555
  77.8322472 101.4237505  21.8481272  76.4879414 101.7645129  22.4552533
  81.2545233 101.7501402  23.2875887  81.4708847 102.6326039  22.9864716
  80.7739300 101.3587615  22.5581529  75.9944454 104.7087115  29.8646632
  75.8489035 105.0227418  30.7570913  75.5169658 105.3272015  29.3117531
  77.8540837 101.6989663  29.9127522  77.8402406 100.8030756  29.5759819
  78.5713265 101.7060327  30.5465808  79.7066968 102.1327003  31.9580649
  79.4484745 103.0544074  31.9564979  79.1752008 101.7357438  32.6481113
  84.6513156 115.2377790  24.7370734  84.8250034 114.6724213  23.9844587
  85.1442048 116.0378685  24.5550224  70.4690116 107.2492459  32.8034293
  69.9243584 108.0252267  32.9354567  71.3469466 107.5963264  32.6453415
  77.2577733 100.5804043  25.1815092  77.3793644  99.6520689  25.3805979
  76.9679775 100.5942729  24.2693407  80.1268923  98.2658954  28.3181811
  80.1490620  98.3298287  27.3633791  80.5436982  97.4263462  28.5122318
  90.5052547 108.0014213  26.3561034  90.9483693 107.2521538  25.9580157
  89.6279058 107.9924349  25.9734766  85.6388329 114.5544555  21.8367633
  86.3339233 115.1751247  22.0554947  85.9811479 113.7039906  22.1120010
  71.2556138 106.3762355  35.6964450  70.5137874 106.5244991  36.2829080
  70.9348882 106.6370621  34.8331199  87.5379752 112.0044260  23.3654963
  88.0631076 112.3431533  22.6404283  87.4502104 111.0691275  23.1818098
  79.1999801 115.9178334  35.4944840  79.5086927 115.6727480  36.3667540
  79.9975283 116.1224972  35.0063710  79.2220413 118.0716243  27.7250217
  78.7825403 117.5792622  28.4183073  79.9728530 117.5289211  27.4842292
  71.7012752 114.2627784  27.7274845  72.5270772 113.9631556  27.3473488
  71.3506804 113.4935407  28.1764633  76.6694285 113.6154252  29.7972518
  76.0474294 112.9524957  29.4974746  77.3399152 113.6415384  29.1146166
  69.9021357 112.1814111  28.6863778  69.0653265 111.7536285  28.5047779
  69.8745002 112.3746554  29.6234569  87.2273658 112.6377164  38.6706161
  86.4369202 112.6201303  38.1310661  86.9907013 113.1765457  39.4255198
  87.3471533 109.4869630  35.9838890  87.3969538 109.3219638  36.9254413
  87.2385456 108.6196889  35.5936771  76.2307792 112.1658176  23.2730979
  76.3795912 112.8493640  22.6197652  77.0374235 112.1463266  23.7880435
  84.6375295 105.4700558  37.2998197  85.5385158 105.3307023  37.0082194
  84.7123270 105.6355013  38.2396374  78.9718101 102.8467413  36.1451383
  78.1021410 103.1400979  35.8733971  79.2077581 103.4307858  36.8658647
  88.8489730 111.9066572  36.2280911  88.5574538 112.2696552  37.0644372
  88.2361861 111.1933580  36.0494243  90.0485412 109.4719451  28.7483482
  90.8832304 109.9109255  28.9121042  90.1844541 108.9958105  27.9291727
  87.0976918 107.0299186  34.6960969  87.5731040 107.2226833  33.8879821
  86.1742483 107.0858372  34.4504353  73.9860425 108.1923353  24.2792048
  73.7406467 107.2885683  24.4772258  74.1556339 108.1940504  23.3371526
  73.2556072 103.9251711  21.7778209  72.5625317 103.9996066  21.1218245
  73.0107824 103.1612055  22.2999726  81.9269729  95.4847312  29.1817700
  82.2071482  94.8170501  29.8078126  82.7120336  95.6776408  28.6692364
  79.7303197 114.6606306  20.7442726  79.1577164 115.2796493  20.2913198
  80.3035991 115.2105668  21.2782648  85.7978587 103.9064946  32.9289275
  86.7496010 104.0063044  32.9501499  85.6282037 103.1143215  33.4387359
  83.8192967 100.9920530  33.1148676  83.2242899 101.2725542  32.4195165
  83.5342663 101.4814430  33.8865417  82.9500457 114.9443456  21.8751308
  83.8831130 114.8789018  22.0784184  82.8623670 115.7799723  21.4165841
  85.5788474 114.2609327  18.8355256  85.5002105 113.9269190  19.7291014
  86.3998140 114.7531095  18.8346728  88.2766665 107.1271066  32.0431575
  88.2442985 106.1887067  32.2291258  88.8867288 107.2055103  31.3097400
  80.1149996 105.9967119  18.0858779  81.0609100 105.8673327  18.1547197
  79.7364241 105.2581781  18.5628207  88.4261153 103.9182109  32.0889858
  87.9100202 103.1340566  31.9019787  89.3101102 103.5900826  32.2536377
  86.0871880  97.6623125  28.0485671  85.8896701  97.3538213  28.9329002
  86.6971586  98.3884764  28.1783600  94.0943215 108.1887073  31.1837611
  94.8246603 107.9272361  31.7445315  93.4850160 107.4515795  31.2239679
  92.1758512 106.3294935  31.7812063  91.4491675 106.1950900  31.1728554
  91.7605799 106.6371764  32.5868781  79.9988688 110.0484865  39.5459436
  80.9191698 110.2263464  39.7399482  79.9638271 109.1040910  39.3939135
  78.2992913 103.9217095  18.0213664  77.3924368 103.6250208  18.0976378
  78.5768894 103.6246913  17.1547950  69.2170853 105.2423459  28.4712710
  68.8973638 104.3888767  28.1787084  68.6704281 105.4572037  29.2270678
  72.9950761 107.9585900  32.1882217  73.2136771 108.8903008  32.2070251
  73.4076535 107.5993874  32.9737021  79.9154979  98.4653985  24.1757905
  79.1055707  98.1201070  24.5513151  80.6039396  98.1561529  24.7645517
  81.8445527  97.5432032  25.7982202  82.3976565  97.9627485  26.4572225
  82.0815613  96.6167780  25.8405158  77.0691697 100.7804031  18.1625643
  77.9310861 101.1058929  18.4221460  77.2542042  99.9935526  17.6498709
  69.0859113 108.8626370  30.4405832  68.3922585 108.4480323  29.9275786
  69.8332104 108.9046907  29.8439251  85.2224334  99.6532557  25.3060866
  84.6423003 100.3117361  24.9238919  84.9560267  98.8309902  24.8948284
  83.6727900  99.0537615  27.5082186  84.1727679  99.1654149  26.6996505
  84.3163508  98.7498668  28.1482995  77.7309896 106.9616244  40.3950027
  77.2476978 107.7616604  40.6013916  77.8170835 106.9724189  39.4417471
  70.9995856 108.7944624  28.3171847  70.9766544 108.8932311  27.3653730
  71.3096492 109.6409775  28.6389013  73.6583234 110.8520779  32.4318461
  74.6126487 110.8204721  32.3648393  73.4595757 110.3911403  33.2468687
  74.2482616 109.4221895  34.9989259  75.0675505 109.9165974  35.0224096
  74.5219423 108.5053863  34.9706826  84.0049212 101.8132647  24.3617214
  83.1175067 102.0982298  24.1437409  84.4203201 101.6526411  23.5144491
  87.3563748 101.8379168  28.0771554  88.1324138 102.3275621  28.3496170
  86.6311882 102.2637223  28.5343423  89.7936307 102.5506788  29.1345494
  90.3880798 102.3102524  28.4238802  89.8662890 101.8313918  29.7619031
  72.0133462 116.3940399  29.4488659  71.8787930 115.6340799  28.8826657
  71.5965525 117.1181298  28.9817448  83.1492425 111.5777322  18.4565234
  83.8528276 111.7827325  19.0722890  82.4255074 112.1454084  18.7214318
  83.9790236 107.3287183  24.5767505  83.9225437 107.7855735  23.7375137
  84.5318578 106.5677868  24.3990347  87.7895042 103.1176915  25.4017624
  87.5331976 102.7173551  26.2325832  87.1647910 103.8320709  25.2767763
  92.1007379 105.8572988  27.9088915  91.5406937 105.9266178  28.6820477
  91.4950883 105.6813973  27.1888412  75.1702588 117.2909716  29.6607102
  75.0534972 118.2355148  29.5585792  74.3495035 116.9883277  30.0492901
  85.0579123 112.0159851  20.5063694  85.8924727 111.5841050  20.3241169
  84.8963466 111.8441865  21.4340589  84.7125015 108.5191965  21.8720034
  84.6573819 108.3536236  20.9308478  84.0871070 109.2267998  22.0282223
  69.5017530 103.7560029  35.6981456  70.1476394 103.2458983  36.1868681
  69.2934681 104.4928711  36.2724881  82.0270922 110.8240876  41.1973596
  82.8962082 110.9981529  40.8360231  81.5477674 111.6435293  41.0749326
  78.0221140  98.0200074  21.4505352  78.0099810  98.9641914  21.6073623
  78.9144562  97.8370219  21.1564813  76.1957102 117.9437977  32.8763030
  77.0984349 117.9761588  33.1929525  75.9694473 117.0138428  32.8909366
  77.9510704 116.6968964  29.5373109  77.0006335 116.6970826  29.4237481
  78.2543191 115.9501699  29.0209143  81.8373260  94.6142850  25.7051289
  81.0705656  94.0601337  25.8507971  82.2483965  94.6864719  26.5665441
  93.6863398 122.5329502  30.6018871  94.3241808 122.4136250  29.8982211
  93.5684241 123.4810346  30.6606823  90.4953104 122.4856931  30.5380396
  90.1571616 122.3697995  29.6500931  91.3642872 122.0848096  30.5181402
  86.3539920 124.3392407  26.5277287  85.7904785 124.2482344  25.7593575
  86.2392315 123.5192311  27.0079779  90.9772887 123.6391782  36.4966601
  90.9661528 123.2444581  35.6247105  91.1393527 122.9057855  37.0900373
  83.9004352 125.8343599  29.3661507  84.6925644 125.4934423  28.9507807
  84.1401002 125.9438574  30.2863661  87.6980148 126.4228894  35.4445785
  87.4070014 127.3274525  35.3292452  88.3337133 126.4645422  36.1589855
  88.6236355 123.8005743  32.0347145  89.2199927 123.5761765  31.3204108
  88.6811327 123.0590488  32.6372593  93.2404666 120.2580956  27.6772079
  94.0267756 119.8400379  27.3262496  93.5043371 121.1627048  27.8453728
  98.6413094 120.1956189  28.5805058  99.3738266 119.6255406  28.8142887
  97.8852449 119.8077790  29.0211563  90.2589213 122.6183431  25.7768400
  89.8947421 122.0914052  26.4881322  91.1156329 122.2281900  25.6034886
  96.1638514 113.9077764  33.0399666  95.8321839 114.7773175  32.8160881
  95.5684127 113.5914048  33.7193697  92.6570033 126.1090310  32.4395579
  92.3570757 127.0115348  32.3311386  92.3121093 125.8422493  33.2916732
  86.1082515 122.5604106  28.4732283  85.1833011 122.4280321  28.6809975
  86.3566928 123.3398326  28.9702226  96.0567177 118.6272850  30.1193016
  95.1484055 118.5588258  29.8251777  96.0054773 119.1044795  30.9474842
  83.4691326 122.2037380  29.3076073  83.5983707 122.4571859  30.2215484
  82.7888777 122.7965088  28.9880728  90.1308043 120.0462495  38.0627914
  89.3541377 120.6056415  38.0530778  90.7698606 120.5319278  38.5842784
  97.9228824 116.8289288  31.8970890  97.2803204 117.1221821  31.2510685
  97.4183752 116.7142208  32.7024087  88.3854415 122.8547949  37.6245881
  89.1269100 123.3932993  37.3480704  87.6791401 123.4814237  37.7817432
  93.8609755 124.9977089  36.2218042  94.2693111 124.5559500  35.4772675
  93.1387016 124.4229717  36.4752235  90.2140825 119.9349696  33.5951599
  91.0602020 120.3589109  33.7386248  90.1539463 119.2783320  34.2890162
  94.1838570 125.5578280  29.9770331  93.5547432 125.7223994  29.2746399
  93.7964232 125.9719889  30.7481295  93.3640270 117.5954064  35.2532773
  93.1201202 118.3496125  34.7167048  93.6400201 117.9739412  36.0880020
  95.3178733 124.1392677  33.9310038  95.5295628 124.7824437  33.2544419
  95.2708481 123.3054993  33.4631968  92.9204962 116.7510497  30.8346610
  92.0589441 117.0491751  31.1263348  92.9467397 116.9680896  29.9027643
  89.7366531 125.2952688  27.2420416  90.2004877 125.5740391  26.4525039
  89.4723330 124.3936132  27.0593507  86.6290613 124.8424169  30.1800179
  87.1991970 125.2711438  29.5417664  87.2198724 124.5606754  30.8784365
  88.6735418 121.4175840  24.0509981  89.3759461 121.8696884  24.5183908
  88.3416046 120.7759659  24.6789874  87.1215779 120.0087597  38.4261191
  86.4914440 120.6903878  38.6596587  87.0151867 119.8970678  37.4814329
  82.4160751 119.6759393  29.3527115  81.6259805 119.9316921  28.8767225
  82.9071999 120.4907731  29.4579155  96.4324561 127.0164632  32.1032396
  97.2542005 126.6144819  31.8215077  96.4286964 126.9132866  33.0548511
  84.3675497 120.0403972  26.3110592  83.5706660 120.1522666  26.8294087
  84.1401089 120.3790624  25.4451482  90.1981164 126.5648675  34.2593106
  90.2625597 127.0269083  35.0951278  89.4892088 125.9346040  34.3875416
  80.6998454 119.9289883  31.7842106  80.9506493 120.8136893  32.0499682
  81.2358003 119.7494485  31.0117197  86.3996522 114.3108363  40.7886442
  86.0063467 113.7574561  41.4634086  87.2162662 114.6218941  41.1792959
  83.3658580 125.7492221  24.7000012  83.8783100 126.5435471  24.8505576
  84.0181292 125.0518511  24.6333613  89.3164483 115.7266242  38.3806698
  90.0574196 116.3273395  38.3011161  89.5482406 114.9843880  37.8224741
  84.4605821 120.9122609  36.6584928  84.3459336 120.0107866  36.9592027
  83.6050339 121.1586306  36.3069744  91.5397659 128.8540349  38.2572429
  91.0961513 128.0676728  37.9393333  92.2014872 129.0419500  37.5916319
  86.2984780 130.3836151  32.7833107  86.8492205 130.2553214  32.0110101
  85.4596256 130.6831040  32.4328000  93.6378897 129.1343149  36.2853830
  93.6197372 129.9552030  35.7934099  94.5598817 129.0097225  36.5103971
  90.0951951 126.6487279  37.1277338  90.6280288 125.8875567  36.8976646
  89.5666032 126.3560931  37.8701493  93.2621646 111.7547345  32.6570980
  92.9185915 112.6448986  32.5810091  93.6300608 111.5649002  31.7940565
  81.3307496 124.0780875  25.4759582  82.1682718 124.4877884  25.2593290
  81.5085764 123.1380317  25.4459776  90.8119039 116.5905657  26.2228653
  89.9560636 116.2012507  26.0434292  91.2245991 116.6697617  25.3628439
  92.3418186 114.1252000  30.6220213  91.8382982 114.0882135  29.8088018
  92.6348793 115.0344743  30.6816870  88.5861072 114.2090730  29.6286395
  89.4514069 114.0133538  29.2692284  88.6538581 113.9801081  30.5555752
  96.4397509 123.9722292  29.7563197  95.7821184 124.6621553  29.8443325
  97.2437909 124.3618724  30.0997183  86.1923391 116.4392938  27.0002762
  86.7667143 116.2168119  26.2675955  86.7794374 116.5081632  27.7531363
  95.2502968 122.3266664  27.8067138  95.7634850 122.9596656  28.3088848
  95.9004192 121.7267860  27.4410498  88.4946059 113.3134186  25.7277831
  87.8410471 112.9983204  25.1034446  88.4526533 112.6909927  26.4537654
  91.7283799 119.8016120  30.0525479  90.8106361 120.0231067  29.8947167
  92.1443943 119.8762430  29.1937186  94.9597684 118.2364652  27.1646948
  94.2220441 117.7242038  27.4957191  95.2124458 117.7965034  26.3530225
  95.0609311 111.0140904  27.7588718  95.3668188 110.1538267  27.4714633
  95.7861916 111.6058524  27.5587712  81.3533667 121.4171591  26.1470316
  81.1558067 120.8240951  25.4221382  80.7980331 121.1123801  26.8646254
  89.3330391 121.3094697  28.2664909  89.3879001 120.3568533  28.1907385
  88.5221593 121.4654136  28.7506207  87.2722751 119.9271757  26.0255288
  86.4590617 120.2265927  26.4320480  87.7681745 119.5327446  26.7429770
  92.8696963 120.3913581  34.8570181  93.2246350 120.6185054  35.7164647
  93.5169094 120.7231958  34.2347437  86.7636826 117.4990112  31.6416523
  87.4036205 117.3578871  30.9439486  85.9314356 117.2124626  31.2655125
  87.5397130 126.7992543  27.7551515  88.3337728 126.3042863  27.5534090
  86.8288822 126.2710406  27.3919221  92.3591974 129.1810638  32.1063883
  92.4128996 129.7501575  32.8741598  91.4906756 129.3512523  31.7417920
  83.8479893 120.9435624  23.8311268  82.9177481 120.8820080  24.0481230
  83.9437365 120.4211577  23.0347909  83.7665442 117.4690437  26.4189509
  84.0272260 118.3835771  26.3098670  84.5882615 117.0014880  26.5686122
  85.2390368 118.8828194  33.5888334  85.9113421 118.6745557  32.9400983
  84.4120154 118.6850280  33.1493566  99.4879629 125.6232245  33.1063667
  99.6815519 126.5278055  33.3522942  99.3880247 125.1639664  33.9402252
  91.1415940 115.5090135  35.6053995  90.4943855 116.2080085  35.5118471
  91.9116955 115.9426279  35.9730243  94.5494738 125.7738988  38.6804548
  94.3980244 125.5449539  37.7634632  94.5399417 126.7309589  38.6935893
  91.3180074 123.3470900  33.6650814  92.2472134 123.4982060  33.4919782
  90.8971104 123.4354921  32.8099461  90.1168406 127.3721565  31.4349352
  89.9779491 127.0040349  32.3075290  89.3283002 127.8869204  31.2633310
  91.6673621 126.7503167  28.8238190  91.3323453 126.7103937  29.7195840
  91.1677567 126.0847883  28.3508600  85.6417865 122.1570797  34.3490771
  85.5037663 121.4251036  34.9502310  86.5522788 122.0679698  34.0674959
  88.2700165 121.8690757  33.8374451  88.9799784 121.2283949  33.7961069
  88.2269474 122.1203652  34.7600631  96.2586944 128.8058110  36.7581030
  96.1999490 128.1217330  36.0911613  96.6606463 129.5477100  36.3061656
  86.9829099 118.8555975  35.6570090  86.4466456 118.4046713  36.3091686
  86.3945808 118.9901883  34.9140554  96.2604351 126.7697694  34.9895010
  95.3731130 126.4323616  35.1121408  96.8302902 126.0380725  35.2263775
  77.9133499 123.1021786  28.3138061  78.6004538 122.7883516  27.7259076
  77.7581627 124.0063150  28.0405312  82.7168221 117.9911982  32.7423085
  82.6326409 117.3837652  32.0073495  81.8950927 118.4821001  32.7432581
  89.7905505 131.4299146  31.9556253  89.7175676 132.2354118  32.4675557
  89.3482898 131.6291112  31.1304274  92.8891935 116.4765546  28.1093280
  93.3860634 115.7235508  27.7894350  92.1178916 116.5129862  27.5436489
 100.7421692 122.1805911  29.7511571 100.7311568 123.0630627  29.3805504
  99.8739071 121.8277462  29.5566108  92.2504188 131.3285980  34.1114411
  92.9632161 131.9633445  34.0390313  91.7594217 131.4249846  33.2954413
  89.4726903 118.6182929  27.8364964  89.1024691 118.0653969  28.5245870
  89.9685996 118.0141062  27.2839964  87.3016102 129.0780424  34.9319982
  88.0025561 129.7116907  35.0849376  86.8311217 129.4195155  34.1715621
  95.3310929 113.4435139  30.2572639  94.4174009 113.6739366  30.4254845
  95.7604031 113.5273583  31.1086671  95.1017388 121.6325031  32.7572533
  94.4488838 121.8800939  32.1024985  95.4797768 120.8189169  32.4235010
  91.1504961 122.3744842  39.2438570  90.4745598 122.2738972  39.9140945
  91.9732595 122.2184056  39.7074567  82.8983820 128.6116779  31.8651085
  83.4837257 127.8660467  31.9978989  82.7008658 128.9220736  32.7487749
  77.4901475 121.1822379  30.5855528  77.5285574 120.6485970  31.3792646
  76.9841767 120.6557585  29.9666505  89.8927744 133.6811770  33.4796186
  90.4446052 133.8443391  34.2445271  90.2333937 134.2716208  32.8076210
  84.8692237 116.0286920  34.0818070  84.9333563 116.8901751  33.6695468
  84.8059357 115.4160921  33.3490429  84.3444509 118.1010052  37.7291105
  84.9716548 117.7187129  38.3428629  83.4872428 117.8824254  38.0946797
  94.7438618 128.5073027  39.3344840  95.2878522 129.1202986  38.8399795
  94.1625463 129.0652606  39.8511853  81.1210052 119.9086481  23.6609459
  81.4163493 118.9997160  23.6076513  80.2198088 119.8874221  23.3390462
  84.6504299 117.9842478  29.6437008  83.9290885 118.5978446  29.5044481
  85.4397555 118.5200243  29.5653654  95.0931039 129.4302765  32.0939418
  94.1461375 129.3108117  32.0217745  95.4413813 128.5425263  32.1765679
  87.4530613 115.3196904  35.9177660  87.9765015 115.5659201  36.6803969
  87.2342946 116.1516939  35.4980797  82.8497894 117.5900579  23.7848785
  82.5210600 116.7097958  23.6023891  83.2037265 117.5348248  24.6725174
  85.9639717 117.8773549  24.1524262  86.3035789 118.4059470  23.4302871
  86.4111837 118.2153955  24.9282829  88.6583158 116.2610599  33.6027330
  88.3179978 115.4618412  34.0048010  87.9522164 116.5612310  33.0304164
  89.3099630 113.3459912  32.0554653  90.1325699 112.8720390  31.9333544
  89.5537693 114.1250396  32.5553340  87.9507864 116.3748170  22.3517555
  88.6716227 116.7529423  21.8481272  87.3273168 117.0937047  22.4552533
  92.0938987 117.0793319  23.2875887  92.3102601 117.9617957  22.9864716
  91.6133054 116.6879533  22.5581529  86.8338208 120.0379033  29.8646632
  86.6882789 120.3519336  30.7570913  86.3563412 120.6563933  29.3117531
  88.6934591 117.0281580  29.9127522  88.6796160 116.1322674  29.5759819
  89.4107019 117.0352244  30.5465808  90.5460722 117.4618921  31.9580649
  90.2878500 118.3835991  31.9564979  90.0145762 117.0649355  32.6481113
  81.3083871 122.5784377  32.8034293  80.7637339 123.3544185  32.9354567
  82.1863220 122.9255181  32.6453415  88.0971487 115.9095961  25.1815092
  88.2187398 114.9812607  25.3805979  87.8073530 115.9234647  24.2693407
  90.9662678 113.5950871  28.3181811  90.9884374 113.6590204  27.3633791
  91.3830737 112.7555380  28.5122318  82.0949892 121.7054273  35.6964450
  81.3531628 121.8536909  36.2829080  81.7742637 121.9662539  34.8331199
  90.0393555 131.2470251  35.4944840  90.3480682 131.0019398  36.3667540
  90.8369037 131.4516890  35.0063710  82.5406506 129.5919702  27.7274845
  83.3664526 129.2923474  27.3473488  82.1900558 128.8227324  28.1764633
  87.5088039 128.9446170  29.7972518  86.8868049 128.2816875  29.4974746
  88.1792906 128.9707302  29.1146166  80.7415111 127.5106028  28.6863778
  79.9047019 127.0828203  28.5047779  80.7138757 127.7038472  29.6234569
  87.5812567 117.4227958  39.3905024  87.6300722 118.2990081  39.0082794
  88.1235081 116.8805351  38.8176667  98.0667412 127.9669081  38.6706161
  97.2762956 127.9493220  38.1310661  97.8300767 128.5057375  39.4255198
  98.1865287 124.8161548  35.9838890  98.2363292 124.6511555  36.9254413
  98.0779211 123.9488807  35.5936771  95.4769050 120.7992476  37.2998197
  96.3778913 120.6598941  37.0082194  95.5517024 120.9646931  38.2396374
  89.8111855 118.1759331  36.1451383  88.9415165 118.4692897  35.8733971
  90.0471336 118.7599776  36.8658647  99.6883484 127.2358489  36.2280911
  99.3968293 127.5988470  37.0644372  99.0755616 126.5225498  36.0494243
  97.9370673 122.3591104  34.6960969  98.4124794 122.5518750  33.8879821
  97.0136238 122.4150290  34.4504353  84.8254179 123.5215271  24.2792048
  84.5800221 122.6177601  24.4772258  84.9950094 123.5232422  23.3371526
  92.5150889 114.3938947  33.6616803  93.0332833 115.1299974  33.3363292
  92.1606022 114.7002941  34.4963562  84.0949827 119.2543629  21.7778209
  83.4019072 119.3287984  21.1218245  83.8501579 118.4903972  22.2999726
  92.7663483 110.8139230  29.1817700  93.0465237 110.1462419  29.8078126
  93.5514090 111.0068326  28.6692364  96.6372342 119.2356864  32.9289275
  97.5889764 119.3354962  32.9501499  96.4675792 118.4435133  33.4387359
  94.6586721 116.3212447  33.1148676  94.0636653 116.6017460  32.4195165
  94.3736418 116.8106348  33.8865417  99.1160419 122.4562984  32.0431575
  99.0836739 121.5178984  32.2291258  99.7261043 122.5347020  31.3097400
  99.2654908 119.2474027  32.0889858  98.7493956 118.4632484  31.9019787
 100.1494856 118.9192744  32.2536377  96.9265635 112.9915043  28.0485671
  96.7290456 112.6830131  28.9329002  97.5365340 113.7176682  28.1783600
 104.9336969 123.5178991  31.1837611 105.6640358 123.2564279  31.7445315
 104.3243915 122.7807712  31.2239679 103.0152266 121.6586853  31.7812063
 102.2885430 121.5242818  31.1728554 102.5999553 121.9663682  32.5868781
  90.8382443 125.3776783  39.5459436  91.7585452 125.5555382  39.7399482
  90.8032026 124.4332828  39.3939135  80.0564608 120.5715376  28.4712710
  79.7367392 119.7180685  28.1787084  79.5098036 120.7863955  29.2270678
  83.8344515 123.2877817  32.1882217  84.0530525 124.2194925  32.2070251
  84.2470289 122.9285792  32.9737021  90.7548733 113.7945903  24.1757905
  89.9449461 113.4492988  24.5513151  91.4433150 113.4853446  24.7645517
  92.6839281 112.8723950  25.7982202  93.2370320 113.2919403  26.4572225
  92.9209368 111.9459698  25.8405158  88.7072381 118.8611023  41.5784966
  88.6069107 119.8105380  41.5097057  88.4893923 118.5329262  40.7061036
  79.9252868 124.1918288  30.4405832  79.2316339 123.7772241  29.9275786
  80.6725859 124.2338824  29.8439251  96.0618088 114.9824475  25.3060866
  95.4816758 115.6409279  24.9238919  95.7954021 114.1601819  24.8948284
  94.5121655 114.3829532  27.5082186  95.0121433 114.4946067  26.6996505
  95.1557263 114.0790585  28.1482995  88.5703651 122.2908162  40.3950027
  88.0870732 123.0908522  40.6013916  88.6564590 122.3016107  39.4417471
  81.8389610 124.1236542  28.3171847  81.8160298 124.2224229  27.3653730
  82.1490247 124.9701693  28.6389013  84.4976988 126.1812697  32.4318461
  85.4520242 126.1496639  32.3648393  84.2989512 125.7203320  33.2468687
  85.0876370 124.7513813  34.9989259  85.9069259 125.2457891  35.0224096
  85.3613178 123.8345781  34.9706826  94.8442966 117.1424565  24.3617214
  93.9568821 117.4274216  24.1437409  95.2596956 116.9818328  23.5144491
  98.1957503 117.1671086  28.0771554  98.9717893 117.6567539  28.3496170
  97.4705637 117.5929140  28.5343423 100.6330061 117.8798705  29.1345494
 101.2274552 117.6394441  28.4238802 100.7056645 117.1605836  29.7619031
  82.8527217 131.7232316  29.4488659  82.7181685 130.9632717  28.8826657
  82.4359279 132.4473216  28.9817448  86.0096343 132.6201633  29.6607102
  85.8928727 133.5647066  29.5585792  85.1888789 132.3175195  30.0492901
  80.3411285 119.0851947  35.6981456  80.9870148 118.5750901  36.1868681
  80.1328436 119.8220628  36.2724881  92.8664677 126.1532794  41.1973596
  93.7355836 126.3273446  40.8360231  92.3871428 126.9727211  41.0749326
  88.8614895 113.3491991  21.4505352  88.8493565 114.2933831  21.6073623
  89.7538317 113.1662137  21.1564813  87.0350857 133.2729895  32.8763030
  87.9378104 133.3053505  33.1929525  86.8088227 132.3430346  32.8909366
  92.6767014 109.9434768  25.7051289  91.9099410 109.3893255  25.8507971
  93.0877719 110.0156637  26.5665441  84.6808776 116.2319564  39.7956470
  85.5440237 115.8756369  40.0059795  84.1074186 115.8933459  40.4831874
 100.9701797 135.3754413  38.0627914 100.1935132 135.9348333  38.0530778
 101.6092361 135.8611196  38.5842784  97.9609534 135.3379515  38.4261191
  97.3308194 136.0195795  38.6596587  97.8545621 135.2262596  37.4814329
  97.2390276 129.6400280  40.7886442  96.8457222 129.0866479  41.4634086
  98.0556417 129.9510859  41.1792959 100.1558237 131.0558159  38.3806698
 100.8967951 131.6565313  38.3011161 100.3876160 130.3135797  37.8224741
  95.2999575 136.2414527  36.6584928  95.1853090 135.3399784  36.9592027
  94.4444093 136.4878224  36.3069744 101.9809694 130.8382053  35.6053995
 101.3337609 131.5372003  35.5118471 102.7510709 131.2718197  35.9730243
  97.8222854 134.1847892  35.6570090  97.2860211 133.7338631  36.3091686
  97.2339562 134.3193801  34.9140554  93.5561975 133.3203900  32.7423085
  93.4720164 132.7129570  32.0073495  92.7344682 133.8112918  32.7432581
 101.9898715 137.7036760  39.2438570 101.3139352 137.6030889  39.9140945
 102.8126349 137.5475974  39.7074567  95.7085991 131.3578837  34.0818070
  95.7727318 132.2193668  33.6695468  95.6453112 130.7452839  33.3490429
  95.1838264 133.4301970  37.7291105  95.8110303 133.0479047  38.3428629
  94.3266183 133.2116172  38.0946797  98.2924367 130.6488822  35.9177660
  98.8158769 130.8951119  36.6803969  98.0736701 131.4808857  35.4980797
  92.9343647 137.0346191  35.6964450  92.1925383 137.1828826  36.2829080
  92.6136391 137.2954456  34.8331199  98.4206321 132.7519876  39.3905024
  98.4694477 133.6281999  39.0082794  98.9628835 132.2097269  38.8176667
 100.6505610 133.5051248  36.1451383  99.7808919 133.7984814  35.8733971
 100.8865090 134.0891693  36.8658647  99.5466135 134.1902941  41.5784966
  99.4462862 135.1397298  41.5097057  99.3287677 133.8621180  40.7061036
  99.4097405 137.6200080  40.3950027  98.9264487 138.4200440  40.6013916
  99.4958344 137.6308025  39.4417471  91.1805039 134.4143864  35.6981456
  91.8263903 133.9042818  36.1868681  90.9722190 135.1512546  36.2724881
  95.5202530 131.5611481  39.7956470  96.3833992 131.2048286  40.0059795
  94.9467941 131.2225376  40.4831874  37.3428887  29.2142884  24.9817735
  36.8992742  28.4279262  24.6638640  38.0046101  29.4022034  24.3161626
  39.4410125  29.4945684  23.0099136  39.4228601  30.3154565  22.5179406
  40.3630045  29.3699759  23.2349278  35.8983180  27.0089813  23.8522645
  36.4311516  26.2478101  23.6221953  35.3697261  26.7163465  24.5946799
  45.2910858  25.9834779  19.8308974  45.4846748  26.8880589  20.0768249
  45.1911476  25.5242198  20.6647559  40.3525966  26.1341522  25.4049855
  40.2011473  25.9052073  24.4879938  40.3430646  27.0912123  25.4181200
  42.0618173  29.1660644  23.4826337  42.0030719  28.4819864  22.8156920
  42.4637691  29.9079634  23.0306962  42.0635580  27.1300228  21.7140316
  41.1762359  26.7926150  21.8366715  42.6334131  26.3983259  21.9509082
  38.0535417  31.6888515  20.8359718  38.7663389  32.3235979  20.7635620
  37.5625446  31.7852381  20.0199720  36.9536190  22.7347377  25.9683876
  36.2776827  22.6341506  26.6386252  37.7763824  22.5786590  26.4319874
  35.6958973  34.0414304  20.2041492  36.2477281  34.2045926  20.9690578
  36.0365166  34.6318742  19.5321517  40.5469847  28.8675562  26.0590147
  41.0909751  29.4805520  25.5645102  39.9656692  29.4255140  26.5757160
  35.8424784  31.6072786  22.2190147  36.1511910  31.3621932  23.0912846
  36.6400266  31.8119424  21.7309017  43.8698641  28.3271616  25.3951468
  43.0794185  28.3095754  24.8555967  43.6331996  28.8659909  26.1500505
  43.9896516  25.1764082  22.7084197  44.0394521  25.0114089  23.6499719
  43.8810440  24.3091341  22.3182077  41.2800279  21.1595010  24.0243503
  42.1810141  21.0201475  23.7327501  41.3548253  21.3249465  24.9641681
  45.4914713  27.5961023  22.9526218  45.1999521  27.9591004  23.7889679
  44.8786844  26.8828032  22.7739550  36.6413672  25.7379317  26.2704742
  37.5616681  25.9157916  26.4644789  36.6063255  24.7935362  26.1184442
  34.3734879  22.6510696  27.1195334  33.8901961  23.4511056  27.3259223
  34.4595818  22.6618641  26.1662778  38.6695906  26.5135328  27.9218903
  39.5387065  26.6875981  27.5605538  38.1902657  27.3329745  27.7994632
  50.3288381  38.2223954  17.3264178  50.9666791  38.1030702  16.6227518
  50.2109224  39.1704798  17.3852130  47.1378088  38.1751382  17.2625703
  46.7996599  38.0592447  16.3746237  48.0067856  37.7742547  17.2426709
  47.6197871  39.3286234  23.2211908  47.6086511  38.9339032  22.3492412
  47.7818510  38.5952307  23.8145679  40.5429335  41.5238050  16.0906814
  41.3350627  41.1828875  15.6753113  40.7825985  41.6333025  17.0108967
  48.5764462  43.6957827   8.5637058  47.9252442  44.2811907   8.1771072
  49.3708825  44.2264021   8.6232096  44.3405132  42.1123346  22.1691092
  44.0494998  43.0168977  22.0537758  44.9762116  42.1539874  22.8835162
  45.2661339  39.4900194  18.7592452  45.8624911  39.2656217  18.0449415
  45.3236310  38.7484940  19.3617900  49.8829650  35.9475408  14.4017386
  50.6692739  35.5294831  14.0507803  50.1468354  36.8521500  14.5699034
  55.2838077  35.8850641  15.3050364  56.0163249  35.3149858  15.5388194
  54.5277433  35.4972242  15.7456870  46.9014197  38.3077883  12.5013707
  46.5372404  37.7808504  13.2126628  47.7581312  37.9176352  12.3280192
  52.8063497  29.5972215  19.7644973  52.4746822  30.4667626  19.5406188
  52.2109111  29.2808499  20.4439003  49.2995017  41.7984761  19.1640886
  48.9995740  42.7009800  19.0556693  48.9546076  41.5316945  20.0162039
  42.7507498  38.2498558  15.1977590  41.8257995  38.1174772  15.4055282
  42.9991911  39.0292778  15.6947533  52.6992161  34.3167302  16.8438323
  51.7909038  34.2482710  16.5497084  52.6479756  34.7939247  17.6720149
  40.1116309  37.8931832  16.0321379  40.2408690  38.1466311  16.9460791
  39.4313761  38.4859540  15.7126034  44.2815797  48.5629082  12.1311853
  44.2039826  49.5136907  12.2100334  43.6777440  48.2174954  12.7886780
  46.7733026  35.7356947  24.7873220  45.9966360  36.2950867  24.7776085
  47.4123589  36.2213730  25.3088090  54.5653807  32.5183740  18.6216197
  53.9228187  32.8116273  17.9755992  54.0608735  32.4036660  19.4269394
  45.0279399  38.5442401  24.3491187  45.7694083  39.0827445  24.0726011
  44.3216384  39.1708689  24.5062739  50.5034738  40.6871541  22.9463349
  50.9118094  40.2453952  22.2017981  49.7812000  40.1124169  23.1997542
  46.8565808  35.6244148  20.3196906  47.7027004  36.0483561  20.4631555
  46.7964446  34.9677772  21.0135469  50.8263553  41.2472732  16.7015638
  50.1972415  41.4118446  15.9991706  50.4389215  41.6614341  17.4726602
  54.7052785  42.1827170  14.0560001  54.0203823  42.5626071  13.5057035
  54.7896634  42.7922496  14.7891949  50.0065254  33.2848516  21.9778079
  49.7626186  34.0390577  21.4412355  50.2825184  33.6633864  22.8125326
  51.9603716  39.8287129  20.6555345  52.1720612  40.4718888  19.9789726
  51.9133465  38.9949445  20.1877275  49.5629945  32.4404949  17.5591917
  48.7014424  32.7386203  17.8508655  49.5892380  32.6575348  16.6272950
  46.3791515  40.9847140  13.9665723  46.8429860  41.2634843  13.1770345
  46.1148313  40.0830584  13.7838813  43.2715596  40.5318621  16.9045486
  43.8416953  40.9605890  16.2662971  43.8623708  40.2501206  17.6029672
  43.7640762  35.6982049  25.1506497  43.1339423  36.3798330  25.3841894
  43.6576850  35.5865130  24.2059636  53.0749544  42.7059084  18.8277702
  53.8966988  42.3039271  18.5460384  53.0711947  42.6027318  19.7793818
  46.8406148  42.2543127  20.9838413  46.9050580  42.7163534  21.8196585
  46.1317072  41.6240492  21.1120723  37.3423438  35.6184335  18.5087412
  37.5931476  36.5031345  18.7744988  37.8782986  35.4388937  17.7362504
  61.1655537  39.0497832  15.1762674  60.4119246  38.4805231  15.0206678
  61.3003079  39.0160497  16.1233308  46.5554165  43.9211235  10.8517393
  46.4199840  44.7662770  11.2802241  47.0963978  44.1230512  10.0883327
  43.0421505  30.0002815  27.5131748  42.6488451  29.4469013  28.1879393
  43.8587645  30.3113393  27.9038266  41.8178448  44.5552429  13.5068071
  41.9945076  45.4770394  13.3189055  42.6135281  44.2410848  13.9362451
  45.9589466  31.4160694  25.1052005  46.6999179  32.0167847  25.0256467
  46.1907389  30.6738331  24.5470047  41.1030804  36.6017061  23.3830235
  40.9884319  35.7002318  23.6837334  40.2475322  36.8480758  23.0315051
  48.1822642  44.5434801  24.9817735  47.7386496  43.7571180  24.6638640
  48.8439855  44.7313952  24.3161626  42.9409763  46.0730603  19.5078414
  43.4917188  45.9447666  18.7355408  42.1021239  46.3725492  19.1573307
  50.2803880  44.8237601  23.0099136  50.2622355  45.6446482  22.5179406
  51.2023800  44.6991676  23.2349278  46.7376934  42.3381731  23.8522645
  47.2705271  41.5770019  23.6221953  46.2091015  42.0455382  24.5946799
  49.9046629  27.4441797  19.3816287  49.5610898  28.3343438  19.3055397
  50.2725592  27.2543454  18.5185872  48.9843169  29.8146452  17.3465520
  48.4807965  29.7776587  16.5333325  49.2773776  30.7239195  17.4062176
  54.8431186  40.1882762   9.8241895  54.0660629  39.8493922   9.3797057
  55.5222667  40.1935386   9.1496860  48.1029647  41.4667723  11.3641457
  47.5751008  40.7320483  11.0514694  47.6017149  42.2442399  11.1181425
  53.0822493  39.6616744  16.4808503  52.4246167  40.3516005  16.5688632
  53.8862892  40.0513176  16.8242490  51.8927952  38.0161116  14.5312445
  52.4059833  38.6491108  15.0334155  52.5429175  37.4162312  14.1655805
  49.1550326  47.9945441   7.2873116  48.4812025  48.2977137   7.8958074
  49.5416148  48.7974521   6.9378573  48.3708782  35.4910572  16.7770785
  47.4531344  35.7125519  16.6192473  48.7868926  35.5656882  15.9182493
  49.1543830  36.8901988  11.9073466  49.9015649  37.4023385  11.5980588
  49.4235420  36.5686040  12.7677859  52.6589748  42.9967118  12.6591588
  52.2052075  42.1558028  12.7156778  52.0283715  43.6328516  12.9966368
  51.6022667  33.9259104  13.8892255  50.8645424  33.4136490  14.2202498
  51.8549441  33.4859485  13.0775532  51.1022687  44.8343614  13.5941406
  51.3945661  45.3948672  12.8753771  51.6121308  45.1272175  14.3494565
  45.9755374  36.9989149  14.9910215  46.0303984  36.0462985  14.9152692
  45.1646576  37.1548588  15.4751514  46.0656312  45.6123966  14.6834859
  46.0232491  45.8384812  13.7543391  46.9819011  45.3787340  14.8320660
  49.5121946  36.0808033  21.5815488  49.8671334  36.3079506  22.4409954
  50.1594077  36.4126410  20.9592743  55.2419683  39.2026469  12.2864817
  55.1037582  39.3928065  11.3586006  54.8855902  39.9645852  12.7432868
  43.4061809  33.1884564  18.3661829  44.0461188  33.0473323  17.6684792
  42.5739340  32.9019078  17.9900431  55.2689063  41.2702996  17.2976089
  55.7025569  41.1778285  18.1459143  55.9820643  41.2460496  16.6596105
  44.1822113  42.4886995  14.4796822  44.9762711  41.9937315  14.2779397
  43.4713805  41.9604858  14.1164527  49.0016957  44.8705090  18.8309189
  49.0553980  45.4396026  19.5986905  48.1331739  45.0406975  18.4663226
  41.8815351  34.5722646  20.3133640  42.5538404  34.3640008  19.6646289
  41.0545137  34.3744732  19.8738873  56.1304612  41.3126697  19.8308974
  56.3240502  42.2172507  20.0768249  56.0305230  40.8534116  20.6647559
  47.7840923  31.1984587  22.3299301  47.1368838  31.8974537  22.2363778
  48.5541938  31.6320731  22.6975550  51.1919721  41.4633439  25.4049855
  51.0405227  41.2343991  24.4879938  51.1824400  42.4204041  25.4181200
  47.9605057  39.0365352  20.3896121  48.8897117  39.1876512  20.2165088
  47.5396087  39.1249373  19.5344768  46.7593389  43.0616017  18.1594659
  46.6204475  42.6934801  19.0320597  45.9707985  43.5763656  17.9878617
  47.3541541  48.1625113   9.5020195  47.5293297  47.6913156  10.3165818
  46.6674329  48.7890879   9.7301456  48.3098604  42.4397619  15.5483496
  47.9748437  42.3998389  16.4441146  47.8102550  41.7742335  15.0753907
  42.2842848  37.8465249  21.0736078  42.1462646  37.1145488  21.6747617
  43.1947772  37.7574149  20.7920265  44.9125149  37.5585209  20.5619757
  45.6224767  36.9178401  20.5206376  44.8694457  37.8098103  21.4845938
  52.9011927  44.4952562  23.4826337  52.8424474  43.8111782  22.8156920
  53.3031446  45.2371552  23.0306962  43.6254083  34.5450426  22.3815397
  43.0891440  34.0941165  23.0336993  43.0370791  34.6796335  21.6385861
  41.9202626  51.3114476  16.2760055  42.1599224  51.9433000  16.9539074
  41.0771823  50.9602516  16.5625415  52.9029335  42.4592146  21.7140316
  52.0156113  42.1218068  21.8366715  53.4727886  41.7275177  21.9509082
  39.3593204  33.6806434  19.4668391  39.2751393  33.0732104  18.7318801
  38.5375910  34.1715453  19.4677888  46.4330488  47.1193598  18.6801559
  46.3600660  47.9248570  19.1920864  45.9907881  47.3185564  17.8549581
  46.2220268  46.3565368  12.1904381  45.4387790  46.8987048  12.2842605
  46.9213013  46.8739348  12.5898622  57.3846675  37.8700363  16.4756878
  57.3736552  38.7525079  16.1050811  56.5164055  37.5171914  16.2811415
  48.8929172  47.0180432  20.8359718  49.6057144  47.6527897  20.7635620
  48.4019200  47.1144298  20.0199720  50.6146699  40.9231685  12.4077010
  49.6802977  41.0433147  12.2381714  50.7923367  40.0204152  12.1437020
  54.0019250  36.7649004  12.9427044  54.4679702  37.5976996  12.8687347
  54.4526750  36.2993986  13.6472302  43.9441085  44.7674876  21.6565289
  44.6450545  45.4011359  21.8094683  43.4736200  45.1089607  20.8960928
  52.0695481  43.1092826   9.9413196  52.3455325  42.9949420  10.8507070
  51.1999980  42.7110310   9.9025369  51.9735913  29.1329591  16.9817945
  51.0598992  29.3633818  17.1500152  52.4029014  29.2168035  17.8331978
  51.7442371  37.3219483  19.4817839  51.0913821  37.5695391  18.8270292
  52.1222751  36.5083621  19.1480317  48.7049545  47.3579176  13.5846010
  48.8871940  46.5400832  14.0473762  49.5282531  47.5746869  13.1470900
  49.0391711  46.2847361  10.8461058  49.5679477  45.7739816  10.2331220
  49.3019930  45.9689892  11.7106591  47.7929944  38.0639294  25.9683876
  47.1170581  37.9633424  26.6386252  48.6157578  37.9078508  26.4319874
  39.5408803  44.3011231  18.5896392  40.1262240  43.5554919  18.7224296
  39.3433642  44.6115187  19.4733055  42.3947458  47.3362478  13.6058834
  41.7257834  47.8208606  13.1222874  42.2560328  47.5831699  14.5202212
  46.5352727  49.3706222  20.2041492  47.0871035  49.5337843  20.9690578
  46.8758920  49.9610660  19.5321517  41.5117220  31.7181371  20.8063377
  41.5758547  32.5796202  20.3940775  41.4484341  31.1055373  20.0735736
  40.9869493  33.7904504  24.4536411  41.6141532  33.4081581  25.0673936
  40.1297412  33.5718706  24.8192104  51.3863601  44.1967479  26.0590147
  51.9303505  44.8097437  25.5645102  50.8050446  44.7547058  26.5757160
  49.6721114  47.3188197  17.1905174  49.5472254  46.5177937  16.6816120
  50.3300205  47.8134391  16.7019144  51.7356023  45.1197217  18.8184725
  50.7886358  45.0002568  18.7463051  52.0838796  44.2319715  18.9010986
  44.0955596  31.0091356  22.6422966  44.6189998  31.2553653  23.4049276
  43.8767929  31.8411391  22.2226104  48.7402456  44.9149934  15.0189077
  48.5927418  43.9866641  15.1996647  49.5655950  44.9370024  14.5346152
  52.3436578  45.7378492  16.1053950  53.2683125  45.5321354  15.9678401
  52.1751881  45.4894893  17.0143291  45.3008141  31.9505051  20.3272637
  44.9604961  31.1512864  20.7293317  44.5947147  32.2506762  19.7549470
  45.9524613  29.0354364  18.7799960  46.7750682  28.5614842  18.6578850
  46.1962676  29.8144848  19.2798646  43.4763192  35.7273484  16.5891939
  43.3307772  36.0413787  17.4816220  42.9988395  36.3458385  16.0362837
  45.3359575  32.7176032  16.6372828  45.3221143  31.8217126  16.3005126
  46.0532003  32.7246696  17.2711114  47.1885705  33.1513373  18.6825956
  46.9303483  34.0730443  18.6810286  46.6570746  32.7543807  19.3726420
  52.1331894  46.2564160  11.4616041  52.3068772  45.6910582  10.7089893
  52.6260785  47.0565055  11.2795531  37.9508854  38.2678829  19.5279600
  37.4062322  39.0438637  19.6599874  38.8288204  38.6149633  19.3698721
  57.9871285  39.0200583  13.0806341  58.4302431  38.2707908  12.6825464
  57.1097796  39.0110719  12.6980073  53.1207067  45.5730924   8.5612939
  53.8157971  46.1937617   8.7800254  53.4630217  44.7226275   8.8365317
  38.7374876  37.3948725  22.4209757  37.9956612  37.5431360  23.0074387
  38.4167620  37.6556991  21.5576506  55.0198490  43.0230630  10.0900270
  55.5449814  43.3617902   9.3649590  54.9320842  42.0877645   9.9063405
  46.6818538  46.9364703  22.2190147  46.9905665  46.6913850  23.0912846
  47.4794020  47.1411342  21.7309017  46.7039150  49.0902613  14.4495523
  46.2644141  48.5978992  15.1428380  47.4547267  48.5475581  14.2087598
  39.1831489  45.2814154  14.4520151  40.0089509  44.9817926  14.0718795
  38.8325541  44.5121776  14.9009940  44.1513023  44.6340622  16.5217825
  43.5293032  43.9711327  16.2220053  44.8217889  44.6601754  15.8391473
  37.3840094  43.2000480  15.4109085  36.5472003  42.7722655  15.2293086
  37.3563740  43.3932924  16.3479876  44.2237550  33.1122410  26.1150331
  44.2725706  33.9884533  25.7328101  44.7660064  32.5699803  25.5421974
  54.7092396  43.6563533  25.3951468  53.9187939  43.6387672  24.8555967
  54.4725750  44.1951827  26.1500505  54.8290271  40.5056000  22.7084197
  54.8788276  40.3406007  23.6499719  54.7204194  39.6383259  22.3182077
  52.1194033  36.4886928  24.0243503  53.0203896  36.3493393  23.7327501
  52.1942008  36.6541383  24.9641681  46.4536838  33.8653782  22.8696690
  45.5840148  34.1587348  22.5979278  46.6896319  34.4494227  23.5903953
  56.3308468  42.9252941  22.9526218  56.0393276  43.2882922  23.7889679
  55.7180599  42.2119949  22.7739550  57.5304150  40.4905821  15.4728788
  58.3651041  40.9295625  15.6366349  57.6663279  40.0144474  14.6537034
  54.5795656  38.0485556  21.4206276  55.0549777  38.2413202  20.6125127
  53.6561221  38.1044742  21.1749660  49.1575872  30.0833399  20.3862110
  49.6757816  30.8194426  20.0608599  48.8031005  30.3897393  21.2208869
  53.2797325  34.9251316  19.6534582  54.2314748  35.0249414  19.6746806
  53.1100775  34.1329584  20.1632666  51.3011704  32.0106899  19.8393983
  50.7061636  32.2911912  19.1440471  51.0161401  32.5000800  20.6110724
  50.4319195  45.9629826   8.5996615  51.3649868  45.8975388   8.8029491
  50.3442408  46.7986093   8.1411148  53.0607211  45.2795696   5.5600563
  52.9820843  44.9455560   6.4536321  53.8816878  45.7717464   5.5592035
  55.7585403  38.1457436  18.7676881  55.7261723  37.2073436  18.9536565
  56.3686026  38.2241472  18.0342706  55.9079891  34.9368479  18.8135164
  55.3918940  34.1526936  18.6265093  56.7919840  34.6087196  18.9781684
  53.5690618  28.6809495  14.7730977  53.3715439  28.3724583  15.6574309
  54.1790324  29.4071133  14.9028907  61.5761952  39.2073442  17.9082918
  62.3065341  38.9458731  18.4690621  60.9668898  38.4702164  17.9484986
  59.6577250  37.3481305  18.5057369  58.9310413  37.2137270  17.8973861
  59.2424536  37.6558134  19.3114087  47.4807426  41.0671235  26.2704742
  48.4010435  41.2449834  26.4644789  47.4457009  40.1227280  26.1184442
  40.4769499  38.9772269  18.9127523  40.6955508  39.9089377  18.9315557
  40.8895272  38.6180244  19.6982327  45.3497364  34.5505475  28.3030272
  45.2494091  35.4999832  28.2342364  45.1318906  34.2223714  27.4306343
  36.5677851  39.8812740  17.1651139  35.8741322  39.4666693  16.6521093
  37.3150842  39.9233276  16.5684557  45.2128634  37.9802614  27.1195334
  44.7295716  38.7802974  27.3259223  45.2989573  37.9910559  26.1662778
  41.1401971  41.8707149  19.1563768  42.0945225  41.8391091  19.0893699
  40.9414495  41.4097772  19.9713994  41.7301354  40.4408265  21.7234566
  42.5494243  40.9352343  21.7469403  42.0038161  39.5240233  21.6952133
  54.8382486  32.8565538  14.8016860  55.6142876  33.3461990  15.0741477
  54.1130620  33.2823592  15.2588730  57.2755045  33.5693157  15.8590801
  57.8699535  33.3288893  15.1484109  57.3481628  32.8500288  16.4864337
  39.4952200  47.4126768  16.1733966  39.3606668  46.6527169  15.6071964
  39.0784262  48.1367668  15.7062755  51.4608974  38.3473553  11.3012811
  51.4044175  38.8042104  10.4620444  52.0137316  37.5864238  11.1235654
  55.2713779  34.1363285  12.1262931  55.0150714  33.7359920  12.9571138
  54.6466647  34.8507079  12.0013070  59.5826117  36.8759358  14.6334222
  59.0225675  36.9452547  15.4065784  58.9769621  36.7000343  13.9133718
  42.6521326  48.3096085  16.3852408  42.5353710  49.2541518  16.2831099
  41.8313772  48.0069647  16.7738208  52.5397861  43.0346221   7.2309001
  53.3743465  42.6027419   7.0486476  52.3782204  42.8628235   8.1585896
  36.9836268  34.7746399  22.4226763  37.6295131  34.2645353  22.9113988
  36.7753419  35.5115080  22.9970188  49.5089660  41.8427246  27.9218903
  50.3780820  42.0167898  27.5605538  49.0296411  42.6621663  27.7994632
  43.6775840  48.9624347  19.6008337  44.5803087  48.9947957  19.9174832
  43.4513210  48.0324798  19.6154673  45.4329442  47.7155334  16.2618415
  44.4825073  47.7157195  16.1482788  45.7361928  46.9688068  15.7454450
  41.3233759  31.9214016  26.5201777  42.1865220  31.5650820  26.7305101
  40.7499169  31.5827910  27.2077181  61.1682136  53.5515872  17.3264178
  61.8060546  53.4322619  16.6227518  61.0502979  54.4996716  17.3852130
  57.9771842  53.5043300  17.2625703  57.6390354  53.3884365  16.3746237
  58.8461610  53.1034465  17.2426709  53.8358658  55.3578776  13.2522593
  53.2723523  55.2668713  12.4838881  53.7211053  54.5378681  13.7325086
  58.4591625  54.6578152  23.2211908  58.4480266  54.2630950  22.3492412
  58.6212264  53.9244224  23.8145679  51.3823090  56.8529968  16.0906814
  52.1744382  56.5120793  15.6753113  51.6219740  56.9624943  17.0108967
  59.4158216  59.0249744   8.5637058  58.7646196  59.6103825   8.1771072
  60.2102579  59.5555939   8.6232096  53.3413844  56.1138881   8.9624193
  54.1144720  55.5667868   8.8237069  53.6939242  56.9783131   9.1738654
  55.1798886  57.4415264  22.1691092  54.8888752  58.3460894  22.0537758
  55.8155870  57.4831791  22.8835162  56.1055093  54.8192112  18.7592452
  56.7018665  54.5948135  18.0449415  56.1630065  54.0776858  19.3617900
  55.6780121  52.2731547   6.5942643  55.9305642  51.7513069   5.8326106
  54.7404680  52.1097693   6.6969326  60.7223404  51.2767326  14.4017386
  61.5086493  50.8586749  14.0507803  60.9862109  52.1813418  14.5699034
  60.8933482  56.7140176   9.1006043  60.2579315  56.7874803   9.8126947
  60.5630888  57.3033775   8.4225122  66.1231831  51.2142559  15.3050364
  66.8557003  50.6441776  15.5388194  65.3671187  50.8264159  15.7456870
  55.3976410  54.1759653   8.7967018  55.2812668  53.5004557   9.4648102
  55.5078670  53.6892027   7.9799171  57.7407951  53.6369801  12.5013707
  57.3766158  53.1100421  13.2126628  58.5975067  53.2468270  12.3280192
  63.6457252  44.9264133  19.7644973  63.3140576  45.7959544  19.5406188
  63.0502865  44.6100417  20.4439003  57.3813438  48.6659700   7.4975055
  57.5487840  49.5339937   7.8645526  57.1910607  48.8286982   6.5736345
  60.1388771  57.1276679  19.1640886  59.8389494  58.0301718  19.0556693
  59.7939831  56.8608862  20.0162039  53.5901253  53.5790476  15.1977590
  52.6651749  53.4466690  15.4055282  53.8385666  54.3584695  15.6947533
  63.5385915  49.6459219  16.8438323  62.6302792  49.5774628  16.5497084
  63.4873511  50.1231164  17.6720149  57.3602659  51.1217358   8.4821722
  57.2402284  51.5674408   9.3207202  56.6655247  51.4702675   7.9235260
  50.9510064  53.2223750  16.0321379  51.0802445  53.4758228  16.9460791
  50.2707515  53.8151458  15.7126034  55.1209551  63.8920999  12.1311853
  55.0433581  64.8428825  12.2100334  54.5171195  63.5466872  12.7886780
  57.6126781  51.0648865  24.7873220  56.8360115  51.6242785  24.7776085
  58.2517344  51.5505648  25.3088090  65.4047561  47.8475658  18.6216197
  64.7621942  48.1408191  17.9755992  64.9002490  47.7328578  19.4269394
  63.0587725  51.5938831   9.3102056  63.9705581  51.8266218   9.1349754
  62.5497372  52.1775875   8.7477135  55.8673153  53.8734318  24.3491187
  56.6087837  54.4119362  24.0726011  55.1610139  54.5000607  24.5062739
  61.3428493  56.0163459  22.9463349  61.7511849  55.5745869  22.2017981
  60.6205754  55.4416086  23.1997542  57.6959563  50.9536065  20.3196906
  58.5420758  51.3775479  20.4631555  57.6358200  50.2969690  21.0135469
  61.6657307  56.5764649  16.7015638  61.0366170  56.7410363  15.9991706
  61.2782969  56.9906259  17.4726602  65.5446539  57.5119087  14.0560001
  64.8597577  57.8917989  13.5057035  65.6290389  58.1214414  14.7891949
  60.8459008  48.6140434  21.9778079  60.6019940  49.3682494  21.4412355
  61.1218939  48.9925781  22.8125326  62.7997471  55.1579046  20.6555345
  63.0114366  55.8010806  19.9789726  62.7527219  54.3241363  20.1877275
  60.4023700  47.7696867  17.5591917  59.5408179  48.0678120  17.8508655
  60.4286135  47.9867266  16.6272950  57.2185269  56.3139057  13.9665723
  57.6823615  56.5926760  13.1770345  56.9542067  55.4122502  13.7838813
  54.1109350  55.8610539  16.9045486  54.6810707  56.2897807  16.2662971
  54.7017462  55.5793124  17.6029672  56.1554155  52.4362210  10.7755288
  56.8578199  52.8883253  11.2429214  55.8234784  51.7946029  11.4035181
  54.6034517  51.0273966  25.1506497  53.9733177  51.7090247  25.3841894
  54.4970605  50.9157048  24.2059636  49.8979489  50.6945762  16.0772421
  49.1078543  50.9503291  15.6012532  50.3890737  51.5094100  16.1824462
  63.9143299  58.0351002  18.8277702  64.7360743  57.6331189  18.5460384
  63.9105702  57.9319236  19.7793818  51.8494235  51.0590342  13.0355898
  51.0525398  51.1709036  13.5539394  51.6219827  51.3976994  12.1696789
  57.6799902  57.5835045  20.9838413  57.7444335  58.0455452  21.8196585
  56.9710826  56.9532410  21.1120723  48.1817192  50.9476253  18.5087412
  48.4325231  51.8323263  18.7744988  48.7176741  50.7680854  17.7362504
  72.0049292  54.3789750  15.1762674  71.2513000  53.8097148  15.0206678
  72.1396833  54.3452415  16.1233308  57.3947920  59.2503152  10.8517393
  57.2593595  60.0954688  11.2802241  57.9357732  59.4522430  10.0883327
  53.8815260  45.3294732  27.5131748  53.4882205  44.7760931  28.1879393
  54.6981400  45.6405311  27.9038266  50.8477317  56.7678590  11.4245318
  51.3601838  57.5621841  11.5750883  51.5000030  56.0704881  11.3578920
  52.6572202  59.8844347  13.5068071  52.8338830  60.8062311  13.3189055
  53.4529036  59.5702766  13.9362451  56.7983221  46.7452611  25.1052005
  57.5392934  47.3459765  25.0256467  57.0301143  46.0030249  24.5470047
  51.9424559  51.9308979  23.3830235  51.8278074  51.0294236  23.6837334
  51.0869076  52.1772675  23.0315051  59.0216396  59.8726719  24.9817735
  58.5780251  59.0863097  24.6638640  59.6833610  60.0605869  24.3161626
  53.7803518  61.4022521  19.5078414  54.3310943  61.2739584  18.7355408
  52.9414993  61.7017410  19.1573307  61.1197634  60.1529519  23.0099136
  61.1016110  60.9738400  22.5179406  62.0417554  60.0283594  23.2349278
  57.5770689  57.6673648  23.8522645  58.1099025  56.9061937  23.6221953
  57.0484770  57.3747300  24.5946799  60.7440384  42.7733714  19.3816287
  60.4004653  43.6635356  19.3055397  61.1119346  42.5835372  18.5185872
  48.8126234  55.0967245  12.2004889  49.6501456  55.5064253  11.9838596
  48.9904502  54.1566687  12.1705083  60.7090666  52.7642325   7.8888722
  60.1937290  53.5346930   8.1277109  60.4367975  52.0907462   8.5121783
  58.2937777  47.6092026  12.9473960  57.4379374  47.2198877  12.7679599
  58.7064729  47.6883987  12.0873746  59.8236924  45.1438369  17.3465520
  59.3201719  45.1068505  16.5333325  60.1167531  46.0531112  17.4062176
  56.0679810  45.2277099  16.3531702  56.9332807  45.0319908  15.9937591
  56.1357319  44.9987451  17.2801058  65.6824940  55.5174680   9.8241895
  64.9054383  55.1785840   9.3797057  66.3616421  55.5227303   9.1496860
  60.4976969  50.6369418   9.7148503  60.1927105  50.9515567  10.5658646
  61.4507412  50.7150837   9.7575836  58.9423401  56.7959641  11.3641457
  58.4144763  56.0612400  11.0514694  58.4410904  57.5734317  11.1181425
  63.9216247  54.9908661  16.4808503  63.2639922  55.6807923  16.5688632
  64.7256646  55.3805093  16.8242490  53.6742129  47.4579307  13.7248068
  54.2485881  47.2354489  12.9921261  54.2613111  47.5268002  14.4776670
  62.7321706  53.3453034  14.5312445  63.2453588  53.9783026  15.0334155
  63.3822930  52.7454230  14.1655805  54.0011716  49.4883768   7.7443954
  53.1649028  49.8258455   8.0653228  53.8616486  49.3532748   6.8071091
  55.9764797  44.3320556  12.4523138  55.3229209  44.0169573  11.8279753
  55.9345271  43.7096296  13.1782961  57.0876001  54.6139851   4.3676430
  56.1803063  54.3829105   4.5667579  57.5847033  53.8177470   4.5550411
  59.9944080  63.3237358   7.2873116  59.3205779  63.6269055   7.8958074
  60.3809902  64.1266439   6.9378573  59.2102537  50.8202490  16.7770785
  58.2925098  51.0417437  16.6192473  59.6262681  50.8948800  15.9182493
  59.9937585  52.2193905  11.9073466  60.7409404  52.7315302  11.5980588
  60.2629174  51.8977958  12.7677859  58.2664235  54.7152446   8.8900420
  57.3575454  54.4311479   8.9872890  58.2959319  55.1351525   8.0303727
  63.4983502  58.3259035  12.6591588  63.0445829  57.4849945  12.7156778
  62.8677469  58.9620434  12.9966368  62.4416422  49.2551021  13.8892255
  61.7039179  48.7428408  14.2202498  62.6943195  48.8151403  13.0775532
  61.9416442  60.1635532  13.5941406  62.2339416  60.7240589  12.8753771
  62.4515062  60.4564093  14.3494565  62.5428049  42.0327273  14.4834024
  62.8486926  41.1724637  14.1959939  63.2680654  42.6244894  14.2833018
  48.8352405  52.4357960  12.8715622  48.6376805  51.8427321  12.1466689
  48.2799069  52.1310170  13.5891561  56.8149129  52.3281067  14.9910215
  56.8697739  51.3754903  14.9152692  56.0040331  52.4840506  15.4751514
  57.9640323  56.2561190   6.2288499  57.5259753  55.5397049   5.7694136
  58.7050764  56.4837304   5.6673590  54.7541489  50.9458126  12.7500594
  53.9409354  51.2452297  13.1565786  55.2500483  50.5513815  13.4675076
  56.9050067  60.9415883  14.6834859  56.8626246  61.1676730  13.7543391
  57.8212766  60.7079258  14.8320660  60.3515701  51.4099951  21.5815488
  60.7065088  51.6371424  22.4409954  60.9987832  51.7418328  20.9592743
  66.0813437  54.5318387  12.2864817  65.9431336  54.7219983  11.3586006
  65.7249656  55.2937769  12.7432868  54.2455564  48.5176482  18.3661829
  54.8854943  48.3765241  17.6684792  53.4133094  48.2310995  17.9900431
  66.1082817  56.5994914  17.2976089  66.5419324  56.5070203  18.1459143
  66.8214398  56.5752414  16.6596105  55.0215867  57.8178912  14.4796822
  55.8156466  57.3229232  14.2779397  54.3107560  57.2896775  14.1164527
  59.8410712  60.1997008  18.8309189  59.8947734  60.7687944  19.5986905
  58.9725493  60.3698893  18.4663226  51.3298631  51.9621994  10.5556574
  50.3996219  51.9006449  10.7726536  51.4256103  51.4397947   9.7593216
  51.2484180  48.4876807  13.1434816  51.5090997  49.4022140  13.0343976
  52.0701352  48.0201249  13.2931429  52.7209105  49.9014564  20.3133640
  53.3932159  49.6931926  19.6646289  51.8938892  49.7036650  19.8738873
  66.9698367  56.6418614  19.8308974  67.1634257  57.5464425  20.0768249
  66.8698985  56.1826033  20.6647559  58.6234677  46.5276505  22.3299301
  57.9762592  47.2266455  22.2363778  59.3935693  46.9612649  22.6975550
  62.0313475  56.7925357  25.4049855  61.8798982  56.5635909  24.4879938
  62.0218155  57.7495958  25.4181200  58.7998812  54.3657270  20.3896121
  59.7290872  54.5168429  20.2165088  58.3789842  54.4541291  19.5344768
  57.5987143  58.3907934  18.1594659  57.4598229  58.0226719  19.0320597
  56.8101740  58.9055574  17.9878617  58.1935295  63.4917031   9.5020195
  58.3687051  63.0205074  10.3165818  57.5068083  64.1182797   9.7301456
  59.1492359  57.7689537  15.5483496  58.8142191  57.7290307  16.4441146
  58.6496304  57.1034253  15.0753907  53.1236603  53.1757167  21.0736078
  52.9856401  52.4437406  21.6747617  54.0341526  53.0866067  20.7920265
  62.0851550  55.1145571   5.8220556  61.4680721  54.3892399   5.7253609
  61.6168039  55.8754932   5.4787630  55.7518903  52.8877126  20.5619757
  56.4618522  52.2470318  20.5206376  55.7088211  53.1390021  21.4845938
  63.7405682  59.8244480  23.4826337  63.6818228  59.1403700  22.8156920
  64.1425200  60.5663470  23.0306962  54.4647837  49.8742344  22.3815397
  53.9285194  49.4233083  23.0336993  53.8764546  50.0088253  21.6385861
  52.7596381  66.6406393  16.2760055  52.9992979  67.2724918  16.9539074
  51.9165577  66.2894433  16.5625415  53.8750096  49.3330996   4.9441860
  52.9979563  49.2119796   4.5804107  54.3507849  48.5417074   4.6920749
  63.7423089  57.7884064  21.7140316  62.8549868  57.4509985  21.8366715
  64.3121640  57.0567095  21.9509082  45.3952236  54.1208155  15.0383368
  46.0823276  53.8069885  14.4504383  45.2400365  55.0249520  14.7650619
  50.1986958  49.0098352  19.4668391  50.1145147  48.4024021  18.7318801
  49.3769665  49.5007370  19.4677888  57.2724243  62.4485516  18.6801559
  57.1994414  63.2540487  19.1920864  56.8301636  62.6477482  17.8549581
  57.0614022  61.6857286  12.1904381  56.2781544  62.2278966  12.2842605
  57.7606767  62.2031266  12.5898622  60.3710672  47.4951915  14.8338586
  60.8679372  46.7421878  14.5139657  59.5997654  47.5316232  14.2681796
  68.2240430  53.1992281  16.4756878  68.2130306  54.0816996  16.1050811
  67.3557809  52.8463832  16.2811415  59.7322926  62.3472350  20.8359718
  60.4450898  62.9819815  20.7635620  59.2412955  62.4436216  20.0199720
  61.4540453  56.2523603  12.4077010  60.5196732  56.3725065  12.2381714
  61.6317121  55.3496069  12.1437020  56.9545641  49.6369298  14.5610271
  56.5843429  49.0840339  15.2491176  57.4504734  49.0327432  14.0085271
  64.8413004  52.0940922  12.9427044  65.3073457  52.9268913  12.8687347
  65.2920505  51.6285903  13.6472302  54.7834840  60.0966793  21.6565289
  55.4844299  60.7303276  21.8094683  54.3129955  60.4381525  20.8960928
  62.9089235  58.4384743   9.9413196  63.1849079  58.3241338  10.8507070
  62.0393734  58.0402228   9.9025369  62.8129667  44.4621509  16.9817945
  61.8992747  44.6925736  17.1500152  63.2422769  44.5459953  17.8331978
  62.5836126  52.6511401  19.4817839  61.9307576  52.8987308  18.8270292
  62.9616506  51.8375539  19.1480317  59.5443300  62.6871094  13.5846010
  59.7265694  61.8692750  14.0473762  60.3676286  62.9038786  13.1470900
  59.8785465  61.6139279  10.8461058  60.4073231  61.1031734  10.2331220
  60.1413685  61.2981809  11.7106591  58.6323699  53.3931212  25.9683876
  57.9564336  53.2925341  26.6386252  59.4551333  53.2370426  26.4319874
  50.3802558  59.6303148  18.5896392  50.9655995  58.8846836  18.7224296
  50.1827396  59.9407105  19.4733055  53.2341213  62.6654396  13.6058834
  52.5651588  63.1500523  13.1222874  53.0954083  62.9123616  14.5202212
  44.9720212  52.2008749  17.3100835  45.0104312  51.6672339  18.1037953
  44.4660505  51.6743954  16.6911812  57.3746482  64.6998139  20.2041492
  57.9264790  64.8629761  20.9690578  57.7152675  65.2902577  19.5321517
  52.3510975  47.0473289  20.8063377  52.4152301  47.9088120  20.3940775
  52.2878095  46.4347291  20.0735736  51.8263247  49.1196422  24.4536411
  52.4535286  48.7373499  25.0673936  50.9691166  48.9010624  24.8192104
  62.2257356  59.5259397  26.0590147  62.7697260  60.1389355  25.5645102
  61.6444201  60.0838975  26.5757160  48.6028790  50.9272851  10.3854766
  48.8982231  50.0183529  10.3321820  47.7016826  50.9060590  10.0635768
  60.5114869  62.6480115  17.1905174  60.3866008  61.8469855  16.6816120
  61.1693960  63.1426308  16.7019144  52.1323037  49.0028847  16.3682315
  51.4109623  49.6164815  16.2289788  52.9216293  49.5386612  16.2898961
  62.5749777  60.4489135  18.8184725  61.6280113  60.3294486  18.7463051
  62.9232550  59.5611633  18.9010986  54.9349351  46.3383274  22.6422966
  55.4583752  46.5845570  23.4049276  54.7161684  47.1703309  22.2226104
  50.3316632  48.6086948  10.5094091  50.0029338  47.7284327  10.3269197
  50.6856002  48.5534617  11.3970480  59.5796210  60.2441851  15.0189077
  59.4321173  59.3158559  15.1996647  60.4049704  60.2661942  14.5346152
  53.4458455  48.8959918  10.8769569  53.7854527  49.4245840  10.1548177
  53.8930575  49.2340324  11.6528135  63.1830332  61.0670410  16.1053950
  64.1076880  60.8613271  15.9678401  63.0145636  60.8186811  17.0143291
  56.1401896  47.2796969  20.3272637  55.7998716  46.4804782  20.7293317
  55.4340902  47.5798680  19.7549470  56.7918367  44.3646281  18.7799960
  57.6144437  43.8906760  18.6578850  57.0356431  45.1436765  19.2798646
  55.4326602  47.3934540   9.0762862  56.1534964  47.7715793   8.5726579
  54.8091906  48.1123417   9.1797840  59.5757725  48.0979689  10.0121194
  59.7921339  48.9804327   9.7110022  59.0951792  47.7065902   9.2826836
  54.3156946  51.0565402  16.5891939  54.1701527  51.3705705  17.4816220
  53.8382150  51.6750302  16.0362837  56.1753329  48.0467950  16.6372828
  56.1614898  47.1509043  16.3005126  56.8925757  48.0538614  17.2711114
  58.0279460  48.4805290  18.6825956  57.7697238  49.4022361  18.6810286
  57.4964500  48.0835725  19.3726420  62.9725649  61.5856077  11.4616041
  63.1462526  61.0202500  10.7089893  63.4654540  62.3856972  11.2795531
  48.7902608  53.5970746  19.5279600  48.2456076  54.3730554  19.6599874
  49.6681958  53.9441551  19.3698721  55.5790225  46.9282330  11.9060398
  55.7006136  45.9998977  12.1051286  55.2892267  46.9421016  10.9938714
  58.4481415  44.6137241  15.0427118  58.4703112  44.6776574  14.0879098
  58.8649474  43.7741749  15.2367624  68.8265040  54.3492500  13.0806341
  69.2696186  53.5999826  12.6825464  67.9491550  54.3402637  12.6980073
  63.9600821  60.9022842   8.5612939  64.6551726  61.5229534   8.7800254
  64.3023971  60.0518193   8.8365317  49.5768630  52.7240643  22.4209757
  48.8350366  52.8723278  23.0074387  49.2561374  52.9848908  21.5576506
  65.8592244  58.3522547  10.0900270  66.3843568  58.6909820   9.3649590
  65.7714597  57.4169563   9.9063405  57.5212293  62.2656621  22.2190147
  57.8299419  62.0205768  23.0912846  58.3187775  62.4703259  21.7309017
  57.5432905  64.4194531  14.4495523  57.1037895  63.9270909  15.1428380
  58.2941022  63.8767498  14.2087598  50.0225244  60.6106071  14.4520151
  50.8483264  60.3109843  14.0718795  49.6719296  59.8413694  14.9009940
  54.9906777  59.9632540  16.5217825  54.3686786  59.3003245  16.2220053
  55.6611644  59.9893672  15.8391473  48.2233849  58.5292398  15.4109085
  47.3865757  58.1014572  15.2293086  48.1957494  58.7224841  16.3479876
  55.0631305  48.4414328  26.1150331  55.1119460  49.3176451  25.7328101
  55.6053819  47.8991721  25.5421974  65.5486150  58.9855451  25.3951468
  64.7581694  58.9679590  24.8555967  65.3119505  59.5243745  26.1500505
  65.6684025  55.8347917  22.7084197  65.7182030  55.6697925  23.6499719
  65.5597949  54.9675176  22.3182077  54.5520284  58.5136463   9.9976285
  54.7008404  59.1971927   9.3442958  55.3586727  58.4941553  10.5125741
  62.9587788  51.8178845  24.0243503  63.8597650  51.6785310  23.7327501
  63.0335762  51.9833300  24.9641681  57.2930593  49.1945700  22.8696690
  56.4233902  49.4879266  22.5979278  57.5290073  49.7786145  23.5903953
  67.1702222  58.2544859  22.9526218  66.8787030  58.6174839  23.7889679
  66.5574353  57.5411867  22.7739550  68.3697904  55.8197739  15.4728788
  69.2044796  56.2587543  15.6366349  68.5057033  55.3436392  14.6537034
  65.4189410  53.3777473  21.4206276  65.8943532  53.5705120  20.6125127
  64.4954976  53.4336659  21.1749660  52.3072917  54.5401641  11.0037354
  52.0618959  53.6363971  11.2017564  52.4768831  54.5418791  10.0616832
  59.9969627  45.4125317  20.3862110  60.5151571  46.1486344  20.0608599
  59.6424760  45.7189310  21.2208869  51.5768564  50.2729998   8.5023516
  50.8837809  50.3474353   7.8463552  51.3320316  49.5090342   9.0245033
  60.2482221  41.8325600  15.9063007  60.5283975  41.1648789  16.5323433
  61.0332828  42.0254695  15.3937670  58.0515689  61.0084593   7.4688033
  57.4789657  61.6274781   7.0158505  58.6248483  61.5583955   8.0027955
  64.1191079  50.2543234  19.6534582  65.0708502  50.3541331  19.6746806
  63.9494530  49.4621502  20.1632666  62.1405459  47.3398817  19.8393983
  61.5455391  47.6203829  19.1440471  61.8555156  47.8292718  20.6110724
  61.2712949  61.2921744   8.5996615  62.2043622  61.2267305   8.8029491
  61.1836162  62.1278010   8.1411148  63.9000966  60.6087614   5.5600563
  63.8214597  60.2747478   6.4536321  64.7210633  61.1009382   5.5592035
  66.5979157  53.4749353  18.7676881  66.5655477  52.5365354  18.9536565
  67.2079781  53.5533390  18.0342706  58.4362488  52.3445406   4.8104085
  59.3821593  52.2151614   4.8792503  58.0576733  51.6060068   5.2873514
  66.7473646  50.2660397  18.8135164  66.2312694  49.4818853  18.6265093
  67.6313594  49.9379113  18.9781684  64.4084373  44.0101412  14.7730977
  64.2109194  43.7016500  15.6574309  65.0184078  44.7363051  14.9028907
  72.4155707  54.5365360  17.9082918  73.1459095  54.2750648  18.4690621
  71.8062652  53.7994082  17.9484986  70.4971004  52.6773223  18.5057369
  69.7704168  52.5429188  17.8973861  70.0818291  52.9850051  19.3114087
  58.3201181  56.3963152  26.2704742  59.2404190  56.5741751  26.4644789
  58.2850764  55.4519198  26.1184442  56.6205405  50.2695383   4.7458971
  55.7136861  49.9728495   4.8221684  56.8981386  49.9725201   3.8793257
  47.5383346  51.5901746  15.1958017  47.2186130  50.7367054  14.9032391
  46.9916774  51.8050324  15.9515984  51.3163253  54.3064187  18.9127523
  51.5349263  55.2381295  18.9315557  51.7289027  53.9472161  19.6982327
  58.2367471  44.8132272  10.9003212  57.4268199  44.4679357  11.2758458
  58.9251888  44.5039816  11.4890823  60.1658019  43.8910319  12.5227509
  60.7189058  44.3105773  13.1817532  60.4028106  42.9646067  12.5650465
  56.1891118  49.8797393  28.3030272  56.0887845  50.8291750  28.2342364
  55.9712660  49.5515632  27.4306343  55.3904190  47.1282318   4.8870950
  56.2523354  47.4537216   5.1466767  55.5754534  46.3413814   4.3744016
  47.4071606  55.2104657  17.1651139  46.7135077  54.7958610  16.6521093
  48.1544597  55.2525194  16.5684557  63.5436826  46.0010844  12.0306173
  62.9635495  46.6595648  11.6484225  63.2772759  45.1788189  11.6193590
  61.9940393  45.4015902  14.2327493  62.4940171  45.5132437  13.4241812
  62.6376001  45.0976955  14.8728302  56.0522388  53.3094532  27.1195334
  55.5689470  54.1094892  27.3259223  56.1383327  53.3202476  26.1662778
  49.3208348  55.1422911  15.0417153  49.2979036  55.2410599  14.0899037
  49.6308985  55.9888062  15.3634320  51.9795726  57.1999066  19.1563768
  52.9338979  57.1683009  19.0893699  51.7808250  56.7389690  19.9713994
  52.5695108  55.7700182  21.7234566  53.3887997  56.2644261  21.7469403
  52.8431916  54.8532150  21.6952133  62.3261704  48.1610935  11.0862521
  61.4387559  48.4460585  10.8682716  62.7415693  48.0004698  10.2389798
  65.6776240  48.1857456  14.8016860  66.4536631  48.6753908  15.0741477
  64.9524375  48.6115510  15.2588730  68.1148799  48.8985075  15.8590801
  68.7093290  48.6580811  15.1484109  68.1875383  48.1792205  16.4864337
  50.3345955  62.7418686  16.1733966  50.2000423  61.9819087  15.6071964
  49.9178017  63.4659586  15.7062755  61.4704918  57.9255609   5.1810541
  62.1740768  58.1305612   5.7968197  60.7467566  58.4932371   5.4459625
  62.3002728  53.6765471  11.3012811  62.2437929  54.1334022  10.4620444
  62.8531070  52.9156155  11.1235654  66.1107534  49.4655202  12.1262931
  65.8544468  49.0651838  12.9571138  65.4860402  50.1798996  12.0013070
  70.4219872  52.2051276  14.6334222  69.8619430  52.2744465  15.4065784
  69.8163375  52.0292260  13.9133718  53.4915081  63.6388003  16.3852408
  53.3747465  64.5833435  16.2831099  52.6707527  63.3361564  16.7738208
  63.3791615  58.3638139   7.2309001  64.2137219  57.9319337   7.0486476
  63.2175958  58.1920152   8.1585896  63.0337507  54.8670252   8.5965340
  62.9786311  54.7014523   7.6553784  62.4083563  55.5746285   8.7527530
  47.8230022  50.1038316  22.4226763  48.4688886  49.5937270  22.9113988
  47.6147173  50.8406998  22.9970188  60.3483414  57.1719164  27.9218903
  61.2174574  57.3459816  27.5605538  59.8690166  57.9913581  27.7994632
  56.3433633  44.3678361   8.1750659  56.3312303  45.3120201   8.3318930
  57.2357055  44.1848506   7.8810120  54.5169595  64.2916265  19.6008337
  55.4196841  64.3239875  19.9174832  54.2906965  63.3616716  19.6154673
  56.2723197  63.0447251  16.2618415  55.3218828  63.0449113  16.1482788
  56.5755683  62.2979986  15.7454450  60.1585752  40.9621137  12.4296596
  59.3918148  40.4079624  12.5753278  60.5696457  41.0343006  13.2910747
  52.1627513  47.2505933  26.5201777  53.0258975  46.8942738  26.7305101
  51.5892924  46.9119828  27.2077181  72.0075890  68.8807790  17.3264178
  72.6454300  68.7614537  16.6227518  71.8896733  69.8288634  17.3852130
  68.8165597  68.8335218  17.2625703  68.4784108  68.7176282  16.3746237
  69.6855365  68.4326383  17.2426709  64.6752412  70.6870694  13.2522593
  64.1117277  70.5960631  12.4838881  64.5604807  69.8670599  13.7325086
  69.2985379  69.9870069  23.2211908  69.2874020  69.5922868  22.3492412
  69.4606019  69.2536142  23.8145679  62.2216844  72.1821886  16.0906814
  63.0138136  71.8412710  15.6753113  62.4613494  72.2916861  17.0108967
  70.2551971  74.3541662   8.5637058  69.6039951  74.9395742   8.1771072
  71.0496334  74.8847857   8.6232096  64.1807598  71.4430799   8.9624193
  64.9538474  70.8959786   8.8237069  64.5332997  72.3075048   9.1738654
  66.0192641  72.7707181  22.1691092  65.7282507  73.6752812  22.0537758
  66.6549625  72.8123709  22.8835162  66.9448847  70.1484030  18.7592452
  67.5412420  69.9240052  18.0449415  67.0023819  69.4068775  19.3617900
  66.5173876  67.6023465   6.5942643  66.7699397  67.0804986   5.8326106
  65.5798435  67.4389611   6.6969326  71.5617159  66.6059243  14.4017386
  72.3480248  66.1878667  14.0507803  71.8255863  67.5105336  14.5699034
  71.7327236  72.0432094   9.1006043  71.0973069  72.1166720   9.8126947
  71.4024642  72.6325693   8.4225122  76.9625586  66.5434477  15.3050364
  77.6950758  65.9733694  15.5388194  76.2064942  66.1556077  15.7456870
  66.2370165  69.5051571   8.7967018  66.1206423  68.8296474   9.4648102
  66.3472425  69.0183945   7.9799171  68.5801706  68.9661718  12.5013707
  68.2159913  68.4392339  13.2126628  69.4368821  68.5760187  12.3280192
  74.4851006  60.2556051  19.7644973  74.1534331  61.1251462  19.5406188
  73.8896620  59.9392335  20.4439003  68.2207193  63.9951618   7.4975055
  68.3881595  64.8631854   7.8645526  68.0304362  64.1578900   6.5736345
  70.9782526  72.4568597  19.1640886  70.6783249  73.3593636  19.0556693
  70.6333585  72.1900780  20.0162039  64.4295007  68.9082394  15.1977590
  63.5045504  68.7758608  15.4055282  64.6779420  69.6876613  15.6947533
  74.3779670  64.9751137  16.8438323  73.4696547  64.9066545  16.5497084
  74.3267265  65.4523082  17.6720149  68.1996413  66.4509275   8.4821722
  68.0796039  66.8966326   9.3207202  67.5049002  66.7994593   7.9235260
  61.7903818  68.5515667  16.0321379  61.9196199  68.8050146  16.9460791
  61.1101270  69.1443375  15.7126034  65.9603306  79.2212917  12.1311853
  65.8827335  80.1720742  12.2100334  65.3564949  78.8758790  12.7886780
  68.4520535  66.3940783  24.7873220  67.6753869  66.9534703  24.7776085
  69.0911098  66.8797566  25.3088090  76.2441316  63.1767575  18.6216197
  75.6015696  63.4700109  17.9755992  75.7396244  63.0620496  19.4269394
  73.8981480  66.9230749   9.3102056  74.8099336  67.1558135   9.1349754
  73.3891127  67.5067793   8.7477135  66.7066908  69.2026236  24.3491187
  67.4481592  69.7411280  24.0726011  66.0003893  69.8292525  24.5062739
  72.1822247  71.3455376  22.9463349  72.5905603  70.9037787  22.2017981
  71.4599509  70.7708004  23.1997542  68.5353317  66.2827983  20.3196906
  69.3814512  66.7067397  20.4631555  68.4751955  65.6261607  21.0135469
  72.5051062  71.9056567  16.7015638  71.8759924  72.0702281  15.9991706
  72.1176724  72.3198177  17.4726602  76.3840294  72.8411005  14.0560001
  75.6991332  73.2209906  13.5057035  76.4684143  73.4506332  14.7891949
  71.6852763  63.9432352  21.9778079  71.4413694  64.6974412  21.4412355
  71.9612693  64.3217699  22.8125326  73.6391225  70.4870964  20.6555345
  73.8508121  71.1302724  19.9789726  73.5920974  69.6533280  20.1877275
  71.2417454  63.0988785  17.5591917  70.3801933  63.3970038  17.8508655
  71.2679889  63.3159183  16.6272950  68.0579024  71.6430975  13.9665723
  68.5217369  71.9218678  13.1770345  67.7935822  70.7414420  13.7838813
  64.9503105  71.1902457  16.9045486  65.5204462  71.6189725  16.2662971
  65.5411217  70.9085041  17.6029672  66.9947910  67.7654127  10.7755288
  67.6971953  68.2175171  11.2429214  66.6628538  67.1237946  11.4035181
  65.4428271  66.3565884  25.1506497  64.8126932  67.0382165  25.3841894
  65.3364359  66.2448966  24.2059636  60.7373244  66.0237680  16.0772421
  59.9472298  66.2795209  15.6012532  61.2284491  66.8386018  16.1824462
  74.7537053  73.3642919  18.8277702  75.5754497  72.9623107  18.5460384
  74.7499456  73.2611153  19.7793818  62.6887989  66.3882259  13.0355898
  61.8919152  66.5000954  13.5539394  62.4613581  66.7268912  12.1696789
  68.5193657  72.9126963  20.9838413  68.5838089  73.3747370  21.8196585
  67.8104581  72.2824328  21.1120723  59.0210947  66.2768171  18.5087412
  59.2718985  67.1615181  18.7744988  59.5570495  66.0972772  17.7362504
  82.8443046  69.7081668  15.1762674  82.0906755  69.1389066  15.0206678
  82.9790588  69.6744332  16.1233308  68.2341674  74.5795070  10.8517393
  68.0987349  75.4246606  11.2802241  68.7751487  74.7814348  10.0883327
  64.7209014  60.6586650  27.5131748  64.3275960  60.1052849  28.1879393
  65.5375154  60.9697228  27.9038266  61.6871072  72.0970508  11.4245318
  62.1995592  72.8913758  11.5750883  62.3393785  71.3996799  11.3578920
  63.4965957  75.2136264  13.5068071  63.6732585  76.1354229  13.3189055
  64.2922790  74.8994684  13.9362451  67.6376975  62.0744529  25.1052005
  68.3786688  62.6751682  25.0256467  67.8694898  61.3322167  24.5470047
  62.7818313  67.2600896  23.3830235  62.6671828  66.3586154  23.6837334
  61.9262831  67.5064593  23.0315051  69.8610151  75.2018637  24.9817735
  69.4174005  74.4155015  24.6638640  70.5227364  75.3897787  24.3161626
  64.6197272  76.7314438  19.5078414  65.1704697  76.6031502  18.7355408
  63.7808748  77.0309327  19.1573307  71.9591389  75.4821437  23.0099136
  71.9409864  76.3030318  22.5179406  72.8811309  75.3575512  23.2349278
  68.4164443  72.9965566  23.8522645  68.9492780  72.2353854  23.6221953
  67.8878524  72.7039218  24.5946799  71.5834138  58.1025632  19.3816287
  71.2398407  58.9927274  19.3055397  71.9513101  57.9127290  18.5185872
  59.6519989  70.4259162  12.2004889  60.4895211  70.8356171  11.9838596
  59.8298256  69.4858605  12.1705083  71.5484421  68.0934243   7.8888722
  71.0331044  68.8638848   8.1277109  71.2761729  67.4199379   8.5121783
  69.1331532  62.9383944  12.9473960  68.2773128  62.5490794  12.7679599
  69.5458484  63.0175905  12.0873746  70.6630678  60.4730287  17.3465520
  70.1595474  60.4360422  16.5333325  70.9561285  61.3823030  17.4062176
  66.9073564  60.5569017  16.3531702  67.7726561  60.3611826  15.9937591
  66.9751073  60.3279369  17.2801058  76.5218695  70.8466598   9.8241895
  75.7448138  70.5077757   9.3797057  77.2010176  70.8519221   9.1496860
  71.3370724  65.9661335   9.7148503  71.0320859  66.2807484  10.5658646
  72.2901166  66.0442755   9.7575836  69.7817156  72.1251559  11.3641457
  69.2538517  71.3904318  11.0514694  69.2804658  72.9026235  11.1181425
  74.7610002  70.3200579  16.4808503  74.1033676  71.0099840  16.5688632
  75.5650401  70.7097011  16.8242490  64.5135883  62.7871225  13.7248068
  65.0879635  62.5646406  12.9921261  65.1006866  62.8559919  14.4776670
  73.5715461  68.6744952  14.5312445  74.0847342  69.3074944  15.0334155
  74.2216684  68.0746147  14.1655805  64.8405470  64.8175686   7.7443954
  64.0042783  65.1550372   8.0653228  64.7010240  64.6824666   6.8071091
  66.8158551  59.6612474  12.4523138  66.1622963  59.3461491  11.8279753
  66.7739025  59.0388214  13.1782961  67.9269756  69.9431769   4.3676430
  67.0196818  69.7121022   4.5667579  68.4240788  69.1469388   4.5550411
  70.8337835  78.6529276   7.2873116  70.1599534  78.9560973   7.8958074
  71.2203657  79.4558356   6.9378573  70.0496291  66.1494407  16.7770785
  69.1318853  66.3709354  16.6192473  70.4656435  66.2240718  15.9182493
  70.8331339  67.5485823  11.9073466  71.5803158  68.0607220  11.5980588
  71.1022929  67.2269876  12.7677859  69.1057989  70.0444364   8.8900420
  68.1969209  69.7603396   8.9872890  69.1353073  70.4643442   8.0303727
  74.3377257  73.6550953  12.6591588  73.8839584  72.8141863  12.7156778
  73.7071223  74.2912352  12.9966368  73.2810176  64.5842939  13.8892255
  72.5432933  64.0720325  14.2202498  73.5336950  64.1443321  13.0775532
  72.7810196  75.4927450  13.5941406  73.0733170  76.0532507  12.8753771
  73.2908817  75.7856011  14.3494565  73.3821804  57.3619191  14.4834024
  73.6880680  56.5016555  14.1959939  74.1074408  57.9536811  14.2833018
  59.6746160  67.7649878  12.8715622  59.4770560  67.1719238  12.1466689
  59.1192824  67.4602088  13.5891561  67.6542883  67.6572984  14.9910215
  67.7091493  66.7046821  14.9152692  66.8434085  67.8132423  15.4751514
  68.8034077  71.5853107   6.2288499  68.3653507  70.8688966   5.7694136
  69.5444518  71.8129222   5.6673590  65.5935243  66.2750044  12.7500594
  64.7803109  66.5744215  13.1565786  66.0894238  65.8805733  13.4675076
  67.7443821  76.2707801  14.6834859  67.7020000  76.4968647  13.7543391
  68.6606520  76.0371176  14.8320660  71.1909455  66.7391868  21.5815488
  71.5458843  66.9663342  22.4409954  71.8381586  67.0710245  20.9592743
  76.9207192  69.8610304  12.2864817  76.7825091  70.0511900  11.3586006
  76.5643411  70.6229687  12.7432868  65.0849318  63.8468400  18.3661829
  65.7248697  63.7057159  17.6684792  64.2526849  63.5602913  17.9900431
  76.9476572  71.9286831  17.2976089  77.3813078  71.8362120  18.1459143
  77.6608152  71.9044332  16.6596105  65.8609622  73.1470830  14.4796822
  66.6550220  72.6521150  14.2779397  65.1501314  72.6188693  14.1164527
  70.6804466  75.5288925  18.8309189  70.7341489  76.0979862  19.5986905
  69.8119248  75.6990810  18.4663226  62.1692385  67.2913912  10.5556574
  61.2389974  67.2298367  10.7726536  62.2649857  66.7689864   9.7593216
  62.0877934  63.8168724  13.1434816  62.3484752  64.7314058  13.0343976
  62.9095107  63.3493167  13.2931429  63.5602860  65.2306482  20.3133640
  64.2325913  65.0223844  19.6646289  62.7332646  65.0328568  19.8738873
  77.8092121  71.9710532  19.8308974  78.0028011  72.8756343  20.0768249
  77.7092739  71.5117951  20.6647559  69.4628432  61.8568423  22.3299301
  68.8156347  62.5558372  22.2363778  70.2329447  62.2904567  22.6975550
  72.8707230  72.1217275  25.4049855  72.7192736  71.8927826  24.4879938
  72.8611909  73.0787876  25.4181200  69.6392566  69.6949187  20.3896121
  70.5684626  69.8460347  20.2165088  69.2183596  69.7833208  19.5344768
  68.4380898  73.7199852  18.1594659  68.2991984  73.3518636  19.0320597
  67.6495494  74.2347491  17.9878617  69.0329050  78.8208948   9.5020195
  69.2080806  78.3496992  10.3165818  68.3461838  79.4474715   9.7301456
  69.9886113  73.0981455  15.5483496  69.6535946  73.0582225  16.4441146
  69.4890059  72.4326171  15.0753907  63.9630357  68.5049085  21.0736078
  63.8250155  67.7729323  21.6747617  64.8735281  68.4157985  20.7920265
  72.9245305  70.4437489   5.8220556  72.3074475  69.7184317   5.7253609
  72.4561793  71.2046849   5.4787630  66.5912658  68.2169044  20.5619757
  67.3012276  67.5762236  20.5206376  66.5481966  68.4681939  21.4845938
  74.5799436  75.1536397  23.4826337  74.5211983  74.4695617  22.8156920
  74.9818955  75.8955387  23.0306962  65.3041592  65.2034262  22.3815397
  64.7678949  64.7525000  23.0336993  64.7158300  65.3380171  21.6385861
  63.5990135  81.9698311  16.2760055  63.8386733  82.6016835  16.9539074
  62.7559332  81.6186351  16.5625415  64.7143851  64.6622913   4.9441860
  63.8373317  64.5411714   4.5804107  65.1901604  63.8708992   4.6920749
  74.5816844  73.1175981  21.7140316  73.6943622  72.7801903  21.8366715
  75.1515395  72.3859012  21.9509082  56.2345991  69.4500073  15.0383368
  56.9217031  69.1361803  14.4504383  56.0794120  70.3541438  14.7650619
  61.0380713  64.3390270  19.4668391  60.9538902  63.7315939  18.7318801
  60.2163419  64.8299288  19.4677888  68.1117997  77.7777434  18.6801559
  68.0388169  78.5832405  19.1920864  67.6695390  77.9769399  17.8549581
  67.9007777  77.0149204  12.1904381  67.1175299  77.5570884  12.2842605
  68.6000522  77.5323183  12.5898622  71.2104427  62.8243833  14.8338586
  71.7073126  62.0713795  14.5139657  70.4391408  62.8608150  14.2681796
  79.0634184  68.5284199  16.4756878  79.0524060  69.4108914  16.1050811
  78.1951564  68.1755749  16.2811415  70.5716681  77.6764268  20.8359718
  71.2844653  78.3111732  20.7635620  70.0806709  77.7728134  20.0199720
  72.2934208  71.5815520  12.4077010  71.3590486  71.7016983  12.2381714
  72.4710876  70.6787987  12.1437020  67.7939396  64.9661216  14.5610271
  67.4237183  64.4132256  15.2491176  68.2898488  64.3619350  14.0085271
  75.6806759  67.4232840  12.9427044  76.1467211  68.2560831  12.8687347
  76.1314259  66.9577821  13.6472302  65.6228594  75.4258711  21.6565289
  66.3238054  76.0595194  21.8094683  65.1523709  75.7673443  20.8960928
  73.7482990  73.7676661   9.9413196  74.0242834  73.6533255  10.8507070
  72.8787489  73.3694146   9.9025369  73.6523422  59.7913427  16.9817945
  72.7386501  60.0217653  17.1500152  74.0816523  59.8751871  17.8331978
  73.4229880  67.9803319  19.4817839  72.7701330  68.2279226  18.8270292
  73.8010260  67.1667457  19.1480317  70.3837054  78.0163012  13.5846010
  70.5659449  77.1984668  14.0473762  71.2070040  78.2330704  13.1470900
  70.7179219  76.9431197  10.8461058  71.2466986  76.4323651  10.2331220
  70.9807439  76.6273727  11.7106591  69.4717453  68.7223130  25.9683876
  68.7958090  68.6217259  26.6386252  70.2945087  68.5662343  26.4319874
  61.2196312  74.9595066  18.5896392  61.8049749  74.2138754  18.7224296
  61.0221151  75.2699023  19.4733055  64.0734967  77.9946314  13.6058834
  63.4045343  78.4792441  13.1222874  63.9347837  78.2415534  14.5202212
  55.8113967  67.5300666  17.3100835  55.8498066  66.9964257  18.1037953
  55.3054260  67.0035872  16.6911812  68.2140236  80.0290057  20.2041492
  68.7658544  80.1921679  20.9690578  68.5546429  80.6194495  19.5321517
  63.1904729  62.3765207  20.8063377  63.2546056  63.2380038  20.3940775
  63.1271849  61.7639208  20.0735736  62.6657002  64.4488339  24.4536411
  63.2929041  64.0665417  25.0673936  61.8084921  64.2302541  24.8192104
  73.0651110  74.8551315  26.0590147  73.6091014  75.4681273  25.5645102
  72.4837955  75.4130893  26.5757160  59.4422545  66.2564769  10.3854766
  59.7375986  65.3475447  10.3321820  58.5410580  66.2352508  10.0635768
  71.3508623  77.9772033  17.1905174  71.2259763  77.1761772  16.6816120
  72.0087714  78.4718226  16.7019144  62.9716792  64.3320765  16.3682315
  62.2503377  64.9456733  16.2289788  63.7610047  64.8678530  16.2898961
  73.4143532  75.7781053  18.8184725  72.4673867  75.6586404  18.7463051
  73.7626305  74.8903551  18.9010986  65.7743105  61.6675192  22.6422966
  66.2977507  61.9137488  23.4049276  65.5555438  62.4995226  22.2226104
  61.1710386  63.9378866  10.5094091  60.8423092  63.0576245  10.3269197
  61.5249757  63.8826535  11.3970480  70.4189965  75.5733769  15.0189077
  70.2714927  74.6450476  15.1996647  71.2443458  75.5953860  14.5346152
  64.2852209  64.2251836  10.8769569  64.6248282  64.7537757  10.1548177
  64.7324330  64.5632242  11.6528135  74.0224087  76.3962328  16.1053950
  74.9470634  76.1905189  15.9678401  73.8539390  76.1478729  17.0143291
  66.9795650  62.6088887  20.3272637  66.6392470  61.8096700  20.7293317
  66.2734656  62.9090598  19.7549470  67.6312122  59.6938199  18.7799960
  68.4538191  59.2198677  18.6578850  67.8750185  60.4728683  19.2798646
  66.2720356  62.7226458   9.0762862  66.9928719  63.1007710   8.5726579
  65.6485661  63.4415334   9.1797840  70.4151479  63.4271607  10.0121194
  70.6315094  64.3096244   9.7110022  69.9345546  63.0357820   9.2826836
  65.1550701  66.3857320  16.5891939  65.0095281  66.6997623  17.4816220
  64.6775904  67.0042220  16.0362837  67.0147084  63.3759868  16.6372828
  67.0008652  62.4800961  16.3005126  67.7319512  63.3830531  17.2711114
  68.8673214  63.8097208  18.6825956  68.6090992  64.7314279  18.6810286
  68.3358255  63.4127642  19.3726420  73.8119403  76.9147995  11.4616041
  73.9856281  76.3494418  10.7089893  74.3048294  77.7148890  11.2795531
  59.6296363  68.9262664  19.5279600  59.0849831  69.7022472  19.6599874
  60.5075713  69.2733469  19.3698721  66.4183979  62.2574248  11.9060398
  66.5399891  61.3290894  12.1051286  66.1286022  62.2712934  10.9938714
  69.2875170  59.9429158  15.0427118  69.3096867  60.0068492  14.0879098
  69.7043229  59.1033667  15.2367624  79.6658794  69.6784418  13.0806341
  80.1089940  68.9291743  12.6825464  78.7885304  69.6694554  12.6980073
  74.7994576  76.2314759   8.5612939  75.4945480  76.8521452   8.7800254
  75.1417726  75.3810111   8.8365317  60.4162385  68.0532560  22.4209757
  59.6744121  68.2015196  23.0074387  60.0955129  68.3140826  21.5576506
  76.6985999  73.6814465  10.0900270  77.2237323  74.0201738   9.3649590
  76.6108351  72.7461480   9.9063405  68.3606047  77.5948539  22.2190147
  68.6693174  77.3497685  23.0912846  69.1581529  77.7995177  21.7309017
  68.3826659  79.7486448  14.4495523  67.9431650  79.2562827  15.1428380
  69.1334776  79.2059416  14.2087598  60.8618998  75.9397989  14.4520151
  61.6877018  75.6401761  14.0718795  60.5113050  75.1705612  14.9009940
  65.8300532  75.2924457  16.5217825  65.2080541  74.6295162  16.2220053
  66.5005398  75.3185589  15.8391473  59.0627603  73.8584316  15.4109085
  58.2259512  73.4306490  15.2293086  59.0351249  74.0516759  16.3479876
  65.9025059  63.7706245  26.1150331  65.9513215  64.6468368  25.7328101
  66.4447573  63.2283638  25.5421974  76.3879905  74.3147369  25.3951468
  75.5975448  74.2971507  24.8555967  76.1513259  74.8535662  26.1500505
  76.5077780  71.1639835  22.7084197  76.5575785  70.9989842  23.6499719
  76.3991703  70.2967094  22.3182077  65.3914038  73.8428381   9.9976285
  65.5402159  74.5263845   9.3442958  66.1980482  73.8233471  10.5125741
  73.7981542  67.1470763  24.0243503  74.6991405  67.0077228  23.7327501
  73.8729517  67.3125218  24.9641681  68.1324347  64.5237618  22.8696690
  67.2627657  64.8171184  22.5979278  68.3683828  65.1078063  23.5903953
  78.0095977  73.5836777  22.9526218  77.7180785  73.9466757  23.7889679
  77.3968108  72.8703785  22.7739550  79.2091659  71.1489656  15.4728788
  80.0438550  71.5879460  15.6366349  79.3450788  70.6728310  14.6537034
  76.2583165  68.7069391  21.4206276  76.7337286  68.8997037  20.6125127
  75.3348730  68.7628577  21.1749660  63.1466671  69.8693558  11.0037354
  62.9012713  68.9655888  11.2017564  63.3162586  69.8710709  10.0616832
  70.8363381  60.7417235  20.3862110  71.3545325  61.4778262  20.0608599
  70.4818514  61.0481228  21.2208869  62.4162319  65.6021916   8.5023516
  61.7231564  65.6766271   7.8463552  62.1714071  64.8382260   9.0245033
  71.0875975  57.1617517  15.9063007  71.3677729  56.4940706  16.5323433
  71.8726582  57.3546613  15.3937670  68.8909444  76.3376511   7.4688033
  68.3183411  76.9566698   7.0158505  69.4642238  76.8875873   8.0027955
  74.9584834  65.5835151  19.6534582  75.9102257  65.6833249  19.6746806
  74.7888284  64.7913420  20.1632666  72.9799213  62.6690734  19.8393983
  72.3849145  62.9495747  19.1440471  72.6948910  63.1584635  20.6110724
  72.1106704  76.6213661   8.5996615  73.0437377  76.5559223   8.8029491
  72.0229917  77.4569928   8.1411148  74.7394720  75.9379532   5.5600563
  74.6608352  75.6039395   6.4536321  75.5604387  76.4301300   5.5592035
  77.4372912  68.8041271  18.7676881  77.4049232  67.8657272  18.9536565
  78.0473535  68.8825308  18.0342706  69.2756242  67.6737324   4.8104085
  70.2215347  67.5443532   4.8792503  68.8970487  66.9351986   5.2873514
  77.5867400  65.5952314  18.8135164  77.0706449  64.8110771  18.6265093
  78.4707349  65.2671031  18.9781684  75.2478127  59.3393330  14.7730977
  75.0502948  59.0308418  15.6574309  75.8577833  60.0654969  14.9028907
  83.2549461  69.8657278  17.9082918  83.9852850  69.6042566  18.4690621
  82.6456407  69.1286000  17.9484986  81.3364759  68.0065140  18.5057369
  80.6097922  67.8721105  17.8973861  80.9212045  68.3141969  19.3114087
  69.1594935  71.7255070  26.2704742  70.0797944  71.9033669  26.4644789
  69.1244518  70.7811115  26.1184442  67.4599160  65.5987300   4.7458971
  66.5530615  65.3020413   4.8221684  67.7375141  65.3017118   3.8793257
  58.3777100  66.9193664  15.1958017  58.0579884  66.0658972  14.9032391
  57.8310528  67.1342242  15.9515984  62.1557008  69.6356105  18.9127523
  62.3743017  70.5673212  18.9315557  62.5682781  69.2764079  19.6982327
  69.0761225  60.1424190  10.9003212  68.2661954  59.7971275  11.2758458
  69.7645642  59.8331734  11.4890823  71.0051774  59.2202237  12.5227509
  71.5582812  59.6397690  13.1817532  71.2421860  58.2937985  12.5650465
  67.0284873  65.2089310  28.3030272  66.9281600  66.1583667  28.2342364
  66.8106415  64.8807549  27.4306343  66.2297944  62.4574236   4.8870950
  67.0917108  62.7829134   5.1466767  66.4148288  61.6705731   4.3744016
  58.2465360  70.5396575  17.1651139  57.5528831  70.1250528  16.6521093
  58.9938351  70.5817112  16.5684557  74.3830581  61.3302762  12.0306173
  73.8029250  61.9887566  11.6484225  74.1166513  60.5080107  11.6193590
  72.8334147  60.7307820  14.2327493  73.3333925  60.8424354  13.4241812
  73.4769755  60.4268873  14.8728302  66.8916143  68.6386449  27.1195334
  66.4083225  69.4386809  27.3259223  66.9777082  68.6494394  26.1662778
  60.1602103  70.4714829  15.0417153  60.1372791  70.5702516  14.0899037
  60.4702739  71.3179980  15.3634320  62.8189480  72.5290984  19.1563768
  63.7732734  72.4974926  19.0893699  62.6202004  72.0681608  19.9713994
  63.4088863  71.0992100  21.7234566  64.2281752  71.5936179  21.7469403
  63.6825670  70.1824068  21.6952133  73.1655459  63.4902852  11.0862521
  72.2781314  63.7752503  10.8682716  73.5809448  63.3296616  10.2389798
  76.5169995  63.5149373  14.8016860  77.2930385  64.0045826  15.0741477
  75.7918129  63.9407428  15.2588730  78.9542554  64.2276993  15.8590801
  79.5487044  63.9872729  15.1484109  79.0269137  63.5084123  16.4864337
  61.1739709  78.0710603  16.1733966  61.0394177  77.3111004  15.6071964
  60.7571771  78.7951503  15.7062755  72.3098672  73.2547527   5.1810541
  73.0134522  73.4597530   5.7968197  71.5861321  73.8224289   5.4459625
  73.1396482  69.0057388  11.3012811  73.0831684  69.4625940  10.4620444
  73.6924825  68.2448073  11.1235654  76.9501288  64.7947120  12.1262931
  76.6938223  64.3943756  12.9571138  76.3254156  65.5090914  12.0013070
  81.2613626  67.5343193  14.6334222  80.7013184  67.6036383  15.4065784
  80.6557130  67.3584178  13.9133718  64.3308835  78.9679921  16.3852408
  64.2141219  79.9125353  16.2831099  63.5101281  78.6653482  16.7738208
  74.2185370  73.6930056   7.2309001  75.0530974  73.2611255   7.0486476
  74.0569713  73.5212070   8.1585896  73.8731262  70.1962170   8.5965340
  73.8180066  70.0306441   7.6553784  73.2477317  70.9038202   8.7527530
  58.6623777  65.4330234  22.4226763  59.3082640  64.9229188  22.9113988
  58.4540928  66.1698916  22.9970188  71.1877169  72.5011081  27.9218903
  72.0568329  72.6751734  27.5605538  70.7083920  73.3205498  27.7994632
  67.1827387  59.6970279   8.1750659  67.1706057  60.6412118   8.3318930
  68.0750809  59.5140424   7.8810120  65.3563349  79.6208182  19.6008337
  66.2590596  79.6531793  19.9174832  65.1300719  78.6908633  19.6154673
  67.1116951  78.3739169  16.2618415  66.1612582  78.3741031  16.1482788
  67.4149437  77.6271904  15.7454450  70.9979507  56.2913055  12.4296596
  70.2311903  55.7371542  12.5753278  71.4090212  56.3634924  13.2910747
  63.0021268  62.5797851  26.5201777  63.8652729  62.2234656  26.7305101
  62.4286678  62.2411746  27.2077181  82.8469645  84.2099707  17.3264178
  83.4848055  84.0906455  16.6227518  82.7290488  85.1580551  17.3852130
  79.6559351  84.1627135  17.2625703  79.3177863  84.0468200  16.3746237
  80.5249119  83.7618301  17.2426709  75.5146167  86.0162612  13.2522593
  74.9511032  85.9252549  12.4838881  75.3998562  85.1962516  13.7325086
  80.1379134  85.3161987  23.2211908  80.1267775  84.9214785  22.3492412
  80.2999773  84.5828060  23.8145679  73.0610599  87.5113803  16.0906814
  73.8531891  87.1704628  15.6753113  73.3007249  87.6208778  17.0108967
  81.0945725  89.6833580   8.5637058  80.4433705  90.2687660   8.1771072
  81.8890088  90.2139774   8.6232096  75.0201353  86.7722717   8.9624193
  75.7932229  86.2251704   8.8237069  75.3726751  87.6366966   9.1738654
  76.8586395  88.0999099  22.1691092  76.5676261  89.0044730  22.0537758
  77.4943379  88.1415627  22.8835162  77.7842602  85.4775947  18.7592452
  78.3806174  85.2531970  18.0449415  77.8417574  84.7360693  19.3617900
  77.3567630  82.9315383   6.5942643  77.6093151  82.4096904   5.8326106
  76.4192189  82.7681528   6.6969326  82.4010913  81.9351161  14.4017386
  83.1874002  81.5170584  14.0507803  82.6649618  82.8397253  14.5699034
  82.5720991  87.3724011   9.1006043  81.9366824  87.4458638   9.8126947
  82.2418397  87.9617610   8.4225122  87.8019340  81.8726394  15.3050364
  88.5344512  81.3025611  15.5388194  87.0458696  81.4847995  15.7456870
  77.0763919  84.8343489   8.7967018  76.9600177  84.1588392   9.4648102
  77.1866179  84.3475863   7.9799171  79.4195460  84.2953636  12.5013707
  79.0553667  83.7684257  13.2126628  80.2762576  83.9052105  12.3280192
  85.3244761  75.5847968  19.7644973  84.9928085  76.4543379  19.5406188
  84.7290374  75.2684252  20.4439003  79.0600947  79.3243536   7.4975055
  79.2275349  80.1923772   7.8645526  78.8698116  79.4870817   6.5736345
  81.8176280  87.7860514  19.1640886  81.5177003  88.6885553  19.0556693
  81.4727340  87.5192698  20.0162039  75.2688762  84.2374311  15.1977590
  74.3439258  84.1050525  15.4055282  75.5173175  85.0168531  15.6947533
  85.2173424  80.3043055  16.8438323  84.3090301  80.2358463  16.5497084
  85.1661020  80.7815000  17.6720149  79.0390168  81.7801193   8.4821722
  78.9189793  82.2258244   9.3207202  78.3442756  82.1286511   7.9235260
  72.6297573  83.8807585  16.0321379  72.7589954  84.1342064  16.9460791
  71.9495024  84.4735293  15.7126034  76.7997060  94.5504835  12.1311853
  76.7221090  95.5012660  12.2100334  76.1958704  94.2050707  12.7886780
  79.2914290  81.7232700  24.7873220  78.5147624  82.2826620  24.7776085
  79.9304853  82.2089483  25.3088090  87.0835070  78.5059493  18.6216197
  86.4409451  78.7992026  17.9755992  86.5789999  78.3912413  19.4269394
  84.7375234  82.2522666   9.3102056  85.6493090  82.4850053   9.1349754
  84.2284881  82.8359710   8.7477135  77.5460662  84.5318154  24.3491187
  78.2875346  85.0703198  24.0726011  76.8397648  85.1584442  24.5062739
  83.0216002  86.6747294  22.9463349  83.4299358  86.2329705  22.2017981
  82.2993263  86.0999922  23.1997542  79.3747072  81.6119901  20.3196906
  80.2208267  82.0359314  20.4631555  79.3145709  80.9553525  21.0135469
  83.3444816  87.2348485  16.7015638  82.7153679  87.3994199  15.9991706
  82.9570478  87.6490094  17.4726602  87.2234048  88.1702923  14.0560001
  86.5385086  88.5501824  13.5057035  87.3077898  88.7798249  14.7891949
  82.5246517  79.2724269  21.9778079  82.2807449  80.0266330  21.4412355
  82.8006448  79.6509617  22.8125326  84.4784980  85.8162882  20.6555345
  84.6901875  86.4594641  19.9789726  84.4314728  84.9825198  20.1877275
  82.0811209  78.4280702  17.5591917  81.2195688  78.7261956  17.8508655
  82.1073643  78.6451101  16.6272950  78.8972778  86.9722893  13.9665723
  79.3611124  87.2510596  13.1770345  78.6329576  86.0706337  13.7838813
  75.7896859  86.5194374  16.9045486  76.3598216  86.9481643  16.2662971
  76.3804971  86.2376959  17.6029672  77.8341664  83.0946045  10.7755288
  78.5365708  83.5467089  11.2429214  77.5022293  82.4529864  11.4035181
  76.2822026  81.6857802  25.1506497  75.6520686  82.3674083  25.3841894
  76.1758114  81.5740883  24.2059636  71.5766998  81.3529598  16.0772421
  70.7866052  81.6087126  15.6012532  72.0678246  82.1677936  16.1824462
  85.5930808  88.6934837  18.8277702  86.4148252  88.2915024  18.5460384
  85.5893211  88.5903071  19.7793818  73.5281744  81.7174177  13.0355898
  72.7312907  81.8292871  13.5539394  73.3007336  82.0560829  12.1696789
  79.3587411  88.2418880  20.9838413  79.4231844  88.7039288  21.8196585
  78.6498335  87.6116245  21.1120723  69.8604701  81.6060088  18.5087412
  70.1112740  82.4907098  18.7744988  70.3964250  81.4264690  17.7362504
  93.6836801  85.0373585  15.1762674  92.9300509  84.4680984  15.0206678
  93.8184342  85.0036250  16.1233308  79.0735429  89.9086988  10.8517393
  78.9381104  90.7538524  11.2802241  79.6145241  90.1106265  10.0883327
  75.5602769  75.9878568  27.5131748  75.1669714  75.4344766  28.1879393
  76.3768909  76.2989146  27.9038266  72.5264826  87.4262426  11.4245318
  73.0389347  88.2205676  11.5750883  73.1787539  86.7288716  11.3578920
  74.3359711  90.5428182  13.5068071  74.5126339  91.4646147  13.3189055
  75.1316545  90.2286601  13.9362451  78.4770730  77.4036447  25.1052005
  79.2180443  78.0043600  25.0256467  78.7088652  76.6614085  24.5470047
  73.6212068  82.5892814  23.3830235  73.5065583  81.6878071  23.6837334
  72.7656585  82.8356511  23.0315051  80.7003905  90.5310554  24.9817735
  80.2567759  89.7446933  24.6638640  81.3621119  90.7189705  24.3161626
  75.4591026  92.0606356  19.5078414  76.0098452  91.9323419  18.7355408
  74.6202502  92.3601245  19.1573307  82.7985143  90.8113354  23.0099136
  82.7803619  91.6322235  22.5179406  83.7205063  90.6867429  23.2349278
  79.2558198  88.3257484  23.8522645  79.7886534  87.5645772  23.6221953
  78.7272279  88.0331136  24.5946799  82.4227892  73.4317550  19.3816287
  82.0792162  74.3219191  19.3055397  82.7906855  73.2419207  18.5185872
  70.4913743  85.7551080  12.2004889  71.3288965  86.1648088  11.9838596
  70.6692011  84.8150522  12.1705083  82.3878175  83.4226161   7.8888722
  81.8724799  84.1930765   8.1277109  82.1155484  82.7491297   8.5121783
  79.9725286  78.2675862  12.9473960  79.1166883  77.8782712  12.7679599
  80.3852238  78.3467822  12.0873746  81.5024433  75.8022205  17.3465520
  80.9989228  75.7652340  16.5333325  81.7955040  76.7114948  17.4062176
  77.7467319  75.8860935  16.3531702  78.6120316  75.6903743  15.9937591
  77.8144828  75.6571286  17.2801058  87.3612449  86.1758515   9.8241895
  86.5841892  85.8369675   9.3797057  88.0403930  86.1811139   9.1496860
  82.1764478  81.2953253   9.7148503  81.8714614  81.6099402  10.5658646
  83.1294921  81.3734673   9.7575836  80.6210910  87.4543476  11.3641457
  80.0932272  86.7196236  11.0514694  80.1198413  88.2318153  11.1181425
  85.6003756  85.6492497  16.4808503  84.9427431  86.3391758  16.5688632
  86.4044155  86.0388929  16.8242490  75.3529638  78.1163142  13.7248068
  75.9273390  77.8938324  12.9921261  75.9400620  78.1851837  14.4776670
  84.4109215  84.0036869  14.5312445  84.9241097  84.6366861  15.0334155
  85.0610439  83.4038065  14.1655805  75.6799225  80.1467603   7.7443954
  74.8436537  80.4842290   8.0653228  75.5403995  80.0116583   6.8071091
  77.6552306  74.9904391  12.4523138  77.0016718  74.6753409  11.8279753
  77.6132780  74.3680132  13.1782961  78.7663510  85.2723686   4.3676430
  77.8590572  85.0412940   4.5667579  79.2634542  84.4761306   4.5550411
  81.6731589  93.9821194   7.2873116  80.9993288  94.2852890   7.8958074
  82.0597411  94.7850274   6.9378573  80.8890046  81.4786325  16.7770785
  79.9712607  81.7001272  16.6192473  81.3050190  81.5532635  15.9182493
  81.6725094  82.8777741  11.9073466  82.4196913  83.3899138  11.5980588
  81.9416683  82.5561793  12.7677859  79.9451744  85.3736281   8.8900420
  79.0362963  85.0895314   8.9872890  79.9746828  85.7935360   8.0303727
  85.1771011  88.9842871  12.6591588  84.7233338  88.1433781  12.7156778
  84.5464978  89.6204269  12.9966368  84.1203931  79.9134857  13.8892255
  83.3826688  79.4012243  14.2202498  84.3730704  79.4735238  13.0775532
  83.6203951  90.8219368  13.5941406  83.9126925  91.3824425  12.8753771
  84.1302571  91.1147929  14.3494565  84.2215558  72.6911109  14.4834024
  84.5274435  71.8308472  14.1959939  84.9468163  73.2828729  14.2833018
  70.5139914  83.0941795  12.8715622  70.3164314  82.5011156  12.1466689
  69.9586578  82.7894006  13.5891561  78.4936638  82.9864902  14.9910215
  78.5485248  82.0338738  14.9152692  77.6827840  83.1424341  15.4751514
  79.6427832  86.9145025   6.2288499  79.2047262  86.1980884   5.7694136
  80.3838273  87.1421140   5.6673590  76.4328998  81.6041962  12.7500594
  75.6196863  81.9036132  13.1565786  76.9287992  81.2097650  13.4675076
  78.5837576  91.5999719  14.6834859  78.5413754  91.8260565  13.7543391
  79.5000275  91.3663093  14.8320660  82.0303209  82.0683786  21.5815488
  82.3852597  82.2955259  22.4409954  82.6775341  82.4002163  20.9592743
  87.7600946  85.1902222  12.2864817  87.6218845  85.3803818  11.3586006
  87.4037165  85.9521605  12.7432868  75.9243073  79.1760317  18.3661829
  76.5642452  79.0349076  17.6684792  75.0920603  78.8894831  17.9900431
  87.7870326  87.2578749  17.2976089  88.2206833  87.1654038  18.1459143
  88.5001907  87.2336249  16.6596105  76.7003376  88.4762748  14.4796822
  77.4943975  87.9813068  14.2779397  75.9895069  87.9480611  14.1164527
  81.5198221  90.8580843  18.8309189  81.5735243  91.4271779  19.5986905
  80.6513002  91.0282728  18.4663226  73.0086140  82.6205829  10.5556574
  72.0783728  82.5590285  10.7726536  73.1043612  82.0981782   9.7593216
  72.9271689  79.1460642  13.1434816  73.1878506  80.0605975  13.0343976
  73.7488861  78.6785085  13.2931429  74.3996614  80.5598399  20.3133640
  75.0719668  80.3515761  19.6646289  73.5726401  80.3620485  19.8738873
  88.6485876  87.3002450  19.8308974  88.8421766  88.2048260  20.0768249
  88.5486494  86.8409869  20.6647559  80.3022186  77.1860340  22.3299301
  79.6550101  77.8850290  22.2363778  81.0723202  77.6196484  22.6975550
  83.7100984  87.4509192  25.4049855  83.5586491  87.2219744  24.4879938
  83.7005664  88.4079794  25.4181200  80.4786321  85.0241105  20.3896121
  81.4078381  85.1752265  20.2165088  80.0577351  85.1125126  19.5344768
  79.2774652  89.0491770  18.1594659  79.1385738  88.6810554  19.0320597
  78.4889249  89.5639409  17.9878617  79.8722804  94.1500866   9.5020195
  80.0474560  93.6788909  10.3165818  79.1855592  94.7766632   9.7301456
  80.8279868  88.4273372  15.5483496  80.4929700  88.3874142  16.4441146
  80.3283813  87.7618088  15.0753907  74.8024112  83.8341002  21.0736078
  74.6643910  83.1021241  21.6747617  75.7129035  83.7449902  20.7920265
  83.7639059  85.7729407   5.8220556  83.1468230  85.0476235   5.7253609
  83.2955548  86.5338767   5.4787630  77.4306412  83.5460962  20.5619757
  78.1406031  82.9054154  20.5206376  77.3875720  83.7973856  21.4845938
  85.4193191  90.4828315  23.4826337  85.3605737  89.7987535  22.8156920
  85.8212709  91.2247305  23.0306962  76.1435346  80.5326180  22.3815397
  75.6072703  80.0816918  23.0336993  75.5552055  80.6672088  21.6385861
  74.4383890  97.2990229  16.2760055  74.6780488  97.9308753  16.9539074
  73.5953086  96.9478269  16.5625415  75.5537605  79.9914831   4.9441860
  74.6767071  79.8703632   4.5804107  76.0295358  79.2000909   4.6920749
  85.4210598  88.4467899  21.7140316  84.5337377  88.1093821  21.8366715
  85.9909149  87.7150930  21.9509082  67.0739745  84.7791991  15.0383368
  67.7610785  84.4653721  14.4504383  66.9187874  85.6833355  14.7650619
  71.8774467  79.6682187  19.4668391  71.7932656  79.0607857  18.7318801
  71.0557174  80.1591206  19.4677888  78.9511752  93.1069351  18.6801559
  78.8781923  93.9124323  19.1920864  78.5089145  93.3061317  17.8549581
  78.7401531  92.3441121  12.1904381  77.9569053  92.8862801  12.2842605
  79.4394276  92.8615101  12.5898622  82.0498181  78.1535751  14.8338586
  82.5466881  77.4005713  14.5139657  81.2785163  78.1900067  14.2681796
  89.9027939  83.8576116  16.4756878  89.8917815  84.7400832  16.1050811
  89.0345318  83.5047667  16.2811415  81.4110435  93.0056185  20.8359718
  82.1238407  93.6403650  20.7635620  80.9200464  93.1020051  20.0199720
  83.1327962  86.9107438  12.4077010  82.1984241  87.0308900  12.2381714
  83.3104630  86.0079905  12.1437020  78.6333150  80.2953134  14.5610271
  78.2630938  79.7424174  15.2491176  79.1292243  79.6911267  14.0085271
  86.5200513  82.7524757  12.9427044  86.9860966  83.5852749  12.8687347
  86.9708014  82.2869739  13.6472302  76.4622349  90.7550629  21.6565289
  77.1631808  91.3887112  21.8094683  75.9917464  91.0965360  20.8960928
  84.5876744  89.0968579   9.9413196  84.8636588  88.9825173  10.8507070
  83.7181243  88.6986063   9.9025369  84.4917176  75.1205344  16.9817945
  83.5780256  75.3509571  17.1500152  84.9210278  75.2043788  17.8331978
  84.2623635  83.3095236  19.4817839  83.6095085  83.5571144  18.8270292
  84.6404015  82.4959374  19.1480317  81.2230808  93.3454929  13.5846010
  81.4053203  92.5276585  14.0473762  82.0463795  93.5622622  13.1470900
  81.5572974  92.2723115  10.8461058  82.0860740  91.7615569  10.2331220
  81.8201194  91.9565645  11.7106591  80.3111208  84.0515047  25.9683876
  79.6351845  83.9509177  26.6386252  81.1338842  83.8954261  26.4319874
  72.0590067  90.2886984  18.5896392  72.6443504  89.5430672  18.7224296
  71.8614905  90.5990941  19.4733055  74.9128722  93.3238231  13.6058834
  74.2439097  93.8084359  13.1222874  74.7741592  93.5707452  14.5202212
  66.6507721  82.8592584  17.3100835  66.6891821  82.3256175  18.1037953
  66.1448014  82.3327790  16.6911812  79.0533991  95.3581975  20.2041492
  79.6052299  95.5213596  20.9690578  79.3940184  95.9486413  19.5321517
  74.0298484  77.7057125  20.8063377  74.0939810  78.5671955  20.3940775
  73.9665604  77.0931126  20.0735736  73.5050756  79.7780257  24.4536411
  74.1322795  79.3957334  25.0673936  72.6478675  79.5594459  24.8192104
  83.9044865  90.1843232  26.0590147  84.4484769  90.7973191  25.5645102
  83.3231710  90.7422811  26.5757160  70.2816299  81.5856686  10.3854766
  70.5769740  80.6767365  10.3321820  69.3804335  81.5644426  10.0635768
  82.1902378  93.3063950  17.1905174  82.0653517  92.5053690  16.6816120
  82.8481469  93.8010144  16.7019144  73.8110546  79.6612683  16.3682315
  73.0897132  80.2748650  16.2289788  74.6003802  80.1970448  16.2898961
  84.2537286  91.1072970  18.8184725  83.3067622  90.9878322  18.7463051
  84.6020059  90.2195468  18.9010986  76.6136860  76.9967109  22.6422966
  77.1371261  77.2429406  23.4049276  76.3949193  77.8287144  22.2226104
  72.0104141  79.2670784  10.5094091  71.6816847  78.3868163  10.3269197
  72.3643511  79.2118453  11.3970480  81.2583719  90.9025687  15.0189077
  81.1108682  89.9742394  15.1996647  82.0837213  90.9245777  14.5346152
  75.1245964  79.5543754  10.8769569  75.4642036  80.0829675  10.1548177
  75.5718084  79.8924160  11.6528135  84.8617841  91.7254245  16.1053950
  85.7864389  91.5197107  15.9678401  84.6933145  91.4770646  17.0143291
  77.8189405  77.9380804  20.3272637  77.4786225  77.1388617  20.7293317
  77.1128411  78.2382515  19.7549470  78.4705876  75.0230117  18.7799960
  79.2931946  74.5490595  18.6578850  78.7143940  75.8020601  19.2798646
  77.1114111  78.0518375   9.0762862  77.8322473  78.4299628   8.5726579
  76.4879415  78.7707252   9.1797840  81.2545234  78.7563524  10.0121194
  81.4708848  79.6388162   9.7110022  80.7739301  78.3649738   9.2826836
  75.9944455  81.7149237  16.5891939  75.8489036  82.0289540  17.4816220
  75.5169659  82.3334138  16.0362837  77.8540838  78.7051785  16.6372828
  77.8402407  77.8092879  16.3005126  78.5713266  78.7122449  17.2711114
  79.7066969  79.1389126  18.6825956  79.4484747  80.0606196  18.6810286
  79.1752009  78.7419560  19.3726420  84.6513158  92.2439913  11.4616041
  84.8250035  91.6786335  10.7089893  85.1442049  93.0440808  11.2795531
  70.4690117  84.2554582  19.5279600  69.9243585  85.0314390  19.6599874
  71.3469467  84.6025386  19.3698721  77.2577734  77.5866166  11.9060398
  77.3793645  76.6582812  12.1051286  76.9679776  77.6004852  10.9938714
  80.1268924  75.2721076  15.0427118  80.1490621  75.3360409  14.0879098
  80.5436983  74.4325585  15.2367624  90.5052549  85.0076336  13.0806341
  90.9483695  84.2583661  12.6825464  89.6279059  84.9986472  12.6980073
  85.6388330  91.5606677   8.5612939  86.3339235  92.1813370   8.7800254
  85.9811480  90.7102028   8.8365317  71.2556139  83.3824478  22.4209757
  70.5137875  83.5307113  23.0074387  70.9348883  83.6432744  21.5576506
  87.5379753  89.0106383  10.0900270  88.0631077  89.3493655   9.3649590
  87.4502106  88.0753398   9.9063405  79.1999802  92.9240456  22.2190147
  79.5086928  92.6789603  23.0912846  79.9975284  93.1287095  21.7309017
  79.2220414  95.0778366  14.4495523  78.7825404  94.5854745  15.1428380
  79.9728531  94.5351334  14.2087598  71.7012753  91.2689907  14.4520151
  72.5270773  90.9693679  14.0718795  71.3506805  90.4997529  14.9009940
  76.6694286  90.6216375  16.5217825  76.0474295  89.9587080  16.2220053
  77.3399153  90.6477507  15.8391473  69.9021358  89.1876233  15.4109085
  69.0653266  88.7598408  15.2293086  69.8745003  89.3808677  16.3479876
  76.7418814  79.0998163  26.1150331  76.7906969  79.9760286  25.7328101
  77.2841328  78.5575556  25.5421974  87.2273659  89.6439286  25.3951468
  86.4369203  89.6263425  24.8555967  86.9907014  90.1827580  26.1500505
  87.3471534  86.4931753  22.7084197  87.3969539  86.3281760  23.6499719
  87.2385458  85.6259012  22.3182077  76.2307793  89.1720298   9.9976285
  76.3795913  89.8555763   9.3442958  77.0374236  89.1525388  10.5125741
  84.6375297  82.4762681  24.0243503  85.5385159  82.3369146  23.7327501
  84.7123271  82.6417136  24.9641681  78.9718102  79.8529535  22.8696690
  78.1021411  80.1463102  22.5979278  79.2077582  80.4369980  23.5903953
  88.8489731  88.9128694  22.9526218  88.5574539  89.2758675  23.7889679
  88.2361862  88.1995702  22.7739550  90.0485413  86.4781574  15.4728788
  90.8832305  86.9171378  15.6366349  90.1844542  86.0020227  14.6537034
  87.0976919  84.0361309  21.4206276  87.5731041  84.2288955  20.6125127
  86.1742485  84.0920495  21.1749660  73.9860426  85.1985476  11.0037354
  73.7406468  84.2947806  11.2017564  74.1556340  85.2002626  10.0616832
  81.6757136  76.0709152  20.3862110  82.1939080  76.8070179  20.0608599
  81.3212269  76.3773146  21.2208869  73.2556073  80.9313834   8.5023516
  72.5625318  81.0058189   7.8463552  73.0107825  80.1674177   9.0245033
  81.9269730  72.4909435  15.9063007  82.2071484  71.8232624  16.5323433
  82.7120337  72.6838531  15.3937670  79.7303198  91.6668429   7.4688033
  79.1577166  92.2858616   7.0158505  80.3035992  92.2167791   8.0027955
  85.7978588  80.9127069  19.6534582  86.7496011  81.0125167  19.6746806
  85.6282039  80.1205337  20.1632666  83.8192968  77.9982652  19.8393983
  83.2242900  78.2787665  19.1440471  83.5342664  78.4876553  20.6110724
  82.9500458  91.9505579   8.5996615  83.8831131  91.8851141   8.8029491
  82.8623671  92.7861846   8.1411148  85.5788475  91.2671449   5.5600563
  85.5002106  90.9331313   6.4536321  86.3998142  91.7593217   5.5592035
  88.2766666  84.1333189  18.7676881  88.2442986  83.1949189  18.9536565
  88.8867290  84.2117225  18.0342706  80.1149997  83.0029242   4.8104085
  81.0609102  82.8735450   4.8792503  79.7364242  82.2643903   5.2873514
  88.4261155  80.9244232  18.8135164  87.9100203  80.1402689  18.6265093
  89.3101103  80.5962949  18.9781684  86.0871882  74.6685248  14.7730977
  85.8896703  74.3600336  15.6574309  86.6971587  75.3946887  14.9028907
  94.0943216  85.1949195  17.9082918  94.8246604  84.9334484  18.4690621
  93.4850161  84.4577917  17.9484986  92.1758513  83.3357058  18.5057369
  91.4491677  83.2013023  17.8973861  91.7605800  83.6433887  19.3114087
  79.9988689  87.0546988  26.2704742  80.9191699  87.2325587  26.4644789
  79.9638273  86.1103033  26.1184442  78.2992914  80.9279218   4.7458971
  77.3924370  80.6312331   4.8221684  78.5768895  80.6309036   3.8793257
  69.2170854  82.2485581  15.1958017  68.8973639  81.3950890  14.9032391
  68.6704283  82.4634160  15.9515984  72.9950762  84.9648022  18.9127523
  73.2136772  85.8965130  18.9315557  73.4076536  84.6055997  19.6982327
  79.9154980  75.4716108  10.9003212  79.1055708  75.1263193  11.2758458
  80.6039397  75.1623651  11.4890823  81.8445528  74.5494154  12.5227509
  82.3976567  74.9689608  13.1817532  82.0815614  73.6229903  12.5650465
  77.8678627  80.5381228  28.3030272  77.7675354  81.4875585  28.2342364
  77.6500169  80.2099467  27.4306343  77.0691699  77.7866153   4.8870950
  77.9310863  78.1121051   5.1466767  77.2542043  76.9997649   4.3744016
  69.0859115  85.8688493  17.1651139  68.3922586  85.4542446  16.6521093
  69.8332106  85.9109029  16.5684557  85.2224335  76.6594680  12.0306173
  84.6423004  77.3179484  11.6484225  84.9560268  75.8372024  11.6193590
  83.6727902  76.0599737  14.2327493  84.1727680  76.1716272  13.4241812
  84.3163510  75.7560790  14.8728302  77.7309897  83.9678367  27.1195334
  77.2476979  84.7678727  27.3259223  77.8170836  83.9786312  26.1662778
  70.9995857  85.8006747  15.0417153  70.9766545  85.8994434  14.0899037
  71.3096494  86.6471897  15.3634320  73.6583235  87.8582902  19.1563768
  74.6126488  87.8266844  19.0893699  73.4595758  87.3973525  19.9713994
  74.2482617  86.4284018  21.7234566  75.0675506  86.9228096  21.7469403
  74.5219425  85.5115986  21.6952133  84.0049213  78.8194770  11.0862521
  83.1175068  79.1044421  10.8682716  84.4203202  78.6588533  10.2389798
  87.3563749  78.8441291  14.8016860  88.1324139  79.3337743  15.0741477
  86.6311884  79.2699345  15.2588730  89.7936308  79.5568910  15.8590801
  90.3880799  79.3164646  15.1484109  89.8662892  78.8376041  16.4864337
  72.0133464  93.4002521  16.1733966  71.8787932  92.6402922  15.6071964
  71.5965526  94.1243421  15.7062755  83.1492427  88.5839445   5.1810541
  83.8528277  88.7889447   5.7968197  82.4255075  89.1516207   5.4459625
  83.9790237  84.3349306  11.3012811  83.9225438  84.7917857  10.4620444
  84.5318579  83.5739991  11.1235654  87.7895043  80.1239038  12.1262931
  87.5331977  79.7235673  12.9571138  87.1647911  80.8382832  12.0013070
  92.1007381  82.8635111  14.6334222  91.5406939  82.9328300  15.4065784
  91.4950884  82.6876096  13.9133718  75.1702590  94.2971838  16.3852408
  75.0534974  95.2417271  16.2831099  74.3495036  93.9945400  16.7738208
  85.0579124  89.0221974   7.2309001  85.8924728  88.5903172   7.0486476
  84.8963467  88.8503988   8.1585896  84.7125016  85.5254087   8.5965340
  84.6573820  85.3598359   7.6553784  84.0871072  86.2330120   8.7527530
  69.5017531  80.7622152  22.4226763  70.1476395  80.2521106  22.9113988
  69.2934682  81.4990833  22.9970188  82.0270923  87.8302999  27.9218903
  82.8962083  88.0043651  27.5605538  81.5477675  88.6497416  27.7994632
  78.0221142  75.0262196   8.1750659  78.0099812  75.9704036   8.3318930
  78.9144564  74.8432342   7.8810120  76.1957104  94.9500100  19.6008337
  77.0984350  94.9823710  19.9174832  75.9694474  94.0200551  19.6154673
  77.9510706  93.7031087  16.2618415  77.0006337  93.7032948  16.1482788
  78.2543192  92.9563821  15.7454450  81.8373261  71.6204973  12.4296596
  81.0705657  71.0663460  12.5753278  82.2483966  71.6926842  13.2910747
  73.8415022  77.9089769  26.5201777  74.7046484  77.5526574  26.7305101
  73.2680433  77.5703663  27.2077181  93.6863399  99.5391625  17.3264178
  94.3241809  99.4198372  16.6227518  93.5684242 100.4872469  17.3852130
  90.4953105  99.4919053  17.2625703  90.1571617  99.3760118  16.3746237
  91.3642874  99.0910218  17.2426709  86.3539921 101.3454530  13.2522593
  85.7904786 101.2544466  12.4838881  86.2392316 100.5254434  13.7325086
  90.9772888 100.6453905  23.2211908  90.9661529 100.2506703  22.3492412
  91.1393528  99.9119977  23.8145679  83.9004353 102.8405721  16.0906814
  84.6925645 102.4996546  15.6753113  84.1401003 102.9500696  17.0108967
  87.6980150 103.4291017  22.1691092  87.4070016 104.3336647  22.0537758
  88.3337134 103.4707544  22.8835162  88.6236356 100.8067865  18.7592452
  89.2199929 100.5823888  18.0449415  88.6811328 100.0652611  19.3617900
  93.2404668  97.2643079  14.4017386  94.0267757  96.8462502  14.0507803
  93.5043372  98.1689171  14.5699034  98.6413095  97.2018312  15.3050364
  99.3738267  96.6317529  15.5388194  97.8852451  96.8139913  15.7456870
  90.2589215  99.6245554  12.5013707  89.8947422  99.0976175  13.2126628
  91.1156330  99.2344023  12.3280192  96.1638515  90.9139886  19.7644973
  95.8321840  91.7835297  19.5406188  95.5684129  90.5976170  20.4439003
  92.6570035 103.1152432  19.1640886  92.3570758 104.0177471  19.0556693
  92.3121094 102.8484615  20.0162039  86.1082516  99.5666229  15.1977590
  85.1833013  99.4342443  15.4055282  86.3566929 100.3460448  15.6947533
  96.0567178  95.6334972  16.8438323  95.1484056  95.5650381  16.5497084
  96.0054774  96.1106917  17.6720149  83.4691327  99.2099503  16.0321379
  83.5983708  99.4633981  16.9460791  82.7888779  99.8027211  15.7126034
  90.1308044  97.0524618  24.7873220  89.3541378  97.6118538  24.7776085
  90.7698607  97.5381401  25.3088090  97.9228825  93.8351411  18.6216197
  97.2803205  94.1283944  17.9755992  97.4183753  93.7204331  19.4269394
  88.3854417  99.8610071  24.3491187  89.1269101 100.3995115  24.0726011
  87.6791402 100.4876360  24.5062739  93.8609756 102.0039212  22.9463349
  94.2693112 101.5621622  22.2017981  93.1387018 101.4291839  23.1997542
  90.2140826  96.9411819  20.3196906  91.0602021  97.3651232  20.4631555
  90.1539464  96.2845443  21.0135469  94.1838571 102.5640402  16.7015638
  93.5547433 102.7286117  15.9991706  93.7964233 102.9782012  17.4726602
  93.3640272  94.6016187  21.9778079  93.1201203  95.3558247  21.4412355
  93.6400202  94.9801534  22.8125326  95.3178734 101.1454799  20.6555345
  95.5295630 101.7886559  19.9789726  95.2708483 100.3117116  20.1877275
  92.9204963  93.7572620  17.5591917  92.0589442  94.0553873  17.8508655
  92.9467398  93.9743019  16.6272950  89.7366533 102.3014810  13.9665723
  90.2004878 102.5802513  13.1770345  89.4723331 101.3998255  13.7838813
  86.6290614 101.8486292  16.9045486  87.1991971 102.2773560  16.2662971
  87.2198726 101.5668877  17.6029672  88.6735419  98.4237963  10.7755288
  89.3759462  98.8759007  11.2429214  88.3416047  97.7821782  11.4035181
  87.1215780  97.0149719  25.1506497  86.4914441  97.6966000  25.3841894
  87.0151868  96.9032801  24.2059636  82.4160753  96.6821515  16.0772421
  81.6259807  96.9379044  15.6012532  82.9072000  97.4969853  16.1824462
  96.4324562 104.0226755  18.8277702  97.2542006 103.6206942  18.5460384
  96.4286965 103.9194989  19.7793818  84.3675498  97.0466095  13.0355898
  83.5706661  97.1584789  13.5539394  84.1401090  97.3852747  12.1696789
  90.1981166 103.5710798  20.9838413  90.2625598 104.0331205  21.8196585
  89.4892090 102.9408163  21.1120723  80.6998456  96.9352006  18.5087412
  80.9506494  97.8199016  18.7744988  81.2358004  96.7556607  17.7362504
  86.3996523  91.3170485  27.5131748  86.0063469  90.7636684  28.1879393
  87.2162663  91.6281064  27.9038266  83.3658581 102.7554343  11.4245318
  83.8783101 103.5497594  11.5750883  84.0181294 102.0580634  11.3578920
  89.3164484  92.7328364  25.1052005  90.0574197  93.3335518  25.0256467
  89.5482407  91.9906002  24.5470047  84.4605822  97.9184732  23.3830235
  84.3459337  97.0169989  23.6837334  83.6050340  98.1648428  23.0315051
  91.5397660 105.8602472  24.9817735  91.0961514 105.0738851  24.6638640
  92.2014873 106.0481622  24.3161626  86.2984781 107.3898274  19.5078414
  86.8492206 107.2615337  18.7355408  85.4596257 107.6893163  19.1573307
  93.6378898 106.1405272  23.0099136  93.6197373 106.9614153  22.5179406
  94.5598818 106.0159347  23.2349278  90.0951952 103.6549401  23.8522645
  90.6280289 102.8937690  23.6221953  89.5666033 103.3623053  24.5946799
  93.2621647  88.7609467  19.3816287  92.9185916  89.6511109  19.3055397
  93.6300610  88.5711125  18.5185872  81.3307498 101.0842998  12.2004889
  82.1682720 101.4940006  11.9838596  81.5085765 100.1442440  12.1705083
  90.8119041  93.5967779  12.9473960  89.9560637  93.2074630  12.7679599
  91.2245993  93.6759740  12.0873746  92.3418187  91.1314122  17.3465520
  91.8382983  91.0944258  16.5333325  92.6348794  92.0406865  17.4062176
  88.5861073  91.2152852  16.3531702  89.4514070  91.0195661  15.9937591
  88.6538582  90.9863204  17.2801058  96.4397511 100.9784414  16.4808503
  95.7821185 101.6683676  16.5688632  97.2437910 101.3680846  16.8242490
  86.1923392  93.4455060  13.7248068  86.7667144  93.2230242  12.9921261
  86.7794375  93.5143755  14.4776670  95.2502970  99.3328787  14.5312445
  95.7634851  99.9658779  15.0334155  95.9004193  98.7329983  14.1655805
  88.4946060  90.3196309  12.4523138  87.8410472  90.0045326  11.8279753
  88.4526534  89.6972050  13.1782961  91.7283800  96.8078243  16.7770785
  90.8106362  97.0293190  16.6192473  92.1443944  96.8824553  15.9182493
  94.9597685  95.2426775  13.8892255  94.2220442  94.7304161  14.2202498
  95.2124459  94.8027156  13.0775532  95.0609313  88.0203027  14.4834024
  95.3668189  87.1600390  14.1959939  95.7861917  88.6120647  14.2833018
  81.3533669  98.4233713  12.8715622  81.1558069  97.8303074  12.1466689
  80.7980333  98.1185923  13.5891561  89.3330392  98.3156820  14.9910215
  89.3879002  97.3630656  14.9152692  88.5221594  98.4716259  15.4751514
  87.2722752  96.9333879  12.7500594  86.4590618  97.2328050  13.1565786
  87.7681746  96.5389568  13.4675076  92.8696964  97.3975704  21.5815488
  93.2246352  97.6247177  22.4409954  93.5169095  97.7294081  20.9592743
  86.7636827  94.5052235  18.3661829  87.4036206  94.3640994  17.6684792
  85.9314358  94.2186748  17.9900431  87.5397131 103.8054665  14.4796822
  88.3337729 103.3104985  14.2779397  86.8288823 103.2772528  14.1164527
  92.3591975 106.1872761  18.8309189  92.4128998 106.7563697  19.5986905
  91.4906757 106.3574646  18.4663226  83.8479894  97.9497747  10.5556574
  82.9177483  97.8882203  10.7726536  83.9437366  97.4273700   9.7593216
  83.7665443  94.4752560  13.1434816  84.0272261  95.3897893  13.0343976
  84.5882616  94.0077002  13.2931429  85.2390369  95.8890317  20.3133640
  85.9113422  95.6807679  19.6646289  84.4120155  95.6912403  19.8738873
  99.4879630 102.6294367  19.8308974  99.6815520 103.5340178  20.0768249
  99.3880248 102.1701786  20.6647559  91.1415941  92.5152258  22.3299301
  90.4943856  93.2142208  22.2363778  91.9116956  92.9488402  22.6975550
  94.5494739 102.7801110  25.4049855  94.3980245 102.5511662  24.4879938
  94.5399418 103.7371712  25.4181200  91.3180075 100.3533023  20.3896121
  92.2472135 100.5044182  20.2165088  90.8971105 100.4417044  19.5344768
  90.1168407 104.3783687  18.1594659  89.9779493 104.0102472  19.0320597
  89.3283003 104.8931327  17.9878617  91.6673622 103.7565290  15.5483496
  91.3323455 103.7166060  16.4441146  91.1677568 103.0910006  15.0753907
  85.6417866  99.1632920  21.0736078  85.5037664  98.4313159  21.6747617
  86.5522790  99.0741820  20.7920265  88.2700167  98.8752879  20.5619757
  88.9799785  98.2346072  20.5206376  88.2269475  99.1265774  21.4845938
  96.2586945 105.8120233  23.4826337  96.1999492 105.1279453  22.8156920
  96.6606464 106.5539223  23.0306962  86.9829101  95.8618097  22.3815397
  86.4466458  95.4108836  23.0336993  86.3945809  95.9964006  21.6385861
  96.2604353 103.7759817  21.7140316  95.3731131 103.4385738  21.8366715
  96.8302904 103.0442848  21.9509082  77.9133500 100.1083908  15.0383368
  78.6004540  99.7945638  14.4504383  77.7581628 101.0125273  14.7650619
  82.7168222  94.9974105  19.4668391  82.6326411  94.3899774  18.7318801
  81.8950928  95.4883123  19.4677888  89.7905506 108.4361269  18.6801559
  89.7175678 109.2416240  19.1920864  89.3482899 108.6353235  17.8549581
  92.8891936  93.4827668  14.8338586  93.3860635  92.7297631  14.5139657
  92.1178917  93.5191985  14.2681796 100.7421693  99.1868034  16.4756878
 100.7311569 100.0692749  16.1050811  99.8739073  98.8339585  16.2811415
  92.2504190 108.3348103  20.8359718  92.9632162 108.9695568  20.7635620
  91.7594218 108.4311969  20.0199720  89.4726905  95.6245051  14.5610271
  89.1024692  95.0716092  15.2491176  89.9685997  95.0203185  14.0085271
  87.3016103 106.0842546  21.6565289  88.0025563 106.7179029  21.8094683
  86.8311218 106.4257278  20.8960928  95.3310931  90.4497262  16.9817945
  94.4174010  90.6801489  17.1500152  95.7604032  90.5335706  17.8331978
  95.1017389  98.6387154  19.4817839  94.4488839  98.8863061  18.8270292
  95.4797769  97.8251292  19.1480317  91.1504962  99.3806965  25.9683876
  90.4745599  99.2801094  26.6386252  91.9732596  99.2246179  26.4319874
  82.8983821 105.6178901  18.5896392  83.4837258 104.8722589  18.7224296
  82.7008660 105.9282858  19.4733055  77.4901476  98.1884502  17.3100835
  77.5285575  97.6548092  18.1037953  76.9841769  97.6619707  16.6911812
  89.8927745 110.6873892  20.2041492  90.4446053 110.8505514  20.9690578
  90.2333938 111.2778330  19.5321517  84.8692238  93.0349042  20.8063377
  84.9333565  93.8963873  20.3940775  84.8059358  92.4223044  20.0735736
  84.3444511  95.1072175  24.4536411  84.9716550  94.7249252  25.0673936
  83.4872430  94.8886377  24.8192104  94.7438619 105.5135150  26.0590147
  95.2878523 106.1265108  25.5645102  94.1625464 106.0714728  26.5757160
  81.1210054  96.9148604  10.3854766  81.4163495  96.0059282  10.3321820
  80.2198089  96.8936343  10.0635768  84.6504301  94.9904600  16.3682315
  83.9290886  95.6040568  16.2289788  85.4397556  95.5262365  16.2898961
  95.0931041 106.4364888  18.8184725  94.1461376 106.3170239  18.7463051
  95.4413814 105.5487386  18.9010986  87.4530614  92.3259027  22.6422966
  87.9765016  92.5721323  23.4049276  87.2342947  93.1579062  22.2226104
  82.8497895  94.5962702  10.5094091  82.5210601  93.7160080  10.3269197
  83.2037266  94.5410370  11.3970480  85.9639718  94.8835671  10.8769569
  86.3035791  95.4121593  10.1548177  86.4111839  95.2216077  11.6528135
  88.6583159  93.2672722  20.3272637  88.3179979  92.4680535  20.7293317
  87.9522165  93.5674433  19.7549470  89.3099631  90.3522034  18.7799960
  90.1325700  89.8782513  18.6578850  89.5537694  91.1312518  19.2798646
  87.9507865  93.3810293   9.0762862  88.6716228  93.7591546   8.5726579
  87.3273170  94.0999170   9.1797840  92.0938988  94.0855442  10.0121194
  92.3102603  94.9680080   9.7110022  91.6133055  93.6941655   9.2826836
  86.8338210  97.0441155  16.5891939  86.6882790  97.3581458  17.4816220
  86.3563413  97.6626055  16.0362837  88.6934593  94.0343703  16.6372828
  88.6796161  93.1384796  16.3005126  89.4107021  94.0414367  17.2711114
  90.5460723  94.4681043  18.6825956  90.2878501  95.3898114  18.6810286
  90.0145764  94.0711478  19.3726420  81.3083872  99.5846499  19.5279600
  80.7637340 100.3606307  19.6599874  82.1863222  99.9317304  19.3698721
  88.0971488  92.9158083  11.9060398  88.2187400  91.9874730  12.1051286
  87.8073531  92.9296769  10.9938714  90.9662679  90.6012994  15.0427118
  90.9884376  90.6652327  14.0879098  91.3830738  89.7617502  15.2367624
  82.0949894  98.7116396  22.4209757  81.3531630  98.8599031  23.0074387
  81.7742638  98.9724661  21.5576506  90.0393556 108.2532374  22.2190147
  90.3480683 108.0081521  23.0912846  90.8369038 108.4579012  21.7309017
  82.5406507 106.5981824  14.4520151  83.3664527 106.2985596  14.0718795
  82.1900559 105.8289447  14.9009940  87.5088041 105.9508293  16.5217825
  86.8868050 105.2878998  16.2220053  88.1792907 105.9769425  15.8391473
  80.7415112 104.5168151  15.4109085  79.9047021 104.0890325  15.2293086
  80.7138758 104.7100594  16.3479876  87.5812568  94.4290081  26.1150331
  87.6300723  95.3052204  25.7328101  88.1235082  93.8867474  25.5421974
  98.0667414 104.9731204  25.3951468  97.2762957 104.9555343  24.8555967
  97.8300768 105.5119498  26.1500505  98.1865289 101.8223670  22.7084197
  98.2363294 101.6573678  23.6499719  98.0779212 100.9550929  22.3182077
  95.4769051  97.8054598  24.0243503  96.3778914  97.6661063  23.7327501
  95.5517026  97.9709053  24.9641681  89.8111856  95.1821453  22.8696690
  88.9415166  95.4755019  22.5979278  90.0471337  95.7661898  23.5903953
  99.6883486 104.2420612  22.9526218  99.3968294 104.6050592  23.7889679
  99.0755617 103.5287620  22.7739550  97.9370674  99.3653226  21.4206276
  98.4124795  99.5580873  20.6125127  97.0136239  99.4212412  21.1749660
  84.8254180 100.5277394  11.0037354  84.5800222  99.6239724  11.2017564
  84.9950095 100.5294544  10.0616832  92.5150890  91.4001070  20.3862110
  93.0332834  92.1362097  20.0608599  92.1606023  91.7065063  21.2208869
  84.0949828  96.2605751   8.5023516  83.4019073  96.3350106   7.8463552
  83.8501580  95.4966095   9.0245033  92.7663484  87.8201353  15.9063007
  93.0465238  87.1524542  16.5323433  93.5514091  88.0130448  15.3937670
  96.6372343  96.2418987  19.6534582  97.5889766  96.3417084  19.6746806
  96.4675793  95.4497255  20.1632666  94.6586722  93.3274570  19.8393983
  94.0636654  93.6079583  19.1440471  94.3736419  93.8168471  20.6110724
  99.1160421  99.4625106  18.7676881  99.0836741  98.5241107  18.9536565
  99.7261044  99.5409143  18.0342706  99.2654909  96.2536150  18.8135164
  98.7493958  95.4694606  18.6265093 100.1494858  95.9254866  18.9781684
  96.9265636  89.9977165  14.7730977  96.7290457  89.6892253  15.6574309
  97.5365342  90.7238804  14.9028907 104.9336970 100.5241113  17.9082918
 105.6640359 100.2626401  18.4690621 104.3243916  99.7869835  17.9484986
 103.0152268  98.6648976  18.5057369 102.2885431  98.5304941  17.8973861
 102.5999554  98.9725804  19.3114087  90.8382444 102.3838905  26.2704742
  91.7585453 102.5617504  26.4644789  90.8032027 101.4394951  26.1184442
  80.0564609  97.5777499  15.1958017  79.7367393  96.7242807  14.9032391
  79.5098037  97.7926077  15.9515984  83.8344517 100.2939940  18.9127523
  84.0530526 101.2257048  18.9315557  84.2470290  99.9347914  19.6982327
  90.7548734  90.8008025  10.9003212  89.9449463  90.4555110  11.2758458
  91.4433151  90.4915569  11.4890823  92.6839283  89.8786072  12.5227509
  93.2370321  90.2981526  13.1817532  92.9209369  88.9521820  12.5650465
  88.7072382  95.8673146  28.3030272  88.6069109  96.8167503  28.2342364
  88.4893924  95.5391385  27.4306343  79.9252869 101.1980411  17.1651139
  79.2316340 100.7834363  16.6521093  80.6725860 101.2400947  16.5684557
  96.0618090  91.9886597  12.0306173  95.4816759  92.6471401  11.6484225
  95.7954022  91.1663942  11.6193590  94.5121656  91.3891655  14.2327493
  95.0121434  91.5008190  13.4241812  95.1557264  91.0852708  14.8728302
  88.5703652  99.2970285  27.1195334  88.0870734 100.0970645  27.3259223
  88.6564591  99.3078230  26.1662778  81.8389612 101.1298664  15.0417153
  81.8160300 101.2286352  14.0899037  82.1490248 101.9763815  15.3634320
  84.4976989 103.1874819  19.1563768  85.4520243 103.1558762  19.0893699
  84.2989513 102.7265443  19.9713994  85.0876372 101.7575935  21.7234566
  85.9069261 102.2520014  21.7469403  85.3613179 100.8407904  21.6952133
  94.8442968  94.1486688  11.0862521  93.9568823  94.4336338  10.8682716
  95.2596957  93.9880451  10.2389798  98.1957504  94.1733209  14.8016860
  98.9717894  94.6629661  15.0741477  97.4705638  94.5991263  15.2588730
 100.6330062  94.8860828  15.8590801 101.2274553  94.6456564  15.1484109
 100.7056646  94.1667958  16.4864337  82.8527218 108.7294439  16.1733966
  82.7181686 107.9694840  15.6071964  82.4359280 109.4535339  15.7062755
  86.0096344 109.6263756  16.3852408  85.8928728 110.5709188  16.2831099
  85.1888790 109.3237317  16.7738208  80.3411286  96.0914069  22.4226763
  80.9870149  95.5813023  22.9113988  80.1328437  96.8282751  22.9970188
  92.8664678 103.1594917  27.9218903  93.7355838 103.3335569  27.5605538
  92.3871429 103.9789334  27.7994632  88.8614896  90.3554114   8.1750659
  88.8493566  91.2995954   8.3318930  89.7538318  90.1724259   7.8810120
  87.0350858 110.2792018  19.6008337  87.9378105 110.3115628  19.9174832
  86.8088228 109.3492469  19.6154673  92.6767016  86.9496891  12.4296596
  91.9099412  86.3955377  12.5753278  93.0877721  87.0218759  13.2910747
  84.6808777  93.2381686  26.5201777  85.5440238  92.8818491  26.7305101
  84.1074187  92.8995581  27.2077181 100.9701799 112.3816536  24.7873220
 100.1935133 112.9410456  24.7776085 101.6092362 112.8673319  25.3088090
  97.9609535 112.3441637  25.1506497  97.3308195 113.0257918  25.3841894
  97.8545623 112.2324719  24.2059636  97.2390278 106.6462403  27.5131748
  96.8457223 106.0928602  28.1879393  98.0556418 106.9572981  27.9038266
 100.1558239 108.0620282  25.1052005 100.8967952 108.6627435  25.0256467
 100.3876161 107.3197920  24.5470047  95.2999577 113.2476649  23.3830235
  95.1853092 112.3461907  23.6837334  94.4444094 113.4940346  23.0315051
 101.9809695 107.8444176  22.3299301 101.3337610 108.5434125  22.2363778
 102.7510711 108.2780320  22.6975550  97.8222855 111.1910015  22.3815397
  97.2860212 110.7400753  23.0336993  97.2339564 111.3255924  21.6385861
  93.5561976 110.3266023  19.4668391  93.4720165 109.7191692  18.7318801
  92.7344683 110.8175041  19.4677888 101.9898717 114.7098883  25.9683876
 101.3139354 114.6093012  26.6386252 102.8126350 114.5538096  26.4319874
  95.7085993 108.3640960  20.8063377  95.7727319 109.2255791  20.3940775
  95.6453113 107.7514962  20.0735736  95.1838265 110.4364092  24.4536411
  95.8110304 110.0541170  25.0673936  94.3266184 110.2178294  24.8192104
  98.2924369 107.6550945  22.6422966  98.8158770 107.9013241  23.4049276
  98.0736702 108.4870979  22.2226104  92.9343648 114.0408313  22.4209757
  92.1925384 114.1890949  23.0074387  92.6136392 114.3016579  21.5576506
  98.4206323 109.7581998  26.1150331  98.4694478 110.6344121  25.7328101
  98.9628837 109.2159391  25.5421974 100.6505611 110.5113371  22.8696690
  99.7808920 110.8046937  22.5979278 100.8865091 111.0953816  23.5903953
  99.5466136 111.1965063  28.3030272  99.4462863 112.1459420  28.2342364
  99.3287678 110.8683302  27.4306343  99.4097406 114.6262202  27.1195334
  98.9264488 115.4262562  27.3259223  99.4958345 114.6370147  26.1662778
  91.1805040 111.4205987  22.4226763  91.8263904 110.9104941  22.9113988
  90.9722191 112.1574669  22.9970188  95.5202531 108.5673604  26.5201777
  96.3833993 108.2110409  26.7305101  94.9467942 108.2287499  27.2077181
  59.0216398  36.8788842  11.7063042  58.5780252  36.0925220  11.3883946
  59.6833611  37.0667992  11.0406933  61.1197636  37.1591641   9.7344443
  61.1016111  37.9800523   9.2424712  62.0417556  37.0345717   9.9594584
  57.5770690  34.6735771  10.5767951  58.1099027  33.9124059  10.3467259
  57.0484771  34.3809423  11.3192106  66.9698368  33.6480737   6.5554281
  67.1634258  34.5526547   6.8013556  66.8698986  33.1888156   7.3892866
  62.0313477  33.7987480  12.1295161  61.8798983  33.5698031  11.2125245
  62.0218156  34.7558081  12.1426506  63.7405683  36.8306602  10.2071643
  63.6818229  36.1465822   9.5402226  64.1425202  37.5725592   9.7552269
  63.7423090  34.7946186   8.4385623  62.8549869  34.4572108   8.5612022
  64.3121642  34.0629217   8.6754388  59.7322927  39.3534473   7.5605025
  60.4450900  39.9881937   7.4880926  59.2412956  39.4498339   6.7445027
  58.6323700  30.3993335  12.6929183  57.9564337  30.2987464  13.3631558
  59.4551334  30.2432548  13.1565180  57.3746483  41.7060262   6.9286799
  57.9264791  41.8691883   7.6935884  57.7152676  42.2964700   6.2566824
  62.2257357  36.5321519  12.7835453  62.7697261  37.1451478  12.2890408
  61.6444202  37.0901098  13.3002466  57.5212294  39.2718744   8.9435453
  57.8299421  39.0267890   9.8158153  58.3187776  39.4765382   8.4554324
  65.5486151  35.9917574  12.1196775  64.7581695  35.9741712  11.5801274
  65.3119506  36.5305867  12.8745811  65.6684027  32.8410040   9.4329503
  65.7182031  32.6760047  10.3745026  65.5597950  31.9737299   9.0427384
  62.9587789  28.8240968  10.7488810  63.8597652  28.6847433  10.4572808
  63.0335763  28.9895423  11.6886987  67.1702223  35.2606981   9.6771525
  66.8787032  35.6236962  10.5134986  66.5574355  34.5473990   9.4984857
  58.3201182  33.4025275  12.9950049  59.2404191  33.5803874  13.1890095
  58.2850765  32.4581320  12.8429748  56.0522390  30.3156654  13.8440641
  55.5689471  31.1157014  14.0504530  56.1383329  30.3264599  12.8908085
  60.3483416  34.1781286  14.6464210  61.2174575  34.3521939  14.2850845
  59.8690167  34.9975703  14.5239939  72.0075891  45.8869912   4.0509484
  72.6454301  45.7676660   3.3472825  71.8896734  46.8350756   4.1097437
  68.8165598  45.8397340   3.9871009  68.4784109  45.7238405   3.0991544
  69.6855366  45.4388505   3.9672015  69.2985381  46.9932192   9.9457215
  69.2874022  46.5984990   9.0737718  69.4606020  46.2598265  10.5390986
  62.2216845  49.1884008   2.8152121  63.0138137  48.8474833   2.3998420
  62.4613496  49.2978983   3.7354274  70.2551972  51.3603784  -4.7117635
  69.6039952  51.9457865  -5.0983621  71.0496335  51.8909979  -4.6522598
  66.0192642  49.7769304   8.8936399  65.7282508  50.6814935   8.7783065
  66.6549626  49.8185831   9.6080468  66.9448849  47.1546152   5.4837758
  67.5412421  46.9302175   4.7694721  67.0023820  46.4130898   6.0863206
  71.5617160  43.6121366   1.1262692  72.3480249  43.1940789   0.7753110
  71.8255864  44.5167458   1.2944341  76.9625587  43.5496599   2.0295671
  77.6950759  42.9795816   2.2633500  76.2064943  43.1618200   2.4702177
  68.5801707  45.9723841  -0.7740987  68.2159914  45.4454462  -0.0628065
  69.4368823  45.5822310  -0.9474501  74.4851007  37.2618173   6.4890280
  74.1534332  38.1313584   6.2651495  73.8896621  36.9454457   7.1684310
  70.9782527  49.4630719   5.8886192  70.6783250  50.3655758   5.7802000
  70.6333586  49.1962903   6.7407345  64.4295008  45.9144516   1.9222897
  63.5045505  45.7820730   2.1300589  64.6779422  46.6938735   2.4192839
  74.3779671  41.9813260   3.5683630  73.4696548  41.9128668   3.2742391
  74.3267267  42.4585205   4.3965455  61.7903819  45.5577790   2.7566686
  61.9196201  45.8112269   3.6706098  61.1101271  46.1505498   2.4371341
  65.9603307  56.2275040  -1.1442840  65.8827336  57.1782865  -1.0654359
  65.3564950  55.8820912  -0.4867914  68.4520537  43.4002905  11.5118527
  67.6753871  43.9596825  11.5021392  69.0911100  43.8859688  12.0333397
  76.2441317  40.1829698   5.3461504  75.6015697  40.4762231   4.7001298
  75.7396246  40.0682618   6.1514700  66.7066909  46.2088359  11.0736494
  67.4481593  46.7473402  10.7971318  66.0003894  46.8354647  11.2308046
  72.1822248  48.3517499   9.6708655  72.5905605  47.9099910   8.9263288
  71.4599510  47.7770127   9.9242848  68.5353319  43.2890106   7.0442212
  69.3814514  43.7129519   7.1876861  68.4751956  42.6323730   7.7380775
  72.5051063  48.9118690   3.4260944  71.8759926  49.0764404   2.7237012
  72.1176725  49.3260299   4.1971908  76.3840295  49.8473127   0.7805308
  75.6991333  50.2272029   0.2302341  76.4684144  50.4568454   1.5137256
  71.6852764  40.9494474   8.7023386  71.4413696  41.7036535   8.1657662
  71.9612694  41.3279822   9.5370633  73.6391227  47.4933086   7.3800652
  73.8508122  48.1364846   6.7035033  73.5920975  46.6595403   6.9122582
  71.2417456  40.1050907   4.2837224  70.3801935  40.4032161   4.5753961
  71.2679890  40.3221306   3.3518256  68.0579025  48.6493098   0.6911029
  68.5217371  48.9280801  -0.0984348  67.7935823  47.7476542   0.5084120
  64.9503106  48.1964579   3.6290793  65.5204463  48.6251848   2.9908277
  65.5411218  47.9147164   4.3274978  65.4428273  43.3628007  11.8751804
  64.8126933  44.0444288  12.1087201  65.3364360  43.2511088  10.9304942
  74.7537055  50.3705042   5.5523009  75.5754498  49.9685229   5.2705691
  74.7499457  50.2673276   6.5039125  68.5193658  49.9189085   7.7083719
  68.5838091  50.3809492   8.5441891  67.8104582  49.2886450   7.8366029
  59.0210948  43.2830293   5.2332719  59.2718986  44.1677303   5.4990295
  59.5570496  43.1034895   4.4607811  82.8443048  46.7143790   1.9007980
  82.0906756  46.1451188   1.7451985  82.9790589  46.6806455   2.8478615
  68.2341676  51.5857193  -2.4237300  68.0987350  52.4308728  -1.9952452
  68.7751488  51.7876470  -3.1871366  64.7209015  37.6648773  14.2377055
  64.3275961  37.1114971  14.9124699  65.5375156  37.9759351  14.6283573
  63.4965958  52.2198387   0.2313378  63.6732586  53.1416352   0.0434362
  64.2922791  51.9056806   0.6607758  67.6376976  39.0806652  11.8297312
  68.3786690  39.6813805  11.7501774  67.8694899  38.3384289  11.2715354
  62.7818314  44.2663019  10.1075541  62.6671829  43.3648276  10.4082640
  61.9262832  44.5126716   9.7560358  69.8610152  52.2080759  11.7063042
  69.4174006  51.4217138  11.3883946  70.5227366  52.3959910  11.0406933
  64.6197273  53.7376561   6.2323720  65.1704698  53.6093624   5.4600714
  63.7808749  54.0371450   5.8818613  71.9591390  52.4883559   9.7344443
  71.9409865  53.3092440   9.2424712  72.8811310  52.3637634   9.9594584
  68.4164444  50.0027689  10.5767951  68.9492781  49.2415977  10.3467259
  67.8878525  49.7101340  11.3192106  71.5834139  35.1087755   6.1061593
  71.2398409  35.9989396   6.0300704  71.9513102  34.9189412   5.2431178
  70.6630680  37.4792410   4.0710826  70.1595475  37.4422545   3.2578632
  70.9561287  38.3885152   4.1307483  76.5218696  47.8528720  -3.4512798
  75.7448139  47.5139880  -3.8957636  77.2010177  47.8581343  -4.1257833
  69.7817157  49.1313681  -1.9113237  69.2538519  48.3966441  -2.2239999
  69.2804660  49.9088357  -2.1573268  74.7610003  47.3262702   3.2053810
  74.1033677  48.0161963   3.2933938  75.5650402  47.7159134   3.5487796
  73.5715462  45.6807074   1.2557752  74.0847344  46.3137066   1.7579461
  74.2216686  45.0808270   0.8901112  70.8337836  55.6591399  -5.9881577
  70.1599535  55.9623095  -5.3796619  71.2203658  56.4620479  -6.3376120
  70.0496293  43.1556530   3.5016092  69.1318854  43.3771477   3.3437780
  70.4656436  43.2302840   2.6427799  70.8331340  44.5547946  -1.3681228
  71.5803159  45.0669343  -1.6774106  71.1022930  44.2331998  -0.5076834
  74.3377258  50.6613076  -0.6163106  73.8839585  49.8203986  -0.5597915
  73.7071225  51.2974474  -0.2788326  73.2810178  41.5905062   0.6137562
  72.5432934  41.0782448   0.9447804  73.5336951  41.1505443  -0.1979162
  72.7810197  52.4989572   0.3186712  73.0733172  53.0594630  -0.4000922
  73.2908818  52.7918133   1.0739871  67.6542885  44.6635107   1.7155522
  67.7091494  43.7108943   1.6397999  66.8434087  44.8194546   2.1996820
  67.7443822  53.2769924   1.4080166  67.7020001  53.5030770   0.4788698
  68.6606521  53.0433298   1.5565967  71.1909456  43.7453991   8.3060795
  71.5458844  43.9725464   9.1655260  71.8381587  44.0772368   7.6838050
  76.9207193  46.8672427  -0.9889876  76.7825092  47.0574023  -1.9168687
  76.5643412  47.6291810  -0.5321825  65.0849319  40.8530522   5.0907136
  65.7248699  40.7119281   4.3930099  64.2526850  40.5665035   4.7145738
  76.9476573  48.9348954   4.0221395  77.3813079  48.8424243   4.8704449
  77.6608154  48.9106454   3.3841411  65.8609623  50.1532953   1.2042128
  66.6550222  49.6583273   1.0024703  65.1501316  49.6250816   0.8409834
  70.6804468  52.5351048   5.5554496  70.7341490  53.1041984   6.3232212
  69.8119249  52.7052933   5.1908533  63.5602861  42.2368604   7.0378947
  64.2325915  42.0285966   6.3891596  62.7332648  42.0390690   6.5984179
  77.8092122  48.9772655   6.5554281  78.0028012  49.8818465   6.8013556
  77.7092741  48.5180074   7.3892866  69.4628433  38.8630545   9.0544608
  68.8156348  39.5620495   8.9609084  70.2329449  39.2966689   9.4220856
  72.8707231  49.1279397  12.1295161  72.7192737  48.8989949  11.2125245
  72.8611911  50.0849999  12.1426506  69.6392567  46.7011310   7.1141428
  70.5684627  46.8522470   6.9410395  69.2183597  46.7895331   6.2590074
  68.4380899  50.7261975   4.8839965  68.2991985  50.3580759   5.7565903
  67.6495495  51.2409614   4.7123923  69.0329051  55.8271071  -3.7734498
  69.2080807  55.3559114  -2.9588875  68.3461839  56.4536837  -3.5453237
  69.9886114  50.1043577   2.2728803  69.6535947  50.0644347   3.1686453
  69.4890060  49.4388293   1.7999213  63.9630358  45.5111207   7.7981384
  63.8250156  44.7791446   8.3992923  64.8735282  45.4220107   7.5165572
  66.5912659  45.2231167   7.2865064  67.3012278  44.5824359   7.2451682
  66.5481967  45.4744061   8.2091245  74.5799438  52.1598520  10.2071643
  74.5211984  51.4757740   9.5402226  74.9818956  52.9017510   9.7552269
  65.3041593  42.2096384   9.1060703  64.7678950  41.7587123   9.7582300
  64.7158301  42.3442293   8.3631168  63.5990136  58.9760434   3.0005362
  63.8386735  59.6078958   3.6784381  62.7559333  58.6248474   3.2870721
  74.5816845  50.1238104   8.4385623  73.6943624  49.7864026   8.5612022
  75.1515396  49.3921135   8.6754388  61.0380714  41.3452392   6.1913698
  60.9538903  40.7378062   5.4564108  60.2163421  41.8361410   6.1923194
  68.1117998  54.7839556   5.4046866  68.0388170  55.5894528   5.9166171
  67.6695391  54.9831522   4.5794887  67.9007778  54.0211326  -1.0850312
  67.1175300  54.5633006  -0.9912088  68.6000523  54.5385306  -0.6856071
  79.0634185  45.5346321   3.2002184  79.0524062  46.4171037   2.8296118
  78.1951565  45.1817872   3.0056722  70.5716682  54.6826390   7.5605025
  71.2844654  55.3173855   7.4880926  70.0806711  54.7790256   6.7445027
  72.2934209  48.5877643  -0.8677684  71.3590488  48.7079105  -1.0372979
  72.4710877  47.6850110  -1.1317674  75.6806760  44.4294962  -0.3327650
  76.1467212  45.2622954  -0.4067347  76.1314261  43.9639944   0.3717609
  65.6228595  52.4320834   8.3810596  66.3238055  53.0657317   8.5339990
  65.1523710  52.7735565   7.6206235  73.7482991  50.7738783  -3.3341497
  74.0242835  50.6595378  -2.4247623  72.8787490  50.3756268  -3.3729324
  73.6523423  36.7975549   3.7063252  72.7386503  37.0279776   3.8745459
  74.0816524  36.8813993   4.5577284  73.4229881  44.9865441   6.2063146
  72.7701332  45.2341349   5.5515599  73.8010261  44.1729579   5.8725623
  70.3837055  55.0225134   0.3091316  70.5659450  54.2046790   0.7719068
  71.2070041  55.2392827  -0.1283794  70.7179221  53.9493319  -2.4293635
  71.2466987  53.4385774  -3.0423473  70.9807440  53.6335850  -1.5648102
  69.4717454  45.7285252  12.6929183  68.7958091  45.6279382  13.3631558
  70.2945088  45.5724466  13.1565180  61.2196313  51.9657189   5.3141698
  61.8049750  51.2200877   5.4469602  61.0221152  52.2761145   6.1978362
  64.0734969  55.0008436   0.3304141  63.4045344  55.4854564  -0.1531819
  63.9347838  55.2477657   1.2447519  68.2140237  57.0352180   6.9286799
  68.7658545  57.1983801   7.6935884  68.5546431  57.6256617   6.2566824
  63.1904730  39.3827329   7.5308684  63.2546057  40.2442160   7.1186081
  63.1271851  38.7701331   6.7981042  62.6657003  41.4550462  11.1781718
  63.2929042  41.0727539  11.7919242  61.8084922  41.2364664  11.5437410
  73.0651112  51.8613437  12.7835453  73.6091016  52.4743395  12.2890408
  72.4837956  52.4193016  13.3002466  71.3508625  54.9834155   3.9150481
  71.2259764  54.1823895   3.4061427  72.0087716  55.4780349   3.4264451
  73.4143533  52.7843175   5.5430031  72.4673868  52.6648526   5.4708358
  73.7626306  51.8965673   5.6256293  65.7743106  38.6737314   9.3668273
  66.2977508  38.9199611  10.1294582  65.5555440  39.5057349   8.9471410
  70.4189966  52.5795891   1.7434383  70.2714929  51.6512599   1.9241953
  71.2443460  52.6015982   1.2591459  74.0224088  53.4024450   2.8299256
  74.9470636  53.1967312   2.6923707  73.8539391  53.1540851   3.7388598
  66.9795651  39.6151009   7.0517944  66.6392472  38.8158822   7.4538623
  66.2734658  39.9152720   6.4794777  67.6312123  36.7000322   5.5045267
  68.4538192  36.2260800   5.3824157  67.8750187  37.4790805   6.0043953
  65.1550702  43.3919442   3.3137245  65.0095283  43.7059745   4.2061527
  64.6775906  44.0104343   2.7608144  67.0147085  40.3821990   3.3618135
  67.0008654  39.4863084   3.0250433  67.7319513  40.3892654   3.9956421
  68.8673216  40.8159331   5.4071262  68.6090993  41.7376401   5.4055593
  68.3358256  40.4189765   6.0971726  73.8119404  53.9210118  -1.8138652
  73.9856282  53.3556540  -2.5664800  74.3048296  54.7211013  -1.9959162
  59.6296364  45.9324787   6.2524906  59.0849832  46.7084595   6.3845181
  60.5075714  46.2795591   6.0944028  79.6658795  46.6846541  -0.1948353
  80.1089941  45.9353866  -0.5929229  78.7885306  46.6756677  -0.5774621
  74.7994577  53.2376882  -4.7141754  75.4945481  53.8583575  -4.4954439
  75.1417727  52.3872233  -4.4389376  60.4162386  45.0594683   9.1455063
  59.6744122  45.2077318   9.7319694  60.0955130  45.3202949   8.2821813
  76.6986000  50.6876588  -3.1854423  77.2237324  51.0263860  -3.9105103
  76.6108352  49.7523603  -3.3691289  68.3606049  54.6010661   8.9435453
  68.6693175  54.3559808   9.8158153  69.1581531  54.8057300   8.4554324
  68.3826661  56.7548571   1.1740830  67.9431651  56.2624950   1.8673687
  69.1334778  56.2121539   0.9332905  60.8619000  52.9460112   1.1765458
  61.6877020  52.6463884   0.7964101  60.5113052  52.1767734   1.6255247
  65.8300533  52.2986580   3.2463132  65.2080542  51.6357285   2.9465359
  66.5005400  52.3247712   2.5636779  59.0627605  50.8646438   2.1354392
  58.2259513  50.4368613   1.9538393  59.0351250  51.0578882   3.0725183
  65.9025060  40.7768368  12.8395638  65.9513216  41.6530491  12.4573407
  66.4447574  40.2345761  12.2667281  76.3879906  51.3209491  12.1196775
  75.5975450  51.3033630  11.5801274  76.1513261  51.8597785  12.8745811
  76.5077781  48.1701958   9.4329503  76.5575786  48.0051965  10.3745026
  76.3991704  47.3029217   9.0427384  73.7981543  44.1532886  10.7488810
  74.6991406  44.0139350  10.4572808  73.8729518  44.3187340  11.6886987
  68.1324349  41.5299740   9.5941996  67.2627658  41.8233306   9.3224585
  68.3683829  42.1140185  10.3149260  78.0095978  50.5898899   9.6771525
  77.7180786  50.9528880  10.5134986  77.3968109  49.8765907   9.4984857
  79.2091660  48.1551779   2.1974095  80.0438552  48.5941583   2.3611655
  79.3450789  47.6790432   1.3782341  76.2583166  45.7131514   8.1451583
  76.7337288  45.9059160   7.3370434  75.3348731  45.7690700   7.8994966
  70.8363383  37.7479357   7.1107417  71.3545326  38.4840384   6.7853905
  70.4818515  38.0543351   7.9454176  74.9584835  42.5897274   6.3779888
  75.9102258  42.6895371   6.3992112  74.7888286  41.7975542   6.8877973
  72.9799215  39.6752857   6.5639289  72.3849147  39.9557870   5.8685778
  72.6948911  40.1646758   7.3356030  72.1106705  53.6275784  -4.6758078
  73.0437378  53.5621346  -4.4725203  72.0229918  54.4632051  -5.1343546
  74.7394722  52.9441654  -7.7154131  74.6608353  52.6101518  -6.8218373
  75.5604388  53.4363422  -7.7162658  77.4372913  45.8103394   5.4922188
  77.4049233  44.8719394   5.6781872  78.0473537  45.8887430   4.7588013
  77.5867401  42.6014437   5.5380471  77.0706450  41.8172894   5.3510400
  78.4707350  42.2733154   5.7026991  75.2478128  36.3455453   1.4976284
  75.0502949  36.0370541   2.3819616  75.8577834  37.0717091   1.6274214
  83.2549463  46.8719400   4.6328225  83.9852851  46.6104688   5.1935928
  82.6456408  46.1348122   4.6730293  81.3364760  45.0127263   5.2302676
  80.6097923  44.8783228   4.6219168  80.9212047  45.3204092   6.0359394
  69.1594936  48.7317193  12.9950049  70.0797946  48.9095792  13.1890095
  69.1244519  47.7873238  12.8429748  62.1557009  46.6418227   5.6372830
  62.3743019  47.5735335   5.6560864  62.5682783  46.2826202   6.4227634
  67.0284874  42.2151433  15.0275579  66.9281601  43.1645790  14.9587670
  66.8106416  41.8869672  14.1551649  58.2465361  47.5458698   3.8896445
  57.5528833  47.1312651   3.3766400  58.9938352  47.5879234   3.2929864
  66.8916144  45.6448572  13.8440641  66.4083226  46.4448932  14.0504530
  66.9777083  45.6556517  12.8908085  62.8189482  49.5353107   5.8809074
  63.7732735  49.5037049   5.8139006  62.6202005  49.0743730   6.6959300
  63.4088864  48.1054223   8.4479872  64.2281753  48.5998301   8.4714709
  63.6825672  47.1886191   8.4197440  76.5169996  40.5211496   1.5262167
  77.2930386  41.0107948   1.7986784  75.7918130  40.9469550   1.9834036
  78.9542555  41.2339115   2.5836108  79.5487046  40.9934851   1.8729416
  79.0269138  40.5146246   3.2109644  61.1739710  55.0772726   2.8979272
  61.0394178  54.3173127   2.3317270  60.7571773  55.8013626   2.4308061
  73.1396484  46.0119511  -1.9741882  73.0831685  46.4688062  -2.8134250
  73.6924826  45.2510195  -2.1519039  76.9501290  41.8009243  -1.1491763
  76.6938224  41.4005878  -0.3183555  76.3254158  42.5153037  -1.2741624
  81.2613628  44.5405316   1.3579529  80.7013185  44.6098505   2.1311091
  80.6557131  44.3646301   0.6379025  64.3308836  55.9742043   3.1097715
  64.2141220  56.9187476   3.0076405  63.5101283  55.6715605   3.4983514
  74.2185371  50.6992179  -6.0445692  75.0530975  50.2673377  -6.2268218
  74.0569714  50.5274193  -5.1168798  58.6623778  42.4392357   9.1472069
  59.3082642  41.9291310   9.6359294  58.4540929  43.1761038   9.7215494
  71.1877170  49.5073204  14.6464210  72.0568330  49.6813856  14.2850845
  70.7083922  50.3267621  14.5239939  65.3563350  56.6270305   6.3253643
  66.2590597  56.6593915   6.6420138  65.1300721  55.6970756   6.3399979
  67.1116952  55.3801292   2.9863722  66.1612583  55.3803153   2.8728094
  67.4149439  54.6334026   2.4699757  63.0021269  39.5859974  13.2447083
  63.8652731  39.2296778  13.4550408  62.4286680  39.2473868  13.9322488
  82.8469646  61.2161830   4.0509484  83.4848056  61.0968577   3.3472825
  82.7290489  62.1642674   4.1097437  79.6559352  61.1689258   3.9871009
  79.3177864  61.0530323   3.0991544  80.5249120  60.7680423   3.9672015
  75.5146168  63.0224734  -0.0232100  74.9511033  62.9314671  -0.7915812
  75.3998563  62.2024639   0.4570393  80.1379135  62.3224110   9.9457215
  80.1267776  61.9276908   9.0737718  80.2999775  61.5890182  10.5390986
  73.0610600  64.5175926   2.8152121  73.8531892  64.1766751   2.3998420
  73.3007250  64.6270901   3.7354274  81.0945727  66.6895702  -4.7117635
  80.4433706  67.2749783  -5.0983621  81.8890089  67.2201897  -4.6522598
  75.0201354  63.7784839  -4.3130501  75.7932230  63.2313826  -4.4517625
  75.3726753  64.6429089  -4.1016039  76.8586396  65.1061222   8.8936399
  76.5676262  66.0106852   8.7783065  77.4943381  65.1477749   9.6080468
  77.7842603  62.4838070   5.4837758  78.3806175  62.2594092   4.7694721
  77.8417575  61.7422816   6.0863206  77.3567632  59.9377505  -6.6812051
  77.6093152  59.4159027  -7.4428588  76.4192191  59.7743651  -6.5785367
  82.4010914  58.9413284   1.1262692  83.1874004  58.5232707   0.7753110
  82.6649619  59.8459376   1.2944341  82.5720992  64.3786134  -4.1748651
  81.9366825  64.4520761  -3.4627746  82.2418398  64.9679733  -4.8529571
  87.8019342  58.8788517   2.0295671  88.5344514  58.3087734   2.2633500
  87.0458697  58.4910117   2.4702177  77.0763920  61.8405611  -4.4787676
  76.9600178  61.1650515  -3.8106591  77.1866180  61.3537985  -5.2955523
  79.4195461  61.3015758  -0.7740987  79.0553669  60.7746379  -0.0628065
  80.2762577  60.9114228  -0.9474501  85.3244762  52.5910091   6.4890280
  84.9928087  53.4605502   6.2651495  84.7290375  52.2746375   7.1684310
  79.0600948  56.3305658  -5.7779638  79.2275351  57.1985895  -5.4109167
  78.8698117  56.4932940  -6.7018349  81.8176281  64.7922637   5.8886192
  81.5177005  65.6947676   5.7802000  81.4727341  64.5254820   6.7407345
  75.2688763  61.2436434   1.9222897  74.3439259  61.1112648   2.1300589
  75.5173176  62.0230653   2.4192839  85.2173425  57.3105177   3.5683630
  84.3090303  57.2420586   3.2742391  85.1661021  57.7877122   4.3965455
  79.0390169  58.7863316  -4.7932971  78.9189794  59.2320366  -3.9547491
  78.3442758  59.1348633  -5.3519433  72.6297574  60.8869707   2.7566686
  72.7589955  61.1404186   3.6706098  71.9495025  61.4797415   2.4371341
  76.7997061  71.5566957  -1.1442840  76.7221091  72.5074783  -1.0654359
  76.1958705  71.2112830  -0.4867914  79.2914291  58.7294823  11.5118527
  78.5147625  59.2888743  11.5021392  79.9304854  59.2151606  12.0333397
  87.0835072  55.5121616   5.3461504  86.4409452  55.8054149   4.7001298
  86.5790000  55.3974536   6.1514700  84.7375235  59.2584789  -3.9652637
  85.6493091  59.4912176  -4.1404940  84.2284882  59.8421833  -4.5277559
  77.5460663  61.5380276  11.0736494  78.2875348  62.0765320  10.7971318
  76.8397649  62.1646565  11.2308046  83.0216003  63.6809417   9.6708655
  83.4299359  63.2391827   8.9263288  82.2993264  63.1062044   9.9242848
  79.3747073  58.6182023   7.0442212  80.2208268  59.0421437   7.1876861
  79.3145711  57.9615648   7.7380775  83.3444818  64.2410607   3.4260944
  82.7153680  64.4056321   2.7237012  82.9570480  64.6552217   4.1971908
  87.2234050  65.1765045   0.7805308  86.5385088  65.5563947   0.2302341
  87.3077899  65.7860372   1.5137256  82.5246518  56.2786392   8.7023386
  82.2807450  57.0328452   8.1657662  82.8006449  56.6571739   9.5370633
  84.4784981  62.8225004   7.3800652  84.6901876  63.4656764   6.7035033
  84.4314729  61.9887321   6.9122582  82.0811210  55.4342825   4.2837224
  81.2195689  55.7324078   4.5753961  82.1073645  55.6513224   3.3518256
  78.8972780  63.9785015   0.6911029  79.3611125  64.2572718  -0.0984348
  78.6329578  63.0768460   0.5084120  75.7896861  63.5256497   3.6290793
  76.3598218  63.9543765   2.9908277  76.3804972  63.2439082   4.3274978
  77.8341666  60.1008168  -2.4999405  78.5365709  60.5529211  -2.0325479
  77.5022294  59.4591987  -1.8719512  76.2822027  58.6919924  11.8751804
  75.6520688  59.3736205  12.1087201  76.1758115  58.5803006  10.9304942
  71.5767000  58.3591720   2.8017728  70.7866054  58.6149249   2.3257839
  72.0678247  59.1740058   2.9069769  85.5930809  65.6996960   5.5523009
  86.4148253  65.2977147   5.2705691  85.5893212  65.5965194   6.5039125
  73.5281745  58.7236300  -0.2398795  72.7312908  58.8354994   0.2784700
  73.3007337  59.0622952  -1.1057905  79.3587413  65.2481003   7.7083719
  79.4231845  65.7101410   8.5441891  78.6498336  64.6178368   7.8366029
  69.8604703  58.6122211   5.2332719  70.1112741  59.4969221   5.4990295
  70.3964251  58.4326812   4.4607811  93.6836802  62.0435708   1.9007980
  92.9300511  61.4743106   1.7451985  93.8184343  62.0098373   2.8478615
  79.0735430  66.9149110  -2.4237300  78.9381105  67.7600646  -1.9952452
  79.6145243  67.1168388  -3.1871366  75.5602770  52.9940690  14.2377055
  75.1669715  52.4406889  14.9124699  76.3768910  53.3051269  14.6283573
  72.5264828  64.4324548  -1.8509375  73.0389348  65.2267799  -1.7003810
  73.1787540  63.7350839  -1.9175774  74.3359712  67.5490305   0.2313378
  74.5126341  68.4708269   0.0434362  75.1316546  67.2348724   0.6607758
  78.4770731  54.4098569  11.8297312  79.2180444  55.0105722  11.7501774
  78.7088654  53.6676207  11.2715354  73.6212069  59.5954937  10.1075541
  73.5065584  58.6940194  10.4082640  72.7656587  59.8418633   9.7560358
  80.7003907  67.5372677  11.7063042  80.2567761  66.7509055  11.3883946
  81.3621120  67.7251827  11.0406933  75.4591028  69.0668478   6.2323720
  76.0098453  68.9385542   5.4600714  74.6202504  69.3663367   5.8818613
  82.7985145  67.8175477   9.7344443  82.7803620  68.6384358   9.2424712
  83.7205065  67.6929552   9.9594584  79.2558199  65.3319606  10.5767951
  79.7886536  64.5707894  10.3467259  78.7272280  65.0393258  11.3192106
  82.4227894  50.4379672   6.1061593  82.0792163  51.3281314   6.0300704
  82.7906856  50.2481330   5.2431178  70.4913744  62.7613203  -1.0749805
  71.3288966  63.1710211  -1.2916097  70.6692012  61.8212645  -1.1049611
  82.3878176  60.4288283  -5.3865972  81.8724800  61.1992888  -5.1477584
  82.1155485  59.7553420  -4.7632910  79.9725288  55.2737984  -0.3280733
  79.1166884  54.8844835  -0.5075095  80.3852239  55.3529945  -1.1880948
  81.5024434  52.8084327   4.0710826  80.9989230  52.7714463   3.2578632
  81.7955041  53.7177070   4.1307483  77.7467320  52.8923057   3.0777008
  78.6120317  52.6965866   2.7182898  77.8144829  52.6633409   4.0046365
  87.3612451  63.1820638  -3.4512798  86.5841893  62.8431798  -3.8957636
  88.0403932  63.1873261  -4.1257833  82.1764480  58.3015375  -3.5606190
  81.8714615  58.6161525  -2.7096047  83.1294922  58.3796795  -3.5178857
  80.6210911  64.4605599  -1.9113237  80.0932273  63.7258358  -2.2239999
  80.1198414  65.2380275  -2.1573268  85.6003758  62.6554619   3.2053810
  84.9427432  63.3453881   3.2933938  86.4044157  63.0451051   3.5487796
  75.3529639  55.1225265   0.4493375  75.9273391  54.9000447  -0.2833432
  75.9400622  55.1913960   1.2021976  84.4109216  61.0098992   1.2557752
  84.9241098  61.6428984   1.7579461  85.0610440  60.4100187   0.8901112
  75.6799226  57.1529726  -5.5310740  74.8436538  57.4904413  -5.2101465
  75.5403996  57.0178706  -6.4683603  77.6552307  51.9966514  -0.8231556
  77.0016719  51.6815531  -1.4474941  77.6132781  51.3742254  -0.0971733
  78.7663512  62.2785809  -8.9078263  77.8590573  62.0475062  -8.7087115
  79.2634544  61.4823428  -8.7204282  81.6731591  70.9883316  -5.9881577
  80.9993289  71.2915013  -5.3796619  82.0597413  71.7912397  -6.3376120
  80.8890047  58.4848448   3.5016092  79.9712609  58.7063395   3.3437780
  81.3050191  58.5594758   2.6427799  81.6725095  59.8839863  -1.3681228
  82.4196914  60.3961260  -1.6774106  81.9416684  59.5623916  -0.5076834
  79.9451745  62.3798404  -4.3854273  79.0362964  62.0957437  -4.2881804
  79.9746829  62.7997482  -5.2450967  85.1771013  65.9904993  -0.6163106
  84.7233340  65.1495903  -0.5597915  84.5464979  66.6266392  -0.2788326
  84.1203932  56.9196979   0.6137562  83.3826689  56.4074366   0.9447804
  84.3730706  56.4797361  -0.1979162  83.6203952  67.8281490   0.3186712
  83.9126926  68.3886547  -0.4000922  84.1302572  68.1210051   1.0739871
  84.2215559  49.6973231   1.2079331  84.5274436  48.8370595   0.9205246
  84.9468164  50.2890852   1.0078325  70.5139915  60.1003918  -0.4039071
  70.3164315  59.5073279  -1.1288005  69.9586579  59.7956128   0.3136868
  78.4936639  59.9927025   1.7155522  78.5485249  59.0400861   1.6397999
  77.6827841  60.1486464   2.1996820  79.6427833  63.9207148  -7.0466195
  79.2047263  63.2043007  -7.5060557  80.3838274  64.1483262  -7.6081103
  76.4328999  58.6104084  -0.5254099  75.6196865  58.9098255  -0.1188907
  76.9287993  58.2159773   0.1920383  78.5837577  68.6061841   1.4080166
  78.5413756  68.8322687   0.4788698  79.5000276  68.3725216   1.5565967
  82.0303211  59.0745909   8.3060795  82.3852598  59.3017382   9.1655260
  82.6775342  59.4064286   7.6838050  87.7600948  62.1964345  -0.9889876
  87.6218846  62.3865941  -1.9168687  87.4037167  62.9583727  -0.5321825
  75.9243074  56.1822440   5.0907136  76.5642453  56.0411199   4.3930099
  75.0920604  55.8956953   4.7145738  87.7870327  64.2640872   4.0221395
  88.2206834  64.1716161   4.8704449  88.5001908  64.2398372   3.3841411
  76.7003378  65.4824870   1.2042128  77.4943976  64.9875190   1.0024703
  75.9895070  64.9542733   0.8409834  81.5198222  67.8642966   5.5554496
  81.5735244  68.4333902   6.3232212  80.6513004  68.0344851   5.1908533
  73.0086141  59.6267952  -2.7198119  72.0783729  59.5652407  -2.5028157
  73.1043613  59.1043905  -3.5161478  72.9271690  56.1522765  -0.1319877
  73.1878508  57.0668098  -0.2410717  73.7488863  55.6847207   0.0176735
  74.3996616  57.5660522   7.0378947  75.0719669  57.3577884   6.3891596
  73.5726402  57.3682608   6.5984179  88.6485877  64.3064572   6.5554281
  88.8421767  65.2110383   6.8013556  88.5486495  63.8471991   7.3892866
  80.3022188  54.1922463   9.0544608  79.6550103  54.8912413   8.9609084
  81.0723203  54.6258607   9.4220856  83.7100986  64.4571315  12.1295161
  83.5586492  64.2281867  11.2125245  83.7005665  65.4141916  12.1426506
  80.4786322  62.0303228   7.1141428  81.4078382  62.1814387   6.9410395
  80.0577352  62.1187249   6.2590074  79.2774654  66.0553892   4.8839965
  79.1385739  65.6872677   5.7565903  78.4889250  66.5701532   4.7123923
  79.8722806  71.1562989  -3.7734498  80.0474561  70.6851032  -2.9588875
  79.1855594  71.7828755  -3.5453237  80.8279869  65.4335495   2.2728803
  80.4929701  65.3936265   3.1686453  80.3283815  64.7680211   1.7999213
  74.8024113  60.8403125   7.7981384  74.6643911  60.1083364   8.3992923
  75.7129036  60.7512025   7.5165572  83.7639061  62.7791529  -7.4534137
  83.1468231  62.0538357  -7.5501085  83.2955549  63.5400890  -7.7967063
  77.4306413  60.5523084   7.2865064  78.1406032  59.9116276   7.2451682
  77.3875722  60.8035979   8.2091245  85.4193192  67.4890438  10.2071643
  85.3605738  66.8049658   9.5402226  85.8212711  68.2309428   9.7552269
  76.1435347  57.5388302   9.1060703  75.6072704  57.0879041   9.7582300
  75.5552056  57.6734211   8.3631168  74.4383891  74.3052351   3.0005362
  74.6780489  74.9370876   3.6784381  73.5953087  73.9540391   3.2870721
  75.5537606  56.9976954  -8.3312833  74.6767073  56.8765754  -8.6950586
  76.0295359  56.2063032  -8.5833944  85.4210599  65.4530022   8.4385623
  84.5337378  65.1155943   8.5612022  85.9909151  64.7213053   8.6754388
  67.0739747  61.7854113   1.7628674  67.7610786  61.4715843   1.1749690
  66.9187875  62.6895478   1.4895926  71.8774469  56.6744310   6.1913698
  71.7932657  56.0669979   5.4564108  71.0557175  57.1653328   6.1923194
  78.9511753  70.1131474   5.4046866  78.8781924  70.9186445   5.9166171
  78.5089146  70.3123440   4.5794887  78.7401532  69.3503244  -1.0850312
  77.9569054  69.8924924  -0.9912088  79.4394278  69.8677224  -0.6856071
  82.0498183  55.1597873   1.5583893  82.5466882  54.4067836   1.2384963
  81.2785164  55.1962190   0.9927102  89.9027940  60.8638239   3.2002184
  89.8917816  61.7462954   2.8296118  89.0345319  60.5109790   3.0056722
  81.4110436  70.0118308   7.5605025  82.1238409  70.6465773   7.4880926
  80.9200465  70.1082174   6.7445027  83.1327963  63.9169561  -0.8677684
  82.1984242  64.0371023  -1.0372979  83.3104632  63.0142027  -1.1317674
  78.6333151  57.3015256   1.2855578  78.2630939  56.7486297   1.9736483
  79.1292244  56.6973390   0.7330578  86.5200515  59.7586880  -0.3327650
  86.9860967  60.5914871  -0.4067347  86.9708015  59.2931861   0.3717609
  76.4622350  67.7612751   8.3810596  77.1631809  68.3949234   8.5339990
  75.9917465  68.1027483   7.6206235  84.5876746  66.1030701  -3.3341497
  84.8636590  65.9887296  -2.4247623  83.7181244  65.7048186  -3.3729324
  84.4917177  52.1267467   3.7063252  83.5780257  52.3571694   3.8745459
  84.9210279  52.2105911   4.5577284  84.2623636  60.3157359   6.2063146
  83.6095086  60.5633266   5.5515599  84.6404016  59.5021497   5.8725623
  81.2230810  70.3517052   0.3091316  81.4053204  69.5338708   0.7719068
  82.0463796  70.5684744  -0.1283794  81.5572975  69.2785237  -2.4293635
  82.0860742  68.7677692  -3.0423473  81.8201195  68.9627767  -1.5648102
  80.3111209  61.0577170  12.6929183  79.6351846  60.9571299  13.3631558
  81.1338843  60.9016384  13.1565180  72.0590068  67.2949106   5.3141698
  72.6443505  66.5492794   5.4469602  71.8614906  67.6053063   6.1978362
  74.9128723  70.3300354   0.3304141  74.2439098  70.8146481  -0.1531819
  74.7741593  70.5769574   1.2447519  66.6507723  59.8654707   4.0346141
  66.6891822  59.3318297   4.8283259  66.1448016  59.3389912   3.4157119
  79.0533992  72.3644097   6.9286799  79.6052300  72.5275719   7.6935884
  79.3940185  72.9548535   6.2566824  74.0298485  54.7119247   7.5308684
  74.0939811  55.5734078   7.1186081  73.9665605  54.0993249   6.7981042
  73.5050758  56.7842380  11.1781718  74.1322796  56.4019457  11.7919242
  72.6478676  56.5656582  11.5437410  83.9044866  67.1905355  12.7835453
  84.4484770  67.8035313  12.2890408  83.3231711  67.7484933  13.3002466
  70.2816300  58.5918809  -2.8899927  70.5769741  57.6829487  -2.9432874
  69.3804336  58.5706548  -3.2118925  82.1902379  70.3126073   3.9150481
  82.0653518  69.5115813   3.4061427  82.8481470  70.8072266   3.4264451
  73.8110547  56.6674805   3.0927621  73.0897133  57.2810773   2.9535095
  74.6003803  57.2032570   3.0144267  84.2537287  68.1135093   5.5430031
  83.3067623  67.9940444   5.4708358  84.6020061  67.2257591   5.6256293
  76.6136861  54.0029232   9.3668273  77.1371263  54.2491528  10.1294582
  76.3949194  54.8349267   8.9471410  72.0104142  56.2732906  -2.7660602
  71.6816848  55.3930285  -2.9485496  72.3643513  56.2180575  -1.8784213
  81.2583721  67.9087809   1.7434383  81.1108683  66.9804517   1.9241953
  82.0837214  67.9307900   1.2591459  75.1245965  56.5605876  -2.3985124
  75.4642038  57.0891797  -3.1206516  75.5718085  56.8986282  -1.6226558
  84.8617843  68.7316368   2.8299256  85.7864390  68.5259229   2.6923707
  84.6933146  68.4832769   3.7388598  77.8189406  54.9442927   7.0517944
  77.4786226  54.1450740   7.4538623  77.1128412  55.2444638   6.4794777
  78.4705878  52.0292239   5.5045267  79.2931947  51.5552718   5.3824157
  78.7143941  52.8082723   6.0043953  77.1114112  55.0580498  -4.1991832
  77.8322475  55.4361751  -4.7028115  76.4879416  55.7769375  -4.0956854
  81.2545235  55.7625647  -3.2633499  81.4708849  56.6450285  -3.5644671
  80.7739302  55.3711860  -3.9927857  75.9944456  58.7211360   3.3137245
  75.8489037  59.0351663   4.2061527  75.5169660  59.3396260   2.7608144
  77.8540839  55.7113908   3.3618135  77.8402408  54.8155001   3.0250433
  78.5713267  55.7184572   3.9956421  79.7066970  56.1451248   5.4071262
  79.4484748  57.0668319   5.4055593  79.1752010  55.7481683   6.0971726
  84.6513159  69.2502035  -1.8138652  84.8250036  68.6848458  -2.5664800
  85.1442050  70.0502930  -1.9959162  70.4690119  61.2616704   6.2524906
  69.9243587  62.0376512   6.3845181  71.3469468  61.6087509   6.0944028
  77.2577735  54.5928288  -1.3694295  77.3793646  53.6644934  -1.1703408
  76.9679778  54.6066974  -2.2815980  80.1268926  52.2783199   1.7672425
  80.1490622  52.3422532   0.8124404  80.5436985  51.4387707   1.9612931
  90.5052550  62.0138458  -0.1948353  90.9483696  61.2645783  -0.5929229
  89.6279060  62.0048595  -0.5774621  85.6388331  68.5668800  -4.7141754
  86.3339236  69.1875492  -4.4954439  85.9811481  67.7164151  -4.4389376
  71.2556140  60.3886601   9.1455063  70.5137876  60.5369236   9.7319694
  70.9348885  60.6494866   8.2821813  87.5379754  66.0168505  -3.1854423
  88.0631078  66.3555778  -3.9105103  87.4502107  65.0815521  -3.3691289
  79.1999803  69.9302579   8.9435453  79.5086930  69.6851726   9.8158153
  79.9975285  70.1349217   8.4554324  79.2220415  72.0840489   1.1740830
  78.7825405  71.5916867   1.8673687  79.9728532  71.5413456   0.9332905
  71.7012754  68.2752029   1.1765458  72.5270774  67.9755801   0.7964101
  71.3506806  67.5059652   1.6255247  76.6694287  67.6278498   3.2463132
  76.0474297  66.9649203   2.9465359  77.3399154  67.6539630   2.5636779
  69.9021359  66.1938356   2.1354392  69.0653267  65.7660530   1.9538393
  69.8745005  66.3870799   3.0725183  76.7418815  56.1060286  12.8395638
  76.7906970  56.9822408  12.4573407  77.2841329  55.5637679  12.2667281
  87.2273660  66.6501409  12.1196775  86.4369204  66.6325548  11.5801274
  86.9907015  67.1889703  12.8745811  87.3471536  63.4993875   9.4329503
  87.3969540  63.3343883  10.3745026  87.2385459  62.6321134   9.0427384
  76.2307794  66.1782421  -3.2778408  76.3795915  66.8617885  -3.9311735
  77.0374238  66.1587511  -2.7628952  84.6375298  59.4824803  10.7488810
  85.5385161  59.3431268  10.4572808  84.7123272  59.6479258  11.6886987
  78.9718103  56.8591658   9.5941996  78.1021413  57.1525224   9.3224585
  79.2077584  57.4432103  10.3149260  88.8489732  65.9190817   9.6771525
  88.5574541  66.2820797  10.5134986  88.2361864  65.2057825   9.4984857
  90.0485415  63.4843697   2.1974095  90.8832306  63.9233501   2.3611655
  90.1844543  63.0082350   1.3782341  87.0976921  61.0423431   8.1451583
  87.5731042  61.2351078   7.3370434  86.1742486  61.0982617   7.8994966
  73.9860427  62.2047599  -2.2717339  73.7406469  61.3009929  -2.0737129
  74.1556342  62.2064749  -3.2137861  81.6757137  53.0771275   7.1107417
  82.1939081  53.8132302   6.7853905  81.3212270  53.3835268   7.9454176
  73.2556075  57.9375956  -4.7731178  72.5625320  58.0120311  -5.4291142
  73.0107827  57.1736300  -4.2509661  81.9269731  49.4971558   2.6308313
  82.2071485  48.8294747   3.2568740  82.7120338  49.6900653   2.1182977
  79.7303200  68.6730551  -5.8066661  79.1577167  69.2920739  -6.2596189
  80.3035993  69.2229913  -5.2726739  85.7978590  57.9189192   6.3779888
  86.7496012  58.0187289   6.3992112  85.6282040  57.1267460   6.8877973
  83.8192969  55.0044775   6.5639289  83.2242901  55.2849787   5.8685778
  83.5342666  55.4938676   7.3356030  82.9500460  68.9567702  -4.6758078
  83.8831133  68.8913263  -4.4725203  82.8623672  69.7923968  -5.1343546
  85.5788476  68.2733572  -7.7154131  85.5002108  67.9393435  -6.8218373
  86.3998143  68.7655340  -7.7162658  88.2766667  61.1395311   5.4922188
  88.2442987  60.2011312   5.6781872  88.8867291  61.2179348   4.7588013
  80.1149998  60.0091364  -8.4650608  81.0609103  59.8797572  -8.3962190
  79.7364243  59.2706026  -7.9881180  88.4261156  57.9306355   5.5380471
  87.9100204  57.1464811   5.3510400  89.3101104  57.6025071   5.7026991
  86.0871883  51.6747370   1.4976284  85.8896704  51.3662458   2.3819616
  86.6971588  52.4009009   1.6274214  94.0943217  62.2011318   4.6328225
  94.8246606  61.9396606   5.1935928  93.4850163  61.4640040   4.6730293
  92.1758514  60.3419181   5.2302676  91.4491678  60.2075146   4.6219168
  91.7605801  60.6496009   6.0359394  79.9988691  64.0609110  12.9950049
  80.9191700  64.2387709  13.1890095  79.9638274  63.1165156  12.8429748
  78.2992915  57.9341341  -8.5295723  77.3924371  57.6374453  -8.4533009
  78.5768896  57.6371159  -9.3961437  69.2170856  59.2547704   1.9203324
  68.8973640  58.4013012   1.6277698  68.6704284  59.4696282   2.6761291
  72.9950763  61.9710145   5.6372830  73.2136773  62.9027253   5.6560864
  73.4076537  61.6118119   6.4227634  79.9154981  52.4778230  -2.3751481
  79.1055709  52.1325315  -1.9996235  80.6039398  52.1685774  -1.7863870
  81.8445529  51.5556277  -0.7527185  82.3976568  51.9751730  -0.0937162
  82.0815616  50.6292025  -0.7104229  77.8678629  57.5443351  15.0275579
  77.7675356  58.4937708  14.9587670  77.6500171  57.2161590  14.1551649
  77.0691700  54.7928276  -8.3883744  77.9310864  55.1183174  -8.1287926
  77.2542044  54.0059772  -8.9010678  69.0859116  62.8750615   3.8896445
  68.3922587  62.4604568   3.3766400  69.8332107  62.9171152   3.2929864
  85.2224336  53.6656802  -1.2448521  84.6423006  54.3241606  -1.6270468
  84.9560269  52.8434147  -1.6561103  83.6727903  53.0661860   0.9572800
  84.1727681  53.1778394   0.1487119  84.3163511  52.7622913   1.5973608
  77.7309899  60.9740490  13.8440641  77.2476980  61.7740850  14.0504530
  77.8170838  60.9848434  12.8908085  70.9995858  62.8068869   1.7662460
  70.9766546  62.9056557   0.8144343  71.3096495  63.6534020   2.0879626
  73.6583236  64.8645024   5.8809074  74.6126490  64.8328967   5.8139006
  73.4595760  64.4035648   6.6959300  74.2482618  63.4346140   8.4479872
  75.0675507  63.9290219   8.4714709  74.5219426  62.5178108   8.4197440
  84.0049214  55.8256893  -2.1892172  83.1175070  56.1106543  -2.4071978
  84.4203204  55.6650656  -3.0364895  87.3563751  55.8503414   1.5262167
  88.1324141  56.3399866   1.7986784  86.6311885  56.2761468   1.9834036
  89.7936309  56.5631033   2.5836108  90.3880800  56.3226769   1.8729416
  89.8662893  55.8438163   3.2109644  72.0133465  70.4064644   2.8979272
  71.8787933  69.6465045   2.3317270  71.5965527  71.1305544   2.4308061
  83.1492428  65.5901567  -8.0944152  83.8528278  65.7951570  -7.4786497
  82.4255077  66.1578329  -7.8295069  83.9790238  61.3411429  -1.9741882
  83.9225440  61.7979980  -2.8134250  84.5318581  60.5802113  -2.1519039
  87.7895044  57.1301160  -1.1491763  87.5331978  56.7297796  -0.3183555
  87.1647912  57.8444954  -1.2741624  92.1007382  59.8697234   1.3579529
  91.5406940  59.9390423   2.1311091  91.4950885  59.6938218   0.6379025
  75.1702591  71.3033961   3.1097715  75.0534975  72.2479393   3.0076405
  74.3495037  71.0007522   3.4983514  85.0579125  66.0284096  -6.0445692
  85.8924729  65.5965295  -6.2268218  84.8963468  65.8566110  -5.1168798
  84.7125018  62.5316210  -4.6789353  84.6573821  62.3660481  -5.6200909
  84.0871073  63.2392243  -4.5227163  69.5017533  57.7684274   9.1472069
  70.1476396  57.2583228   9.6359294  69.2934684  58.5052956   9.7215494
  82.0270925  64.8365122  14.6464210  82.8962084  65.0105774  14.2850845
  81.5477676  65.6559538  14.5239939  78.0221143  52.0324319  -5.1004035
  78.0099813  52.9766159  -4.9435764  78.9144565  51.8494464  -5.3944573
  76.1957105  71.9562223   6.3253643  77.0984352  71.9885833   6.6420138
  75.9694475  71.0262674   6.3399979  77.9510707  70.7093209   2.9863722
  77.0006338  70.7095071   2.8728094  78.2543193  69.9625944   2.4699757
  81.8373262  48.6267095  -0.8458098  81.0705658  48.0725582  -0.7001415
  82.2483967  48.6988964   0.0156054  73.8415024  54.9151891  13.2447083
  74.7046485  54.5588696  13.4550408  73.2680434  54.5765786  13.9322488
  93.6863400  76.5453748   4.0509484  94.3241810  76.4260495   3.3472825
  93.5684243  77.4934592   4.1097437  90.4953107  76.4981176   3.9871009
  90.1571618  76.3822240   3.0991544  91.3642875  76.0972341   3.9672015
  86.3539922  78.3516652  -0.0232100  85.7904788  78.2606589  -0.7915812
  86.2392317  77.5316557   0.4570393  90.9772890  77.6516027   9.9457215
  90.9661530  77.2568826   9.0737718  91.1393529  76.9182100  10.5390986
  83.9004354  79.8467844   2.8152121  84.6925646  79.5058668   2.3998420
  84.1401005  79.9562819   3.7354274  87.6980151  80.4353139   8.8936399
  87.4070017  81.3398770   8.7783065  88.3337135  80.4769667   9.6080468
  88.6236358  77.8129988   5.4837758  89.2199930  77.5886010   4.7694721
  88.6811329  77.0714733   6.0863206  93.2404669  74.2705201   1.1262692
  94.0267758  73.8524625   0.7753110  93.5043373  75.1751294   1.2944341
  98.6413096  74.2080435   2.0295671  99.3738268  73.6379651   2.2633500
  97.8852452  73.8202035   2.4702177  90.2589216  76.6307676  -0.7740987
  89.8947423  76.1038297  -0.0628065  91.1156332  76.2406145  -0.9474501
  96.1638516  67.9202009   6.4890280  95.8321841  68.7897420   6.2651495
  95.5684130  67.6038293   7.1684310  92.6570036  80.1214555   5.8886192
  92.3570759  81.0239594   5.7802000  92.3121095  79.8546738   6.7407345
  86.1082517  76.5728352   1.9222897  85.1833014  76.4404566   2.1300589
  86.3566931  77.3522571   2.4192839  96.0567180  72.6397095   3.5683630
  95.1484057  72.5712503   3.2742391  96.0054776  73.1169040   4.3965455
  83.4691328  76.2161625   2.7566686  83.5983710  76.4696104   3.6706098
  82.7888780  76.8089333   2.4371341  90.1308046  74.0586741  11.5118527
  89.3541380  74.6180661  11.5021392  90.7698609  74.5443524  12.0333397
  97.9228826  70.8413533   5.3461504  97.2803206  71.1346066   4.7001298
  97.4183755  70.7266454   6.1514700  88.3854418  76.8672194  11.0736494
  89.1269102  77.4057238  10.7971318  87.6791403  77.4938483  11.2308046
  93.8609757  79.0101334   9.6708655  94.2693114  78.5683745   8.9263288
  93.1387019  78.4353962   9.9242848  90.2140828  73.9473941   7.0442212
  91.0602023  74.3713355   7.1876861  90.1539465  73.2907565   7.7380775
  94.1838572  79.5702525   3.4260944  93.5547435  79.7348239   2.7237012
  93.7964234  79.9844135   4.1971908  93.3640273  71.6078309   8.7023386
  93.1201205  72.3620370   8.1657662  93.6400203  71.9863657   9.5370633
  95.3178736  78.1516922   7.3800652  95.5295631  78.7948682   6.7035033
  95.2708484  77.3179238   6.9122582  92.9204965  70.7634742   4.2837224
  92.0589444  71.0615996   4.5753961  92.9467399  70.9805141   3.3518256
  89.7366534  79.3076933   0.6911029  90.2004880  79.5864636  -0.0984348
  89.4723332  78.4060378   0.5084120  86.6290615  78.8548415   3.6290793
  87.1991972  79.2835683   2.9908277  87.2198727  78.5730999   4.3274978
  88.6735420  75.4300085  -2.4999405  89.3759463  75.8821129  -2.0325479
  88.3416049  74.7883904  -1.8719512  87.1215782  74.0211842  11.8751804
  86.4914442  74.7028123  12.1087201  87.0151869  73.9094924  10.9304942
  82.4160754  73.6883638   2.8017728  81.6259808  73.9441167   2.3257839
  82.9072001  74.5031976   2.9069769  96.4324564  81.0288877   5.5523009
  97.2542007  80.6269065   5.2705691  96.4286966  80.9257111   6.5039125
  84.3675499  74.0528217  -0.2398795  83.5706663  74.1646912   0.2784700
  84.1401092  74.3914870  -1.1057905  90.1981167  80.5772921   7.7083719
  90.2625600  81.0393328   8.5441891  89.4892091  79.9470285   7.8366029
  80.6998457  73.9414129   5.2332719  80.9506495  74.8261138   5.4990295
  81.2358005  73.7618730   4.4607811  86.3996524  68.3232608  14.2377055
  86.0063470  67.7698806  14.9124699  87.2162665  68.6343186  14.6283573
  83.3658582  79.7616466  -1.8509375  83.8783103  80.5559716  -1.7003810
  84.0181295  79.0642757  -1.9175774  89.3164485  69.7390487  11.8297312
  90.0574199  70.3397640  11.7501774  89.5482408  68.9968125  11.2715354
  84.4605823  74.9246854  10.1075541  84.3459338  74.0232111  10.4082640
  83.6050341  75.1710551   9.7560358  91.5397661  82.8664595  11.7063042
  91.0961515  82.0800973  11.3883946  92.2014875  83.0543745  11.0406933
  86.2984782  84.3960396   6.2323720  86.8492207  84.2677460   5.4600714
  85.4596258  84.6955285   5.8818613  93.6378899  83.1467394   9.7344443
  93.6197374  83.9676276   9.2424712  94.5598819  83.0221470   9.9594584
  90.0951953  80.6611524  10.5767951  90.6280290  79.8999812  10.3467259
  89.5666034  80.3685176  11.3192106  93.2621648  65.7671590   6.1061593
  92.9185918  66.6573232   6.0300704  93.6300611  65.5773248   5.2431178
  81.3307499  78.0905120  -1.0749805  82.1682721  78.5002129  -1.2916097
  81.5085767  77.1504563  -1.1049611  90.8119042  70.6029902  -0.3280733
  89.9560638  70.2136752  -0.5075095  91.2245994  70.6821863  -1.1880948
  92.3418189  68.1376245   4.0710826  91.8382984  68.1006380   3.2578632
  92.6348795  69.0468988   4.1307483  88.5861075  68.2214975   3.0777008
  89.4514071  68.0257783   2.7182898  88.6538583  67.9925327   4.0046365
  96.4397512  77.9846537   3.2053810  95.7821186  78.6745798   3.2933938
  97.2437911  78.3742969   3.5487796  86.1923394  70.4517183   0.4493375
  86.7667145  70.2292364  -0.2833432  86.7794376  70.5205877   1.2021976
  95.2502971  76.3390910   1.2557752  95.7634853  76.9720901   1.7579461
  95.9004195  75.7392105   0.8901112  88.4946061  67.3258432  -0.8231556
  87.8410474  67.0107449  -1.4474941  88.4526535  66.7034172  -0.0971733
  91.7283802  73.8140365   3.5016092  90.8106363  74.0355312   3.3437780
  92.1443945  73.8886676   2.6427799  94.9597687  72.2488897   0.6137562
  94.2220443  71.7366283   0.9447804  95.2124460  71.8089279  -0.1979162
  95.0609314  65.0265149   1.2079331  95.3668191  64.1662513   0.9205246
  95.7861919  65.6182769   1.0078325  81.3533670  75.4295836  -0.4039071
  81.1558070  74.8365196  -1.1288005  80.7980334  75.1248046   0.3136868
  89.3330394  75.3218942   1.7155522  89.3879003  74.3692779   1.6397999
  88.5221596  75.4778381   2.1996820  87.2722754  73.9396002  -0.5254099
  86.4590619  74.2390172  -0.1188907  87.7681748  73.5451691   0.1920383
  92.8696965  74.4037826   8.3060795  93.2246353  74.6309300   9.1655260
  93.5169096  74.7356203   7.6838050  86.7636828  71.5114357   5.0907136
  87.4036208  71.3703117   4.3930099  85.9314359  71.2248871   4.7145738
  87.5397132  80.8116788   1.2042128  88.3337731  80.3167108   1.0024703
  86.8288825  80.2834651   0.8409834  92.3591977  83.1934883   5.5554496
  92.4128999  83.7625820   6.3232212  91.4906758  83.3636768   5.1908533
  83.8479896  74.9559870  -2.7198119  82.9177484  74.8944325  -2.5028157
  83.9437368  74.4335822  -3.5161478  83.7665445  71.4814682  -0.1319877
  84.0272262  72.3960016  -0.2410717  84.5882617  71.0139125   0.0176735
  85.2390370  72.8952440   7.0378947  85.9113423  72.6869802   6.3891596
  84.4120157  72.6974526   6.5984179  99.4879631  79.6356490   6.5554281
  99.6815521  80.5402300   6.8013556  99.3880250  79.1763909   7.3892866
  91.1415942  69.5214381   9.0544608  90.4943857  70.2204330   8.9609084
  91.9116957  69.9550524   9.4220856  94.5494740  79.7863233  12.1295161
  94.3980246  79.5573784  11.2125245  94.5399419  80.7433834  12.1426506
  91.3180076  77.3595145   7.1141428  92.2472136  77.5106305   6.9410395
  90.8971106  77.4479166   6.2590074  90.1168408  81.3845810   4.8839965
  89.9779494  81.0164594   5.7565903  89.3283004  81.8993449   4.7123923
  91.6673623  80.7627413   2.2728803  91.3323456  80.7228183   3.1686453
  91.1677569  80.0972128   1.7999213  85.6417867  76.1695043   7.7981384
  85.5037665  75.4375281   8.3992923  86.5522791  76.0803943   7.5165572
  88.2700168  75.8815002   7.2865064  88.9799787  75.2408194   7.2451682
  88.2269476  76.1327897   8.2091245  96.2586947  82.8182355  10.2071643
  96.1999493  82.1341575   9.5402226  96.6606465  83.5601345   9.7552269
  86.9829102  72.8680220   9.1060703  86.4466459  72.4170958   9.7582300
  86.3945810  73.0026129   8.3631168  96.2604354  80.7821939   8.4385623
  95.3731133  80.4447861   8.5612022  96.8302905  80.0504970   8.6754388
  77.9133501  77.1146031   1.7628674  78.6004541  76.8007761   1.1749690
  77.7581630  78.0187396   1.4895926  82.7168223  72.0036227   6.1913698
  82.6326412  71.3961897   5.4564108  81.8950930  72.4945246   6.1923194
  89.7905507  85.4423392   5.4046866  89.7175679  86.2478363   5.9166171
  89.3482900  85.6415357   4.5794887  92.8891937  70.4889791   1.5583893
  93.3860637  69.7359753   1.2384963  92.1178919  70.5254108   0.9927102
 100.7421694  76.1930157   3.2002184 100.7311571  77.0754872   2.8296118
  99.8739074  75.8401707   3.0056722  92.2504191  85.3410226   7.5605025
  92.9632163  85.9757690   7.4880926  91.7594219  85.4374092   6.7445027
  89.4726906  72.6307174   1.2855578  89.1024693  72.0778214   1.9736483
  89.9685998  72.0265307   0.7330578  87.3016104  83.0904669   8.3810596
  88.0025564  83.7241152   8.5339990  86.8311219  83.4319401   7.6206235
  95.3310932  67.4559385   3.7063252  94.4174012  67.6863611   3.8745459
  95.7604033  67.5397829   4.5577284  95.1017390  75.6449276   6.2063146
  94.4488841  75.8925184   5.5515599  95.4797770  74.8313415   5.8725623
  91.1504963  76.3869088  12.6929183  90.4745600  76.2863217  13.3631558
  91.9732597  76.2308301  13.1565180  82.8983822  82.6241024   5.3141698
  83.4837259  81.8784712   5.4469602  82.7008661  82.9344981   6.1978362
  77.4901477  75.1946624   4.0346141  77.5285577  74.6610215   4.8283259
  76.9841770  74.6681830   3.4157119  89.8927746  87.6936015   6.9286799
  90.4446054  87.8567636   7.6935884  90.2333940  88.2840453   6.2566824
  84.8692239  70.0411165   7.5308684  84.9333566  70.9025996   7.1186081
  84.8059360  69.4285166   6.7981042  84.3444512  72.1134297  11.1781718
  84.9716551  71.7311375  11.7919242  83.4872431  71.8948499  11.5437410
  94.7438621  82.5197273  12.7835453  95.2878525  83.1327231  12.2890408
  94.1625465  83.0776851  13.3002466  81.1210055  73.9210726  -2.8899927
  81.4163496  73.0121405  -2.9432874  80.2198091  73.8998466  -3.2118925
  84.6504302  71.9966723   3.0927621  83.9290888  72.6102691   2.9535095
  85.4397558  72.5324488   3.0144267  95.0931042  83.4427011   5.5430031
  94.1461377  83.3232362   5.4708358  95.4413815  82.5549509   5.6256293
  87.4530615  69.3321150   9.3668273  87.9765017  69.5783446  10.1294582
  87.2342949  70.1641184   8.9471410  82.8497896  71.6024824  -2.7660602
  82.5210603  70.7222203  -2.9485496  83.2037267  71.5472493  -1.8784213
  85.9639720  71.8897794  -2.3985124  86.3035792  72.4183715  -3.1206516
  86.4111840  72.2278200  -1.6226558  88.6583160  70.2734845   7.0517944
  88.3179981  69.4742658   7.4538623  87.9522167  70.5736555   6.4794777
  89.3099632  67.3584157   5.5045267  90.1325701  66.8844635   5.3824157
  89.5537696  68.1374641   6.0043953  87.9507867  70.3872415  -4.1991832
  88.6716229  70.7653668  -4.7028115  87.3273171  71.1061292  -4.0956854
  92.0938990  71.0917564  -3.2633499  92.3102604  71.9742202  -3.5644671
  91.6133057  70.7003778  -3.9927857  86.8338211  74.0503278   3.3137245
  86.6882792  74.3643581   4.2061527  86.3563415  74.6688178   2.7608144
  88.6934594  71.0405826   3.3618135  88.6796163  70.1446919   3.0250433
  89.4107022  71.0476489   3.9956421  90.5460725  71.4743166   5.4071262
  90.2878502  72.3960237   5.4055593  90.0145765  71.0773600   6.0971726
  81.3083873  76.5908622   6.2524906  80.7637341  77.3668430   6.3845181
  82.1863223  76.9379427   6.0944028  88.0971490  69.9220206  -1.3694295
  88.2187401  68.9936852  -1.1703408  87.8073532  69.9358892  -2.2815980
  90.9662680  67.6075116   1.7672425  90.9884377  67.6714449   0.8124404
  91.3830739  66.7679625   1.9612931  82.0949895  75.7178518   9.1455063
  81.3531631  75.8661154   9.7319694  81.7742639  75.9786784   8.2821813
  90.0393558  85.2594497   8.9435453  90.3480684  85.0143643   9.8158153
  90.8369040  85.4641135   8.4554324  82.5406509  83.6043947   1.1765458
  83.3664529  83.3047719   0.7964101  82.1900561  82.8351570   1.6255247
  87.5088042  82.9570415   3.2463132  86.8868051  82.2941120   2.9465359
  88.1792909  82.9831547   2.5636779  80.7415114  81.5230274   2.1354392
  79.9047022  81.0952448   1.9538393  80.7138759  81.7162717   3.0725183
  87.5812569  71.4352203  12.8395638  87.6300725  72.3114326  12.4573407
  88.1235083  70.8929596  12.2667281  98.0667415  81.9793327  12.1196775
  97.2762959  81.9617465  11.5801274  97.8300770  82.5181620  12.8745811
  98.1865290  78.8285793   9.4329503  98.2363295  78.6635800  10.3745026
  98.0779213  77.9613052   9.0427384  95.4769052  74.8116721  10.7488810
  96.3778915  74.6723186  10.4572808  95.5517027  74.9771176  11.6886987
  89.8111858  72.1883576   9.5941996  88.9415167  72.4817142   9.3224585
  90.0471338  72.7724021  10.3149260  99.6883487  81.2482734   9.6771525
  99.3968295  81.6112715  10.5134986  99.0755618  80.5349743   9.4984857
  97.9370675  76.3715349   8.1451583  98.4124797  76.5642995   7.3370434
  97.0136240  76.4274535   7.8994966  84.8254182  77.5339516  -2.2717339
  84.5800224  76.6301846  -2.0737129  84.9950096  77.5356667  -3.2137861
  92.5150892  68.4063193   7.1107417  93.0332835  69.1424220   6.7853905
  92.1606024  68.7127186   7.9454176  84.0949829  73.2667874  -4.7731178
  83.4019074  73.3412229  -5.4291142  83.8501581  72.5028217  -4.2509661
  92.7663486  64.8263475   2.6308313  93.0465239  64.1586664   3.2568740
  93.5514093  65.0192571   2.1182977  96.6372344  73.2481109   6.3779888
  97.5889767  73.3479207   6.3992112  96.4675794  72.4559378   6.8877973
  94.6586724  70.3336692   6.5639289  94.0636656  70.6141705   5.8685778
  94.3736420  70.8230593   7.3356030  99.1160422  76.4687229   5.4922188
  99.0836742  75.5303230   5.6781872  99.7261046  76.5471266   4.7588013
  99.2654910  73.2598272   5.5380471  98.7493959  72.4756729   5.3510400
 100.1494859  72.9316989   5.7026991  96.9265637  67.0039288   1.4976284
  96.7290458  66.6954376   2.3819616  97.5365343  67.7300927   1.6274214
 104.9336972  77.5303236   4.6328225 105.6640360  77.2688524   5.1935928
 104.3243917  76.7931958   4.6730293 103.0152269  75.6711098   5.2302676
 102.2885432  75.5367063   4.6219168 102.5999556  75.9787927   6.0359394
  90.8382445  79.3901028  12.9950049  91.7585455  79.5679627  13.1890095
  90.8032028  78.4457073  12.8429748  80.0564610  74.5839622   1.9203324
  79.7367395  73.7304930   1.6277698  79.5098038  74.7988200   2.6761291
  83.8344518  77.3002063   5.6372830  84.0530528  78.2319170   5.6560864
  84.2470292  76.9410037   6.4227634  90.7548736  67.8070148  -2.3751481
  89.9449464  67.4617233  -1.9996235  91.4433153  67.4977692  -1.7863870
  92.6839284  66.8848195  -0.7527185  93.2370322  67.3043648  -0.0937162
  92.9209370  65.9583943  -0.7104229  88.7072383  72.8735268  15.0275579
  88.6069110  73.8229625  14.9587670  88.4893925  72.5453507  14.1551649
  79.9252870  78.2042533   3.8896445  79.2316342  77.7896486   3.3766400
  80.6725861  78.2463070   3.2929864  96.0618091  68.9948720  -1.2448521
  95.4816760  69.6533524  -1.6270468  95.7954024  68.1726065  -1.6561103
  94.5121657  68.3953778   0.9572800  95.0121436  68.5070312   0.1487119
  95.1557265  68.0914830   1.5973608  88.5703653  76.3032407  13.8440641
  88.0870735  77.1032767  14.0504530  88.6564592  76.3140352  12.8908085
  81.8389613  78.1360787   1.7662460  81.8160301  78.2348474   0.8144343
  82.1490249  78.9825938   2.0879626  84.4976991  80.1936942   5.8809074
  85.4520244  80.1620884   5.8139006  84.2989514  79.7327566   6.6959300
  85.0876373  78.7638058   8.4479872  85.9069262  79.2582137   8.4714709
  85.3613180  77.8470026   8.4197440  94.8442969  71.1548810  -2.1892172
  93.9568824  71.4398461  -2.4071978  95.2596958  70.9942574  -3.0364895
  98.1957505  71.1795331   1.5262167  98.9717895  71.6691784   1.7986784
  97.4705639  71.6053385   1.9834036 100.6330064  71.8922950   2.5836108
 101.2274555  71.6518686   1.8729416 100.7056647  71.1730081   3.2109644
  82.8527219  85.7356561   2.8979272  82.7181687  84.9756962   2.3317270
  82.4359282  86.4597461   2.4308061  86.0096345  86.6325878   3.1097715
  85.8928729  87.5771311   3.0076405  85.1888792  86.3299440   3.4983514
  80.3411287  73.0976192   9.1472069  80.9870151  72.5875146   9.6359294
  80.1328438  73.8344873   9.7215494  92.8664679  80.1657039  14.6464210
  93.7355839  80.3397692  14.2850845  92.3871431  80.9851456  14.5239939
  88.8614898  67.3616236  -5.1004035  88.8493567  68.3058076  -4.9435764
  89.7538319  67.1786382  -5.3944573  87.0350859  87.2854140   6.3253643
  87.9378106  87.3177751   6.6420138  86.8088230  86.3554591   6.3399979
  92.6767017  63.9559013  -0.8458098  91.9099413  63.4017500  -0.7001415
  93.0877722  64.0280882   0.0156054  84.6808778  70.2443809  13.2447083
  85.5440240  69.8880614  13.4550408  84.1074189  69.9057704  13.9322488
 100.9701800  89.3878658  11.5118527 100.1935134  89.9472578  11.5021392
 101.6092363  89.8735441  12.0333397  97.9609536  89.3503760  11.8751804
  97.3308197  90.0320041  12.1087201  97.8545624  89.2386841  10.9304942
  97.2390279  83.6524526  14.2377055  96.8457224  83.0990724  14.9124699
  98.0556419  83.9635104  14.6283573 100.1558240  85.0682405  11.8297312
 100.8967953  85.6689558  11.7501774 100.3876163  84.3260042  11.2715354
  95.2999578  90.2538772  10.1075541  95.1853093  89.3524029  10.4082640
  94.4444096  90.5002469   9.7560358 101.9809697  84.8506298   9.0544608
 101.3337612  85.5496248   8.9609084 102.7510712  85.2842442   9.4220856
  97.8222856  88.1972137   9.1060703  97.2860213  87.7462876   9.7582300
  97.2339565  88.3318046   8.3631168  93.5561978  87.3328145   6.1913698
  93.4720166  86.7253815   5.4564108  92.7344684  87.8237163   6.1923194
 101.9898718  91.7161005  12.6929183 101.3139355  91.6155135  13.3631558
 102.8126352  91.5600219  13.1565180  95.7085994  85.3703082   7.5308684
  95.7727320  86.2317913   7.1186081  95.6453114  84.7577084   6.7981042
  95.1838267  87.4426215  11.1781718  95.8110305  87.0603292  11.7919242
  94.3266185  87.2240417  11.5437410  98.2924370  84.6613067   9.3668273
  98.8158772  84.9075364  10.1294582  98.0736703  85.4933102   8.9471410
  92.9343649  91.0470436   9.1455063  92.1925385  91.1953071   9.7319694
  92.6136394  91.3078702   8.2821813  98.4206324  86.7644121  12.8395638
  98.4694479  87.6406244  12.4573407  98.9628838  86.2221514  12.2667281
 100.6505612  87.5175493   9.5941996  99.7808922  87.8109059   9.3224585
 100.8865093  88.1015938  10.3149260  99.5466138  88.2027186  15.0275579
  99.4462864  89.1521543  14.9587670  99.3287680  87.8745425  14.1551649
  99.4097408  91.6324325  13.8440641  98.9264489  92.4324685  14.0504530
  99.4958347  91.6432270  12.8908085  91.1805042  88.4268110   9.1472069
  91.8263905  87.9167064   9.6359294  90.9722193  89.1636791   9.7215494
  95.5202533  85.5735727  13.2447083  96.3833994  85.2172531  13.4550408
  94.9467943  85.2349621  13.9322488  80.7003908  44.5434799  -1.5691652
  80.2567762  43.7571178  -1.8870747  81.3621121  44.7313950  -2.2347761
  82.7985146  44.8237599  -3.5410250  82.7803621  45.6446480  -4.0329981
  83.7205066  44.6991675  -3.3160109  79.2558200  42.3381729  -2.6986742
  79.7886537  41.5770017  -2.9287434  78.7272281  42.0455381  -1.9562587
  88.6485878  41.3126695  -6.7200413  88.8421768  42.2172505  -6.4741138
  88.5486496  40.8534114  -5.8861828  83.7100987  41.4633438  -1.1459532
  83.5586493  41.2343989  -2.0629448  83.7005666  42.4204039  -1.1328187
  85.4193193  44.4952560  -3.0683050  85.3605740  43.8111780  -3.7352467
  85.8212712  45.2371550  -3.5202424  85.4210601  42.4592144  -4.8369071
  84.5337379  42.1218066  -4.7142672  85.9909152  41.7275175  -4.6000305
  81.4110438  47.0180430  -5.7149669  82.1238410  47.6527895  -5.7873767
  80.9200466  47.1144296  -6.5309667  80.3111210  38.0639292  -0.5825510
  79.6351847  37.9633422   0.0876865  81.1338844  37.9078506  -0.1189513
  79.0533993  49.3706220  -6.3467894  79.6052301  49.5337841  -5.5818809
  79.3940186  49.9610658  -7.0187870  83.9044867  44.1967477  -0.4919240
  84.4484771  44.8097436  -0.9864285  83.3231712  44.7547056   0.0247773
  79.1999804  46.9364702  -4.3319240  79.5086931  46.6913848  -3.4596540
  79.9975286  47.1411340  -4.8200370  87.2273662  43.6563531  -1.1557919
  86.4369205  43.6387670  -1.6953419  86.9907016  44.1951825  -0.4008882
  87.3471537  40.5055998  -3.8425190  87.3969542  40.3406005  -2.9009667
  87.2385460  39.6383257  -4.2327309  84.6375299  36.4886926  -2.5265883
  85.5385162  36.3493391  -2.8181886  84.7123274  36.6541381  -1.5867706
  88.8489734  42.9252939  -3.5983169  88.5574542  43.2882920  -2.7619708
  88.2361865  42.2119948  -3.7769837  79.9988692  41.0671233  -0.2804644
  80.9191701  41.2449832  -0.0864598  79.9638275  40.1227278  -0.4324945
  77.7309900  37.9802612   0.5685947  77.2476982  38.7802972   0.7749836
  77.8170839  37.9910557  -0.3846609  82.0270926  41.8427244   1.3709516
  82.8962086  42.0167897   1.0096151  81.5477677  42.6621661   1.2485246
  93.6863402  53.5515870  -9.2245209  94.3241812  53.4322618  -9.9281869
  93.5684245  54.4996714  -9.1657257  90.4953108  53.5043298  -9.2883684
  90.1571620  53.3884363 -10.1763149  91.3642876  53.1034463  -9.3082678
  90.9772891  54.6578150  -3.3297479  90.9661532  54.2630948  -4.2016975
  91.1393530  53.9244223  -2.7363707  83.9004356  56.8529966 -10.4602573
  84.6925648  56.5120791 -10.8756274  84.1401006  56.9624941  -9.5400420
  87.6980152  57.4415262  -4.3818295  87.4070018  58.3460893  -4.4971628
  88.3337136  57.4831789  -3.6674225  88.6236359  54.8192110  -7.7916935
  89.2199931  54.5948133  -8.5059972  88.6811331  54.0776856  -7.1891487
  90.2589217  53.6369799 -14.0495680  89.8947424  53.1100420 -13.3382758
  91.1156333  53.2468268 -14.2229195  96.1638518  44.9264131  -6.7864414
  95.8321842  45.7959542  -7.0103199  95.5684131  44.6100415  -6.1070383
  92.6570037  57.1276677  -7.3868501  92.3570760  58.0301716  -7.4952694
  92.3121097  56.8608861  -6.5347348  86.1082519  53.5790474 -11.3531797
  85.1833015  53.4466688 -11.1454105  86.3566932  54.3584693 -10.8561854
  96.0567181  49.6459218  -9.7071064  95.1484058  49.5774626 -10.0012303
  96.0054777  50.1231162  -8.8789238  83.4691330  53.2223748 -10.5188008
  83.5983711  53.4758227  -9.6048596  82.7888781  53.8151456 -10.8383352
  90.1308047  51.0648863  -1.7636166  89.3541381  51.6242783  -1.7733302
  90.7698610  51.5505646  -1.2421296  88.3854419  53.8734316  -2.2018199
  89.1269103  54.4119360  -2.4783376  87.6791405  54.5000605  -2.0446648
  93.8609759  56.0163457  -3.6046038  94.2693115  55.5745867  -4.3491406
  93.1387020  55.4416084  -3.3511845  90.2140829  50.9536064  -6.2312481
  91.0602024  51.3775477  -6.0877832  90.1539466  50.2969688  -5.5373918
  94.1838573  56.5764648  -9.8493749  93.5547436  56.7410362 -10.5517681
  93.7964235  56.9906257  -9.0782785  93.3640274  48.6140432  -4.5731307
  93.1201206  49.3682493  -5.1097032  93.6400205  48.9925780  -3.7384060
  95.3178737  55.1579044  -5.8954042  95.5295632  55.8010804  -6.5719661
  95.2708485  54.3241361  -6.3632112  92.9204966  47.7696865  -8.9917470
  92.0589445  48.0678119  -8.7000732  92.9467400  47.9867264  -9.9236437
  89.7366535  56.3139056 -12.5843664  90.2004881  56.5926759 -13.3739041
  89.4723333  55.4122500 -12.7670573  86.6290616  55.8610537  -9.6463901
  87.1991973  56.2897806 -10.2846416  87.2198728  55.5793122  -8.9479715
  87.1215783  51.0273965  -1.4002889  86.4914443  51.7090246  -1.1667493
  87.0151871  50.9157046  -2.3449751  96.4324565  58.0351000  -7.7231684
  97.2542009  57.6331187  -8.0049003  96.4286968  57.9319234  -6.7715569
  90.1981168  57.5835043  -5.5670974  90.2625601  58.0455450  -4.7312802
  89.4892092  56.9532408  -5.4388664  80.6998458  50.9476251  -8.0421974
  80.9506497  51.8323261  -7.7764399  81.2358007  50.7680853  -8.8146883
  86.3996526  45.3294731   0.9622362  86.0063471  44.7760929   1.6370006
  87.2162666  45.6405309   1.3528879  89.3164487  46.7452610  -1.4457382
  90.0574200  47.3459763  -1.5252919  89.5482409  46.0030247  -2.0039339
  84.4605825  51.9308977  -3.1679152  84.3459340  51.0294234  -2.8672053
  83.6050342  52.1772674  -3.5194336  91.5397662  59.8726717  -1.5691652
  91.0961516  59.0863096  -1.8870747  92.2014876  60.0605868  -2.2347761
  86.2984783  61.4022519  -7.0430973  86.8492209  61.2739582  -7.8153979
  85.4596259  61.7017408  -7.3936080  93.6378900  60.1529517  -3.5410250
  93.6197376  60.9738398  -4.0329981  94.5598820  60.0283592  -3.3160109
  90.0951955  57.6673647  -2.6986742  90.6280291  56.9061935  -2.9287434
  89.5666036  57.3747298  -1.9562587  92.3418190  45.1438368  -9.2043867
  91.8382985  45.1068503 -10.0176062  92.6348797  46.0531110  -9.1447210
  96.4397513  54.9908660 -10.0700884  95.7821188  55.6807921  -9.9820755
  97.2437912  55.3805091  -9.7266897  91.7283803  50.8202488  -9.7738601
  90.8106364  51.0417435  -9.9316913  92.1443947  50.8948798 -10.6326894
  89.3330395  52.3281065 -11.5599171  89.3879005  51.3754901 -11.6356695
  88.5221597  52.4840504 -11.0757873  92.8696967  51.4099949  -4.9693899
  93.2246354  51.6371422  -4.1099433  93.5169098  51.7418326  -5.5916643
  86.7636830  48.5176480  -8.1847558  87.4036209  48.3765239  -8.8824594
  85.9314360  48.2310993  -8.5608956  87.5397133  57.8178910 -12.0712565
  88.3337732  57.3229231 -12.2729990  86.8288826  57.2896774 -12.4344860
  92.3591978  60.1997006  -7.7200197  92.4129000  60.7687942  -6.9522482
  91.4906759  60.3698891  -8.0846160  85.2390371  49.9014562  -6.2375746
  85.9113425  49.6931924  -6.8863097  84.4120158  49.7036648  -6.6770514
  99.4879633  56.6418613  -6.7200413  99.6815523  57.5464423  -6.4741138
  99.3880251  56.1826032  -5.8861828  91.1415943  46.5276503  -4.2210085
  90.4943858  47.2266453  -4.3145609  91.9116959  46.9612647  -3.8533837
  94.5494741  56.7925355  -1.1459532  94.3980248  56.5635907  -2.0629448
  94.5399421  57.7495957  -1.1328187  91.3180078  54.3657268  -6.1613266
  92.2472138  54.5168428  -6.3344298  90.8971108  54.4541289  -7.0164619
  90.1168409  58.3907932  -8.3914728  89.9779495  58.0226717  -7.5188790
  89.3283006  58.9055572  -8.5630770  91.6673625  57.7689535 -11.0025890
  91.3323457  57.7290305 -10.1068240  91.1677570  57.1034251 -11.4755480
  85.6417869  53.1757165  -5.4773309  85.5037667  52.4437404  -4.8761770
  86.5522792  53.0866065  -5.7589121  88.2700169  52.8877125  -5.9889629
  88.9799788  52.2470317  -6.0303011  88.2269477  53.1390019  -5.0663449
  96.2586948  59.8244478  -3.0683050  96.1999494  59.1403698  -3.7352467
  96.6606466  60.5663468  -3.5202424  86.9829103  49.8742342  -4.1693990
  86.4466460  49.4233081  -3.5172394  86.3945812  50.0088251  -4.9123526
  96.2604355  57.7884062  -4.8369071  95.3731134  57.4509984  -4.7142672
  96.8302906  57.0567093  -4.6000305  82.7168224  49.0098350  -7.0840995
  82.6326413  48.4024020  -7.8190586  81.8950931  49.5007368  -7.0831499
  89.7905509  62.4485514  -7.8707827  89.7175680  63.2540486  -7.3588523
  89.3482902  62.6477480  -8.6959806  92.2504192  62.3472348  -5.7149669
  92.9632164  62.9819813  -5.7873767  91.7594221  62.4436214  -6.5309667
  87.3016106  60.0966792  -4.8944098  88.0025565  60.7303275  -4.7414704
  86.8311221  60.4381523  -5.6548459  95.1017392  52.6511399  -7.0691548
  94.4488842  52.8987307  -7.7239095  95.4797772  51.8375537  -7.4029070
  91.1504965  53.3931210  -0.5825510  90.4745602  53.2925339   0.0876865
  91.9732599  53.2370424  -0.1189513  82.8983824  59.6303147  -7.9612995
  83.4837261  58.8846835  -7.8285091  82.7008662  59.9407103  -7.0776331
  89.8927748  64.6998138  -6.3467894  90.4446056  64.8629759  -5.5818809
  90.2333941  65.2902575  -7.0187870  84.8692241  47.0473287  -5.7446010
  84.9333567  47.9088118  -6.1568612  84.8059361  46.4347289  -6.4773651
  84.3444513  49.1196420  -2.0972975  84.9716552  48.7373497  -1.4835451
  83.4872432  48.9010622  -1.7317283  94.7438622  59.5259395  -0.4919240
  95.2878526  60.1389353  -0.9864285  94.1625467  60.0838974   0.0247773
  95.0931043  60.4489133  -7.7324662  94.1461379  60.3294484  -7.8046335
  95.4413816  59.5611631  -7.6498401  87.4530617  46.3383272  -3.9086420
  87.9765018  46.5845569  -3.1460111  87.2342950  47.1703307  -4.3283283
  88.6583162  47.2796967  -6.2236750  88.3179982  46.4804780  -5.8216070
  87.9522168  47.5798678  -6.7959917  89.3099633  44.3646280  -7.7709427
  90.1325703  43.8906758  -7.8930536  89.5537697  45.1436763  -7.2710740
  86.8338212  51.0565400  -9.9617448  86.6882793  51.3705703  -9.0693167
  86.3563416  51.6750301 -10.5146549  88.6934595  48.0467948  -9.9136559
  88.6796164  47.1509042 -10.2504261  89.4107023  48.0538612  -9.2798273
  90.5460726  48.4805288  -7.8683431  90.2878504  49.4022359  -7.8699101
  90.0145766  48.0835723  -7.1782967  81.3083874  53.5970745  -7.0229787
  80.7637342  54.3730553  -6.8909513  82.1863224  53.9441549  -7.1810666
  82.0949896  52.7240641  -4.1299630  81.3531632  52.8723276  -3.5435000
  81.7742640  52.9848907  -4.9932881  90.0393559  62.2656619  -4.3319240
  90.3480685  62.0205766  -3.4596540  90.8369041  62.4703258  -4.8200370
  82.5406510  60.6106070 -12.0989235  83.3664530  60.3109842 -12.4790592
  82.1900562  59.8413692 -11.6499447  87.5088043  59.9632538 -10.0291562
  86.8868052  59.3003243 -10.3289334  88.1792910  59.9893670 -10.7117914
  80.7415115  58.5292396 -11.1400302  79.9047023  58.1014570 -11.3216301
  80.7138760  58.7224839 -10.2029511  87.5812571  48.4414326  -0.4359056
  87.6300726  49.3176449  -0.8181286  88.1235085  47.8991719  -1.0087413
  98.0667416  58.9855449  -1.1557919  97.2762960  58.9679588  -1.6953419
  97.8300771  59.5243743  -0.4008882  98.1865291  55.8347916  -3.8425190
  98.2363296  55.6697923  -2.9009667  98.0779215  54.9675175  -4.2327309
  95.4769054  51.8178844  -2.5265883  96.3778916  51.6785308  -2.8181886
  95.5517028  51.9833298  -1.5867706  89.8111859  49.1945698  -3.6812697
  88.9415168  49.4879264  -3.9530109  90.0471339  49.7786143  -2.9605434
  99.6883488  58.2544857  -3.5983169  99.3968296  58.6174838  -2.7619708
  99.0755619  57.5411865  -3.7769837  97.9370676  53.3777472  -5.1303111
  98.4124798  53.5705118  -5.9384259  97.0136242  53.4336658  -5.3759727
  92.5150893  45.4125315  -6.1647277  93.0332837  46.1486342  -6.4900788
  92.1606026  45.7189309  -5.3300518  96.6372345  50.2543232  -6.8974805
  97.5889768  50.3541329  -6.8762581  96.4675796  49.4621500  -6.3876721
  94.6586725  47.3398815  -6.7115404  94.0636657  47.6203828  -7.4068916
  94.3736421  47.8292716  -5.9398663  99.1160423  53.4749351  -7.7832505
  99.0836743  52.5365352  -7.5972822  99.7261047  53.5533388  -8.5166681
  90.8382447  56.3963151  -0.2804644  91.7585456  56.5741750  -0.0864598
  90.8032030  55.4519196  -0.4324945  83.8344519  54.3064185  -7.6381863
  84.0530529  55.2381293  -7.6193829  84.2470293  53.9472160  -6.8527059
  88.7072384  49.8797391   1.7520886  88.6069111  50.8291748   1.6832977
  88.4893926  49.5515630   0.8796956  79.9252872  55.2104656  -9.3858248
  79.2316343  54.7958609  -9.8988294  80.6725863  55.2525192  -9.9824829
  88.5703654  53.3094530   0.5685947  88.0870736  54.1094890   0.7749836
  88.6564593  53.3202475  -0.3846609  84.4976992  57.1999065  -7.3945619
  85.4520245  57.1683007  -7.4615687  84.2989515  56.7389688  -6.5795393
  85.0876374  55.7700181  -4.8274821  85.9069263  56.2644259  -4.8039984
  85.3613182  54.8532149  -4.8557254  82.8527221  62.7418684 -10.3775421
  82.7181689  61.9819085 -10.9437423  82.4359283  63.4659584 -10.8446632
  86.0096347  63.6388001 -10.1656978  85.8928731  64.5833434 -10.2678288
  85.1888793  63.3361563  -9.7771179  80.3411288  50.1038314  -4.1282624
  80.9870152  49.5937268  -3.6395399  80.1328439  50.8406996  -3.5539199
  92.8664680  57.1719162   1.3709516  93.7355840  57.3459814   1.0096151
  92.3871432  57.9913579   1.2485246  87.0350861  64.2916263  -6.9501050
  87.9378107  64.3239873  -6.6334555  86.8088231  63.3616714  -6.9354714
  84.6808779  47.2505932  -0.0307610  85.5440241  46.8942736   0.1795715
  84.1074190  46.9119826   0.6567794 100.9701801  66.3940781  -1.7636166
 100.1935135  66.9534701  -1.7733302 101.6092364  66.8797564  -1.2421296
  97.9609537  66.3565882  -1.4002889  97.3308198  67.0382163  -1.1667493
  97.8545625  66.2448964  -2.3449751  97.2390280  60.6586648   0.9622362
  96.8457226  60.1052847   1.6370006  98.0556420  60.9697227   1.3528879
 100.1558241  62.0744527  -1.4457382 100.8967954  62.6751680  -1.5252919
 100.3876164  61.3322165  -2.0039339  95.2999579  67.2600895  -3.1679152
  95.1853094  66.3586152  -2.8672053  94.4444097  67.5064591  -3.5194336
 101.9809698  61.8568421  -4.2210085 101.3337613  62.5558370  -4.3145609
 102.7510713  62.2904565  -3.8533837  97.8222858  65.2034260  -4.1693990
  97.2860215  64.7524999  -3.5172394  97.2339566  65.3380169  -4.9123526
  93.5561979  64.3390268  -7.0840995  93.4720168  63.7315937  -7.8190586
  92.7344685  64.8299286  -7.0831499 101.9898719  68.7223128  -0.5825510
 101.3139356  68.6217257   0.0876865 102.8126353  68.5662342  -0.1189513
  95.7085995  62.3765205  -5.7446010  95.7727322  63.2380036  -6.1568612
  95.6453115  61.7639207  -6.4773651  95.1838268  64.4488338  -2.0972975
  95.8110307  64.0665415  -1.4835451  94.3266187  64.2302540  -1.7317283
  98.2924371  61.6675190  -3.9086420  98.8158773  61.9137486  -3.1460111
  98.0736704  62.4995225  -4.3283283  92.9343651  68.0532559  -4.1299630
  92.1925387  68.2015194  -3.5435000  92.6136395  68.3140824  -4.9932881
  98.4206325  63.7706244  -0.4359056  98.4694480  64.6468366  -0.8181286
  98.9628839  63.2283637  -1.0087413 100.6505613  64.5237616  -3.6812697
  99.7808923  64.8171182  -3.9530109 100.8865094  65.1078061  -2.9605434
  99.5466139  65.2089309   1.7520886  99.4462866  66.1583666   1.6832977
  99.3287681  64.8807548   0.8796956  99.4097409  68.6386448   0.5685947
  98.9264491  69.4386808   0.7749836  99.4958348  68.6494392  -0.3846609
  91.1805043  65.4330232  -4.1282624  91.8263906  64.9229186  -3.6395399
  90.9722194  66.1698914  -3.5539199  95.5202534  62.5797849  -0.0307610
  96.3833995  62.2234654   0.1795715  94.9467944  62.2411744   0.6567794
   3.0786266 117.8798709  82.2364265   3.6730757 117.6394445  81.5257573
   3.1512849 117.1605839  82.8637801   6.9686760 100.3665507  68.2781444
   6.2150468  99.7972905  68.1225449   7.1034301 100.3328171  69.2252079
   1.0450905 100.5194143  65.3883587   0.9068804 100.7095739  64.4604777
   0.6887124 101.2813526  65.8451639   1.0720285 102.5870670  70.3994859
   1.5056792 102.4945959  71.2477913   1.7851866 102.5628171  69.7614875
   1.9335835 102.6294371  72.9327744   2.1271725 103.5340181  73.1787019
   1.8336453 102.1701790  73.7666329   3.1877898  99.1868038  69.5775648
   3.1767774 100.0692753  69.2069581   2.3195277  98.8339588  69.3830185
   3.7902508 100.3368257  66.1825111   4.2333654  99.5875582  65.7844234
   2.9129018 100.3278393  65.7998843   0.8229712 104.3398304  63.1919040
   1.3481036 104.6785577  62.4668360   0.7352065 103.4045319  63.0082175
   0.6321493 101.8223674  75.8102967   0.6819498 101.6573681  76.7518490
   0.5235417 100.9550933  75.4200848   2.1339690 104.2420615  76.0544988
   1.8424498 104.6050596  76.8908449   1.5211821 103.5287624  75.8758320
   3.3335372 101.8073495  68.5747559   4.1682264 102.2463299  68.7385119
   3.4694501 101.3312148  67.7555804   1.5616625  99.4625110  71.8695652
   1.5292945  98.5241111  72.0555335   2.1717249  99.5409147  71.1361477
   1.7111114  96.2536153  71.9153935   1.1950162  95.4694610  71.7283864
   2.5951062  95.9254870  72.0800454   7.3793175 100.5241117  71.0101688
   8.1096563 100.2626405  71.5709392   6.7700120  99.7869839  71.0503756
   5.4608472  98.6648979  71.6076140   4.7341636  98.5304944  70.9992631
   5.0455759  98.9725808  72.4132858   3.0786267  94.8860831  68.9609571
   3.6730758  94.6456567  68.2502879   3.1512851  94.1667962  69.5883108
   1.0745002  95.4530959  65.2281701   0.8181936  95.0527595  66.0589909
   0.4497870  96.1674753  65.1031840   5.3857340  98.1927032  67.7352992
   4.8256898  98.2620222  68.5084555   4.7800843  98.0168017  67.0152489
   6.9713358 114.8683546  70.4282948   7.6091768 114.7490294  69.7246288
   6.8534201 115.8164390  70.4870900   3.7803065 114.8210974  70.3644473
   3.4421576 114.7052039  69.4765008   4.6492833 114.4202139  70.3445479
   4.2622848 115.9745826  76.3230678   4.2511488 115.5798624  75.4511182
   4.4243487 115.2411899  76.9164450   1.9086316 116.1359786  71.8611222
   2.5049888 115.9115809  71.1468185   1.9661287 115.3944532  72.4636670
   1.4811344 113.5899222  59.6961413   1.7336865 113.0680743  58.9344876
   0.5435903 113.4265367  59.7988097   6.5254627 112.5935000  67.5036156
   7.3117716 112.1754423  67.1526573   6.7893331 113.4981092  67.6717805
   6.6964704 118.0307850  62.2024813   6.0610537 118.1042477  62.9145718
   6.3662111 118.6201449  61.5243892  11.9263054 112.5310233  68.4069135
  12.6588226 111.9609450  68.6406964  11.1702410 112.1431834  68.8475640
   1.2007633 115.4927328  61.8985788   1.0843891 114.8172231  62.5666872
   1.3109893 115.0059702  61.0817941   3.5439174 114.9537475  65.6032477
   3.1797381 114.4268096  66.3145399   4.4006290 114.5635944  65.4298963
   9.4488474 106.2431807  72.8663743   9.1171799 107.1127218  72.6424958
   8.8534088 105.9268091  73.5457774   3.1844661 109.9827374  60.5993826
   3.3519063 110.8507611  60.9664297   2.9941830 110.1454656  59.6755115
   5.9419994 118.4444353  72.2659656   5.6420717 119.3469392  72.1575463
   5.5971053 118.1776537  73.1180809   9.3417138 110.9626894  69.9457093
   8.4334015 110.8942302  69.6515854   9.2904733 111.4398839  70.7738919
   3.1633881 112.4385032  61.5840493   3.0433507 112.8842083  62.4225973
   2.4686470 112.7870350  61.0254031   3.4158003 112.3816539  77.8891991
   2.6391337 112.9410459  77.8794855   4.0548566 112.8673322  78.4106861
  11.2078784 109.1643332  71.7234967  10.5653164 109.4575865  71.0774762
  10.7033712 109.0496252  72.5288164   8.8618948 112.9106505  62.4120827
   9.7736804 113.1433892  62.2368524   8.3528595 113.4943549  61.8495905
   1.6704376 115.1901993  77.4509958   2.4119060 115.7287036  77.1744781
   0.9641361 115.8168281  77.6081509   7.1459715 117.3331133  76.0482119
   7.5543071 116.8913544  75.3036752   6.4236977 116.7583761  76.3016312
   3.4990785 112.2703740  73.4215676   4.3451981 112.6943153  73.5650325
   3.4389423 111.6137364  74.1154239   7.4688530 117.8932324  69.8034408
   6.8397392 118.0578038  69.1010476   7.0814192 118.3073933  70.5745372
  11.3477762 118.8286761  67.1578772  10.6628800 119.2085663  66.6075805
  11.4321611 119.4382088  67.8910720   6.6490231 109.9308108  75.0796850
   6.4051163 110.6850169  74.5431125   6.9250161 110.3093456  75.9144097
   8.6028693 116.4746720  73.7574115   8.8145589 117.1178480  73.0808496
   8.5558442 115.6409037  73.2896045   6.2054922 109.0864541  70.6610687
   5.3439401 109.3845795  70.9527425   6.2317357 109.3034940  69.7291720
   3.0216492 117.6306732  67.0684493   3.4854837 117.9094435  66.2789116
   2.7573290 116.7290176  66.8857584   1.9585378 113.7529884  63.8774058
   2.6609421 114.2050928  64.3447985   1.6266006 113.1113703  64.5053951
   9.7174521 119.3518676  71.9296473  10.5391965 118.9498863  71.6479154
   9.7136924 119.2486910  72.8812588  17.8080514 115.6957424  68.2781444
  17.0544223 115.1264822  68.1225449  17.9428056 115.6620089  69.2252079
   2.6014443 108.0620286  78.2070775   3.3424156 108.6627439  78.1275238
   2.8332366 107.3197923  77.6488818   6.5471606 104.0901389  72.4835057
   6.2035875 104.9803030  72.4074168   6.9150569 103.9003046  71.6204642
   6.5121889 114.0810000  60.9907492   5.9968512 114.8514604  61.2295879
   6.2399197 113.4075136  61.6140554   4.0969000 108.9259700  66.0492730
   3.2410596 108.5366551  65.8698369   4.5095952 109.0051661  65.1892516
   5.6268146 106.4606044  70.4484290   5.1232942 106.4236179  69.6352095
   5.9198753 107.3698786  70.5080947   1.8711032 106.5444773  69.4550472
   2.7364029 106.3487582  69.0956361   1.9388541 106.3155125  70.3819829
  11.4856163 116.8342354  62.9260666  10.7085606 116.4953514  62.4815828
  12.1647644 116.8394977  62.2515631   6.3008192 111.9537092  62.8167273
   5.9958327 112.2683241  63.6677416   7.2538634 112.0318512  62.8594606
   9.7247470 116.3076336  69.5827274   9.0671144 116.9975597  69.6707402
  10.5287869 116.6972768  69.9261260   8.5352929 114.6620708  67.6331215
   9.0484810 115.2950700  68.1352925   9.1854152 114.0621904  67.2674575
   1.7796019 105.6488230  65.5541908   1.1260431 105.3337247  64.9298523
   1.7376493 105.0263971  66.2801731   2.8907224 115.9307525  57.4695200
   1.9834286 115.6996779  57.6686349   3.3878256 115.1345145  57.6569182
   5.0133759 112.1370164  69.8789556   4.0956321 112.3585111  69.7211244
   5.4293903 112.2116474  69.0201263   5.7968807 113.5361579  65.0092236
   6.5440626 114.0482977  64.6999358   6.0660397 113.2145632  65.8696630
   4.0695457 116.0320120  61.9919190   3.1606677 115.7479153  62.0891660
   4.0990541 116.4519199  61.1322497   9.3014725 119.6426710  65.7610358
   8.8477052 118.8017620  65.8175548   8.6708692 120.2788108  66.0985138
   8.2447644 110.5718696  66.9911025   7.5070401 110.0596082  67.3221268
   8.4974418 110.1319077  66.1794302   8.3459272 103.3494948  67.5852795
   8.6518148 102.4892311  67.2978710   9.0711876 103.9412568  67.3851789
   2.6180351 113.6448741  68.0928986   2.6728961 112.6922577  68.0171462
   1.8071553 113.8008180  68.5770284   3.7671545 117.5728864  59.3307269
   3.3290975 116.8564723  58.8712906   4.5081986 117.8004979  58.7692360
   6.1546923 112.7267625  74.6834258   6.5096311 112.9539098  75.5428724
   6.8019054 113.0586002  74.0611514  11.8844660 115.8486061  65.3883587
  11.7462559 116.0387657  64.4604777  11.5280879 116.6105444  65.8451639
  11.9114040 117.9162588  70.3994859  12.3450546 117.8237877  71.2477913
  12.6245620 117.8920088  69.7614875  12.7729589 117.9586289  72.9327744
  12.9665479 118.8632099  73.1787019  12.6730207 117.4993708  73.7666329
   4.4265900 107.8444179  75.4318072   3.7793815 108.5434129  75.3382548
   5.1966915 108.2780323  75.7994320   7.8344698 118.1093031  78.5068625
   7.6830204 117.8803583  77.5898709   7.8249377 119.0663633  78.5199970
   4.6030034 115.6824944  73.4914891   5.5322094 115.8336104  73.3183859
   4.1821064 115.7708965  72.6363538   7.8882773 116.4313246  58.9239327
   7.2711943 115.7060074  58.8272379   7.4199261 117.1922606  58.5806401
   1.5550126 114.2044801  73.6638528   2.2649744 113.5637993  73.6225146
   1.5119434 114.4557695  74.5864708   9.5454312 119.1051738  74.8159087
   8.6581090 118.7677660  74.9385485  10.1152863 118.3734769  75.0527852
   6.1741895 108.8119590  67.9357357   6.6710594 108.0589552  67.6158427
   5.4028876 108.8483906  67.3700566  14.0271652 114.5159955  69.5775648
  14.0161529 115.3984671  69.2069581  13.1589032 114.1631506  69.3830185
   7.2571676 117.5691277  65.5095780   6.3227954 117.6892739  65.3400484
   7.4348344 116.6663744  65.2455790   2.7576864 110.9536973  67.6629041
   2.3874651 110.4008013  68.3509947   3.2535956 110.3495106  67.1104041
  10.6444227 113.4108596  66.0445814  11.1104679 114.2436588  65.9706117
  11.0951727 112.9453578  66.7491073   8.7120458 119.7552417  63.0431966
   8.9880302 119.6409012  63.9525840   7.8424957 119.3569902  63.0044139
   8.6160890 105.7789183  70.0836716   7.7023969 106.0093410  70.2518922
   9.0453991 105.8627627  70.9350748   8.3867348 113.9679075  72.5836610
   7.7338798 114.2154983  71.9289062   8.7647728 113.1543213  72.2499087
   4.4354921 114.7098886  79.0702647   3.7595558 114.6093016  79.7405022
   5.2582555 114.5538100  79.5338644   0.7380573 107.6550948  75.7441737
   1.2614975 107.9013245  76.5068046   0.5192906 108.4870983  75.3244874
   1.9433118 108.5964643  73.4291407   1.6029938 107.7972456  73.8312087
   1.2372124 108.8966354  72.8568241   2.5949590 105.6813956  71.8818730
   3.4175659 105.2074434  71.7597621   2.8387653 106.4604439  72.3817417
   1.2357824 108.7102214  62.1781632   1.9566187 109.0883467  61.6745349
   0.6123129 109.4291091  62.2816610   5.3788947 109.4147363  63.1139964
   5.5952562 110.2972001  62.8128793   4.8983014 109.0233577  62.3845606
   1.9784552 109.3635624  69.7391599   1.9646120 108.4676718  69.4023896
   2.6956980 109.3706288  70.3729885   3.8310682 109.7972965  71.7844726
   3.5728460 110.7190035  71.7829056   3.2995723 109.4003399  72.4745190
   1.3821448 108.2450005  65.0079169   1.5037359 107.3166651  65.2070056
   1.0923490 108.2588691  64.0957484   4.2512638 105.9304915  68.1445889
   4.2734335 105.9944248  67.1897868   4.6680697 105.0909424  68.3386395
  14.6296262 115.6660175  66.1825111  15.0727408 114.9167500  65.7844234
  13.7522773 115.6570311  65.7998843  11.6623467 119.6690222  63.1919040
  12.1874791 120.0077494  62.4668360  11.5745819 118.7337237  63.0082175
   0.8662527 109.7582002  79.2169101   0.9150683 110.6344125  78.8346871
   1.4085041 109.2159395  78.6440744  11.3517373 120.3023125  78.4970238
  10.5612916 120.2847264  77.9574738  11.1150727 120.8411419  79.2519275
  11.4715248 117.1515592  75.8102967  11.5213253 116.9865599  76.7518490
  11.3629171 116.2842851  75.4200848   8.7619010 113.1346520  77.1262274
   9.6628873 112.9952984  76.8346271   8.8366985 113.3000974  78.0660451
   3.0961815 110.5113374  75.9715460   2.2265125 110.8046940  75.6998048
   3.3321296 111.0953819  76.6922724  12.9733445 119.5712533  76.0544988
  12.6818253 119.9342514  76.8908449  12.3605576 118.8579541  75.8758320
  14.1729127 117.1365413  68.5747559  15.0076018 117.5755217  68.7385119
  14.3088256 116.6604066  67.7555804  11.2220633 114.6945148  74.5225046
  11.6974754 114.8872794  73.7143898  10.2986198 114.7504334  74.2768430
   5.8000849 106.7292991  73.4880880   6.3182793 107.4654018  73.1627369
   5.4455982 107.0356985  74.3227639   6.0513443 103.1493274  69.0081777
   6.3315197 102.4816463  69.6342203   6.8364050 103.3422369  68.4956441
   9.9222302 111.5710908  72.7553352  10.8739725 111.6709005  72.7765576
   9.7525752 110.7789176  73.2651436   7.9436681 108.6566491  72.9412753
   7.3486613 108.9371504  72.2459242   7.6586378 109.1460392  73.7129494
  12.4010380 114.7917028  71.8695652  12.3686700 113.8533028  72.0555335
  13.0111003 114.8701064  71.1361477   4.2393710 113.6613080  57.9122856
   5.1852815 113.5319289  57.9811274   3.8607955 112.9227742  58.3892284
  12.5504868 111.5828071  71.9153935  12.0343917 110.7986528  71.7283864
  13.4344817 111.2546788  72.0800454  10.2115595 105.3269087  67.8749748
  10.0140416 105.0184175  68.7593079  10.8215301 106.0530725  68.0047677
  18.2186929 115.8533034  71.0101688  18.9490318 115.5918322  71.5709392
  17.6093875 115.1161756  71.0503756  16.3002227 113.9940897  71.6076140
  15.5735390 113.8596862  70.9992631  15.8849513 114.3017726  72.4132858
   4.1232403 117.7130827  79.3723513   5.0435412 117.8909426  79.5663559
   4.0881986 116.7686872  79.2203212   2.4236628 111.5863057  57.8477741
   1.5168083 111.2896170  57.9240455   2.7012609 111.2892875  56.9812027
   4.0398693 106.1299947  64.0021982   3.2299422 105.7847032  64.3777228
   4.7283110 105.8207490  64.5909594   5.9689242 105.2077993  65.6246279
   6.5220280 105.6273447  66.2836302   6.2059328 104.2813742  65.6669235
   1.9922341 111.1965067  81.4049043   1.8919068 112.1459424  81.3361134
   1.7743883 110.8683306  80.5325113   1.1935412 108.4449992  57.9889720
   2.0554576 108.7704890  58.2485537   1.3785756 107.6581488  57.4762786
   9.3468049 107.3178519  65.1324943   8.7666718 107.9763323  64.7502996
   9.0803981 106.4955863  64.7212361   7.7971615 106.7183576  67.3346263
   8.2971393 106.8300111  66.5260582   8.4407223 106.4144629  67.9747072
   1.8553611 114.6262206  80.2214104   1.3720693 115.4262566  80.4277993
   1.9414550 114.6370151  79.2681548   8.1292927 109.4778609  64.1881291
   7.2418782 109.7628260  63.9701486   8.5446916 109.3172372  63.3408568
  11.4807463 109.5025130  67.9035631  12.2567853 109.9921582  68.1760247
  10.7555597 109.9283184  68.3607500  13.9180022 110.2152749  68.9609571
  14.5124512 109.9748485  68.2502879  13.9906605 109.4959880  69.5883108
   8.1033951 114.9933145  64.4031582   8.0469152 115.4501696  63.5639214
   8.6562293 114.2323829  64.2254424  11.9138756 110.7822877  65.2281701
  11.6575691 110.3819512  66.0589909  11.2891624 111.4966671  65.1031840
  16.2251094 113.5218950  67.7352992  15.6650652 113.5912139  68.5084555
  15.6194598 113.3459935  67.0152489   9.1822838 119.6805813  60.3327771
  10.0168442 119.2487011  60.1505246   9.0207181 119.5087826  61.2604666
   8.8368730 116.1837926  61.6984111   8.7817534 116.0182198  60.7572555
   8.2114785 116.8913959  61.8546300   6.1514637 118.4886838  81.0237673
   7.0205797 118.6627490  80.6624308   5.6721388 119.3081255  80.9013403
   2.1464855 105.6846035  61.2769429   2.1343525 106.6287875  61.4337700
   3.0388277 105.5016181  60.9828890   5.9616975 102.2788812  65.5315366
   5.1949371 101.7247298  65.6772048   6.3727680 102.3510681  66.3929518
  20.2882229 121.5723725  72.8663743  19.9565553 122.4419136  72.6424958
  19.6927842 121.2560009  73.5457774  22.0472538 124.4935250  71.7234967
  21.4046919 124.7867783  71.0774762  21.5427467 124.3788170  72.5288164
  17.3865361 119.4193306  72.4835057  17.0429630 120.3094948  72.4074168
  17.7544323 119.2294964  71.6204642  16.4661901 121.7897961  70.4484290
  15.9626696 121.7528097  69.6352095  16.7592508 122.6990704  70.5080947
  12.6189774 120.9780148  65.5541908  11.9654186 120.6629165  64.9298523
  12.5770248 120.3555888  66.2801731  19.1853026 118.6786865  67.5852795
  19.4911903 117.8184229  67.2978710  19.9105631 119.2704486  67.3851789
  19.4554644 121.1081101  70.0836716  18.5417724 121.3385328  70.2518922
  19.8847746 121.1919545  70.9350748  13.4343344 121.0105873  71.8818730
  14.2569414 120.5366352  71.7597621  13.6781408 121.7896357  72.3817417
  15.0906392 121.2596833  68.1445889  15.1128089 121.3236166  67.1897868
  15.5074451 120.4201341  68.3386395  16.6394604 122.0584909  73.4880880
  17.1576548 122.7945936  73.1627369  16.2849737 122.3648902  74.3227639
  16.8907198 118.4785192  69.0081777  17.1708952 117.8108381  69.6342203
  17.6757805 118.6714287  68.4956441  21.0509350 120.6561004  67.8749748
  20.8534171 120.3476092  68.7593079  21.6609055 121.3822643  68.0047677
  14.8792448 121.4591864  64.0021982  14.0693176 121.1138949  64.3777228
  15.5676865 121.1499408  64.5909594  16.8082996 120.5369911  65.6246279
  17.3614035 120.9565364  66.2836302  17.0453083 119.6105659  65.6669235
  20.1861803 122.6470436  65.1324943  19.6060472 123.3055240  64.7502996
  19.9197736 121.8247781  64.7212361  18.6365370 122.0475494  67.3346263
  19.1365148 122.1592028  66.5260582  19.2800978 121.7436547  67.9747072
  24.7573776 125.5444667  68.9609571  25.3518267 125.3040403  68.2502879
  24.8300360 124.8251797  69.5883108  16.8010729 117.6080729  65.5315366
  16.0343125 117.0539216  65.6772048  17.2121434 117.6802598  66.3929518
   6.9686761  77.3727629  55.0026751   6.2150470  76.8035027  54.8470755
   7.1034302  77.3390294  55.9497385   1.0450907  77.5256266  52.1128894
   0.9068805  77.7157862  51.1850083   0.6887126  78.2875649  52.5696945
   1.0720286  79.5932793  57.1240166   1.5056793  79.5008082  57.9723220
   1.7851867  79.5690293  56.4860182   1.9335836  79.6356494  59.6573051
   2.1271726  80.5402304  59.9032326   1.8336454  79.1763913  60.4911636
   3.1877899  76.1930160  56.3020955   3.1767775  77.0754876  55.9314888
   2.3195278  75.8401711  56.1075492   3.7902509  77.3430380  52.9070418
   4.2333655  76.5937705  52.5089541   2.9129019  77.3340516  52.5244150
   0.8229713  81.3460426  49.9164347   1.3481038  81.6847699  49.1913667
   0.7352066  80.4107442  49.7327482   0.6321495  78.8285797  62.5348274
   0.6819499  78.6635804  63.4763796   0.5235418  77.9613056  62.1446154
   2.1339691  81.2482738  62.7790295   1.8424500  81.6112719  63.6153756
   1.5211823  80.5349746  62.6003627   3.3335374  78.8135618  55.2992865
   4.1682265  79.2525422  55.4630426   3.4694502  78.3374271  54.4801111
   1.5616626  76.4687232  58.5940958   1.5292947  75.5303233  58.7800642
   2.1717250  76.5471269  57.8606783   1.7111115  73.2598276  58.6399242
   1.1950164  72.4756732  58.4529170   2.5951063  72.9316992  58.8045761
   7.3793176  77.5303239  57.7346995   8.1096565  77.2688527  58.2954698
   6.7700122  76.7931961  57.7749063   5.4608473  75.6711102  58.3321446
   4.7341637  75.5367067  57.7237938   5.0455760  75.9787930  59.1378164
   3.0786268  71.8922954  55.6854878   3.6730759  71.6518690  54.9748186
   3.1512852  71.1730085  56.3128414   1.0745003  72.4593082  51.9527008
   0.8181937  72.0589717  52.7835215   0.4497871  73.1736876  51.8277147
   5.3857341  75.1989155  54.4598299   4.8256899  75.2682344  55.2329861
   4.7800844  75.0230140  53.7397795   6.9713360  91.8745669  57.1528255
   7.6091769  91.7552416  56.4491595   6.8534202  92.8226513  57.2116207
   3.7803066  91.8273097  57.0889780   3.4421577  91.7114162  56.2010314
   4.6492834  91.4264262  57.0690786   4.2622849  92.9807949  63.0475985
   4.2511490  92.5860747  62.1756489   4.4243488  92.2474021  63.6409756
   5.2189440  97.3479541  48.3901135   4.5677420  97.9333621  48.0035149
   6.0133803  97.8785736  48.4496173   0.9830110  95.7645060  61.9955169
   0.6919976  96.6690691  61.8801835   1.6187094  95.8061588  62.7099239
   1.9086317  93.1421909  58.5856529   2.5049889  92.9177931  57.8713492
   1.9661288  92.4006654  59.1881977   1.4811345  90.5961344  46.4206720
   1.7336866  90.0742866  45.6590183   0.5435904  90.4327490  46.5233403
   6.5254628  89.5997123  54.2281463   7.3117717  89.1816546  53.8771880
   6.7893332  90.5043215  54.3963111   6.6964705  95.0369973  48.9270120
   6.0610538  95.1104600  49.6391024   6.3662112  95.6263572  48.2489199
  11.9263055  89.5372356  55.1314441  12.6588227  88.9671573  55.3652271
  11.1702411  89.1493956  55.5720947   1.2007634  92.4989450  48.6231095
   1.0843892  91.8234354  49.2912179   1.3109894  92.0121824  47.8063248
   3.5439175  91.9599597  52.3277784   3.1797382  91.4330218  53.0390705
   4.4006291  91.5698066  52.1544269   9.4488475  83.2493930  59.5909050
   9.1171800  84.1189341  59.3670265   8.8534089  82.9330214  60.2703080
   3.1844662  86.9889497  47.3239132   3.3519064  87.8569733  47.6909603
   2.9941831  87.1516779  46.4000422   5.9419995  95.4506476  58.9904963
   5.6420718  96.3531515  58.8820770   5.5971055  95.1838659  59.8426116
   9.3417139  87.9689016  56.6702400   8.4334016  87.9004425  56.3761161
   9.2904735  88.4460961  57.4984226   3.1633883  89.4447155  48.3085799
   3.0433508  89.8904205  49.1471279   2.4686471  89.7932472  47.7499337
   3.4158005  89.3878662  64.6137297   2.6391339  89.9472582  64.6040162
   4.0548568  89.8735445  65.1352167  11.2078785  86.1705455  58.4480274
  10.5653165  86.4637988  57.8020069  10.7033714  86.0558375  59.2533471
   8.8618949  89.9168628  49.1366133   9.7736805  90.1496015  48.9613831
   8.3528596  90.5005672  48.5741212   1.6704377  92.1964115  64.1755264
   2.4119061  92.7349159  63.8990088   0.9641362  92.8230404  64.3326816
   7.1459717  94.3393256  62.7727426   7.5543073  93.8975666  62.0282058
   6.4236978  93.7645883  63.0261619   3.4990787  89.2765862  60.1460983
   4.3451982  89.7005276  60.2895632   3.4389424  88.6199487  60.8399546
   7.4688531  94.8994446  56.5279715   6.8397394  95.0640160  55.8255783
   7.0814193  95.3136056  57.2990679  11.3477763  95.8348884  53.8824078
  10.6628801  96.2147785  53.3321112  11.4321612  96.4444211  54.6156026
   6.6490232  86.9370231  61.8042156   6.4051164  87.6912291  61.2676432
   6.9250162  87.3155578  62.6389403   8.6028695  93.4808843  60.4819422
   8.8145590  94.1240603  59.8053803   8.5558443  92.6471160  60.0141352
   6.2054924  86.0926664  57.3855994   5.3439403  86.3907917  57.6772732
   6.2317358  86.3097063  56.4537027   3.0216493  94.6368854  53.7929800
   3.4854839  94.9156557  53.0034422   2.7573291  93.7352299  53.6102890
   1.9585379  90.7592007  50.6019365   2.6609422  91.2113050  51.0693291
   1.6266008  90.1175826  51.2299258   9.7174523  96.3580799  58.6541779
  10.5391966  95.9560986  58.3724461   9.7136925  96.2549033  59.6057895
   3.4831126  95.9064842  60.8102490   3.5475559  96.3685249  61.6460662
   2.7742050  95.2762207  60.9384800  17.8080516  92.7019547  55.0026751
  17.0544224  92.1326945  54.8470755  17.9428057  92.6682211  55.9497385
   3.1979144  97.5732949  50.6781470   3.0624819  98.4184485  51.1066318
   3.7388956  97.7752227  49.9147404   2.6014444  85.0682408  64.9316082
   3.3424158  85.6689561  64.8520544   2.8332367  84.3260046  64.3734124
   4.8247620  98.1956516  64.8081812   4.3811474  97.4092894  64.4902717
   5.4864834  98.3835666  64.1425703   6.9228858  98.4759316  62.8363213
   6.9047334  99.2968197  62.3443483   7.8448778  98.3513391  63.0613355
   3.3801912  95.9903445  63.6786722   3.9130249  95.2291733  63.4486030
   2.8515993  95.6977097  64.4210876   6.5471607  81.0963511  59.2080364
   6.2035877  81.9865153  59.1319474   6.9150570  80.9065169  58.3449949
   6.5121890  91.0872122  47.7152799   5.9968513  91.8576727  47.9541186
   6.2399198  90.4137258  48.3385860   4.0969001  85.9321823  52.7738037
   3.2410597  85.5428673  52.5943676   4.5095953  86.0113784  51.9137823
   5.6268148  83.4668166  57.1729597   5.1232943  83.4298301  56.3597402
   5.9198755  84.3760909  57.2326254   1.8711034  83.5506896  56.1795779
   2.7364030  83.3549705  55.8201668   1.9388542  83.3217248  57.1065135
  11.4856164  93.8404477  49.6505972  10.7085607  93.5015636  49.2061134
  12.1647645  93.8457100  48.9760937   6.3008193  88.9599214  49.5412580
   5.9958329  89.2745364  50.3922723   7.2538635  89.0380634  49.5839913
   4.7454625  95.1189438  51.1905534   4.2175987  94.3842197  50.8778771
   4.2442128  95.8964114  50.9445502   9.7247471  93.3138458  56.3072580
   9.0671145  94.0037720  56.3952709  10.5287870  93.7034890  56.6506567
   8.5352930  91.6682831  54.3576522   9.0484812  92.3012823  54.8598232
   9.1854154  91.0684026  53.9919882   1.7796020  82.6550353  52.2787215
   1.1260433  82.3399370  51.6543830   1.7376494  82.0326093  53.0047038
   2.8907225  92.9369648  44.1940507   1.9834287  92.7058901  44.3931656
   3.3878257  92.1407267  44.3814488   5.7975304 101.6467155  47.1137193
   5.1237003 101.9498852  47.7222151   6.1841126 102.4496235  46.7642650
   5.0133761  89.1432286  56.6034862   4.0956322  89.3647233  56.4456551
   5.4293904  89.2178597  55.7446570   5.7968808  90.5423702  51.7337543
   6.5440627  91.0545099  51.4244665   6.0660398  90.2207755  52.5941936
   4.0695459  93.0382243  48.7164497   3.1606678  92.7541276  48.8136967
   4.0990542  93.4581321  47.8567804   9.3014726  96.6488832  52.4855665
   8.8477053  95.8079742  52.5420855   8.6708693  97.2850231  52.8230445
   8.2447646  87.5780818  53.7156332   7.5070402  87.0658205  54.0466575
   8.4974419  87.1381200  52.9039609   7.7447665  98.4865329  53.4205483
   8.0370640  99.0470386  52.7017848   8.2546286  98.7793890  54.1758642
   8.3459273  80.3557070  54.3098101   8.6518150  79.4954434  54.0224016
   9.0711878  80.9474691  54.1097095   2.6180353  90.6510863  54.8174292
   2.6728962  89.6984700  54.7416769   1.8071555  90.8070303  55.3015591
   3.7671546  94.5790986  46.0552576   3.3290976  93.8626845  45.5958213
   4.5081987  94.8067101  45.4937667   2.7081290  99.2645680  54.5098936
   2.6657469  99.4906526  53.5807468   3.6243989  99.0309055  54.6584737
   6.1546924  89.7329748  61.4079565   6.5096312  89.9601221  62.2674031
   6.8019056  90.0648124  60.7856820  11.8844661  92.8548184  52.1128894
  11.7462560  93.0449780  51.1850083  11.5280880  93.6167566  52.5696945
  11.9114041  94.9224711  57.1240166  12.3450547  94.8300000  57.9723220
  12.6245622  94.8982211  56.4860182   5.6441936  98.5226805  58.6573266
   5.6978958  99.0917741  59.4250982   4.7756717  98.6928690  58.2927303
  12.7729590  94.9648411  59.6573051  12.9665480  95.8694222  59.9032326
  12.6730209  94.5055830  60.4911636   4.4265901  84.8506302  62.1563378
   3.7793816  85.5496251  62.0627855   5.1966917  85.2842446  62.5239627
   7.8344699  95.1155154  65.2313932   7.6830205  94.8865706  64.3144015
   7.8249379  96.0725755  65.2445277   4.6030035  92.6887067  60.2160198
   5.5322095  92.8398226  60.0429165   4.1821065  92.7771087  59.3608845
   3.4018367  96.7137731  57.9858736   3.2629453  96.3456515  58.8584674
   2.6132963  97.2285371  57.8142694   3.9966519 101.8146828  49.3284272
   4.1718275 101.3434871  50.1429895   3.3099307 102.4412594  49.5565533
   4.9523582  96.0919334  55.3747573   4.6173415  96.0520104  56.2705223
   4.4527528  95.4264050  54.9017984   7.8882774  93.4375368  45.6484633
   7.2711945  92.7122196  45.5517686   7.4199263  94.1984728  45.3051707
   1.5550127  91.2106923  60.3883834   2.2649746  90.5700115  60.3470453
   1.5119435  91.4619818  61.3110015   9.5436906  98.1474276  63.3090414
   9.4849452  97.4633497  62.6420997   9.9456424  98.8893266  62.8571039
   9.5454313  96.1113860  61.5404393   8.6581092  95.7739782  61.6630792
  10.1152864  95.3796892  61.7773159   3.0755466 100.7715313  58.5065636
   3.0025638 101.5770284  59.0184941   2.6332859 100.9707279  57.6813658
   2.8645246 100.0087083  52.0168458   2.0812768 100.5508763  52.1106682
   3.5637991 100.5261062  52.4162699   6.1741896  85.8181712  54.6602663
   6.6710596  85.0651675  54.3403734   5.4028878  85.8546029  54.0945873
  14.0271654  91.5222078  56.3020955  14.0161530  92.4046793  55.9314888
  13.1589033  91.1693629  56.1075492   5.5354150 100.6702147  60.6623795
   6.2482122 101.3049612  60.5899697   5.0444179 100.7666013  59.8463797
   7.2571677  94.5753399  52.2341087   6.3227956  94.6954862  52.0645791
   7.4348345  93.6725866  51.9701097   2.7576865  87.9599095  54.3874348
   2.3874652  87.4070136  55.0755254   3.2535957  87.3557229  53.8349348
  10.6444228  90.4170719  52.7691121  11.1104680  91.2498710  52.6951424
  11.0951729  89.9515700  53.4736379   8.7120459  96.7614540  49.7677273
   8.9880303  96.6471135  50.6771147   7.8424958  96.3632025  49.7289446
   8.6160891  82.7851306  56.8082022   7.7023971  83.0155533  56.9764229
   9.0453992  82.8689750  57.6596055   8.3867349  90.9741198  59.3081916
   7.7338800  91.2217105  58.6534369   8.7647729  90.1605336  58.9744394
   5.3474523 101.0100891  53.4110087   5.5296918 100.1922547  53.8737839
   6.1707509 101.2268583  52.9734977   5.6816689  99.9369076  50.6725135
   6.2104455  99.4261531  50.0595297   5.9444908  99.6211606  51.5370668
   4.4354922  91.7161009  65.7947953   3.7595559  91.6155138  66.4650329
   5.2582556  91.5600223  66.2583951   3.1777705 103.0227936  60.0305569
   3.7296013 103.1859558  60.7954655   3.5183899 103.6132374  59.3585594
   8.0288580  97.8489194  65.8854224   8.5728484  98.4619152  65.3909179
   7.4475424  98.4068772  66.4021237   6.3146093 100.9709912  57.0169251
   6.1897232 100.1699652  56.5080197   6.9725184 101.4656105  56.5283221
   8.3781001  98.7718932  58.6448802   7.4311336  98.6524283  58.5727128
   8.7263774  97.8841430  58.7275063   0.7380574  84.6613071  62.4687043
   1.2614976  84.9075367  63.2313353   0.5192908  85.4933106  62.0490181
   5.3827434  98.5671648  54.8453154   5.2352397  97.6388355  55.0260724
   6.2080928  98.5891739  54.3610229   8.9861556  99.3900207  55.9318027
   9.9108104  99.1843068  55.7942478   8.8176859  99.1416608  56.8407368
   1.9433119  85.6026766  60.1536714   1.6029940  84.8034579  60.5557394
   1.2372126  85.9028477  59.5813547   2.5949591  82.6876078  58.6064037
   3.4175661  82.2136556  58.4842927   2.8387655  83.4666562  59.1062723
   1.2357826  85.7164337  48.9026939   1.9566188  86.0945590  48.3990656
   0.6123130  86.4353214  49.0061917   5.3788949  86.4209486  49.8385271
   5.5952563  87.3034124  49.5374099   4.8983016  86.0295699  49.1090913
   1.9784553  86.3697747  56.4636905   1.9646122  85.4738840  56.1269203
   2.6956981  86.3768411  57.0975191   3.8310684  86.8035087  58.5090033
   3.5728461  87.7252158  58.5074363   3.2995724  86.4065522  59.1990497
   8.7756872  99.9085874  51.2880118   8.9493750  99.3432297  50.5353970
   9.2685764 100.7086769  51.1059608   1.3821449  85.2512127  51.7324475
   1.5037360  84.3228773  51.9315363   1.0923491  85.2650813  50.8202791
   4.2512639  82.9367038  54.8691195   4.2734336  83.0006371  53.9143175
   4.6680698  82.0971546  55.0631701  14.6296263  92.6722297  52.9070418
  15.0727410  91.9229622  52.5089541  13.7522774  92.6632434  52.5244150
   9.7632045  99.2252639  48.3877016  10.4582949  99.8459331  48.6064331
  10.1055195  98.3747990  48.6629394  11.6623468  96.6752344  49.9164347
  12.1874792  97.0139617  49.1913667  11.5745820  95.7399359  49.7327482
   3.3243517 100.5886418  62.0454224   3.6330643 100.3435565  62.9176923
   4.1218999 100.7933056  61.5573094   3.3464129 102.7424327  54.2759600
   2.9069119 102.2500706  54.9692457   4.0972246 102.1997295  54.0351675
   0.8662528  86.7644125  65.9414408   0.9150684  87.6406247  65.5592178
   1.4085043  86.2221518  65.3686051  11.3517374  97.3085248  65.2215545
  10.5612918  97.2909387  64.6820044  11.1150729  97.8473542  65.9764582
  11.4715249  94.1577714  62.5348274  11.5213254  93.9927722  63.4763796
  11.3629172  93.2904973  62.1446154   8.7619011  90.1408642  63.8507580
   9.6628874  90.0015107  63.5591578   8.8366986  90.3063097  64.7905758
   3.0961817  87.5175497  62.6960767   2.2265126  87.8109063  62.4243355
   3.3321297  88.1015942  63.4168030  12.9733446  96.5774656  62.7790295
  12.6818254  96.9404636  63.6153756  12.3605577  95.8641664  62.6003627
  14.1729128  94.1427535  55.2992865  15.0076020  94.5817340  55.4630426
  14.3088257  93.6666189  54.4801111  11.2220634  91.7007270  61.2470353
  11.6974756  91.8934917  60.4389204  10.2986199  91.7566456  61.0013737
   5.8000851  83.7355114  60.2126187   6.3182794  84.4716141  59.8872676
   5.4455983  84.0419107  61.0472946   6.0513445  80.1555396  55.7327084
   6.3315199  79.4878585  56.3587510   6.8364052  80.3484492  55.2201747
   3.8546913  99.3314390  47.2952110   3.2820880  99.9504577  46.8422582
   4.4279707  99.8813752  47.8292032   9.9222303  88.5773030  59.4798659
  10.8739726  88.6771128  59.5010883   9.7525754  87.7851299  59.9896743
   7.9436683  85.6628614  59.6658060   7.3486615  85.9433626  58.9704548
   7.6586379  86.1522515  60.4374801   7.0744173  99.6151540  48.4260692
   8.0074846  99.5497102  48.6293568   6.9867386 100.4507807  47.9675225
   9.7032190  98.9317411  45.3864640   9.6245821  98.5977274  46.2800398
  10.5241857  99.4239179  45.3856112  12.4010381  91.7979150  58.5940958
  12.3686701  90.8595151  58.7800642  13.0111005  91.8763187  57.8606783
   4.2393712  90.6675203  44.6368162   5.1852816  90.5381411  44.7056580
   3.8607957  89.9289865  45.1137591  12.5504869  88.5890194  58.6399242
  12.0343918  87.8048650  58.4529170  13.4344818  88.2608910  58.8045761
  10.2115596  82.3331209  54.5995054  10.0140417  82.0246297  55.4838386
  10.8215302  83.0592848  54.7292984  18.2186931  92.8595157  57.7346995
  18.9490319  92.5980445  58.2954698  17.6093876  92.1223879  57.7749063
  16.3002228  91.0003020  58.3321446  15.5735391  90.8658984  57.7237938
  15.8849515  91.3079848  59.1378164   4.1232404  94.7192949  66.0968819
   5.0435414  94.8971548  66.2908866   4.0881987  93.7748995  65.9448519
   2.4236629  88.5925179  44.5723048   1.5168084  88.2958292  44.6485761
   2.7012610  88.2954998  43.7057334   4.0398695  83.1362069  50.7267289
   3.2299423  82.7909154  51.1022535   4.7283112  82.8269613  51.3154900
   5.9689243  82.2140116  52.3491586   6.5220282  82.6335569  53.0081609
   6.2059329  81.2875864  52.3914542   1.9922342  88.2027190  68.1294349
   1.8919069  89.1521547  68.0606441   1.7743884  87.8745429  67.2570420
   1.1935414  85.4512115  44.7135027   2.0554578  85.7767013  44.9730844
   1.3785758  84.6643611  44.2008093   9.3468050  84.3240641  51.8570250
   8.7666719  84.9825445  51.4748302   9.0803983  83.5017986  51.4457667
   7.7971616  83.7245699  54.0591570   8.2971395  83.8362233  53.2505889
   8.4407224  83.4206752  54.6992379   1.8553612  91.6324328  66.9459411
   1.3720694  92.4324689  67.1523300   1.9414551  91.6432273  65.9926855
   8.1292928  86.4840732  50.9126598   7.2418783  86.7690382  50.6946793
   8.5446917  86.3234495  50.0653875  11.4807464  86.5087253  54.6280937
  12.2567854  86.9983705  54.9005554  10.7555598  86.9345307  55.0852807
  13.9180023  87.2214872  55.6854878  14.5124514  86.9810608  54.9748186
  13.9906606  86.5022002  56.3128414   7.2736141  96.2485406  45.0074618
   7.9771992  96.4535409  45.6232274   6.5498790  96.8162168  45.2723702
   8.1033952  91.9995267  51.1276888   8.0469153  92.4563819  50.2884521
   8.6562294  91.2385952  50.9499731  11.9138758  87.7884999  51.9527008
  11.6575692  87.3881635  52.7835215  11.2891626  88.5028793  51.8277147
  16.2251096  90.5281073  54.4598299  15.6650654  90.5974262  55.2329861
  15.6194599  90.3522057  53.7397795   9.1822839  96.6867935  47.0573078
  10.0168443  96.2549134  46.8750553   9.0207182  96.5149949  47.9849973
   8.8368731  93.1900049  48.4229417   8.7817535  93.0244320  47.4817861
   8.2114786  93.8976082  48.5791607   6.1514638  95.4948961  67.7482980
   7.0205798  95.6689613  67.3869615   5.6721390  96.3143377  67.6258709
   2.1464857  82.6908158  48.0014736   2.1343526  83.6349998  48.1583007
   3.0388278  82.5078303  47.7074197   2.0754421 101.3677048  56.0882492
   1.1250052 101.3678910  55.9746865   2.3786907 100.6209783  55.5718527
   5.9616976  79.2850934  52.2560673   5.1949372  78.7309421  52.4017355
   6.3727681  79.3572803  53.1174824  17.8107114 107.2037587  57.1528255
  18.4485524 107.0844334  56.4491595  17.6927957 108.1518430  57.2116207
  14.6196820 107.1565015  57.0889780  14.2815332 107.0406079  56.2010314
  15.4886588 106.7556180  57.0690786  10.4783636 109.0100491  53.0786670
   9.9148501 108.9190428  52.3102958  10.3636031 108.1900395  53.5589163
  15.1016603 108.3099866  63.0475985  15.0905244 107.9152665  62.1756489
  15.2637243 107.5765939  63.6409756   8.0248068 110.5051683  55.9170891
   8.8169360 110.1642507  55.5017190   8.2644718 110.6146658  56.8373044
  16.0583195 112.6771459  48.3901135  15.4071174 113.2625539  48.0035149
  16.8527557 113.2077654  48.4496173   9.9838822 109.7660596  48.7888270
  10.7569698 109.2189583  48.6501146  10.3364221 110.6304845  49.0002731
  11.8223864 111.0936978  61.9955169  11.5313730 111.9982609  61.8801835
  12.4580849 111.1353506  62.7099239  12.7480071 108.4713827  58.5856529
  13.3443644 108.2469849  57.8713492  12.8055043 107.7298572  59.1881977
  12.3205100 105.9253262  46.4206720  12.5730620 105.4034783  45.6590183
  11.3829659 105.7619407  46.5233403  17.3648382 104.9289040  54.2281463
  18.1511472 104.5108464  53.8771880  17.6287087 105.8335133  54.3963111
  17.5358460 110.3661891  48.9270120  16.9004293 110.4396517  49.6391024
  17.2055866 110.9555490  48.2489199  22.7656810 104.8664274  55.1314441
  23.4981982 104.2963490  55.3652271  22.0096165 104.4785874  55.5720947
  12.0401388 107.8281368  48.6231095  11.9237647 107.1526271  49.2912179
  12.1503648 107.3413742  47.8063248  14.3832929 107.2891515  52.3277784
  14.0191137 106.7622136  53.0390705  15.2400045 106.8989984  52.1544269
  20.2882230  98.5785848  59.5909050  19.9565555  99.4481259  59.3670265
  19.6927843  98.2622132  60.2703080  14.0238416 102.3181415  47.3239132
  14.1912819 103.1861651  47.6909603  13.8335585 102.4808696  46.4000422
  16.7813749 110.7798394  58.9904963  16.4814473 111.6823432  58.8820770
  16.4364809 110.5130577  59.8426116  10.2326231 107.2312191  55.0241667
   9.3076727 107.0988405  55.2319359  10.4810644 108.0106410  55.5211610
  20.1810893 103.2980934  56.6702400  19.2727771 103.2296342  56.3761161
  20.1298489 103.7752879  57.4984226  14.0027637 104.7739072  48.3085799
  13.8827262 105.2196123  49.1471279  13.3080226 105.1224390  47.7499337
   7.5935042 106.8745464  55.8585456   7.7227423 107.1279943  56.7724868
   6.9132493 107.4673172  55.5390111  11.7634529 117.5442714  51.9575930
  11.6858559 118.4950539  52.0364411  11.1596173 117.1988587  52.6150857
  14.2551759 104.7170579  64.6137297  13.4785093 105.2764500  64.6040162
  14.8942322 105.2027362  65.1352167  22.0472540 101.4997372  58.4480274
  21.4046920 101.7929905  57.8020069  21.5427468 101.3850293  59.2533471
  19.7012703 105.2460545  49.1366133  20.6130559 105.4787932  48.9613831
  19.1922350 105.8297590  48.5741212  12.5098131 107.5256033  64.1755264
  13.2512816 108.0641077  63.8990088  11.8035117 108.1522322  64.3326816
  17.9853471 109.6685173  62.7727426  18.3936827 109.2267584  62.0282058
  17.2630733 109.0937801  63.0261619  14.3384541 104.6057780  60.1460983
  15.1845736 105.0297194  60.2895632  14.2783179 103.9491404  60.8399546
  18.3082286 110.2286364  56.5279715  17.6791148 110.3932078  55.8255783
  17.9207948 110.6427973  57.2990679  22.1871518 111.1640802  53.8824078
  21.5022556 111.5439703  53.3321112  22.2715367 111.7736128  54.6156026
  17.4883986 102.2662148  61.8042156  17.2444918 103.0204209  61.2676432
  17.7643917 102.6447496  62.6389403  19.4422449 108.8100761  60.4819422
  19.6539344 109.4532521  59.8053803  19.3952197 107.9763077  60.0141352
  17.0448678 101.4218581  57.3855994  16.1833157 101.7199835  57.6772732
  17.0711113 101.6388980  56.4537027  13.8610248 109.9660772  53.7929800
  14.3248593 110.2448475  53.0034422  13.5967046 109.0644217  53.6102890
  10.7534329 109.5132254  56.7309563  11.3235686 109.9419522  56.0927048
  11.3442440 109.2314838  57.4293749  12.7979134 106.0883924  50.6019365
  13.5003177 106.5404968  51.0693291  12.4659762 105.4467743  51.2299258
  11.2459495 104.6795681  64.9770574  10.6158156 105.3611962  65.2105971
  11.1395583 104.5678763  64.0323713   6.5404468 104.3467477  55.9036498
   5.7503522 104.6025006  55.4276609   7.0315715 105.1615815  56.0088539
  20.5568277 111.6872716  58.6541779  21.3785721 111.2852903  58.3724461
  20.5530680 111.5840950  59.6057895   8.4919213 104.7112056  52.8619975
   7.6950376 104.8230751  53.3803471   8.2644805 105.0498708  51.9960866
  14.3224881 111.2356759  60.8102490  14.3869313 111.6977167  61.6460662
  13.6135804 110.6054124  60.9384800   4.8242171 104.5997967  58.3351489
   5.0750209 105.4844977  58.6009065   5.3601719 104.4202569  57.5626581
  28.6474270 108.0311465  55.0026751  27.8937979 107.4618863  54.8470755
  28.7821811 107.9974129  55.9497385  14.0372898 112.9024867  50.6781470
  13.9018573 113.7476403  51.1066318  14.5782711 113.1044145  49.9147404
  10.5240238  98.9816447  67.3395825  10.1307183  98.4282645  68.0143470
  11.3406378  99.2927025  67.7302343   7.4902296 110.4200305  51.2509395
   8.0026816 111.2143555  51.4014960   8.1425008 109.7226595  51.1842997
   9.2997180 113.5366061  53.3332148   9.4763809 114.4584026  53.1453132
  10.0954014 113.2224480  53.7626528  13.4408199 100.3974326  64.9316082
  14.1817912 100.9981479  64.8520544  13.6726122  99.6551964  64.3734124
   8.5849537 105.5830693  63.2094312   8.4703052 104.6815950  63.5101411
   7.7294055 105.8294390  62.8579128  15.6641375 113.5248433  64.8081812
  15.2205229 112.7384812  64.4902717  16.3258588 113.7127584  64.1425703
  10.4228496 115.0544235  59.3342491  10.9735921 114.9261298  58.5619485
   9.5839972 115.3539124  58.9837384  17.7622613 113.8051233  62.8363213
  17.7441088 114.6260114  62.3443483  18.6842533 113.6805309  63.0613355
  14.2195667 111.3195363  63.6786722  14.7524004 110.5583651  63.4486030
  13.6909748 111.0269015  64.4210876  17.3865362  96.4255429  59.2080364
  17.0429631  97.3157071  59.1319474  17.7544324  96.2357086  58.3449949
   5.4551212 108.7488959  52.0268966   6.2926434 109.1585968  51.8102673
   5.6329480 107.8088401  51.9969160  17.3515644 106.4164040  47.7152799
  16.8362268 107.1868645  47.9541186  17.0792953 105.7429176  48.3385860
  14.9362756 101.2613741  52.7738037  14.0804352 100.8720591  52.5943676
  15.3489707 101.3405702  51.9137823  16.4661902  98.7960084  57.1729597
  15.9626698  98.7590219  56.3597402  16.7592509  99.7052827  57.2326254
  12.7104788  98.8798814  56.1795779  13.5757785  98.6841622  55.8201668
  12.7782297  98.6509165  57.1065135  22.3249919 109.1696395  49.6505972
  21.5479361 108.8307554  49.2061134  23.0041400 109.1749018  48.9760937
  17.1401948 104.2891132  49.5412580  16.8352083 104.6037281  50.3922723
  18.0932390 104.3672552  49.5839913  15.5848380 110.4481355  51.1905534
  15.0569741 109.7134115  50.8778771  15.0835882 111.2256032  50.9445502
  20.5641226 108.6430376  56.3072580  19.9064900 109.3329637  56.3952709
  21.3681625 109.0326808  56.6506567  10.3167107 101.1101022  53.5512145
  10.8910859 100.8876203  52.8185338  10.9038090 101.1789716  54.3040747
  19.3746684 106.9974749  54.3576522  19.8878566 107.6304740  54.8598232
  20.0247908 106.3975944  53.9919882  10.6436694 103.1405483  47.5708031
   9.8074006 103.4780169  47.8917305  10.5041464 103.0054462  46.6335168
  12.6189775  97.9842271  52.2787215  11.9654187  97.6691288  51.6543830
  12.5770249  97.3618011  53.0047038  13.7300980 108.2661566  44.1940507
  12.8228041 108.0350819  44.3931656  14.2272012 107.4699185  44.3814488
  16.6369059 116.9759073  47.1137193  15.9630757 117.2790770  47.7222151
  17.0234881 117.7788153  46.7642650  15.8527515 104.4724204  56.6034862
  14.9350077 104.6939151  56.4456551  16.2687659 104.5470515  55.7446570
  16.6362563 105.8715620  51.7337543  17.3834382 106.3837017  51.4244665
  16.9054153 105.5499672  52.5941936  14.9089213 108.3674160  48.7164497
  14.0000432 108.0833193  48.8136967  14.9384297 108.7873239  47.8567804
  20.1408481 111.9780750  52.4855665  19.6870808 111.1371660  52.5420855
  19.5102447 112.6142148  52.8230445  19.0841400 102.9072736  53.7156332
  18.3464157 102.3950122  54.0466575  19.3368174 102.4673118  52.9039609
  18.5841420 113.8157247  53.4205483  18.8764394 114.3762304  52.7017848
  19.0940040 114.1085808  54.1758642  19.1853027  95.6848988  54.3098101
  19.4911904  94.8246351  54.0224016  19.9105632  96.2766608  54.1097095
   5.4777384 106.0879675  52.6979699   5.2801783 105.4949035  51.9730766
   4.9224048 105.7831885  53.4155638  13.4574107 105.9802781  54.8174292
  13.5122717 105.0276617  54.7416769  12.6465309 106.1362220  55.3015591
  14.6065301 109.9082904  46.0552576  14.1684731 109.1918763  45.5958213
  15.3475742 110.1359019  45.4937667  11.3966467 104.5979841  52.5764671
  10.5834333 104.8974011  52.9829863  11.8925461 104.2035530  53.2939153
  13.5475045 114.5937598  54.5098936  13.5051224 114.8198444  53.5807468
  14.4637744 114.3600972  54.6584737  16.9940679 105.0621665  61.4079565
  17.3490066 105.2893138  62.2674031  17.6412810 105.3940042  60.7856820
  22.7238416 108.1840101  52.1128894  22.5856314 108.3741697  51.1850083
  22.3674635 108.9459484  52.5696945  10.8880542 102.1698196  58.1925906
  11.5279921 102.0286955  57.4948869  10.0558072 101.8832710  57.8164508
  22.7507795 110.2516628  57.1240166  23.1844302 110.1591917  57.9723220
  23.4639376 110.2274129  56.4860182  11.6640846 111.4700627  54.3060899
  12.4581444 110.9750947  54.1043474  10.9532538 110.9418490  53.9428604
  16.4835690 113.8518722  58.6573266  16.5372713 114.4209659  59.4250982
  15.6150472 114.0220607  58.2927303   7.9723609 105.6143709  50.3820651
   7.0421197 105.5528164  50.5990613   8.0681081 105.0919661  49.5857293
   7.8909158 102.1398521  52.9698893   8.1515976 103.0543855  52.8608053
   8.7126331 101.6722964  53.1195506   9.3634084 103.5536279  60.1397717
  10.0357137 103.3453641  59.4910366   8.5363870 103.3558365  59.7002950
  23.6123345 110.2940329  59.6573051  23.8059235 111.1986139  59.9032326
  23.5123963 109.8347748  60.4911636  15.2659656 100.1798219  62.1563378
  14.6187571 100.8788169  62.0627855  16.0360671 100.6134363  62.5239627
  18.6738454 110.4447072  65.2313932  18.5223960 110.2157623  64.3144015
  18.6643133 111.4017673  65.2445277  15.4423790 108.0178984  60.2160198
  16.3715850 108.1690144  60.0429165  15.0214820 108.1063005  59.3608845
  14.2412122 112.0429649  57.9858736  14.1023207 111.6748433  58.8584674
  13.4526718 112.5577288  57.8142694  14.8360274 117.1438745  49.3284272
  15.0112029 116.6726788  50.1429895  14.1493062 117.7704511  49.5565533
  15.7917337 111.4211251  55.3747573  15.4567170 111.3812021  56.2705223
  15.2921283 110.7555967  54.9017984   9.7661581 106.8278881  60.9000155
   9.6281379 106.0959120  61.5011694  10.6766504 106.7387782  60.6184342
  18.7276529 108.7667286  45.6484633  18.1105699 108.0414114  45.5517686
  18.2593017 109.5276646  45.3051707  12.3943882 106.5398841  60.3883834
  13.1043500 105.8992033  60.3470453  12.3513190 106.7911736  61.3110015
  20.3830660 113.4766194  63.3090414  20.3243206 112.7925414  62.6420997
  20.7850179 114.2185184  62.8571039  11.1072816 103.5264059  62.2079474
  10.5710173 103.0754797  62.8601070  10.5189524 103.6609968  61.4649938
  10.5175074 102.9852710  44.7705937   9.6404541 102.8641511  44.4068184
  10.9932828 102.1938788  44.5184826  20.3848067 111.4405778  61.5404393
  19.4974846 111.1031700  61.6630792  20.9546619 110.7088809  61.7773159
   2.0377215 107.7729870  54.8647445   2.7248254 107.4591600  54.2768460
   1.8825343 108.6771234  54.5914696   6.8411937 102.6620066  59.2932468
   6.7570125 102.0545736  58.5582878   6.0194643 103.1529085  59.2941965
  13.9149221 116.1007230  58.5065636  13.8419392 116.9062202  59.0184941
  13.4726614 116.2999196  57.6813658  13.7039000 115.3379000  52.0168458
  12.9206522 115.8800681  52.1106682  14.4031746 115.8552980  52.4162699
  17.0135651 101.1473630  54.6602663  17.5104350 100.3943592  54.3403734
  16.2422632 101.1837947  54.0945873  24.8665408 106.8513995  56.3020955
  24.8555284 107.7338711  55.9314888  23.9982787 106.4985546  56.1075492
  16.3747904 115.9994064  60.6623795  17.0875877 116.6341529  60.5899697
  15.8837933 116.0957930  59.8463797  18.0965431 109.9045317  52.2341087
  17.1621710 110.0246780  52.0645791  18.2742100 109.0017784  51.9701097
  13.5970619 103.2891013  54.3874348  13.2268407 102.7362053  55.0755254
  14.0929712 102.6849146  53.8349348  21.4837983 105.7462636  52.7691121
  21.9498435 106.5790628  52.6951424  21.9345483 105.2807618  53.4736379
  11.4259818 113.7488508  61.4829366  12.1269277 114.3824991  61.6358760
  10.9554933 114.0903239  60.7225005  19.5514214 112.0906458  49.7677273
  19.8274058 111.9763052  50.6771147  18.6818712 111.6923943  49.7289446
  19.4554645  98.1143223  56.8082022  18.5417725  98.3447450  56.9764229
  19.8847747  98.1981667  57.6596055  19.2261104 106.3033115  59.3081916
  18.5732554 106.5509023  58.6534369  19.6041484 105.4897254  58.9744394
  16.1868278 116.3392809  53.4110087  16.3690672 115.5214464  53.8737839
  17.0101264 116.5560501  52.9734977  16.5210443 115.2660994  50.6725135
  17.0498210 114.7553448  50.0595297  16.7838663 114.9503524  51.5370668
  15.2748677 107.0452926  65.7947953  14.5989314 106.9447056  66.4650329
  16.0976311 106.8892140  66.2583951   7.0227536 113.2824863  58.4160469
   7.6080973 112.5368551  58.5488373   6.8252374 113.5928820  59.2997132
   9.8766191 116.3176110  53.4322911   9.2076566 116.8022238  52.9486951
   9.7379061 116.5645331  54.3466289   1.6145191 105.8530463  57.1364912
   1.6529290 105.3194054  57.9302030   1.1085484 105.3265669  56.5175889
  14.0171460 118.3519854  60.0305569  14.5689768 118.5151475  60.7954655
  14.3577653 118.9424292  59.3585594   8.9935953 100.6995004  60.6327454
   9.0577280 101.5609835  60.2204852   8.9303073 100.0869005  59.8999813
   8.4688226 102.7718136  64.2800488   9.0960264 102.3895214  64.8938013
   7.6116144 102.5532338  64.6456181  18.8682334 113.1781111  65.8854224
  19.4122238 113.7911070  65.3909179  18.2869179 113.7360690  66.4021237
   5.2453768 104.5794565  50.2118843   5.5407209 103.6705244  50.1585897
   4.3441804 104.5582305  49.8899845  17.1539847 116.3001829  57.0169251
  17.0290987 115.4991569  56.5080197  17.8118938 116.7948023  56.5283221
   8.7748015 102.6550562  56.1946392   8.0534601 103.2686530  56.0553865
   9.5641271 103.1908327  56.1163038  19.2174755 114.1010850  58.6448802
  18.2705091 113.9816201  58.5727128  19.5657529 113.2133348  58.7275063
  11.5774329  99.9904988  62.4687043  12.1008731 100.2367285  63.2313353
  11.3586662 100.8225023  62.0490181   6.9741610 102.2608663  50.3358168
   6.6454316 101.3806042  50.1533274   7.3280981 102.2056332  51.2234557
  16.2221189 113.8963566  54.8453154  16.0746151 112.9680273  55.0260724
  17.0474682 113.9183656  54.3610229  10.0883433 102.5481633  50.7033646
  10.4279506 103.0767554  49.9812254  10.5355554 102.8862039  51.4792212
  19.8255311 114.7192124  55.9318027  20.7501858 114.5134986  55.7942478
  19.6570614 114.4708526  56.8407368  12.7826874 100.9318684  60.1536714
  12.4423694 100.1326497  60.5557394  12.0765880 101.2320394  59.5813547
  13.4343346  98.0167996  58.6064037  14.2569415  97.5428474  58.4842927
  13.6781409  98.7958480  59.1062723  12.0751580 101.0456254  48.9026939
  12.7959943 101.4237507  48.3990656  11.4516884 101.7645131  49.0061917
  16.2182703 101.7501403  49.8385271  16.4346317 102.6326041  49.5374099
  15.7376770 101.3587617  49.1090913  10.9581924 104.7087117  56.4156016
  10.8126505 105.0227420  57.3080297  10.4807128 105.3272017  55.8626914
  12.8178307 101.6989665  56.4636905  12.8039876 100.8030758  56.1269203
  13.5350735 101.7060328  57.0975191  14.6704438 102.1327005  58.5090033
  14.4122216 103.0544075  58.5074363  14.1389478 101.7357439  59.1990497
  19.6150627 115.2377792  51.2880118  19.7887504 114.6724214  50.5353970
  20.1079518 116.0378687  51.1059608   5.4327587 107.2492461  59.3543677
   4.8881055 108.0252269  59.4863951   6.3106936 107.5963265  59.1962798
  12.2215203 100.5804045  51.7324475  12.3431114  99.6520691  51.9315363
  11.9317246 100.5942731  50.8202791  15.0906394  98.2658955  54.8691195
  15.1128090  98.3298288  53.9143175  15.5074453  97.4263464  55.0631701
  25.4690018 108.0014215  52.9070418  25.9121164 107.2521540  52.5089541
  24.5916528 107.9924351  52.5244150  20.6025799 114.5544556  48.3877016
  21.2976704 115.1751249  48.6064331  20.9448949 113.7039908  48.6629394
   6.2193608 106.3762357  62.2473834   5.4775345 106.5244993  62.8338464
   5.8986353 106.6370623  61.3840583  22.5017222 112.0044262  49.9164347
  23.0268547 112.3431535  49.1913667  22.4139575 111.0691277  49.7327482
  14.1637271 115.9178335  62.0454224  14.4724398 115.6727482  62.9176923
  14.9612753 116.1224974  61.5573094  14.1857883 118.0716245  54.2759600
  13.7462873 117.5792624  54.9692457  14.9366000 117.5289213  54.0351675
   6.6650222 114.2627786  54.2784228   7.4908242 113.9631558  53.8982872
   6.3144274 113.4935408  54.7274017  11.6331755 113.6154254  56.3481902
  11.0111765 112.9524959  56.0484130  12.3036622 113.6415386  55.6655550
   4.8658827 112.1814112  55.2373162   4.0290736 111.7536287  55.0557163
   4.8382473 112.3746556  56.1743953  11.7056283 102.0936042  65.9414408
  11.7544438 102.9698165  65.5592178  12.2478797 101.5513435  65.3686051
  22.1911128 112.6377165  65.2215545  21.4006672 112.6201304  64.6820044
  21.9544483 113.1765459  65.9764582  22.3109004 109.4869632  62.5348274
  22.3607008 109.3219639  63.4763796  22.2022927 108.6196891  62.1446154
  11.1945262 112.1658178  49.8240362  11.3433383 112.8493642  49.1707035
  12.0011706 112.1463268  50.3389818  19.6012766 105.4700560  63.8507580
  20.5022629 105.3307025  63.5591578  19.6760740 105.6355015  64.7905758
  13.9355571 102.8467415  62.6960767  13.0658881 103.1400981  62.4243355
  14.1715052 103.4307860  63.4168030  23.8127200 111.9066573  62.7790295
  23.5212009 112.2696554  63.6153756  23.1999332 111.1933582  62.6003627
  25.0122883 109.4719453  55.2992865  25.8469774 109.9109257  55.4630426
  25.1482011 108.9958106  54.4801111  22.0614389 107.0299188  61.2470353
  22.5368510 107.2226834  60.4389204  21.1379954 107.0858374  61.0013737
   8.9497895 108.1923355  50.8301431   8.7043937 107.2885685  51.0281641
   9.1193810 108.1940506  49.8880909  16.6394605  99.0647032  60.2126187
  17.1576549  99.8008058  59.8872676  16.2849738  99.3711025  61.0472946
   8.2193543 103.9251713  48.3287593   7.5262788 103.9996068  47.6727629
   7.9745295 103.1612056  48.8509110  16.8907199  95.4847314  55.7327084
  17.1708953  94.8170503  56.3587510  17.6757806  95.6776410  55.2201747
  14.6940668 114.6606308  47.2952110  14.1214635 115.2796495  46.8422582
  15.2673461 115.2105670  47.8292032  20.7616058 103.9064948  59.4798659
  21.7133480 104.0063046  59.5010883  20.5919508 103.1143217  59.9896743
  18.7830437 100.9920531  59.6658060  18.1880369 101.2725544  58.9704548
  18.4980134 101.4814432  60.4374801  17.9137928 114.9443458  48.4260692
  18.8468601 114.8789020  48.6293568  17.8261140 115.7799725  47.9675225
  20.5425944 114.2609328  45.3864640  20.4639576 113.9269192  46.2800398
  21.3635611 114.7531096  45.3856112  23.2404135 107.1271068  58.5940958
  23.2080455 106.1887069  58.7800642  23.8504759 107.2055104  57.8606783
  15.0787466 105.9967121  44.6368162  16.0246571 105.8673329  44.7056580
  14.7001711 105.2581783  45.1137591  23.3898624 103.9182111  58.6399242
  22.8737673 103.1340568  58.4529170  24.2738572 103.5900828  58.8045761
  21.0509351  97.6623127  54.5995054  20.8534172  97.3538215  55.4838386
  21.6609056  98.3884766  54.7292984  29.0580685 108.1887075  57.7346995
  29.7884074 107.9272363  58.2954698  28.4487631 107.4515797  57.7749063
  27.1395982 106.3294937  58.3321446  26.4129146 106.1950902  57.7237938
  26.7243269 106.6371766  59.1378164  14.9626159 110.0484867  66.0968819
  15.8829168 110.2263466  66.2908866  14.9275742 109.1040912  65.9448519
  13.2630383 103.9217097  44.5723048  12.3561839 103.6250210  44.6485761
  13.5406364 103.6246915  43.7057334   4.1808324 105.2423461  55.0222094
   3.8611108 104.3888769  54.7296468   3.6341752 105.4572039  55.7780061
   7.9588231 107.9585902  58.7391600   8.1774241 108.8903009  58.7579634
   8.3714005 107.5993876  59.5246404  14.8792449  98.4653987  50.7267289
  14.0693177  98.1201072  51.1022535  15.5676866  98.1561531  51.3154900
  16.8082997  97.5432034  52.3491586  17.3614036  97.9627487  53.0081609
  17.0453084  96.6167782  52.3914542  12.8316097 103.5319107  68.1294349
  12.7312824 104.4813464  68.0606441  12.6137639 103.2037346  67.2570420
  12.0329168 100.7804032  44.7135027  12.8948332 101.1058931  44.9730844
  12.2179512  99.9935528  44.2008093   4.0496584 108.8626372  56.9915216
   3.3560055 108.4480325  56.4785170   4.7969575 108.9046909  56.3948634
  20.1861804  99.6532559  51.8570250  19.6060474 100.3117363  51.4748302
  19.9197737  98.8309903  51.4457667  18.6365371  99.0537617  54.0591570
  19.1365149  99.1654151  53.2505889  19.2800979  98.7498669  54.6992379
  12.6947367 106.9616246  66.9459411  12.2114448 107.7616606  67.1523300
  12.7808306 106.9724191  65.9926855   5.9633326 108.7944626  54.8681230
   5.9404014 108.8932313  53.9163114   6.2733963 109.6409777  55.1898397
   8.6220704 110.8520781  58.9827845   9.5763958 110.8204723  58.9157776
   8.4233228 110.3911405  59.7978071   9.2120086 109.4221897  61.5498643
  10.0312975 109.9165976  61.5733480   9.4856894 108.5053865  61.5216210
  18.9686683 101.8132649  50.9126598  18.0812538 102.0982300  50.6946793
  19.3840672 101.6526413  50.0653875  22.3201219 101.8379170  54.6280937
  23.0961609 102.3275623  54.9005554  21.5949353 102.2637224  55.0852807
  24.7573777 102.5506789  55.6854878  25.3518268 102.3102525  54.9748186
  24.8300361 101.8313920  56.3128414   6.9770933 116.3940400  55.9998043
   6.8425401 115.6340801  55.4336041   6.5602995 117.1181300  55.5326832
  18.1129896 111.5777324  45.0074618  18.8165746 111.7827326  45.6232274
  17.3892545 112.1454086  45.2723702  18.9427706 107.3287185  51.1276888
  18.8862908 107.7855737  50.2884521  19.4956049 106.5677870  50.9499731
  22.7532512 103.1176917  51.9527008  22.4969446 102.7173553  52.7835215
  22.1285380 103.8320711  51.8277147  27.0644850 105.8572990  54.4598299
  26.5044408 105.9266180  55.2329861  26.4588353 105.6813975  53.7397795
  10.1340059 117.2909717  56.2116485  10.0172443 118.2355150  56.1095176
   9.3132505 116.9883279  56.6002285  20.0216593 112.0159853  47.0573078
  20.8562197 111.5841052  46.8750553  19.8600936 111.8441867  47.9849973
  19.6762486 108.5191966  48.4229417  19.6211289 108.3536238  47.4817861
  19.0508541 109.2267999  48.5791607   4.4655001 103.7560031  62.2490840
   5.1113864 103.2458985  62.7378065   4.2572152 104.4928712  62.8234265
  16.9908393 110.8240878  67.7482980  17.8599552 110.9981531  67.3869615
  16.5115144 111.6435295  67.6258709  12.9858611  98.0200075  48.0014736
  12.9737281  98.9641915  48.1583007  13.8782033  97.8370221  47.7074197
  11.1594573 117.9437979  59.4272414  12.0621820 117.9761590  59.7438909
  10.9331943 117.0138430  59.4418750  12.9148175 116.6968966  56.0882492
  11.9643806 116.6970827  55.9746865  13.2180661 115.9501700  55.5718527
  16.8010730  94.6142852  52.2560673  16.0343126  94.0601339  52.4017355
  17.2121435  94.6864721  53.1174824   8.8052492 100.9027648  66.3465854
   9.6683953 100.5464453  66.5569178   8.2317902 100.5641543  67.0341258
  28.6500868 122.5329504  57.1528255  29.2879278 122.4136252  56.4491595
  28.5321711 123.4810348  57.2116207  25.4590575 122.4856932  57.0889780
  25.1209086 122.3697997  56.2010314  26.3280343 122.0848097  57.0690786
  21.3177390 124.3392409  53.0786670  20.7542256 124.2482346  52.3102958
  21.2029786 123.5192313  53.5589163  25.9410358 123.6391784  63.0475985
  25.9298999 123.2444582  62.1756489  26.1030997 122.9057857  63.6409756
  23.5873826 123.8005744  58.5856529  24.1837398 123.5761767  57.8713492
  23.6448797 123.0590490  59.1881977  23.1598854 121.2545180  46.4206720
  23.4124375 120.7326701  45.6590183  22.2223413 121.0911325  46.5233403
  28.2042137 120.2580958  54.2281463  28.9905226 119.8400381  53.8771880
  28.4680841 121.1627050  54.3963111  28.3752214 125.6953808  48.9270120
  27.7398047 125.7688435  49.6391024  28.0449621 126.2847407  48.2489199
  33.6050564 120.1956191  55.1314441  34.3375736 119.6255408  55.3652271
  32.8489920 119.8077792  55.5720947  22.8795143 123.1573286  48.6231095
  22.7631401 122.4818189  49.2912179  22.9897403 122.6705660  47.8063248
  25.2226684 122.6183433  52.3277784  24.8584891 122.0914054  53.0390705
  26.0793800 122.2281902  52.1544269  31.1275984 113.9077765  59.5909050
  30.7959309 114.7773176  59.3670265  30.5321598 113.5914049  60.2703080
  24.8632171 117.6473332  47.3239132  25.0306573 118.5153569  47.6909603
  24.6729340 117.8100614  46.4000422  27.6207504 126.1090311  58.9904963
  27.3208227 127.0115350  58.8820770  27.2758564 125.8422495  59.8426116
  21.0719985 122.5604108  55.0241667  20.1470482 122.4280322  55.2319359
  21.3204399 123.3398327  55.5211610  31.0204648 118.6272852  56.6702400
  30.1121525 118.5588260  56.3761161  30.9692244 119.1044796  57.4984226
  24.8421392 120.1030990  48.3085799  24.7221017 120.5488041  49.1471279
  24.1473980 120.4516308  47.7499337  18.4328797 122.2037382  55.8585456
  18.5621178 122.4571861  56.7724868  17.7526248 122.7965090  55.5390111
  25.0945514 120.0462497  64.6137297  24.3178848 120.6056417  64.6040162
  25.7336077 120.5319280  65.1352167  32.8866294 116.8289290  58.4480274
  32.2440674 117.1221823  57.8020069  32.3821223 116.7142210  59.2533471
  30.5406458 120.5752463  49.1366133  31.4524314 120.8079850  48.9613831
  30.0316105 121.1589507  48.5741212  23.3491886 122.8547950  64.1755264
  24.0906570 123.3932994  63.8990088  22.6428871 123.4814239  64.3326816
  28.8247225 124.9977091  62.7727426  29.2330582 124.5559501  62.0282058
  28.1024487 124.4229718  63.0261619  25.1778296 119.9349698  60.1460983
  26.0239491 120.3589111  60.2895632  25.1176933 119.2783322  60.8399546
  29.1476040 125.5578282  56.5279715  28.5184903 125.7223996  55.8255783
  28.7601702 125.9719891  57.2990679  33.0265272 126.4932719  53.8824078
  32.3416310 126.8731621  53.3321112  33.1109121 127.1028046  54.6156026
  28.3277741 117.5954066  61.8042156  28.0838673 118.3496127  61.2676432
  28.6037671 117.9739414  62.6389403  30.2816204 124.1392678  60.4819422
  30.4933099 124.7824438  59.8053803  30.2345952 123.3054995  60.0141352
  27.8842433 116.7510499  57.3855994  27.0226912 117.0491753  57.6772732
  27.9104867 116.9680898  56.4537027  24.7004002 125.2952690  53.7929800
  25.1642348 125.5740393  53.0034422  24.4360800 124.3936134  53.6102890
  23.6372888 121.4175842  50.6019365  24.3396931 121.8696886  51.0693291
  23.3053517 120.7759661  51.2299258  22.0853250 120.0087599  64.9770574
  21.4551910 120.6903880  65.2105971  21.9789337 119.8970680  64.0323713
  17.3798222 119.6759395  55.9036498  16.5897276 119.9316923  55.4276609
  17.8709469 120.4907733  56.0088539  31.3962032 127.0164634  58.6541779
  32.2179475 126.6144821  58.3724461  31.3924434 126.9132868  59.6057895
  19.3312967 120.0403974  52.8619975  18.5344131 120.1522668  53.3803471
  19.1038560 120.3790626  51.9960866  15.6635925 119.9289885  58.3351489
  15.9143963 120.8136895  58.6009065  16.1995473 119.7494487  57.5626581
  39.4868025 123.3603382  55.0026751  38.7331733 122.7910780  54.8470755
  39.6215566 123.3266047  55.9497385  21.3633992 114.3108364  67.3395825
  20.9700938 113.7574563  68.0143470  22.1800133 114.6218943  67.7302343
  24.2801953 115.7266244  64.9316082  25.0211667 116.3273397  64.8520544
  24.5119876 114.9843881  64.3734124  19.4243291 120.9122611  63.2094312
  19.3096806 120.0107868  63.5101411  18.5687809 121.1586308  62.8579128
  28.2259116 111.7547347  59.2080364  27.8823386 112.6448988  59.1319474
  28.5938079 111.5649004  58.3449949  28.1909399 121.7455958  47.7152799
  27.6756022 122.5160562  47.9541186  27.9186707 121.0721094  48.3385860
  25.7756510 116.5905658  52.7738037  24.9198106 116.2012509  52.5943676
  26.1883462 116.6697619  51.9137823  27.3055657 114.1252002  57.1729597
  26.8020452 114.0882137  56.3597402  27.5986264 115.0344744  57.2326254
  23.5498543 114.2090731  56.1795779  24.4151539 114.0133540  55.8201668
  23.6176051 113.9801083  57.1065135  33.1643673 124.4988312  49.6505972
  32.3873116 124.1599472  49.2061134  33.8435154 124.5040935  48.9760937
  27.9795702 119.6183050  49.5412580  27.6745838 119.9329199  50.3922723
  28.9326144 119.6964470  49.5839913  31.4034980 123.9722294  56.3072580
  30.7458654 124.6621555  56.3952709  32.2075379 124.3618725  56.6506567
  21.1560862 116.4392939  53.5512145  21.7304614 116.2168121  52.8185338
  21.7431844 116.5081634  54.3040747  30.2140439 122.3266666  54.3576522
  30.7272321 122.9596658  54.8598232  30.8641663 121.7267862  53.9919882
  21.4830449 118.4697400  47.5708031  20.6467761 118.8072087  47.8917305
  21.3435218 118.3346380  46.6335168  23.4583529 113.3134188  52.2787215
  22.8047942 112.9983205  51.6543830  23.4164003 112.6909929  53.0047038
  24.5694734 123.5953483  44.1940507  23.6621796 123.3642737  44.3931656
  25.0665766 122.7991103  44.3814488  26.6921270 119.8016122  56.6034862
  25.7743831 120.0231069  56.4456551  27.1081413 119.8762432  55.7446570
  27.4756317 121.2007537  51.7337543  28.2228136 121.7128935  51.4244665
  27.7447907 120.8791590  52.5941936  25.7482968 123.6966078  48.7164497
  24.8394187 123.4125111  48.8136967  25.7778051 124.1165157  47.8567804
  30.9802235 127.3072668  52.4855665  30.5264562 126.4663578  52.5420855
  30.3496202 127.9434066  52.8230445  29.9235155 118.2364654  53.7156332
  29.1857911 117.7242040  54.0466575  30.1761928 117.7965035  52.9039609
  30.0246782 111.0140906  54.3098101  30.3305659 110.1538269  54.0224016
  30.7499387 111.6058526  54.1097095  16.3171138 121.4171592  52.6979699
  16.1195538 120.8240953  51.9730766  15.7617802 121.1123802  53.4155638
  24.2967862 121.3094699  54.8174292  24.3516471 120.3568535  54.7416769
  23.4859064 121.4654138  55.3015591  25.4459055 125.2374822  46.0552576
  25.0078485 124.5210681  45.5958213  26.1869496 125.4650937  45.4937667
  22.2360222 119.9271759  52.5764671  21.4228087 120.2265929  52.9829863
  22.7319216 119.5327447  53.2939153  27.8334433 120.3913583  61.4079565
  28.1883821 120.6185056  62.2674031  28.4806564 120.7231960  60.7856820
  33.5632170 123.5132019  52.1128894  33.4250069 123.7033615  51.1850083
  33.2068389 124.2751402  52.5696945  21.7274296 117.4990114  58.1925906
  22.3673676 117.3578873  57.4948869  20.8951827 117.2124627  57.8164508
  33.5901550 125.5808546  57.1240166  34.0238056 125.4883835  57.9723220
  34.3033131 125.5566046  56.4860182  18.8117364 120.9435626  50.3820651
  17.8814952 120.8820082  50.5990613  18.9074836 120.4211579  49.5857293
  18.7302913 117.4690439  52.9698893  18.9909730 118.3835772  52.8608053
  19.5520085 117.0014882  53.1195506  20.2027838 118.8828196  60.1397717
  20.8750892 118.6745558  59.4910366  19.3757625 118.6850282  59.7002950
  34.4517099 125.6232247  59.6573051  34.6452989 126.5278057  59.9032326
  34.3517718 125.1639666  60.4911636  26.1053410 115.5090137  62.1563378
  25.4581325 116.2080087  62.0627855  26.8754426 115.9426281  62.5239627
  29.5132208 125.7738989  65.2313932  29.3617714 125.5449541  64.3144015
  29.5036888 126.7309591  65.2445277  26.2817544 123.3470902  60.2160198
  27.2109604 123.4982062  60.0429165  25.8608574 123.4354923  59.3608845
  20.6055335 122.1570799  60.9000155  20.4675133 121.4251038  61.5011694
  21.5160259 122.0679699  60.6184342  29.5670283 124.0959203  45.6484633
  28.9499454 123.3706032  45.5517686  29.0986772 124.8568564  45.3051707
  23.2337636 121.8690759  60.3883834  23.9437255 121.2283951  60.3470453
  23.1906944 122.1203653  61.3110015  21.9466570 118.8555976  62.2079474
  21.4103927 118.4046715  62.8601070  21.3583278 118.9901885  61.4649938
  21.3568829 118.3144628  44.7705937  20.4798295 118.1933429  44.4068184
  21.8326582 117.5230706  44.5184826  31.2241822 126.7697696  61.5404393
  30.3368601 126.4323618  61.6630792  31.7940373 126.0380727  61.7773159
  17.6805691 117.9911984  59.2932468  17.5963880 117.3837654  58.5582878
  16.8588398 118.4821002  59.2941965  27.8529405 116.4765548  54.6602663
  28.3498105 115.7235510  54.3403734  27.0816387 116.5129864  54.0945873
  35.7059163 122.1805913  56.3020955  35.6949039 123.0630629  55.9314888
  34.8376542 121.8277464  56.1075492  28.9359186 125.2337235  52.2341087
  28.0015465 125.3538697  52.0645791  29.1135854 124.3309702  51.9701097
  24.4364374 118.6182931  54.3874348  24.0662161 118.0653971  55.0755254
  24.9323466 118.0141064  53.8349348  32.3231737 121.0754554  52.7691121
  32.7892189 121.9082546  52.6951424  32.7739238 120.6099536  53.4736379
  30.3907968 127.4198375  49.7677273  30.6667812 127.3054970  50.6771147
  29.5212467 127.0215860  49.7289446  30.2948400 113.4435141  56.8082022
  29.3811480 113.6739368  56.9764229  30.7241501 113.5273585  57.6596055
  30.0654858 121.6325033  59.3081916  29.4126309 121.8800941  58.6534369
  30.4435238 120.8189171  58.9744394  26.1142431 122.3744844  65.7947953
  25.4383068 122.2738973  66.4650329  26.9370065 122.2184058  66.2583951
  12.4538945 121.1822381  57.1364912  12.4923045 120.6485972  57.9302030
  11.9479238 120.6557586  56.5175889  19.8329708 116.0286921  60.6327454
  19.8971034 116.8901752  60.2204852  19.7696828 115.4160923  59.8999813
  19.3081980 118.1010054  64.2800488  19.9354019 117.7187131  64.8938013
  18.4509899 117.8824256  64.6456181  16.0847523 119.9086483  50.2118843
  16.3800964 118.9997161  50.1585897  15.1835559 119.8874222  49.8899845
  19.6141770 117.9842480  56.1946392  18.8928356 118.5978447  56.0553865
  20.4035026 118.5200244  56.1163038  22.4168083 115.3196906  62.4687043
  22.9402485 115.5659203  63.2313353  22.1980417 116.1516941  62.0490181
  17.8135364 117.5900581  50.3358168  17.4848071 116.7097960  50.1533274
  18.1674735 117.5348249  51.2234557  20.9277188 117.8773550  50.7033646
  21.2673260 118.4059472  49.9812254  21.3749308 118.2153957  51.4792212
  23.6220628 116.2610601  60.1536714  23.2817449 115.4618414  60.5557394
  22.9159635 116.5612312  59.5813547  24.2737100 113.3459914  58.6064037
  25.0963170 112.8720392  58.4842927  24.5175164 114.1250397  59.1062723
  22.9145335 116.3748172  48.9026939  23.6353697 116.7529425  48.3990656
  22.2910639 117.0937049  49.0061917  27.0576458 117.0793321  49.8385271
  27.2740072 117.9617959  49.5374099  26.5770525 116.6879534  49.1090913
  21.7975679 120.0379034  56.4156016  21.6520260 120.3519337  57.3080297
  21.3200883 120.6563935  55.8626914  23.6572062 117.0281582  56.4636905
  23.6433631 116.1322676  56.1269203  24.3744490 117.0352246  57.0975191
  25.5098193 117.4618922  58.5090033  25.2515970 118.3835993  58.5074363
  24.9783233 117.0649357  59.1990497  23.0608958 115.9095963  51.7324475
  23.1824869 114.9812609  51.9315363  22.7711000 115.9234649  50.8202791
  25.9300148 113.5950873  54.8691195  25.9521845 113.6590206  53.9143175
  26.3468207 112.7555382  55.0631701  36.3083772 123.3306133  52.9070418
  36.7514919 122.5813458  52.5089541  35.4310283 123.3216269  52.5244150
  17.0587363 121.7054275  62.2473834  16.3169099 121.8536910  62.8338464
  16.7380107 121.9662541  61.3840583  33.3410977 127.3336180  49.9164347
  33.8662301 127.6723452  49.1913667  33.2533329 126.3983195  49.7327482
  22.5450037 117.4227960  65.9414408  22.5938193 118.2990083  65.5592178
  23.0872552 116.8805353  65.3686051  33.0304883 127.9669083  65.2215545
  32.2400427 127.9493222  64.6820044  32.7938238 128.5057377  65.9764582
  33.1502758 124.8161550  62.5348274  33.2000763 124.6511557  63.4763796
  33.0416681 123.9488809  62.1446154  30.4406520 120.7992478  63.8507580
  31.3416383 120.6598942  63.5591578  30.5154495 120.9646932  64.7905758
  24.7749326 118.1759332  62.6960767  23.9052635 118.4692898  62.4243355
  25.0108806 118.7599777  63.4168030  34.6520955 127.2358491  62.7790295
  34.3605763 127.5988472  63.6153756  34.0393086 126.5225499  62.6003627
  35.8516637 124.8011371  55.2992865  36.6863529 125.2401175  55.4630426
  35.9875766 124.3250024  54.4801111  32.9008143 122.3591106  61.2470353
  33.3762265 122.5518752  60.4389204  31.9773708 122.4150292  61.0013737
  19.7891650 123.5215273  50.8301431  19.5437692 122.6177603  51.0281641
  19.9587564 123.5232423  49.8880909  27.4788360 114.3938949  60.2126187
  27.9970303 115.1299976  59.8872676  27.1243492 114.7002943  61.0472946
  19.0587297 119.2543630  48.3287593  18.3656542 119.3287985  47.6727629
  18.8139049 118.4903974  48.8509110  27.7300954 110.8139232  55.7327084
  28.0102708 110.1462421  56.3587510  28.5151561 111.0068327  55.2201747
  31.6009812 119.2356866  59.4798659  32.5527235 119.3354963  59.5010883
  31.4313263 118.4435134  59.9896743  29.6224192 116.3212449  59.6658060
  29.0274124 116.6017462  58.9704548  29.3373888 116.8106350  60.4374801
  34.0797890 122.4562985  58.5940958  34.0474210 121.5178986  58.7800642
  34.6898514 122.5347022  57.8606783  25.9181221 121.3259038  44.6368162
  26.8640325 121.1965247  44.7056580  25.5395466 120.5873700  45.1137591
  34.2292378 119.2474029  58.6399242  33.7131427 118.4632486  58.4529170
  35.1132327 118.9192746  58.8045761  31.8903105 112.9915044  54.5995054
  31.6927926 112.6830133  55.4838386  32.5002811 113.7176683  54.7292984
  39.8974440 123.5178992  57.7346995  40.6277828 123.2564280  58.2954698
  39.2881385 122.7807714  57.7749063  37.9789737 121.6586855  58.3321446
  37.2522900 121.5242820  57.7237938  37.5637024 121.9663683  59.1378164
  25.8019913 125.3776785  66.0968819  26.7222923 125.5555384  66.2908866
  25.7669496 124.4332830  65.9448519  24.1024138 119.2509015  44.5723048
  23.1955593 118.9542128  44.6485761  24.3800119 118.9538833  43.7057334
  15.0202078 120.5715378  55.0222094  14.7004863 119.7180686  54.7296468
  14.4735506 120.7863956  55.7780061  25.7186204 113.7945905  50.7267289
  24.9086932 113.4492990  51.1022535  26.4070621 113.4853448  51.3154900
  27.6476752 112.8723951  52.3491586  28.2007791 113.2919405  53.0081609
  27.8846838 111.9459699  52.3914542  23.6709851 118.8611025  68.1294349
  23.5706578 119.8105382  68.0606441  23.4531393 118.5329264  67.2570420
  22.8722923 116.1095950  44.7135027  23.7342087 116.4350848  44.9730844
  23.0573267 115.3227446  44.2008093  31.0255559 114.9824476  51.8570250
  30.4454228 115.6409281  51.4748302  30.7591492 114.1601821  51.4457667
  29.4759125 114.3829534  54.0591570  29.9758904 114.4946069  53.2505889
  30.1194733 114.0790587  54.6992379  23.5341121 122.2908164  66.9459411
  23.0508203 123.0908524  67.1523300  23.6202060 122.3016109  65.9926855
  29.8080437 117.1424567  50.9126598  28.9206292 117.4274218  50.6946793
  30.2234426 116.9818330  50.0653875  33.1594973 117.1671088  54.6280937
  33.9355363 117.6567540  54.9005554  32.4343107 117.5929142  55.0852807
  35.5967532 117.8798707  55.6854878  36.1912023 117.6394443  54.9748186
  35.6694115 117.1605838  56.3128414  29.7821461 122.6579103  51.1276888
  29.7256662 123.1147654  50.2884521  30.3349803 121.8969787  50.9499731
  33.5926267 118.4468835  51.9527008  33.3363201 118.0465470  52.7835215
  32.9679135 119.1612629  51.8277147  37.9038605 121.1864908  54.4598299
  37.3438163 121.2558097  55.2329861  37.2982108 121.0105893  53.7397795
  30.8610348 127.3451771  47.0573078  31.6955952 126.9132969  46.8750553
  30.6994691 127.1733784  47.9849973  30.5156240 123.8483884  48.4229417
  30.4605044 123.6828155  47.4817861  29.8902295 124.5559917  48.5791607
  15.3048755 119.0851948  62.2490840  15.9507619 118.5750902  62.7378065
  15.0965906 119.8220630  62.8234265  27.8302147 126.1532796  67.7482980
  28.6993307 126.3273448  67.3869615  27.3508899 126.9727213  67.6258709
  23.8252366 113.3491993  48.0014736  23.8131035 114.2933833  48.1583007
  24.7175787 113.1662138  47.7074197  27.6404485 109.9434770  52.2560673
  26.8736881 109.3893256  52.4017355  28.0515190 110.0156638  53.1174824
  19.6446246 116.2319566  66.3465854  20.5077708 115.8756370  66.5569178
  19.0711657 115.8933460  67.0341258  41.9669739 129.2369683  59.5909050
  41.6353064 130.1065094  59.3670265  41.3715352 128.9205967  60.2703080
  43.7260049 132.1581208  58.4480274  43.0834429 132.4513741  57.8020069
  43.2214977 132.0434128  59.2533471  39.0652871 127.0839264  59.2080364
  38.7217140 127.9740906  59.1319474  39.4331833 126.8940922  58.3449949
  38.1449411 129.4543919  57.1729597  37.6414207 129.4174055  56.3597402
  38.4380018 130.3636662  57.2326254  34.2977284 128.6426106  52.2787215
  33.6441696 128.3275123  51.6543830  34.2557758 128.0201846  53.0047038
  40.8640536 126.3432823  54.3098101  41.1699413 125.4830187  54.0224016
  41.5893141 126.9350444  54.1097095  41.1342154 128.7727059  56.8082022
  40.2205234 129.0031286  56.9764229  41.5635256 128.8565503  57.6596055
  35.1130855 128.6751831  58.6064037  35.9356924 128.2012310  58.4842927
  35.3568918 129.4542315  59.1062723  36.7693903 128.9242791  54.8691195
  36.7915599 128.9882124  53.9143175  37.1861962 128.0847299  55.0631701
  38.3182114 129.7230867  60.2126187  38.8364058 130.4591894  59.8872676
  37.9637247 130.0294860  61.0472946  38.5694708 126.1431149  55.7327084
  38.8496462 125.4754339  56.3587510  39.3545315 126.3360245  55.2201747
  42.7296860 128.3206962  54.5995054  42.5321681 128.0122050  55.4838386
  43.3396565 129.0468601  54.7292984  36.5579958 129.1237822  50.7267289
  35.7480686 128.7784907  51.1022535  37.2464375 128.8145366  51.3154900
  38.4870506 128.2015869  52.3491586  39.0401545 128.6211322  53.0081609
  38.7240593 127.2751617  52.3914542  41.8649313 130.3116394  51.8570250
  41.2847983 130.9701198  51.4748302  41.5985246 129.4893739  51.4457667
  40.3152880 129.7121452  54.0591570  40.8152658 129.8237986  53.2505889
  40.9588488 129.4082505  54.6992379  46.4361286 133.2090625  55.6854878
  47.0305777 132.9686361  54.9748186  46.5087870 132.4897755  56.3128414
  38.4798239 125.2726687  52.2560673  37.7130635 124.7185174  52.4017355
  38.8908944 125.3448556  53.1174824   6.9686762  54.3789752  41.7272057
   6.2150471  53.8097150  41.5716062   7.1034304  54.3452416  42.6742692
   1.0450908  54.5318388  38.8374201   0.9068807  54.7219984  37.9095390
   0.6887127  55.2937771  39.2942252   1.0720288  56.5994915  43.8485472
   1.5056794  56.5070205  44.6968526   1.7851868  56.5752416  43.2105488
   1.9335837  56.6418616  46.3818358   2.1271727  57.5464427  46.6277633
   1.8336455  56.1826035  47.2156943   3.1877900  53.1992283  43.0266261
   3.1767777  54.0816998  42.6560195   2.3195280  52.8463834  42.8320799
   3.7902510  54.3492502  39.6315724   4.2333656  53.5999827  39.2334848
   2.9129021  54.3402638  39.2489456   0.8229715  58.3522549  36.6409654
   1.3481039  58.6909822  35.9158974   0.7352067  57.4169564  36.4572788
   0.6321496  55.8347919  49.2593580   0.6819501  55.6697927  50.2009103
   0.5235419  54.9675178  48.8691461   2.1339693  58.2544861  49.5035602
   1.8424501  58.6174841  50.3399063   1.5211824  57.5411869  49.3248934
   3.3335375  55.8197740  42.0238172   4.1682266  56.2587544  42.1875732
   3.4694504  55.3436394  41.2046418   1.5616628  53.4749355  45.3186265
   1.5292948  52.5365356  45.5045949   2.1717251  53.5533392  44.5852090
   1.7111116  50.2660398  45.3644548   1.1950165  49.4818855  45.1774477
   2.5951065  49.9379115  45.5291068   7.3793178  54.5365362  44.4592302
   8.1096566  54.2750650  45.0200005   6.7700123  53.7994084  44.4994370
   5.4608475  52.6773224  45.0566753   4.7341638  52.5429189  44.4483245
   5.0455762  52.9850053  45.8623471   3.0786270  48.8985077  42.4100185
   3.6730760  48.6580813  41.6993493   3.1512853  48.1792207  43.0373721
   1.0745004  49.4655204  38.6772314   0.8181939  49.0651840  39.5080522
   0.4497872  50.1798998  38.5522453   5.3857342  52.2051277  41.1843606
   4.8256900  52.2744467  41.9575168   4.7800846  52.0292262  40.4643102
   6.9713361  68.8807791  43.8773561   7.6091771  68.7614539  43.1736902
   6.8534204  69.8288635  43.9361514   3.7803067  68.8335220  43.8135086
   3.4421579  68.7176284  42.9255621   4.6492835  68.4326385  43.7936092
   4.2622850  69.9870071  49.7721292   4.2511491  69.5922870  48.9001795
   4.4243490  69.2536144  50.3655063   5.2189441  74.3541664  35.1146442
   4.5677421  74.9395744  34.7280456   6.0133804  74.8847859  35.1741479
   0.9830111  72.7707183  48.7200476   0.6919977  73.6752814  48.6047142
   1.6187096  72.8123711  49.4344545   1.9086318  70.1484032  45.3101835
   2.5049890  69.9240054  44.5958798   1.9661290  69.4068777  45.9127283
   1.4811346  67.6023467  33.1452026   1.7336867  67.0804988  32.3835489
   0.5435906  67.4389612  33.2478710   6.5254629  66.6059245  40.9526769
   7.3117718  66.1878668  40.6017187   6.7893334  67.5105337  41.1208418
   6.6964707  72.0432096  35.6515426   6.0610540  72.1166722  36.3636331
   6.3662113  72.6325694  34.9734506  11.9263056  66.5434478  41.8559748
  12.6588228  65.9733695  42.0897577  11.1702412  66.1556079  42.2966254
   1.2007635  69.5051573  35.3476401   1.0843893  68.8296476  36.0157486
   1.3109895  69.0183947  34.5308554   3.5439176  68.9661720  39.0523090
   3.1797383  68.4392341  39.7636012   4.4006292  68.5760189  38.8789576
   9.4488477  60.2556053  46.3154357   9.1171802  61.1251464  46.0915572
   8.8534090  59.9392337  46.9948387   3.1844663  63.9951620  34.0484439
   3.3519065  64.8631856  34.4154910   2.9941832  64.1578901  33.1245728
   5.9419996  72.4568599  45.7150269   5.6420719  73.3593637  45.6066077
   5.5971056  72.1900782  46.5671422   9.3417140  64.9751139  43.3947707
   8.4334017  64.9066547  43.1006468   9.2904736  65.4523084  44.2229532
   3.1633884  66.4509277  35.0331106   3.0433509  66.8966328  35.8716586
   2.4686472  66.7994595  34.4744644   3.4158006  66.3940784  51.3382604
   2.6391340  66.9534704  51.3285469   4.0548569  66.8797567  51.8597474
  11.2078786  63.1767577  45.1725581  10.5653167  63.4700110  44.5265375
  10.7033715  63.0620497  45.9778777   8.8618950  66.9230750  35.8611440
   9.7736806  67.1558137  35.6859137   8.3528597  67.5067795  35.2986518
   1.6704378  69.2026238  50.9000571   2.4119063  69.7411282  50.6235395
   0.9641364  69.8292526  51.0572123   7.1459718  71.3455378  49.4972732
   7.5543074  70.9037789  48.7527365   6.4236979  70.7708006  49.7506925
   3.4990788  66.2827985  46.8706289   4.3451983  66.7067399  47.0140938
   3.4389425  65.6261609  47.5644852   7.4688532  71.9056569  43.2525021
   6.8397395  72.0702283  42.5501089   7.0814195  72.3198178  44.0235985
  11.3477764  72.8411007  40.6069385  10.6628802  73.2209908  40.0566418
  11.4321614  73.4506333  41.3401333   6.6490233  63.9432353  48.5287463
   6.4051165  64.6974414  47.9921739   6.9250164  64.3217701  49.3634710
   8.6028696  70.4870966  47.2064729   8.8145591  71.1302726  46.5299110
   8.5558444  69.6533282  46.7386659   6.2054925  63.0988786  44.1101301
   5.3439404  63.3970040  44.4018038   6.2317360  63.3159185  43.1782333
   3.0216494  71.6430977  40.5175106   3.4854840  71.9218680  39.7279729
   2.7573292  70.7414421  40.3348197   1.9585380  67.7654129  37.3264672
   2.6609424  68.2175173  37.7938598   1.6266009  67.1237948  37.9544565
   9.7174524  73.3642921  45.3787086  10.5391968  72.9623108  45.0969768
   9.7136927  73.2611155  46.3303202   3.4831127  72.9126964  47.5347796
   3.5475560  73.3747372  48.3705968   2.7742051  72.2824329  47.6630106
  17.8080517  69.7081670  41.7272057  17.0544225  69.1389068  41.5716062
  17.9428058  69.6744334  42.6742692   3.1979145  74.5795072  37.4026777
   3.0624820  75.4246608  37.8311625   3.7388957  74.7814350  36.6392711
   2.6014446  62.0744531  51.6561389   3.3424159  62.6751684  51.5765851
   2.8332368  61.3322169  51.0979431   4.8247621  75.2018638  51.5327119
   4.3811476  74.4155017  51.2148023   5.4864835  75.3897789  50.8671010
   6.9228859  75.4821438  49.5608520   6.9047335  76.3030319  49.0688789
   7.8448779  75.3575514  49.7858661   3.3801914  72.9965568  50.4032028
   3.9130250  72.2353856  50.1731336   2.8515995  72.7039220  51.1456183
   6.5471609  58.1025634  45.9325670   6.2035878  58.9927275  45.8564781
   6.9150571  57.9127291  45.0695255   6.5121891  68.0934245  34.4398105
   5.9968515  68.8638850  34.6786493   6.2399200  67.4199381  35.0631167
   4.0969002  62.9383946  39.4983344   3.2410599  62.5490796  39.3188982
   4.5095954  63.0175906  38.6383129   5.6268149  60.4730289  43.8974903
   5.1232945  60.4360424  43.0842709   5.9198756  61.3823032  43.9571560
   1.8711035  60.5569019  42.9041085   2.7364032  60.3611827  42.5446975
   1.9388544  60.3279370  43.8310442  11.4856165  70.8466600  36.3751279
  10.7085608  70.5077759  35.9306441  12.1647646  70.8519223  35.7006244
   6.3008194  65.9661337  36.2657887   5.9958330  66.2807486  37.1168030
   7.2538637  66.0442757  36.3085220   4.7454626  72.1251560  37.9150840
   4.2175988  71.3904320  37.6024078   4.2442129  72.9026237  37.6690809
   9.7247472  70.3200581  43.0317887   9.0671147  71.0099842  43.1198015
  10.5287872  70.7097013  43.3751873   8.5352931  68.6744953  41.0821829
   9.0484813  69.3074945  41.5843538   9.1854155  68.0746149  40.7165189
   1.7796022  59.6612475  39.0032521   1.1260434  59.3461493  38.3789136
   1.7376496  59.0388216  39.7292344   2.8907226  69.9431771  30.9185814
   1.9834288  69.7121024  31.1176963   3.3878258  69.1469390  31.1059795
   5.7975305  78.6529278  33.8382500   5.1237004  78.9560974  34.4467458
   6.1841127  79.4558358  33.4887957   5.0133762  66.1494409  43.3280169
   4.0956323  66.3709356  43.1701857   5.4293906  66.2240719  42.4691876
   5.7968810  67.5485825  38.4582849   6.5440629  68.0607222  38.1489971
   6.0660399  67.2269877  39.3187243   4.0695460  70.0444365  35.4409804
   3.1606679  69.7603398  35.5382273   4.0990544  70.4643444  34.5813110
   9.3014727  73.6550955  39.2100971   8.8477054  72.8141865  39.2666162
   8.6708694  74.2912353  39.5475751   8.2447647  64.5842941  40.4401639
   7.5070404  64.0720327  40.7711881   8.4974420  64.1443323  39.6284916
   7.7447667  75.4927452  40.1450789   8.0370641  76.0532509  39.4263155
   8.2546287  75.7856013  40.9003948   8.3459274  57.3619193  41.0343408
   8.6518151  56.5016556  40.7469323   9.0711879  57.9536813  40.8342402
   2.6180354  67.6572986  41.5419599   2.6728964  66.7046822  41.4662076
   1.8071556  67.8132425  42.0260897   3.7671548  71.5853109  32.7797882
   3.3290978  70.8688968  32.3203520   4.5081989  71.8129224  32.2182974
   2.7081292  76.2707803  41.2344243   2.6657471  76.4968649  40.3052775
   3.6243991  76.0371177  41.3830044   6.1546926  66.7391870  48.1324872
   6.5096313  66.9663343  48.9919337   6.8019057  67.0710247  47.5102127
  11.8844662  69.8610306  38.8374201  11.7462561  70.0511902  37.9095390
  11.5280881  70.6229689  39.2942252  11.9114042  71.9286833  43.8485472
  12.3450549  71.8362122  44.6968526  12.6245623  71.9044334  43.2105488
   5.6441937  75.5288927  45.3818573   5.6978959  76.0979864  46.1496289
   4.7756718  75.6990812  45.0172610  12.7729592  71.9710534  46.3818358
  12.9665482  72.8756344  46.6277633  12.6730210  71.5117953  47.2156943
   4.4265902  61.8568424  48.8808685   3.7793817  62.5558374  48.7873161
   5.1966918  62.2904568  49.2484933   7.8344700  72.1217277  51.9559238
   7.6830207  71.8927828  51.0389322   7.8249380  73.0787878  51.9690583
   4.6030037  69.6949189  46.9405505   5.5322097  69.8460349  46.7674472
   4.1821067  69.7833210  46.0854151   3.4018369  73.7199854  44.7104042
   3.2629454  73.3518638  45.5829980   2.6132965  74.2347493  44.5388000
   3.9966520  78.8208950  36.0529579   4.1718276  78.3496993  36.8675202
   3.3099309  79.4474716  36.2810840   4.9523584  73.0981456  42.0992880
   4.6173416  73.0582226  42.9950530   4.4527529  72.4326172  41.6263290
   7.8882775  70.4437491  32.3729940   7.2711946  69.7184319  32.2762992
   7.4199264  71.2046851  32.0297014   1.5550128  68.2169046  47.1129141
   2.2649747  67.5762238  47.0715759   1.5119436  68.4681941  48.0355322
   9.5436907  75.1536399  50.0335720   9.4849453  74.4695619  49.3666303
   9.9456425  75.8955389  49.5816346   9.5454314  73.1175983  48.2649700
   8.6581093  72.7801905  48.3876099  10.1152865  72.3859014  48.5018465
   3.0755468  77.7777435  45.2310943   3.0025639  78.5832407  45.7430248
   2.6332861  77.9769401  44.4058964   2.8645247  77.0149205  38.7413765
   2.0812769  77.5570886  38.8351989   3.5637992  77.5323185  39.1408006
   6.1741897  62.8243835  41.3847970   6.6710597  62.0713797  41.0649040
   5.4028879  62.8608152  40.8191179  14.0271655  68.5284200  43.0266261
  14.0161531  69.4108916  42.6560195  13.1589034  68.1755751  42.8320799
   5.5354151  77.6764269  47.3869102   6.2482123  78.3111734  47.3145003
   5.0444180  77.7728135  46.5709104   7.2571678  71.5815522  38.9586393
   6.3227957  71.7016985  38.7891098   7.4348347  70.6787989  38.6946403
   2.7576866  64.9661218  41.1119655   2.3874654  64.4132258  41.8000560
   3.2535959  64.3619351  40.5594655  10.6444229  67.4232841  39.4936428
  11.1104682  68.2560833  39.4196730  11.0951730  66.9577823  40.1981686
   8.7120461  73.7676663  36.4922580   8.9880304  73.6533257  37.4016454
   7.8424959  73.3694148  36.4534753   8.6160892  59.7913428  43.5327329
   7.7023972  60.0217655  43.7009536   9.0453994  59.8751872  44.3841361
   8.3867351  67.9803320  46.0327223   7.7338801  68.2279228  45.3779676
   8.7647731  67.1667459  45.6989700   5.3474525  78.0163013  40.1355393
   5.5296919  77.1984669  40.5983145   6.1707511  78.2330706  39.6980283
   5.6816690  76.9431199  37.3970442   6.2104456  76.4323653  36.7840604
   5.9444910  76.6273729  38.2615975   4.4354924  68.7223131  52.5193260
   3.7595561  68.6217261  53.1895635   5.2582558  68.5662345  52.9829257
   3.1777707  80.0290059  46.7550876   3.7296015  80.1921680  47.5199961
   3.5183900  80.6194497  46.0830901   8.0288581  74.8551316  52.6099530
   8.5728485  75.4681275  52.1154485   7.4475426  75.4130895  53.1266543
   6.3146094  77.9772034  43.7414558   6.1897233  77.1761774  43.2325504
   6.9725185  78.4718228  43.2528528   8.3781002  75.7781054  45.3694108
   7.4311338  75.6586406  45.2972435   8.7263775  74.8903552  45.4520370
   0.7380576  61.6675193  49.1932350   1.2614977  61.9137490  49.9558659
   0.5192909  62.4995228  48.7735487   5.3827436  75.5733771  41.5698460
   5.2352398  74.6450478  41.7506030   6.2080929  75.5953861  41.0855536
   8.9861557  76.3962329  42.6563333   9.9108105  76.1905191  42.5187784
   8.8176861  76.1478731  43.5652675   1.9433121  62.6088888  46.8782021
   1.6029941  61.8096702  47.2802700   1.2372127  62.9090599  46.3058854
   2.5949592  59.6938201  45.3309344   3.4175662  59.2198679  45.2088234
   2.8387656  60.4728685  45.8308030   1.2357827  62.7226459  35.6272245
   1.9566189  63.1007712  35.1235962   0.6123131  63.4415336  35.7307223
   5.3788950  63.4271608  36.5630578   5.5952564  64.3096246  36.2619406
   4.8983017  63.0357822  35.8336220   1.9784554  63.3759870  43.1882212
   1.9646123  62.4800963  42.8514510   2.6956982  63.3830533  43.8220498
   3.8310685  63.8097210  45.2335339   3.5728463  64.7314280  45.2319670
   3.2995725  63.4127644  45.9235803   8.7756874  76.9147997  38.0125425
   8.9493751  76.3494419  37.2599277   9.2685765  77.7148892  37.8304915
   1.3821450  62.2574250  38.4569782   1.5037361  61.3290896  38.6560669
   1.0923492  62.2712936  37.5448097   4.2512640  59.9429160  41.5936502
   4.2734337  60.0068493  40.6388481   4.6680699  59.1033669  41.7877008
  14.6296265  69.6784420  39.6315724  15.0727411  68.9291745  39.2334848
  13.7522775  69.6694556  39.2489456   9.7632046  76.2314761  35.1122323
  10.4582951  76.8521454  35.3309638  10.1055196  75.3810112  35.3874701
  11.6623469  73.6814467  36.6409654  12.1874793  74.0201740  35.9158974
  11.5745822  72.7461482  36.4572788   3.3243518  77.5948540  48.7699530
   3.6330644  77.3497687  49.6422230   4.1219000  77.7995179  48.2818401
   3.3464130  79.7486450  41.0004907   2.9069120  79.2562829  41.6937764
   4.0972247  79.2059418  40.7596982   0.8662530  63.7706247  52.6659715
   0.9150685  64.6468370  52.2837484   1.4085044  63.2283640  52.0931358
  11.3517375  74.3147370  51.9460852  10.5612919  74.2971509  51.4065351
  11.1150730  74.8535664  52.7009888  11.4715250  71.1639837  49.2593580
  11.5213255  70.9989844  50.2009103  11.3629174  70.2967096  48.8691461
   8.7619013  67.1470765  50.5752887   9.6628875  67.0077230  50.2836885
   8.8366987  67.3125220  51.5151064   3.0961818  64.5237620  49.4206073
   2.2265127  64.8171186  49.1488662   3.3321298  65.1078065  50.1413337
  12.9733447  73.5836778  49.5035602  12.6818255  73.9466759  50.3399063
  12.3605578  72.8703787  49.3248934  14.1729129  71.1489658  42.0238172
  15.0076021  71.5879462  42.1875732  14.3088258  70.6728311  41.2046418
  11.2220635  68.7069393  47.9715660  11.6974757  68.8997039  47.1634511
  10.2986201  68.7628579  47.7259043   5.8000852  60.7417236  46.9371494
   6.3182796  61.4778263  46.6117982   5.4455985  61.0481230  47.7718253
   6.0513446  57.1617519  42.4572390   6.3315200  56.4940708  43.0832817
   6.8364053  57.3546615  41.9447054   3.8546915  76.3376513  34.0197416
   3.2820882  76.9566700  33.5667888   4.4279708  76.8875875  34.5537338
   9.9222304  65.5835153  46.2043965  10.8739727  65.6833251  46.2256189
   9.7525755  64.7913422  46.7142050   7.9436684  62.6690736  46.3903366
   7.3486616  62.9495749  45.6949855   7.6586381  63.1584637  47.1620107
   7.0744174  76.6213663  35.1505999   8.0074847  76.5559225  35.3538874
   6.9867387  77.4569930  34.6920531   9.7032191  75.9379533  32.1109946
   9.6245823  75.6039397  33.0045704  10.5241858  76.4301301  32.1101419
  12.4010382  68.8041273  45.3186265  12.3686702  67.8657273  45.5045949
  13.0111006  68.8825309  44.5852090   4.2393713  67.6737326  31.3613469
   5.1852818  67.5443534  31.4301887   3.8607958  66.9351988  31.8382897
  12.5504871  65.5952316  45.3644548  12.0343919  64.8110773  45.1774477
  13.4344819  65.2671033  45.5291068  10.2115598  59.3393332  41.3240361
  10.0140419  59.0308420  42.2083693  10.8215303  60.0654971  41.4538291
  18.2186932  69.8657280  44.4592302  18.9490320  69.6042568  45.0200005
  17.6093877  69.1286001  44.4994370  16.3002229  68.0065142  45.0566753
  15.5735393  67.8721107  44.4483245  15.8849516  68.3141971  45.8623471
   4.1232406  71.7255072  52.8214126   5.0435415  71.9033671  53.0154172
   4.0881989  70.7811117  52.6693825   2.4236630  65.5987302  31.2968354
   1.5168086  65.3020415  31.3731068   2.7012611  65.3017120  30.4302640
   4.0398696  60.1424192  37.4512596   3.2299424  59.7971277  37.8267842
   4.7283113  59.8331736  38.0400207   5.9689244  59.2202239  39.0736892
   6.5220283  59.6397692  39.7326915   6.2059331  58.2937987  39.1159848
   1.9922343  65.2089312  54.8539656   1.8919070  66.1583669  54.7851747
   1.7743885  64.8807551  53.9815726   1.1935415  62.4574237  31.4380333
   2.0554579  62.7829136  31.6976151   1.3785759  61.6705733  30.9253399
   9.3468051  61.3302764  38.5815556   8.7666720  61.9887568  38.1993609
   9.0803984  60.5080108  38.1702974   7.7971618  60.7307821  40.7836877
   8.2971396  60.8424356  39.9751196   8.4407226  60.4268874  41.4237685
   1.8553613  68.6386451  53.6704718   1.3720695  69.4386811  53.8768607
   1.9414553  68.6494396  52.7172162   8.1292929  63.4902854  37.6371905
   7.2418784  63.7752505  37.4192099   8.5446918  63.3296617  36.7899182
  11.4807465  63.5149375  41.3526244  12.2567856  64.0045828  41.6250861
  10.7555600  63.9407429  41.8098113  13.9180024  64.2276994  42.4100185
  14.5124515  63.9872730  41.6993493  13.9906608  63.5084125  43.0373721
   7.2736143  73.2547529  31.7319925   7.9771993  73.4597531  32.3477580
   6.5498792  73.8224291  31.9969008   8.1033953  69.0057390  37.8522195
   8.0469154  69.4625941  37.0129827   8.6562295  68.2448075  37.6745038
  11.9138759  64.7947122  38.6772314  11.6575693  64.3943758  39.5080522
  11.2891627  65.5090916  38.5522453  16.2251097  67.5343195  41.1843606
  15.6650655  67.6036384  41.9575168  15.6194600  67.3584180  40.4643102
   9.1822840  73.6930058  33.7818385  10.0168444  73.2611256  33.5995860
   9.0207183  73.5212072  34.7095279   8.8368732  70.1962171  35.1474724
   8.7817536  70.0306443  34.2063168   8.2114788  70.9038204  35.3036914
   6.1514640  72.5011083  54.4728287   7.0205799  72.6751735  54.1114922
   5.6721391  73.3205500  54.3504016   2.1464858  59.6970280  34.7260042
   2.1343528  60.6412120  34.8828313   3.0388280  59.5140426  34.4319504
   2.0754422  78.3739171  42.8127799   1.1250053  78.3741032  42.6992171
   2.3786908  77.6271905  42.2963834   5.9616977  56.2913057  38.9805979
   5.1949373  55.7371544  39.1262662   6.3727682  56.3634926  39.8420131
  17.8107115  84.2099709  43.8773561  18.4485525  84.0906456  43.1736902
  17.6927958  85.1580553  43.9361514  14.6196822  84.1627137  43.8135086
  14.2815333  84.0468202  42.9255621  15.4886590  83.7618302  43.7936092
  10.4783637  86.0162614  39.8031977   9.9148502  85.9252551  39.0348265
  10.3636032  85.1962518  40.2834470  15.1016605  85.3161989  49.7721292
  15.0905245  84.9214787  48.9001795  15.2637244  84.5828062  50.3655063
   8.0248069  87.5113805  42.6416198   8.8169361  87.1704630  42.2262497
   8.2644719  87.6208780  43.5618351  16.0583196  89.6833581  35.1146442
  15.4071176  90.2687662  34.7280456  16.8527559  90.2139776  35.1741479
   9.9838823  86.7722718  35.5133576  10.7569699  86.2251706  35.3746452
  10.3364222  87.6366968  35.7248038  11.8223866  88.0999101  48.7200476
  11.5313732  89.0044732  48.6047142  12.4580850  88.1415628  49.4344545
  12.7480073  85.4775949  45.3101835  13.3443645  85.2531972  44.5958798
  12.8055044  84.7360695  45.9127283  12.3205101  82.9315385  33.1452026
  12.5730622  82.4096906  32.3835489  11.3829660  82.7681530  33.2478710
  17.3648384  81.9351163  40.9526769  18.1511473  81.5170586  40.6017187
  17.6287088  82.8397255  41.1208418  17.5358461  87.3724013  35.6515426
  16.9004294  87.4458640  36.3636331  17.2055868  87.9617612  34.9734506
  22.7656811  81.8726396  41.8559748  23.4981983  81.3025613  42.0897577
  22.0096167  81.4847997  42.2966254  12.0401390  84.8343491  35.3476401
  11.9237648  84.1588394  36.0157486  12.1503650  84.3475864  34.5308554
  14.3832931  84.2953638  39.0523090  14.0191138  83.7684259  39.7636012
  15.2400047  83.9052107  38.8789576  20.2882231  75.5847970  46.3154357
  19.9565556  76.4543381  46.0915572  19.6927845  75.2684254  46.9948387
  14.0238418  79.3243537  34.0484439  14.1912820  80.1923774  34.4154910
  13.8335587  79.4870819  33.1245728  16.7813751  87.7860516  45.7150269
  16.4814474  88.6885555  45.6066077  16.4364810  87.5192699  46.5671422
  10.2326232  84.2374313  41.7486974   9.3076729  84.1050527  41.9564666
  10.4810645  85.0168532  42.2456916  20.1810895  80.3043056  43.3947707
  19.2727772  80.2358465  43.1006468  20.1298490  80.7815001  44.2229532
  14.0027638  81.7801195  35.0331106  13.8827264  82.2258246  35.8716586
  13.3080227  82.1286513  34.4744644   7.5935043  83.8807587  42.5830763
   7.7227424  84.1342066  43.4970175   6.9132495  84.4735295  42.2635418
  11.7634531  94.5504837  38.6821237  11.6858560  95.5012662  38.7609718
  11.1596174  94.2050709  39.3396163  14.2551760  81.7232702  51.3382604
  13.4785094  82.2826622  51.3285469  14.8942323  82.2089485  51.8597474
  22.0472541  78.5059495  45.1725581  21.4046921  78.7992028  44.5265375
  21.5427469  78.3912415  45.9778777  19.7012705  82.2522668  35.8611440
  20.6130561  82.4850055  35.6859137  19.1922352  82.8359712  35.2986518
  12.5098133  84.5318155  50.9000571  13.2512817  85.0703199  50.6235395
  11.8035118  85.1584444  51.0572123  17.9853472  86.6747296  49.4972732
  18.3936828  86.2329706  48.7527365  17.2630734  86.0999923  49.7506925
  14.3384542  81.6119903  46.8706289  15.1845738  82.0359316  47.0140938
  14.2783180  80.9553527  47.5644852  18.3082287  87.2348486  43.2525021
  17.6791149  87.3994201  42.5501089  17.9207949  87.6490096  44.0235985
  22.1871519  88.1702924  40.6069385  21.5022557  88.5501826  40.0566418
  22.2715368  88.7798251  41.3401333  17.4883988  79.2724271  48.5287463
  17.2444920  80.0266332  47.9921739  17.7643918  79.6509619  49.3634710
  19.4422450  85.8162883  47.2064729  19.6539346  86.4594643  46.5299110
  19.3952199  84.9825200  46.7386659  17.0448679  78.4280704  44.1101301
  16.1833158  78.7261958  44.4018038  17.0711114  78.6451103  43.1782333
  13.8610249  86.9722895  40.5175106  14.3248594  87.2510598  39.7279729
  13.5967047  86.0706339  40.3348197  10.7534330  86.5194376  43.4554870
  11.3235687  86.9481644  42.8172354  11.3442442  86.2376961  44.1539055
  12.7979135  83.0946047  37.3264672  13.5003178  83.5467091  37.7938598
  12.4659763  82.4529866  37.9544565  11.2459496  81.6857804  51.7015881
  10.6158157  82.3674084  51.9351278  11.1395584  81.5740885  50.7569019
   6.5404469  81.3529600  42.6281805   5.7503523  81.6087128  42.1521916
   7.0315716  82.1677937  42.7333846  20.5568278  88.6934839  45.3787086
  21.3785722  88.2915026  45.0969768  20.5530681  88.5903073  46.3303202
   8.4919214  81.7174179  39.5865282   7.6950377  81.8292873  40.1048777
   8.2644806  82.0560831  38.7206172  14.3224882  88.2418882  47.5347796
  14.3869314  88.7039289  48.3705968  13.6135806  87.6116247  47.6630106
   4.8242172  81.6060090  45.0596796   5.0750210  82.4907100  45.3254372
   5.3601720  81.4264692  44.2871888  28.6474271  85.0373587  41.7272057
  27.8937980  84.4680985  41.5716062  28.7821813  85.0036252  42.6742692
  14.0372899  89.9086990  37.4026777  13.9018574  90.7538525  37.8311625
  14.5782712  90.1106267  36.6392711  10.5240239  75.9878569  54.0641132
  10.1307185  75.4344768  54.7388776  11.3406379  76.2989148  54.4547650
   7.4902297  87.4262428  37.9754702   8.0026817  88.2205678  38.1260267
   8.1425010  86.7288718  37.9088303   9.2997182  90.5428184  40.0577455
   9.4763810  91.4646149  39.8698439  10.0954015  90.2286603  40.4871835
  13.4408200  77.4036449  51.6561389  14.1817913  78.0043602  51.5765851
  13.6726123  76.6614086  51.0979431   8.5849538  82.5892816  49.9339618
   8.4703053  81.6878073  50.2346717   7.7294056  82.8356513  49.5824435
  15.6641376  90.5310556  51.5327119  15.2205230  89.7446935  51.2148023
  16.3258589  90.7189707  50.8671010  10.4228497  92.0606358  46.0587797
  10.9735922  91.9323421  45.2864791   9.5839973  92.3601247  45.7082690
  17.7622614  90.8113356  49.5608520  17.7441089  91.6322237  49.0688789
  18.6842534  90.6867431  49.7858661  14.2195668  88.3257485  50.4032028
  14.7524005  87.5645774  50.1731336  13.6909749  88.0331137  51.1456183
  17.3865363  73.4317551  45.9325670  17.0429632  74.3219193  45.8564781
  17.7544326  73.2419209  45.0695255   5.4551214  85.7551082  38.7514272
   6.2926436  86.1648090  38.5347980   5.6329481  84.8150524  38.7214466
  17.3515646  83.4226163  34.4398105  16.8362269  84.1930767  34.6786493
  17.0792954  82.7491299  35.0631167  14.9362757  78.2675863  39.4983344
  14.0804353  77.8782714  39.3188982  15.3489709  78.3467824  38.6383129
  16.4661903  75.8022207  43.8974903  15.9626699  75.7652342  43.0842709
  16.7592510  76.7114949  43.9571560  12.7104789  75.8860936  42.9041085
  13.5757786  75.6903745  42.5446975  12.7782298  75.6571288  43.8310442
  22.3249920  86.1758517  36.3751279  21.5479363  85.8369677  35.9306441
  23.0041401  86.1811140  35.7006244  17.1401949  81.2953255  36.2657887
  16.8352084  81.6099404  37.1168030  18.0932391  81.3734675  36.3085220
  15.5848381  87.4543478  37.9150840  15.0569742  86.7196238  37.6024078
  15.0835883  88.2318154  37.6690809  20.5641227  85.6492498  43.0317887
  19.9064901  86.3391760  43.1198015  21.3681626  86.0388930  43.3751873
  10.3167108  78.1163144  40.2757452  10.8910860  77.8938326  39.5430645
  10.9038091  78.1851839  41.0286053  19.3746686  84.0036871  41.0821829
  19.8878567  84.6366863  41.5843538  20.0247909  83.4038067  40.7165189
  10.6436695  80.1467605  34.2953337   9.8074008  80.4842292  34.6162612
  10.5041465  80.0116585  33.3580474  12.6189776  74.9904393  39.0032521
  11.9654188  74.6753410  38.3789136  12.5770250  74.3680134  39.7292344
  13.7300981  85.2723688  30.9185814  12.8228043  85.0412942  31.1176963
  14.2272013  84.4761307  31.1059795  16.6369060  93.9821195  33.8382500
  15.9630759  94.2852892  34.4467458  17.0234882  94.7850276  33.4887957
  15.8527516  81.4786327  43.3280169  14.9350078  81.7001274  43.1701857
  16.2687660  81.5532637  42.4691876  16.6362564  82.8777742  38.4582849
  17.3834383  83.3899140  38.1489971  16.9054154  82.5561795  39.3187243
  14.9089214  85.3736283  35.4409804  14.0000434  85.0895316  35.5382273
  14.9384298  85.7935362  34.5813110  20.1408482  88.9842873  39.2100971
  19.6870809  88.1433782  39.2666162  19.5102449  89.6204271  39.5475751
  19.0841401  79.9134859  40.4401639  18.3464158  79.4012245  40.7711881
  19.3368175  79.4735240  39.6284916  18.5841421  90.8219369  40.1450789
  18.8764395  91.3824426  39.4263155  19.0940042  91.1147930  40.9003948
  19.1853029  72.6911111  41.0343408  19.4911905  71.8308474  40.7469323
  19.9105634  73.2828731  40.8342402   5.4777385  83.0941797  39.4225006
   5.2801785  82.5011158  38.6976072   4.9224049  82.7894007  40.1400945
  13.4574108  82.9864904  41.5419599  13.5122718  82.0338740  41.4662076
  12.6465310  83.1424343  42.0260897  14.6065302  86.9145027  32.7797882
  14.1684732  86.1980886  32.3203520  15.3475743  87.1421142  32.2182974
  11.3966468  81.6041963  39.3009978  10.5834334  81.9036134  39.7075170
  11.8925463  81.2097652  40.0184460  13.5475046  91.5999720  41.2344243
  13.5051225  91.8260567  40.3052775  14.4637745  91.3663095  41.3830044
  16.9940680  82.0683788  48.1324872  17.3490068  82.2955261  48.9919337
  17.6412811  82.4002165  47.5102127  22.7238417  85.1902224  38.8374201
  22.5856316  85.3803820  37.9095390  22.3674636  85.9521607  39.2942252
  10.8880543  79.1760319  44.9171213  11.5279922  79.0349078  44.2194176
  10.0558074  78.8894832  44.5409815  22.7507797  87.2578751  43.8485472
  23.1844303  87.1654040  44.6968526  23.4639377  87.2336251  43.2105488
  11.6640847  88.4762749  41.0306205  12.4581446  87.9813070  40.8288780
  10.9532539  87.9480613  40.6673911  16.4835691  90.8580845  45.3818573
  16.5372714  91.4271781  46.1496289  15.6150473  91.0282730  45.0172610
   7.9723610  82.6205831  37.1065958   7.0421199  82.5590287  37.3235920
   8.0681082  82.0981784  36.3102599   7.8909160  79.1460644  39.6944200
   8.1515977  80.0605977  39.5853360   8.7126332  78.6785087  39.8440812
   9.3634085  80.5598401  46.8643024  10.0357138  80.3515763  46.2155673
   8.5363871  80.3620487  46.4248256  23.6123346  87.3002451  46.3818358
  23.8059236  88.2048262  46.6277633  23.5123964  86.8409871  47.2156943
  15.2659657  77.1860342  48.8808685  14.6187572  77.8850292  48.7873161
  16.0360672  77.6196486  49.2484933  18.6738455  87.4509194  51.9559238
  18.5223961  87.2219746  51.0389322  18.6643134  88.4079796  51.9690583
  15.4423791  85.0241107  46.9405505  16.3715851  85.1752267  46.7674472
  15.0214821  85.1125128  46.0854151  14.2412123  89.0491771  44.7104042
  14.1023209  88.6810556  45.5829980  13.4526719  89.5639411  44.5388000
  14.8360275  94.1500868  36.0529579  15.0112031  93.6788911  36.8675202
  14.1493063  94.7766634  36.2810840  15.7917338  88.4273374  42.0992880
  15.4567171  88.3874144  42.9950530  15.2921284  87.7618090  41.6263290
   9.7661582  83.8341004  47.6245461   9.6281380  83.1021243  48.2257000
  10.6766506  83.7449904  47.3429649  18.7276530  85.7729408  32.3729940
  18.1105700  85.0476237  32.2762992  18.2593018  86.5338769  32.0297014
  12.3943883  83.5460963  47.1129141  13.1043501  82.9054156  47.0715759
  12.3513191  83.7973858  48.0355322  20.3830661  90.4828317  50.0335720
  20.3243208  89.7987537  49.3666303  20.7850180  91.2247307  49.5816346
  11.1072817  80.5326181  48.9324780  10.5710174  80.0816920  49.5846377
  10.5189525  80.6672090  48.1895245   9.4021360  97.2990231  42.8269439
   9.6417958  97.9308755  43.5048458   8.5590557  96.9478271  43.1134798
  10.5175076  79.9914833  31.4951244   9.6404542  79.8703633  31.1313491
  10.9932829  79.2000911  31.2430133  20.3848069  88.4467901  48.2649700
  19.4974847  88.1093822  48.3876099  20.9546620  87.7150932  48.5018465
   2.0377216  84.7791992  41.5892751   2.7248256  84.4653722  41.0013767
   1.8825345  85.6833357  41.3160003   6.8411938  79.6682189  46.0177775
   6.7570127  79.0607859  45.2828185   6.0194644  80.1591207  46.0187271
  13.9149222  93.1069353  45.2310943  13.8419394  93.9124325  45.7430248
  13.4726615  93.3061319  44.4058964  13.7039002  92.3441123  38.7413765
  12.9206524  92.8862803  38.8351989  14.4031747  92.8615103  39.1408006
  17.0135652  78.1535753  41.3847970  17.5104351  77.4005715  41.0649040
  16.2422633  78.1900069  40.8191179  24.8665409  83.8576118  43.0266261
  24.8555286  84.7400833  42.6560195  23.9982789  83.5047669  42.8320799
  16.3747906  93.0056187  47.3869102  17.0875878  93.6403652  47.3145003
  15.8837934  93.1020053  46.5709104  18.0965433  86.9107440  38.9586393
  17.1621711  87.0308902  38.7891098  18.2742101  86.0079907  38.6946403
  13.5970621  80.2953136  41.1119655  13.2268408  79.7424176  41.8000560
  14.0929713  79.6911269  40.5594655  21.4837984  82.7524759  39.4936428
  21.9498436  83.5852751  39.4196730  21.9345484  82.2869741  40.1981686
  11.4259819  90.7550631  48.2074673  12.1269279  91.3887114  48.3604067
  10.9554934  91.0965362  47.4470312  19.5514215  89.0968580  36.4922580
  19.8274059  88.9825175  37.4016454  18.6818714  88.6986065  36.4534753
  19.4554647  75.1205346  43.5327329  18.5417726  75.3509573  43.7009536
  19.8847748  75.2043790  44.3841361  19.2261105  83.3095238  46.0327223
  18.5732555  83.5571145  45.3779676  19.6041485  82.4959376  45.6989700
  16.1868279  93.3454931  40.1355393  16.3690674  92.5276587  40.5983145
  17.0101265  93.5622623  39.6980283  16.5210445  92.2723116  37.3970442
  17.0498211  91.7615571  36.7840604  16.7838664  91.9565647  38.2615975
  15.2748678  84.0515049  52.5193260  14.5989315  83.9509178  53.1895635
  16.0976312  83.8954263  52.9829257   7.0227537  90.2886986  45.1405775
   7.6080974  89.5430673  45.2733679   6.8252376  90.5990942  46.0242439
   9.8766192  93.3238233  40.1568218   9.2076568  93.8084361  39.6732258
   9.7379062  93.5707453  41.0711596   1.6145192  82.8592586  43.8610218
   1.6529291  82.3256176  44.6547336   1.1085485  82.3327791  43.2421196
  14.0171461  95.3581976  46.7550876  14.5689769  95.5213598  47.5199961
  14.3577655  95.9486414  46.0830901   8.9935954  77.7057126  47.3572761
   9.0577281  78.5671957  46.9450158   8.9303075  77.0931128  46.6245119
   8.4688227  79.7780259  51.0045795   9.0960266  79.3957336  51.6183319
   7.6116146  79.5594461  51.3701487  18.8682335  90.1843234  52.6099530
  19.4122239  90.7973192  52.1154485  18.2869180  90.7422812  53.1266543
   5.2453770  81.5856688  36.9364150   5.5407211  80.6767366  36.8831203
   4.3441805  81.5644427  36.6145152  17.1539848  93.3063952  43.7414558
  17.0290988  92.5053692  43.2325504  17.8118939  93.8010145  43.2528528
   8.7748017  79.6612685  42.9191698   8.0534602  80.2748652  42.7799172
   9.5641272  80.1970449  42.8408344  19.2174757  91.1072972  45.3694108
  18.2705092  90.9878323  45.2972435  19.5657530  90.2195470  45.4520370
  11.5774330  76.9967111  49.1932350  12.1008732  77.2429408  49.9558659
  11.3586663  77.8287146  48.7735487   6.9741611  79.2670786  37.0603475
   6.6454317  78.3868165  36.8778581   7.3280982  79.2118454  37.9479864
  16.2221190  90.9025688  41.5698460  16.0746152  89.9742396  41.7506030
  17.0474684  90.9245779  41.0855536  10.0883434  79.5543755  37.4278953
  10.4279507  80.0829677  36.7057561  10.5355555  79.8924162  38.2037519
  19.8255312  91.7254247  42.6563333  20.7501859  91.5197108  42.5187784
  19.6570615  91.4770648  43.5652675  12.7826875  77.9380806  46.8782021
  12.4423695  77.1388619  47.2802700  12.0765881  78.2382517  46.3058854
  13.4343347  75.0230119  45.3309344  14.2569416  74.5490597  45.2088234
  13.6781410  75.8020602  45.8308030  12.0751581  78.0518377  35.6272245
  12.7959944  78.4299630  35.1235962  11.4516886  78.7707254  35.7307223
  16.2182704  78.7563526  36.5630578  16.4346319  79.6388164  36.2619406
  15.7376771  78.3649739  35.8336220  10.9581926  81.7149239  43.1401322
  10.8126506  82.0289542  44.0325604  10.4807129  82.3334140  42.5872221
  12.8178309  78.7051787  43.1882212  12.8039877  77.8092880  42.8514510
  13.5350737  78.7122451  43.8220498  14.6704439  79.1389127  45.2335339
  14.4122217  80.0606198  45.2319670  14.1389480  78.7419562  45.9235803
  19.6150628  92.2439915  38.0125425  19.7887506  91.6786337  37.2599277
  20.1079519  93.0440809  37.8304915   5.4327588  84.2554584  46.0788983
   4.8881056  85.0314392  46.2109258   6.3106938  84.6025388  45.9208105
  12.2215205  77.5866167  38.4569782  12.3431116  76.6582814  38.6560669
  11.9317247  77.6004853  37.5448097  15.0906395  75.2721078  41.5936502
  15.1128092  75.3360411  40.6388481  15.5074454  74.4325587  41.7877008
  25.4690019  85.0076337  39.6315724  25.9121165  84.2583663  39.2334848
  24.5916530  84.9986474  39.2489456  20.6025801  91.5606679  35.1122323
  21.2976705  92.1813372  35.3309638  20.9448951  90.7102030  35.3874701
   6.2193610  83.3824480  48.9719140   5.4775346  83.5307115  49.5583771
   5.8986354  83.6432745  48.1085890  22.5017224  89.0106384  36.6409654
  23.0268548  89.3493657  35.9158974  22.4139576  88.0753400  36.4572788
  14.1637272  92.9240458  48.7699530  14.4724399  92.6789605  49.6422230
  14.9612754  93.1287097  48.2818401  14.1857884  95.0778368  41.0004907
  13.7462875  94.5854746  41.6937764  14.9366001  94.5351335  40.7596982
   6.6650223  91.2689909  41.0029535   7.4908243  90.9693680  40.6228178
   6.3144275  90.4997531  41.4519324  11.6331757  90.6216377  43.0727209
  11.0111766  89.9587082  42.7729436  12.3036623  90.6477509  42.3900856
   4.8658828  89.1876235  41.9618469   4.0290737  88.7598409  41.7802470
   4.8382474  89.3808678  42.8989260  11.7056284  79.0998165  52.6659715
  11.7544440  79.9760288  52.2837484  12.2478798  78.5575558  52.0931358
  22.1911130  89.6439288  51.9460852  21.4006673  89.6263427  51.4065351
  21.9544484  90.1827582  52.7009888  22.3109005  86.4931754  49.2593580
  22.3607010  86.3281762  50.2009103  22.2022928  85.6259013  48.8691461
  11.1945263  89.1720300  36.5485669  11.3433384  89.8555765  35.8952342
  12.0011707  89.1525390  37.0635125  19.6012767  82.4762682  50.5752887
  20.5022630  82.3369147  50.2836885  19.6760742  82.6417137  51.5151064
  13.9355573  79.8529537  49.4206073  13.0658882  80.1463103  49.1488662
  14.1715053  80.4369982  50.1413337  23.8127202  88.9128696  49.5035602
  23.5212010  89.2758677  50.3399063  23.1999333  88.1995704  49.3248934
  25.0122884  86.4781576  42.0238172  25.8469775  86.9171380  42.1875732
  25.1482013  86.0020229  41.2046418  22.0614390  84.0361311  47.9715660
  22.5368511  84.2288957  47.1634511  21.1379955  84.0920496  47.7259043
   8.9497896  85.1985478  37.5546738   8.7043938  84.2947808  37.7526948
   9.1193811  85.2002628  36.6126216  16.6394606  76.0709154  46.9371494
  17.1576550  76.8070181  46.6117982  16.2849739  76.3773147  47.7718253
   8.2193544  80.9313835  35.0532899   7.5262789  81.0058190  34.3972935
   7.9745296  80.1674179  35.5754416  16.8907201  72.4909437  42.4572390
  17.1708954  71.8232626  43.0832817  17.6757807  72.6838532  41.9447054
  14.6940669  91.6668431  34.0197416  14.1214636  92.2858618  33.5667888
  15.2673463  92.2167792  34.5537338  20.7616059  80.9127071  46.2043965
  21.7133482  81.0125168  46.2256189  20.5919509  80.1205339  46.7142050
  18.7830438  77.9982654  46.3903366  18.1880370  78.2787667  45.6949855
  18.4980135  78.4876555  47.1620107  17.9137929  91.9505581  35.1505999
  18.8468602  91.8851142  35.3538874  17.8261142  92.7861848  34.6920531
  20.5425945  91.2671451  32.1109946  20.4639577  90.9331315  33.0045704
  21.3635612  91.7593219  32.1101419  23.2404137  84.1333190  45.3186265
  23.2080457  83.1949191  45.5045949  23.8504760  84.2117227  44.5852090
  15.0787468  83.0029243  31.3613469  16.0246572  82.8735451  31.4301887
  14.7001712  82.2643905  31.8382897  23.3898625  80.9244234  45.3644548
  22.8737674  80.1402690  45.1774477  24.2738574  80.5962950  45.5291068
  21.0509352  74.6685249  41.3240361  20.8534173  74.3600338  42.2083693
  21.6609058  75.3946888  41.4538291  29.0580686  85.1949197  44.4592302
  29.7884075  84.9334485  45.0200005  28.4487632  84.4577919  44.4994370
  27.1395984  83.3357060  45.0566753  26.4129147  83.2013025  44.4483245
  26.7243270  83.6433888  45.8623471  14.9626160  87.0546989  52.8214126
  15.8829170  87.2325588  53.0154172  14.9275743  86.1103035  52.6693825
  13.2630385  80.9279220  31.2968354  12.3561840  80.6312332  31.3731068
  13.5406366  80.6309038  30.4302640   4.1808325  82.2485583  41.7467401
   3.8611109  81.3950891  41.4541775   3.6341753  82.4634161  42.5025368
   7.9588233  84.9648024  45.4636907   8.1774242  85.8965132  45.4824941
   8.3714006  84.6055999  46.2491711  14.8792450  75.4716109  37.4512596
  14.0693179  75.1263194  37.8267842  15.5676867  75.1623653  38.0400207
  16.8082999  74.5494156  39.0736892  17.3614037  74.9689610  39.7326915
  17.0453085  73.6229904  39.1159848  12.8316098  80.5381230  54.8539656
  12.7312825  81.4875587  54.7851747  12.6137640  80.2099469  53.9815726
  12.0329169  77.7866155  31.4380333  12.8948333  78.1121053  31.6976151
  12.2179513  76.9997651  30.9253399   4.0496585  85.8688495  43.7160522
   3.3560056  85.4542447  43.2030477   4.7969576  85.9109031  43.1193941
  20.1861806  76.6594681  38.5815556  19.6060475  77.3179485  38.1993609
  19.9197738  75.8372026  38.1702974  18.6365372  76.0599739  40.7836877
  19.1365150  76.1716274  39.9751196  19.2800980  75.7560792  41.4237685
  12.6947368  83.9678369  53.6704718  12.2114450  84.7678729  53.8768607
  12.7808307  83.9786314  52.7172162   5.9633328  85.8006748  41.5926537
   5.9404016  85.8994436  40.6408420   6.2733964  86.6471899  41.9143703
   8.6220705  87.8582903  45.7073151   9.5763959  87.8266846  45.6403083
   8.4233229  87.3973527  46.5223377   9.2120088  86.4284019  48.2743949
  10.0312977  86.9228098  48.2978786   9.4856895  85.5115988  48.2461517
  18.9686684  78.8194772  37.6371905  18.0812539  79.1044422  37.4192099
  19.3840673  78.6588535  36.7899182  22.3201220  78.8441293  41.3526244
  23.0961610  79.3337745  41.6250861  21.5949354  79.2699347  41.8098113
  24.7573779  79.5568912  42.4100185  25.3518269  79.3164648  41.6993493
  24.8300362  78.8376043  43.0373721   6.9770934  93.4002523  42.7243349
   6.8425402  92.6402924  42.1581347   6.5602997  94.1243423  42.2572138
  18.1129897  88.5839446  31.7319925  18.8165747  88.7889449  32.3477580
  17.3892546  89.1516208  31.9969008  18.9427708  84.3349308  37.8522195
  18.8862909  84.7917859  37.0129827  19.4956050  83.5739992  37.6745038
  22.7532513  80.1239040  38.6772314  22.4969448  79.7235675  39.5080522
  22.1285381  80.8382834  38.5522453  27.0644851  82.8635113  41.1843606
  26.5044409  82.9328302  41.9575168  26.4588355  82.6876097  40.4643102
  10.1340060  94.2971840  42.9361792  10.0172444  95.2417272  42.8340482
   9.3132506  93.9945402  43.3247591  20.0216595  89.0221976  33.7818385
  20.8562199  88.5903174  33.5995860  19.8600938  88.8503989  34.7095279
  19.6762487  85.5254089  35.1474724  19.6211291  85.3598360  34.2063168
  19.0508542  86.2330122  35.3036914   4.4655002  80.7622153  48.9736146
   5.1113865  80.2521107  49.4623371   4.2572153  81.4990835  49.5479571
  16.9908394  87.8303001  54.4728287  17.8599554  88.0043653  54.1114922
  16.5115145  88.6497418  54.3504016  12.9858612  75.0262198  34.7260042
  12.9737282  75.9704038  34.8828313  13.8782034  74.8432343  34.4319504
  11.1594574  94.9500102  46.1517720  12.0621821  94.9823712  46.4684215
  10.9331944  94.0200553  46.1664056  12.9148176  93.7031088  42.8127799
  11.9643807  93.7032950  42.6992171  13.2180662  92.9563823  42.2963834
  16.8010732  71.6204975  38.9805979  16.0343128  71.0663461  39.1262662
  17.2121437  71.6926843  39.8420131   8.8052493  77.9089770  53.0711160
   9.6683954  77.5526575  53.2814485   8.2317903  77.5703665  53.7586565
  28.6500870  99.5391627  43.8773561  29.2879280  99.4198374  43.1736902
  28.5321713 100.4872471  43.9361514  25.4590576  99.4919055  43.8135086
  25.1209088  99.3760120  42.9255621  26.3280344  99.0910220  43.7936092
  21.3177392 101.3454531  39.8031977  20.7542257 101.2544468  39.0348265
  21.2029787 100.5254436  40.2834470  25.9410359 100.6453907  49.7721292
  25.9299000 100.2506705  48.9001795  26.1030998  99.9119979  50.3655063
  18.8641824 102.8405723  42.6416198  19.6563116 102.4996548  42.2262497
  19.1038474 102.9500698  43.5618351  26.8976950 105.0125499  35.1146442
  26.2464930 105.5979579  34.7280456  27.6921313 105.5431694  35.1741479
  20.8232578 102.1014636  35.5133576  21.5963454 101.5543623  35.3746452
  21.1757976 102.9658885  35.7248038  22.6617620 103.4291018  48.7200476
  22.3707486 104.3336649  48.6047142  23.2974605 103.4707546  49.4344545
  23.5873827 100.8067867  45.3101835  24.1837399 100.5823889  44.5958798
  23.6448799 100.0652612  45.9127283  23.1598855  98.2607302  33.1452026
  23.4124376  97.7388824  32.3835489  22.2223415  98.0973448  33.2478710
  28.2042138  97.2643081  40.9526769  28.9905227  96.8462504  40.6017187
  28.4680843  98.1689173  41.1208418  28.3752216 102.7015931  35.6515426
  27.7398049 102.7750557  36.3636331  28.0449622 103.2909530  34.9734506
  33.6050565  97.2018314  41.8559748  34.3375737  96.6317531  42.0897577
  32.8489921  96.8139914  42.2966254  22.8795144 100.1635408  35.3476401
  22.7631402  99.4880312  36.0157486  22.9897404  99.6767782  34.5308554
  25.2226685  99.6245555  39.0523090  24.8584892  99.0976176  39.7636012
  26.0793801  99.2344024  38.8789576  31.1275986  90.9139888  46.3154357
  30.7959310  91.7835299  46.0915572  30.5321599  90.5976172  46.9948387
  24.8632172  94.6535455  34.0484439  25.0306574  95.5215691  34.4154910
  24.6729341  94.8162737  33.1245728  27.6207505 103.1152434  45.7150269
  27.3208228 104.0177473  45.6066077  27.2758565 102.8484617  46.5671422
  21.0719987  99.5666231  41.7486974  20.1470483  99.4342445  41.9564666
  21.3204400 100.3460450  42.2456916  31.0204649  95.6334974  43.3947707
  30.1121526  95.5650383  43.1006468  30.9692245  96.1106919  44.2229532
  24.8421393  97.1093113  35.0331106  24.7221018  97.5550163  35.8716586
  24.1473981  97.4578430  34.4744644  18.4328798  99.2099504  42.5830763
  18.5621179  99.4633983  43.4970175  17.7526249  99.8027212  42.2635418
  22.6028285 109.8796754  38.6821237  22.5252315 110.8304579  38.7609718
  21.9989929 109.5342627  39.3396163  25.0945515  97.0524620  51.3382604
  24.3178849  97.6118540  51.3285469  25.7336078  97.5381403  51.8597474
  32.8866295  93.8351413  45.1725581  32.2440676  94.1283946  44.5265375
  32.3821224  93.7204333  45.9778777  30.5406459  97.5814586  35.8611440
  31.4524315  97.8141972  35.6859137  30.0316106  98.1651630  35.2986518
  23.3491887  99.8610073  50.9000571  24.0906571 100.3995117  50.6235395
  22.6428873 100.4876362  51.0572123  28.8247227 102.0039214  49.4972732
  29.2330583 101.5621624  48.7527365  28.1024488 101.4291841  49.7506925
  25.1778297  96.9411820  46.8706289  26.0239492  97.3651234  47.0140938
  25.1176934  96.2845445  47.5644852  29.1476041 102.5640404  43.2525021
  28.5184904 102.7286118  42.5501089  28.7601703 102.9782014  44.0235985
  33.0265273 103.4994842  40.6069385  32.3416311 103.8793743  40.0566418
  33.1109123 104.1090169  41.3401333  28.3277742  94.6016189  48.5287463
  28.0838674  95.3558249  47.9921739  28.6037673  94.9801536  49.3634710
  30.2816205 101.1454801  47.2064729  30.4933100 101.7886561  46.5299110
  30.2345953 100.3117118  46.7386659  27.8842434  93.7572622  44.1101301
  27.0226913  94.0553875  44.4018038  27.9104869  93.9743021  43.1782333
  24.7004003 102.3014812  40.5175106  25.1642349 102.5802515  39.7279729
  24.4360801 101.3998257  40.3348197  21.5928084 101.8486294  43.4554870
  22.1629441 102.2773562  42.8172354  22.1836196 101.5668878  44.1539055
  23.6372889  98.4237965  37.3264672  24.3396933  98.8759008  37.7938598
  23.3053518  97.7821783  37.9544565  22.0853251  97.0149721  51.7015881
  21.4551911  97.6966002  51.9351278  21.9789339  96.9032803  50.7569019
  17.3798223  96.6821517  42.6281805  16.5897277  96.9379046  42.1521916
  17.8709471  97.4969855  42.7333846  31.3962033 104.0226756  45.3787086
  32.2179477 103.6206944  45.0969768  31.3924436 103.9194991  46.3303202
  19.3312969  97.0466097  39.5865282  18.5344132  97.1584791  40.1048777
  19.1038561  97.3852749  38.7206172  25.1618636 103.5710800  47.5347796
  25.2263069 104.0331207  48.3705968  24.4529560 102.9408165  47.6630106
  15.6635926  96.9352008  45.0596796  15.9143965  97.8199018  45.3254372
  16.1995475  96.7556609  44.2871888  39.4868026 100.3665505  41.7272057
  38.7331734  99.7972903  41.5716062  39.6215567 100.3328169  42.6742692
  24.8766654 105.2378907  37.4026777  24.7412329 106.0830443  37.8311625
  25.4176466 105.4398185  36.6392711  21.3633994  91.3170487  54.0641132
  20.9700939  90.7636686  54.7388776  22.1800134  91.6281066  54.4547650
  18.3296051 102.7554345  37.9754702  18.8420572 103.5497596  38.1260267
  18.9818764 102.0580636  37.9088303  20.1390936 105.8720102  40.0577455
  20.3157564 106.7938066  39.8698439  20.9347770 105.5578521  40.4871835
  24.2801955  92.7328366  51.6561389  25.0211668  93.3335519  51.5765851
  24.5119877  91.9906004  51.0979431  19.4243293  97.9184733  49.9339618
  19.3096808  97.0169991  50.2346717  18.5687810  98.1648430  49.5824435
  26.5035130 105.8602474  51.5327119  26.0598985 105.0738852  51.2148023
  27.1652344 106.0481624  50.8671010  21.2622252 107.3898275  46.0587797
  21.8129677 107.2615339  45.2864791  20.4233727 107.6893164  45.7082690
  28.6016368 106.1405274  49.5608520  28.5834844 106.9614155  49.0688789
  29.5236288 106.0159349  49.7858661  25.0589423 103.6549403  50.4032028
  25.5917759 102.8937691  50.1731336  24.5303504 103.3623055  51.1456183
  28.2259118  88.7609469  45.9325670  27.8823387  89.6511111  45.8564781
  28.5938080  88.5711127  45.0695255  16.2944968 101.0843000  38.7514272
  17.1320190 101.4940008  38.5347980  16.4723236 100.1442442  38.7214466
  28.1909400  98.7518080  34.4398105  27.6756024  99.5222685  34.6786493
  27.9186709  98.0783216  35.0631167  25.7756511  93.5967781  39.4983344
  24.9198108  93.2074631  39.3188982  26.1883463  93.6759742  38.6383129
  27.3055658  91.1314124  43.8974903  26.8020454  91.0944259  43.0842709
  27.5986265  92.0406867  43.9571560  23.5498544  91.2152854  42.9041085
  24.4151541  91.0195663  42.5446975  23.6176053  90.9863206  43.8310442
  33.1643674 101.5050435  36.3751279  32.3873117 101.1661594  35.9306441
  33.8435155 101.5103058  35.7006244  27.9795703  96.6245172  36.2657887
  27.6745839  96.9391321  37.1168030  28.9326146  96.7026592  36.3085220
  26.4242135 102.7835396  37.9150840  25.8963497 102.0488155  37.6024078
  25.9229638 103.5610072  37.6690809  31.4034981 100.9784416  43.0317887
  30.7458656 101.6683678  43.1198015  32.2075380 101.3680848  43.3751873
  21.1560863  93.4455062  40.2757452  21.7304615  93.2230243  39.5430645
  21.7431845  93.5143756  41.0286053  30.2140440  99.3328789  41.0821829
  30.7272322  99.9658781  41.5843538  30.8641664  98.7329984  40.7165189
  21.4830450  95.4759523  34.2953337  20.6467762  95.8134209  34.6162612
  21.3435220  95.3408503  33.3580474  23.4583531  90.3196311  39.0032521
  22.8047943  90.0045328  38.3789136  23.4164005  89.6972051  39.7292344
  24.5694735 100.6015606  30.9185814  23.6621797 100.3704859  31.1176963
  25.0665767  99.8053225  31.1059795  27.4762814 109.3113113  33.8382500
  26.8024513 109.6144810  34.4467458  27.8628636 110.1142193  33.4887957
  26.6921271  96.8078244  43.3280169  25.7743832  97.0293191  43.1701857
  27.1081415  96.8824555  42.4691876  27.4756319  98.2069660  38.4582849
  28.2228138  98.7191057  38.1489971  27.7447908  97.8853713  39.3187243
  25.7482969 100.7028201  35.4409804  24.8394188 100.4187234  35.5382273
  25.7778053 101.1227279  34.5813110  30.9802236 104.3134790  39.2100971
  30.5264563 103.4725700  39.2666162  30.3496203 104.9496189  39.5475751
  29.9235156  95.2426776  40.4401639  29.1857913  94.7304163  40.7711881
  30.1761929  94.8027158  39.6284916  29.4235176 106.1511287  40.1450789
  29.7158150 106.7116344  39.4263155  29.9333796 106.4439848  40.9003948
  30.0246783  88.0203028  41.0343408  30.3305660  87.1600392  40.7469323
  30.7499388  88.6120648  40.8342402  16.3171139  98.4233715  39.4225006
  16.1195539  97.8303076  38.6976072  15.7617803  98.1185925  40.1400945
  24.2967863  98.3156821  41.5419599  24.3516473  97.3630658  41.4662076
  23.4859065  98.4716260  42.0260897  25.4459057 102.2436944  32.7797882
  25.0078487 101.5272803  32.3203520  26.1869498 102.4713059  32.2182974
  22.2360223  96.9333881  39.3009978  21.4228088  97.2328052  39.7075170
  22.7319217  96.5389570  40.0184460  24.3868801 106.9291638  41.2344243
  24.3444980 107.1552484  40.3052775  25.3031500 106.6955013  41.3830044
  27.8334435  97.3975706  48.1324872  28.1883822  97.6247179  48.9919337
  28.4806566  97.7294082  47.5102127  33.5632171 100.5194141  38.8374201
  33.4250070 100.7095737  37.9095390  33.2068390 101.2813524  39.2942252
  21.7274298  94.5052237  44.9171213  22.3673677  94.3640996  44.2194176
  20.8951828  94.2186750  44.5409815  33.5901551 102.5870668  43.8485472
  34.0238058 102.4945958  44.6968526  34.3033132 102.5628169  43.2105488
  22.5034602 103.8054667  41.0306205  23.2975200 103.3104987  40.8288780
  21.7926294 103.2772530  40.6673911  27.3229446 106.1872763  45.3818573
  27.3766468 106.7563699  46.1496289  26.4544227 106.3574648  45.0172610
  18.8117365  97.9497749  37.1065958  17.8814953  97.8882204  37.3235920
  18.9074837  97.4273702  36.3102599  18.7302914  94.4752562  39.6944200
  18.9909731  95.3897895  39.5853360  19.5520086  94.0077004  39.8440812
  20.2027839  95.8890319  46.8643024  20.8750893  95.6807681  46.2155673
  19.3757626  95.6912405  46.4248256  34.4517101 102.6294369  46.3818358
  34.6452991 103.5340180  46.6277633  34.3517719 102.1701788  47.2156943
  26.1053411  92.5152260  48.8808685  25.4581326  93.2142209  48.7873161
  26.8754427  92.9488404  49.2484933  29.5132209 102.7801112  51.9559238
  29.3617716 102.5511664  51.0389322  29.5036889 103.7371713  51.9690583
  26.2817546 100.3533025  46.9405505  27.2109606 100.5044184  46.7674472
  25.8608576 100.4417045  46.0854151  25.0805877 104.3783689  44.7104042
  24.9416963 104.0102473  45.5829980  24.2920474 104.8931328  44.5388000
  25.6754029 109.4792786  36.0529579  25.8505785 109.0080829  36.8675202
  24.9886817 110.1058552  36.2810840  26.6311093 103.7565292  42.0992880
  26.2960925 103.7166062  42.9950530  26.1315038 103.0910008  41.6263290
  20.6055337  99.1632922  47.6245461  20.4675135  98.4313161  48.2257000
  21.5160260  99.0741822  47.3429649  29.5670284 101.1021326  32.3729940
  28.9499455 100.3768154  32.2762992  29.0986773 101.8630686  32.0297014
  23.2337637  98.8752881  47.1129141  23.9437256  98.2346073  47.0715759
  23.1906945  99.1265776  48.0355322  31.2224416 105.8120234  50.0335720
  31.1636962 105.1279455  49.3666303  31.6243934 106.5539224  49.5816346
  21.9466571  95.8618099  48.9324780  21.4103928  95.4108837  49.5846377
  21.3583280  95.9964008  48.1895245  20.2415115 112.6282148  42.8269439
  20.4811713 113.2600672  43.5048458  19.3984311 112.2770188  43.1134798
  21.3568830  95.3206750  31.4951244  20.4798297  95.1995551  31.1313491
  21.8326583  94.5292829  31.2430133  31.2241823 103.7759818  48.2649700
  30.3368602 103.4385740  48.3876099  31.7940374 103.0442850  48.5018465
  12.8770970 100.1083910  41.5892751  13.5642010  99.7945640  41.0013767
  12.7219099 101.0125275  41.3160003  17.6805692  94.9974107  46.0177775
  17.5963881  94.3899776  45.2828185  16.8588399  95.4883125  46.0187271
  24.7542977 108.4361271  45.2310943  24.6813148 109.2416242  45.7430248
  24.3120370 108.6353237  44.4058964  24.5432756 107.6733041  38.7413765
  23.7600278 108.2154721  38.8351989  25.2425501 108.1907020  39.1408006
  27.8529406  93.4827670  41.3847970  28.3498106  92.7297633  41.0649040
  27.0816388  93.5191987  40.8191179  35.7059164  99.1868036  43.0266261
  35.6949040 100.0692751  42.6560195  34.8376543  98.8339587  42.8320799
  27.2141660 108.3348105  47.3869102  27.9269632 108.9695570  47.3145003
  26.7231689 108.4311971  46.5709104  28.9359187 102.2399357  38.9586393
  28.0015466 102.3600820  38.7891098  29.1135856 101.3371824  38.6946403
  24.4364375  95.6245053  41.1119655  24.0662163  95.0716094  41.8000560
  24.9323468  95.0203187  40.5594655  32.3231738  98.0816677  39.4936428
  32.7892191  98.9144668  39.4196730  32.7739239  97.6161658  40.1981686
  22.2653574 106.0842548  48.2074673  22.9663033 106.7179031  48.3604067
  21.7948689 106.4257280  47.4470312  30.3907970 104.4260498  36.4922580
  30.6667813 104.3117093  37.4016454  29.5212468 104.0277983  36.4534753
  30.2948401  90.4497264  43.5327329  29.3811481  90.6801491  43.7009536
  30.7241503  90.5335708  44.3841361  30.0654860  98.6387156  46.0327223
  29.4126310  98.8863063  45.3779676  30.4435240  97.8251294  45.6989700
  27.0262034 108.6746849  40.1355393  27.2084428 107.8568505  40.5983145
  27.8495020 108.8914541  39.6980283  27.3604199 107.6015034  37.3970442
  27.8891965 107.0907489  36.7840604  27.6232419 107.2857564  38.2615975
  26.1142433  99.3806967  52.5193260  25.4383070  99.2801096  53.1895635
  26.9370067  99.2246180  52.9829257  17.8621292 105.6178903  45.1405775
  18.4474729 104.8722591  45.2733679  17.6646130 105.9282860  46.0242439
  20.7159947 108.6530151  40.1568218  20.0470322 109.1376278  39.6732258
  20.5772817 108.8999371  41.0711596  12.4538946  98.1884503  43.8610218
  12.4923046  97.6548094  44.6547336  11.9479239  97.6619709  43.2421196
  24.8565216 110.6873894  46.7550876  25.4083524 110.8505516  47.5199961
  25.1971409 111.2778332  46.0830901  19.8329709  93.0349044  47.3572761
  19.8971035  93.8963875  46.9450158  19.7696829  92.4223046  46.6245119
  19.3081981  95.1072177  51.0045795  19.9354020  94.7249254  51.6183319
  18.4509900  94.8886378  51.3701487  29.7076090 105.5135152  52.6099530
  30.2515994 106.1265110  52.1154485  29.1262935 106.0714730  53.1266543
  16.0847524  96.9148606  36.9364150  16.3800965  96.0059284  36.8831203
  15.1835560  96.8936345  36.6145152  27.9933603 108.6355870  43.7414558
  27.8684742 107.8345610  43.2325504  28.6512694 109.1302063  43.2528528
  19.6141771  94.9904602  42.9191698  18.8928357  95.6040570  42.7799172
  20.4035027  95.5262367  42.8408344  30.0568511 106.4364890  45.3694108
  29.1098847 106.3170241  45.2972435  30.4051284 105.5487388  45.4520370
  22.4168085  92.3259029  49.1932350  22.9402486  92.5721325  49.9558659
  22.1980418  93.1579064  48.7735487  17.8135366  94.5962703  37.0603475
  17.4848072  93.7160082  36.8778581  18.1674736  94.5410372  37.9479864
  27.0614945 106.2317606  41.5698460  26.9139907 105.3034313  41.7506030
  27.8868438 106.2537697  41.0855536  20.9277189  94.8835673  37.4278953
  21.2673261  95.4121594  36.7057561  21.3749309  95.2216079  38.2037519
  30.6649066 107.0546165  42.6563333  31.5895614 106.8489026  42.5187784
  30.4964370 106.8062566  43.5652675  23.6220630  93.2672724  46.8782021
  23.2817450  92.4680537  47.2802700  22.9159636  93.5674435  46.3058854
  24.2737101  90.3522036  45.3309344  25.0963171  89.8782514  45.2088234
  24.5175165  91.1312520  45.8308030  22.9145336  93.3810295  35.6272245
  23.6353698  93.7591547  35.1235962  22.2910640  94.0999171  35.7307223
  27.0576459  94.0855444  36.5630578  27.2740073  94.9680082  36.2619406
  26.5770526  93.6941657  35.8336220  21.7975680  97.0441157  43.1401322
  21.6520261  97.3581460  44.0325604  21.3200884  97.6626057  42.5872221
  23.6572063  94.0343705  43.1882212  23.6433632  93.1384798  42.8514510
  24.3744491  94.0414369  43.8220498  25.5098194  94.4681045  45.2335339
  25.2515972  95.3898116  45.2319670  24.9783234  94.0711480  45.9235803
  30.4544383 107.5731832  38.0125425  30.6281260 107.0078255  37.2599277
  30.9473274 108.3732727  37.8304915  16.2721342  99.5846501  46.0788983
  15.7274810 100.3606309  46.2109258  17.1500692  99.9317306  45.9208105
  23.0608959  92.9158085  38.4569782  23.1824870  91.9874731  38.6560669
  22.7711001  92.9296771  37.5448097  25.9300149  90.6012996  41.5936502
  25.9521846  90.6652329  40.6388481  26.3468208  89.7617504  41.7877008
  36.3083774 100.3368255  39.6315724  36.7514920  99.5875580  39.2334848
  35.4310284 100.3278391  39.2489456  31.4419555 106.8898597  35.1122323
  32.1370460 107.5105289  35.3309638  31.7842705 106.0393948  35.3874701
  17.0587364  98.7116398  48.9719140  16.3169100  98.8599033  49.5583771
  16.7380109  98.9724663  48.1085890  33.3410978 104.3398302  36.6409654
  33.8662302 104.6785575  35.9158974  33.2533331 103.4045317  36.4572788
  25.0031027 108.2532376  48.7699530  25.3118153 108.0081523  49.6422230
  25.8006509 108.4579014  48.2818401  25.0251639 110.4070285  41.0004907
  24.5856629 109.9146664  41.6937764  25.7759756 109.8643253  40.7596982
  17.5043978 106.5981826  41.0029535  18.3301998 106.2985598  40.6228178
  17.1538030 105.8289449  41.4519324  22.4725511 105.9508294  43.0727209
  21.8505520 105.2879000  42.7729436  23.1430378 105.9769426  42.3900856
  15.7052583 104.5168153  41.9618469  14.8684491 104.0890327  41.7802470
  15.6776228 104.7100596  42.8989260  22.5450039  94.4290083  52.6659715
  22.5938194  95.3052205  52.2837484  23.0872553  93.8867476  52.0931358
  33.0304884 104.9731206  51.9460852  32.2400428 104.9555345  51.4065351
  32.7938239 105.5119499  52.7009888  33.1502759 101.8223672  49.2593580
  33.2000764 101.6573680  50.2009103  33.0416683 100.9550931  48.8691461
  22.0339018 104.5012218  36.5485669  22.1827138 105.1847682  35.8952342
  22.8405461 104.4817308  37.0635125  30.4406522  97.8054600  50.5752887
  31.3416384  97.6661065  50.2836885  30.5154496  97.9709055  51.5151064
  24.7749327  95.1821455  49.4206073  23.9052636  95.4755021  49.1488662
  25.0108807  95.7661900  50.1413337  34.6520956 104.2420614  49.5035602
  34.3605764 104.6050594  50.3399063  34.0393087 103.5287622  49.3248934
  35.8516638 101.8073493  42.0238172  36.6863530 102.2463297  42.1875732
  35.9875767 101.3312147  41.2046418  32.9008144  99.3653228  47.9715660
  33.3762266  99.5580875  47.1634511  31.9773710  99.4212414  47.7259043
  19.7891651 100.5277395  37.5546738  19.5437693  99.6239725  37.7526948
  19.9587565 100.5294546  36.6126216  27.4788361  91.4001072  46.9371494
  27.9970305  92.1362099  46.6117982  27.1243494  91.7065065  47.7718253
  19.0587298  96.2605753  35.0532899  18.3656543  96.3350108  34.3972935
  18.8139050  95.4966097  35.5754416  27.7300955  87.8201354  42.4572390
  28.0102709  87.1524543  43.0832817  28.5151562  88.0130450  41.9447054
  25.5334423 106.9960348  34.0197416  24.9608391 107.6150535  33.5667888
  26.1067217 107.5459710  34.5537338  31.6009813  96.2418988  46.2043965
  32.5527236  96.3417086  46.2256189  31.4313264  95.4497257  46.7142050
  29.6224193  93.3274572  46.3903366  29.0274125  93.6079584  45.6949855
  29.3373890  93.8168473  47.1620107  28.7531683 107.2797498  35.1505999
  29.6862356 107.2143060  35.3538874  28.6654896 108.1153765  34.6920531
  31.3819700 106.5963369  32.1109946  31.3033331 106.2623232  33.0045704
  32.2029367 107.0885137  32.1101419  34.0797891  99.4625108  45.3186265
  34.0474211  98.5241109  45.5045949  34.6898515  99.5409145  44.5852090
  25.9181222  98.3321161  31.3613469  26.8640327  98.2027369  31.4301887
  25.5395467  97.5935823  31.8382897  34.2292380  96.2536151  45.3644548
  33.7131428  95.4694608  45.1774477  35.1132328  95.9254868  45.5291068
  31.8903107  89.9977167  41.3240361  31.6927928  89.6892255  42.2083693
  32.5002812  90.7238806  41.4538291  39.8974441 100.5241115  44.4592302
  40.6277829 100.2626403  45.0200005  39.2881386  99.7869837  44.4994370
  37.9789738  98.6648977  45.0566753  37.2522902  98.5304942  44.4483245
  37.5637025  98.9725806  45.8623471  25.8019915 102.3838907  52.8214126
  26.7222924 102.5617506  53.0154172  25.7669498 101.4394953  52.6693825
  24.1024139  96.2571137  31.2968354  23.1955595  95.9604250  31.3731068
  24.3800120  95.9600955  30.4302640  15.0202080  97.5777501  41.7467401
  14.7004864  96.7242809  41.4541775  14.4735508  97.7926079  42.5025368
  18.7981987 100.2939942  45.4636907  19.0167997 101.2257050  45.4824941
  19.2107761  99.9347916  46.2491711  25.7186205  90.8008027  37.4512596
  24.9086933  90.4555112  37.8267842  26.4070622  90.4915571  38.0400207
  27.6476753  89.8786074  39.0736892  28.2007792  90.2981527  39.7326915
  27.8846840  88.9521822  39.1159848  23.6709852  95.8673148  54.8539656
  23.5706579  96.8167505  54.7851747  23.4531394  95.5391386  53.9815726
  22.8722924  93.1158073  31.4380333  23.7342088  93.4412971  31.6976151
  23.0573268  92.3289569  30.9253399  14.8890340 101.1980412  43.7160522
  14.1953811 100.7834365  43.2030477  15.6363331 101.2400949  43.1193941
  31.0255560  91.9886599  38.5815556  30.4454229  92.6471403  38.1993609
  30.7591493  91.1663944  38.1702974  29.4759127  91.3891657  40.7836877
  29.9758905  91.5008191  39.9751196  30.1194735  91.0852710  41.4237685
  23.5341122  99.2970286  53.6704718  23.0508204 100.0970647  53.8768607
  23.6202061  99.3078231  52.7172162  16.8027082 101.1298666  41.5926537
  16.7797770 101.2286353  40.6408420  17.1127719 101.9763817  41.9143703
  19.4614460 103.1874821  45.7073151  20.4157713 103.1558763  45.6403083
  19.2626984 102.7265445  46.5223377  20.0513842 101.7575937  48.2743949
  20.8706731 102.2520016  48.2978786  20.3250650 100.8407905  48.2461517
  29.8080438  94.1486689  37.6371905  28.9206293  94.4336340  37.4192099
  30.2234427  93.9880453  36.7899182  33.1594974  94.1733210  41.3526244
  33.9355365  94.6629663  41.6250861  32.4343109  94.5991265  41.8098113
  35.5967533  94.8860830  42.4100185  36.1912024  94.6456566  41.6993493
  35.6694117  94.1667960  43.0373721  17.8164689 108.7294441  42.7243349
  17.6819157 107.9694841  42.1581347  17.3996751 109.4535340  42.2572138
  28.9523652 103.9131364  31.7319925  29.6559502 104.1181367  32.3477580
  28.2286301 104.4808126  31.9969008  29.7821462  99.6641225  37.8522195
  29.7256663 100.1209777  37.0129827  30.3349804  98.9031910  37.6745038
  33.5926268  95.4530957  38.6772314  33.3363202  95.0527593  39.5080522
  32.9679136  96.1674751  38.5522453  37.9038606  98.1927031  41.1843606
  37.3438164  98.2620220  41.9575168  37.2982109  98.0168015  40.4643102
  20.9733815 109.6263758  42.9361792  20.8566199 110.5709190  42.8340482
  20.1526261 109.3237319  43.3247591  30.8610349 104.3513893  33.7818385
  31.6955953 103.9195092  33.5995860  30.6994692 104.1795907  34.7095279
  30.5156241 100.8546007  35.1474724  30.4605045 100.6890278  34.2063168
  29.8902297 101.5622040  35.3036914  15.3048756  96.0914071  48.9736146
  15.9507620  95.5813025  49.4623371  15.0965907  96.8282753  49.5479571
  27.8302149 103.1594919  54.4728287  28.6993308 103.3335571  54.1114922
  27.3508900 103.9789335  54.3504016  23.8252367  90.3554116  34.7260042
  23.8131037  91.2995956  34.8828313  24.7175789  90.1724261  34.4319504
  21.9988329 110.2792020  46.1517720  22.9015575 110.3115630  46.4684215
  21.7725699 109.3492470  46.1664056  23.7541931 109.0323006  42.8127799
  22.8037562 109.0324868  42.6992171  24.0574417 108.2855741  42.2963834
  27.6404486  86.9496892  38.9805979  26.8736882  86.3955379  39.1262662
  28.0515191  87.0218761  39.8420131  19.6446247  93.2381688  53.0711160
  20.5077709  92.8818493  53.2814485  19.0711658  92.8995583  53.7586565
  39.4894624 114.8683544  43.8773561  40.1273034 114.7490292  43.1736902
  39.3715467 115.8164388  43.9361514  36.2984331 114.8210973  43.8135086
  35.9602842 114.7052037  42.9255621  37.1674099 114.4202138  43.7936092
  32.1571146 116.6746449  39.8031977  31.5936011 116.5836386  39.0348265
  32.0423541 115.8546353  40.2834470  36.7804114 115.9745824  49.7721292
  36.7692754 115.5798623  48.9001795  36.9424753 115.2411897  50.3655063
  29.7035578 118.1697641  42.6416198  30.4956870 117.8288465  42.2262497
  29.9432228 118.2792616  43.5618351  37.7370705 120.3417417  35.1146442
  37.0858685 120.9271497  34.7280456  38.5315068 120.8723612  35.1741479
  31.6626332 117.4306554  35.5133576  32.4357208 116.8835541  35.3746452
  32.0151731 118.2950803  35.7248038  33.5011375 118.7582936  48.7200476
  33.2101241 119.6628567  48.6047142  34.1368359 118.7999464  49.4344545
  34.4267582 116.1359785  45.3101835  35.0231154 115.9115807  44.5958798
  34.4842553 115.3944530  45.9127283  33.9992610 113.5899220  33.1452026
  34.2518131 113.0680741  32.3835489  33.0617169 113.4265365  33.2478710
  39.0435893 112.5934998  40.9526769  39.8298982 112.1754421  40.6017187
  39.3074597 113.4981090  41.1208418  39.2145970 118.0307849  35.6515426
  38.5791803 118.1042475  36.3636331  38.8843376 118.6201447  34.9734506
  44.4444320 112.5310232  41.8559748  45.1769492 111.9609448  42.0897577
  43.6883676 112.1431832  42.2966254  33.7188899 115.4927326  35.3476401
  33.6025157 114.8172229  36.0157486  33.8291159 115.0059700  34.5308554
  36.0620440 114.9537473  39.0523090  35.6978647 114.4268094  39.7636012
  36.9187555 114.5635942  38.8789576  41.9669740 106.2431806  46.3154357
  41.6353065 107.1127217  46.0915572  41.3715354 105.9268090  46.9948387
  35.7025927 109.9827373  34.0484439  35.8700329 110.8507609  34.4154910
  35.5123096 110.1454654  33.1245728  38.4601260 118.4444352  45.7150269
  38.1601983 119.3469390  45.6066077  38.1152319 118.1776535  46.5671422
  31.9113741 114.8958148  41.7486974  30.9864238 114.7634363  41.9564666
  32.1598154 115.6752368  42.2456916  41.8598404 110.9626892  43.3947707
  40.9515281 110.8942300  43.1006468  41.8085999 111.4398837  44.2229532
  35.6815147 112.4385030  35.0331106  35.5614773 112.8842081  35.8716586
  34.9867736 112.7870348  34.4744644  29.2722552 114.5391422  42.5830763
  29.4014933 114.7925901  43.4970175  28.5920004 115.1319130  42.2635418
  33.4422040 125.2088672  38.6821237  33.3646069 126.1596497  38.7609718
  32.8383683 124.8634544  39.3396163  35.9339269 112.3816537  51.3382604
  35.1572603 112.9410458  51.3285469  36.5729832 112.8673320  51.8597474
  43.7260050 109.1643330  45.1725581  43.0834430 109.4575863  44.5265375
  43.2214978 109.0496251  45.9778777  41.3800214 112.9106503  35.8611440
  42.2918070 113.1433890  35.6859137  40.8709861 113.4943548  35.2986518
  34.1885642 115.1901991  50.9000571  34.9300326 115.7287035  50.6235395
  33.4822627 115.8168279  51.0572123  39.6640981 117.3331131  49.4972732
  40.0724337 116.8913542  48.7527365  38.9418243 116.7583759  49.7506925
  36.0172051 112.2703738  46.8706289  36.8633246 112.6943152  47.0140938
  35.9570689 111.6137362  47.5644852  39.9869796 117.8932322  43.2525021
  39.3578658 118.0578036  42.5501089  39.5995458 118.3073931  44.0235985
  43.8659028 118.8286760  40.6069385  43.1810066 119.2085661  40.0566418
  43.9502877 119.4382086  41.3401333  39.1671497 109.9308106  48.5287463
  38.9232429 110.6850167  47.9921739  39.4431427 110.3093454  49.3634710
  41.1209959 116.4746719  47.2064729  41.3326855 117.1178479  46.5299110
  41.0739708 115.6409035  46.7386659  38.7236188 109.0864539  44.1101301
  37.8620667 109.3845793  44.4018038  38.7498623 109.3034938  43.1782333
  35.5397758 117.6306730  40.5175106  36.0036103 117.9094433  39.7279729
  35.2754556 116.7290174  40.3348197  32.4321839 117.1778211  43.4554870
  33.0023196 117.6065480  42.8172354  33.0229951 116.8960796  44.1539055
  34.4766644 113.7529882  37.3264672  35.1790687 114.2050926  37.7938598
  34.1447272 113.1113701  37.9544565  32.9247005 112.3441639  51.7015881
  32.2945666 113.0257920  51.9351278  32.8183093 112.2324721  50.7569019
  28.2191978 112.0113435  42.6281805  27.4291032 112.2670963  42.1521916
  28.7103225 112.8261773  42.7333846  42.2355787 119.3518674  45.3787086
  43.0573231 118.9498861  45.0969768  42.2318190 119.2486908  46.3303202
  30.1706723 112.3758014  39.5865282  29.3737886 112.4876708  40.1048777
  29.9432315 112.7144666  38.7206172  36.0012391 118.9002717  47.5347796
  36.0656823 119.3623125  48.3705968  35.2923315 118.2700082  47.6630106
  26.5029681 112.2643925  45.0596796  26.7537719 113.1490935  45.3254372
  27.0389229 112.0848527  44.2871888  50.3261780 115.6957423  41.7272057
  49.5725489 115.1264821  41.5716062  50.4609322 115.6620087  42.6742692
  35.7160408 120.5670825  37.4026777  35.5806083 121.4122361  37.8311625
  36.2570221 120.7690103  36.6392711  32.2027748 106.6462405  54.0641132
  31.8094694 106.0928603  54.7388776  33.0193888 106.9572983  54.4547650
  29.1689806 118.0846263  37.9754702  29.6814326 118.8789513  38.1260267
  29.8212519 117.3872553  37.9088303  30.9784691 121.2012019  40.0577455
  31.1551319 122.1229984  39.8698439  31.7741524 120.8870438  40.4871835
  35.1195709 108.0620284  51.6561389  35.8605422 108.6627437  51.5765851
  35.3513632 107.3197922  51.0979431  30.2637047 113.2476651  49.9339618
  30.1490562 112.3461908  50.2346717  29.4081565 113.4940348  49.5824435
  37.3428885 121.1894391  51.5327119  36.8992739 120.4030770  51.2148023
  38.0046098 121.3773542  50.8671010  32.1016006 122.7190193  46.0587797
  32.6523431 122.5907256  45.2864791  31.2627482 123.0185082  45.7082690
  39.4410123 121.4697191  49.5608520  39.4228598 122.2906072  49.0688789
  40.3630043 121.3451267  49.7858661  35.8983177 118.9841321  50.4032028
  36.4311514 118.2229609  50.1731336  35.3697258 118.6914973  51.1456183
  39.0652872 104.0901387  45.9325670  38.7217141 104.9803028  45.8564781
  39.4331835 103.9003044  45.0695255  27.1338723 116.4134917  38.7514272
  27.9713945 116.8231926  38.5347980  27.3116990 115.4734359  38.7214466
  39.0303155 114.0809998  34.4398105  38.5149778 114.8514603  34.6786493
  38.7580463 113.4075134  35.0631167  36.6150266 108.9259699  39.4983344
  35.7591862 108.5366549  39.3188982  37.0277218 109.0051659  38.6383129
  38.1449412 106.4606042  43.8974903  37.6414208 106.4236177  43.0842709
  38.4380019 107.3698785  43.9571560  34.3892298 106.5444772  42.9041085
  35.2545295 106.3487580  42.5446975  34.4569807 106.3155123  43.8310442
  44.0037429 116.8342353  36.3751279  43.2266872 116.4953512  35.9306441
  44.6828910 116.8394976  35.7006244  38.8189458 111.9537090  36.2657887
  38.5139593 112.2683239  37.1168030  39.7719900 112.0318510  36.3085220
  37.2635890 118.1127313  37.9150840  36.7357251 117.3780073  37.6024078
  36.7623392 118.8901990  37.6690809  42.2428736 116.3076334  43.0317887
  41.5852410 116.9975595  43.1198015  43.0469135 116.6972766  43.3751873
  31.9954617 108.7746980  40.2757452  32.5698369 108.5522161  39.5430645
  32.5825600 108.8435674  41.0286053  41.0534195 114.6620706  41.0821829
  41.5666076 115.2950698  41.5843538  41.7035418 114.0621902  40.7165189
  32.3224204 110.8051441  34.2953337  31.4861517 111.1426127  34.6162612
  32.1828974 110.6700420  33.3580474  34.2977285 105.6488228  39.0032521
  33.6441697 105.3337246  38.3789136  34.2557759 105.0263969  39.7292344
  35.4088490 115.9307524  30.9185814  34.5015552 115.6996777  31.1176963
  35.9059522 115.1345143  31.1059795  38.3156569 124.6405031  33.8382500
  37.6418268 124.9436728  34.4467458  38.7022391 125.4434111  33.4887957
  37.5315025 112.1370162  43.3280169  36.6137587 112.3585109  43.1701857
  37.9475169 112.2116473  42.4691876  38.3150073 113.5361578  38.4582849
  39.0621892 114.0482975  38.1489971  38.5841663 113.2145630  39.3187243
  36.5876723 116.0320118  35.4409804  35.6787943 115.7479151  35.5382273
  36.6171807 116.4519197  34.5813110  41.8195991 119.6426708  39.2100971
  41.3658318 118.8017618  39.2666162  41.1889957 120.2788106  39.5475751
  40.7628910 110.5718694  40.4401639  40.0251667 110.0596080  40.7711881
  41.0155684 110.1319076  39.6284916  40.2628930 121.4803205  40.1450789
  40.5551904 122.0408262  39.4263155  40.7727551 121.7731766  40.9003948
  40.8640538 103.3494946  41.0343408  41.1699414 102.4892309  40.7469323
  41.5893142 103.9412566  40.8342402  27.1564894 113.7525633  39.4225006
  26.9589294 113.1594993  38.6976072  26.6011558 113.4477843  40.1400945
  35.1361617 113.6448739  41.5419599  35.1910227 112.6922575  41.4662076
  34.3252819 113.8008178  42.0260897  36.2852811 117.5728862  32.7797882
  35.8472241 116.8564721  32.3203520  37.0263252 117.8004977  32.2182974
  33.0753977 112.2625799  39.3009978  32.2621843 112.5619969  39.7075170
  33.5712972 111.8681488  40.0184460  35.2262555 122.2583556  41.2344243
  35.1838734 122.4844402  40.3052775  36.1425254 122.0246930  41.3830044
  38.6728189 112.7267623  48.1324872  39.0277577 112.9539096  48.9919337
  39.3200320 113.0586000  47.5102127  44.4025926 115.8486059  38.8374201
  44.2643825 116.0387655  37.9095390  44.0462145 116.6105442  39.2942252
  32.5668052 109.8344154  44.9171213  33.2067431 109.6932913  44.2194176
  31.7345583 109.5478668  44.5409815  44.4295306 117.9162586  43.8485472
  44.8631812 117.8237875  44.6968526  45.1426886 117.8920087  43.2105488
  33.3428356 119.1346585  41.0306205  34.1368954 118.6396905  40.8288780
  32.6320048 118.6064448  40.6673911  38.1623200 121.5164680  45.3818573
  38.2160223 122.0855617  46.1496289  37.2937982 121.6866565  45.0172610
  29.6511119 113.2789666  37.1065958  28.7208708 113.2174122  37.3235920
  29.7468591 112.7565619  36.3102599  29.5696669 109.8044479  39.6944200
  29.8303486 110.7189813  39.5853360  30.3913841 109.3368922  39.8440812
  31.0421594 111.2182236  46.8643024  31.7144647 111.0099599  46.2155673
  30.2151380 111.0204322  46.4248256  45.2910855 117.9586287  46.3818358
  45.4846745 118.8632097  46.6277633  45.1911473 117.4993706  47.2156943
  36.9447166 107.8444177  48.8808685  36.2975081 108.5434127  48.7873161
  37.7148181 108.2780321  49.2484933  40.3525964 118.1093030  51.9559238
  40.2011470 117.8803581  51.0389322  40.3430643 119.0663631  51.9690583
  37.1211300 115.6824942  46.9405505  38.0503360 115.8336102  46.7674472
  36.7002330 115.7708963  46.0854151  35.9199632 119.7075607  44.7104042
  35.7810718 119.3394391  45.5829980  35.1314228 120.2223246  44.5388000
  36.5147784 124.8084703  36.0529579  36.6899540 124.3372746  36.8675202
  35.8280572 125.4350469  36.2810840  37.4704847 119.0857209  42.0992880
  37.1354680 119.0457979  42.9950530  36.9708793 118.4201925  41.6263290
  31.4449091 114.4924839  47.6245461  31.3068889 113.7605078  48.2257000
  32.3554015 114.4033740  47.3429649  40.4064039 116.4313244  32.3729940
  39.7893209 115.7060072  32.2762992  39.9380527 117.1922604  32.0297014
  34.0731392 114.2044799  47.1129141  34.7831010 113.5637991  47.0715759
  34.0300700 114.4557694  48.0355322  42.0618170 121.1412152  50.0335720
  42.0030717 120.4571372  49.3666303  42.4637689 121.8831142  49.5816346
  32.7860326 111.1910017  48.9324780  32.2497683 110.7400755  49.5846377
  32.1977034 111.3255925  48.1895245  32.1962585 110.6498668  31.4951244
  31.3192051 110.5287469  31.1313491  32.6720338 109.8584746  31.2430133
  42.0635578 119.1051736  48.2649700  41.1762356 118.7677658  48.3876099
  42.6334129 118.3734767  48.5018465  23.7164725 115.4375828  41.5892751
  24.4035765 115.1237558  41.0013767  23.5612854 116.3417192  41.3160003
  28.5199447 110.3266024  46.0177775  28.4357636 109.7191694  45.2828185
  27.6982153 110.8175043  46.0187271  35.5936731 123.7653188  45.2310943
  35.5206903 124.5708160  45.7430248  35.1514124 123.9645154  44.4058964
  35.3826511 123.0024958  38.7413765  34.5994033 123.5446639  38.8351989
  36.0819256 123.5198938  39.1408006  38.6923161 108.8119588  41.3847970
  39.1891860 108.0589550  41.0649040  37.9210142 108.8483905  40.8191179
  46.5452918 114.5159953  43.0266261  46.5342794 115.3984669  42.6560195
  45.6770298 114.1631504  42.8320799  38.0535415 123.6640022  47.3869102
  38.7663387 124.2987487  47.3145003  37.5625443 123.7603888  46.5709104
  39.7752942 117.5691275  38.9586393  38.8409220 117.6892738  38.7891098
  39.9529610 116.6663742  38.6946403  35.2758130 110.9536971  41.1119655
  34.9055917 110.4008011  41.8000560  35.7717222 110.3495104  40.5594655
  43.1625493 113.4108594  39.4936428  43.6285945 114.2436586  39.4196730
  43.6132993 112.9453576  40.1981686  33.1047328 121.4134466  48.2074673
  33.8056788 122.0470949  48.3604067  32.6342443 121.7549197  47.4470312
  41.2301724 119.7552416  36.4922580  41.5061568 119.6409010  37.4016454
  40.3606223 119.3569901  36.4534753  41.1342156 105.7789181  43.5327329
  40.2205235 106.0093408  43.7009536  41.5635257 105.8627625  44.3841361
  40.9048614 113.9679073  46.0327223  40.2520064 114.2154981  45.3779676
  41.2828994 113.1543212  45.6989700  37.8655788 124.0038767  40.1355393
  38.0478183 123.1860422  40.5983145  38.6888774 124.2206459  39.6980283
  38.1997954 122.9306952  37.3970442  38.7285720 122.4199406  36.7840604
  38.4626173 122.6149482  38.2615975  36.9536187 114.7098884  52.5193260
  36.2776824 114.6093014  53.1895635  37.7763821 114.5538098  52.9829257
  28.7015046 120.9470821  45.1405775  29.2868483 120.2014509  45.2733679
  28.5039885 121.2574778  46.0242439  31.5553701 123.9822068  40.1568218
  30.8864077 124.4668196  39.6732258  31.4166571 124.2291289  41.0711596
  23.2932701 113.5176421  43.8610218  23.3316800 112.9840012  44.6547336
  22.7872994 112.9911627  43.2421196  35.6958970 126.0165812  46.7550876
  36.2477278 126.1797433  47.5199961  36.0365163 126.6070250  46.0830901
  30.6723463 108.3640962  47.3572761  30.7364790 109.2255793  46.9450158
  30.6090584 107.7514963  46.6245119  30.1475736 110.4364094  51.0045795
  30.7747775 110.0541172  51.6183319  29.2903655 110.2178296  51.3701487
  40.5469844 120.8427069  52.6099530  41.0909748 121.4557028  52.1154485
  39.9656689 121.4006648  53.1266543  26.9241279 112.2440523  36.9364150
  27.2194720 111.3351202  36.8831203  26.0229314 112.2228263  36.6145152
  38.8327357 123.9647787  43.7414558  38.7078497 123.1637527  43.2325504
  39.4906448 124.4593981  43.2528528  30.4535526 110.3196520  42.9191698
  29.7322111 110.9332488  42.7799172  31.2428781 110.8554285  42.8408344
  40.8962266 121.7656807  45.3694108  39.9492601 121.6462159  45.2972435
  41.2445039 120.8779306  45.4520370  33.2561839 107.6550946  49.1932350
  33.7796241 107.9013243  49.9558659  33.0374172 108.4870981  48.7735487
  28.6529120 109.9254621  37.0603475  28.3241826 109.0452000  36.8778581
  29.0068491 109.8702290  37.9479864  37.9008699 121.5609524  41.5698460
  37.7533661 120.6326231  41.7506030  38.7262193 121.5829614  41.0855536
  31.7670943 110.2127591  37.4278953  32.1067016 110.7413512  36.7057561
  32.2143064 110.5507997  38.2037519  41.5042821 122.3838082  42.6563333
  42.4289368 122.1780944  42.5187784  41.3358124 122.1354484  43.5652675
  34.4614384 108.5964641  46.8782021  34.1211204 107.7972455  47.2802700
  33.7553390 108.8966352  46.3058854  35.1130856 105.6813954  45.3309344
  35.9356925 105.2074432  45.2088234  35.3568919 106.4604438  45.8308030
  33.7539090 108.7102212  35.6272245  34.4747453 109.0883465  35.1235962
  33.1304395 109.4291089  35.7307223  37.8970213 109.4147361  36.5630578
  38.1133828 110.2971999  36.2619406  37.4164280 109.0233575  35.8336220
  32.6369435 112.3733075  43.1401322  32.4914015 112.6873378  44.0325604
  32.1594638 112.9917975  42.5872221  34.4965818 109.3635623  43.1882212
  34.4827386 108.4676716  42.8514510  35.2138246 109.3706286  43.8220498
  36.3491948 109.7972963  45.2335339  36.0909726 110.7190033  45.2319670
  35.8176989 109.4003397  45.9235803  41.2938137 122.9023750  38.0125425
  41.4675015 122.3370172  37.2599277  41.7867028 123.7024645  37.8304915
  27.1115097 114.9138419  46.0788983  26.5668565 115.6898227  46.2109258
  27.9894447 115.2609223  45.9208105  33.9002714 108.2450003  38.4569782
  34.0218625 107.3166649  38.6560669  33.6104756 108.2588689  37.5448097
  36.7693904 105.9304913  41.5936502  36.7915601 105.9944246  40.6388481
  37.1861963 105.0909422  41.7877008  47.1477528 115.6660173  39.6315724
  47.5908674 114.9167498  39.2334848  46.2704039 115.6570309  39.2489456
  42.2813310 122.2190514  35.1122323  42.9764214 122.8397207  35.3309638
  42.6236460 121.3685865  35.3874701  27.8981119 114.0408315  48.9719140
  27.1562855 114.1890951  49.5583771  27.5773863 114.3016581  48.1085890
  44.1804733 119.6690220  36.6409654  44.7056057 120.0077493  35.9158974
  44.0927085 118.7337235  36.4572788  35.8424781 123.5824293  48.7699530
  36.1511908 123.3373440  49.6422230  36.6400263 123.7870932  48.2818401
  35.8645393 125.7362203  41.0004907  35.4250384 125.2438582  41.6937764
  36.6153510 125.1935171  40.7596982  28.3437732 121.9273744  41.0029535
  29.1695752 121.6277516  40.6228178  27.9931784 121.1581366  41.4519324
  33.3119266 121.2800212  43.0727209  32.6899275 120.6170917  42.7729436
  33.9824132 121.3061344  42.3900856  26.5446337 119.8460070  41.9618469
  25.7078246 119.4182245  41.7802470  26.5169983 120.0392514  42.8989260
  33.3843793 109.7582000  52.6659715  33.4331949 110.6344123  52.2837484
  33.9266307 109.2159393  52.0931358  43.8698639 120.3023123  51.9460852
  43.0794182 120.2847262  51.4065351  43.6331993 120.8411417  52.7009888
  43.9896514 117.1515590  49.2593580  44.0394519 116.9865597  50.2009103
  43.8810437 116.2842849  48.8691461  32.8732772 119.8304136  36.5485669
  33.0220893 120.5139600  35.8952342  33.6799216 119.8109226  37.0635125
  41.2800276 113.1346518  50.5752887  42.1810139 112.9952983  50.2836885
  41.3548251 113.3000973  51.5151064  35.6143081 110.5113373  49.4206073
  34.7446391 110.8046939  49.1488662  35.8502562 111.0953818  50.1413337
  45.4914711 119.5712531  49.5035602  45.1999519 119.9342512  50.3399063
  44.8786842 118.8579540  49.3248934  46.6910393 117.1365411  42.0238172
  47.5257284 117.5755215  42.1875732  46.8269522 116.6604064  41.2046418
  43.7401899 114.6945146  47.9715660  44.2156020 114.8872792  47.1634511
  42.8167464 114.7504332  47.7259043  30.6285405 115.8569313  37.5546738
  30.3831447 114.9531643  37.7526948  30.7981320 115.8586464  36.6126216
  38.3182115 106.7292990  46.9371494  38.8364059 107.4654016  46.6117982
  37.9637248 107.0356983  47.7718253  29.8981053 111.5897671  35.0532899
  29.2050298 111.6642026  34.3972935  29.6532805 110.8258014  35.5754416
  38.5694709 103.1493272  42.4572390  38.8496463 102.4816461  43.0832817
  39.3545316 103.3422368  41.9447054  36.3728178 122.3252266  34.0197416
  35.8002145 122.9442453  33.5667888  36.9460972 122.8751628  34.5537338
  42.4403568 111.5710906  46.2043965  43.3920991 111.6709004  46.2256189
  42.2707018 110.7789175  46.7142050  40.4617947 108.6566489  46.3903366
  39.8667879 108.9371502  45.6949855  40.1767644 109.1460390  47.1620107
  39.5925438 122.6089416  35.1505999  40.5256111 122.5434978  35.3538874
  39.5048651 123.4445683  34.6920531  42.2213454 121.9255286  32.1109946
  42.1427086 121.5915150  33.0045704  43.0423121 122.4177054  32.1101419
  44.9191646 114.7917026  45.3186265  44.8867966 113.8533026  45.5045949
  45.5292269 114.8701062  44.5852090  36.7574976 113.6613079  31.3613469
  37.7034081 113.5319287  31.4301887  36.3789221 112.9227741  31.8382897
  45.0686134 111.5828069  45.3644548  44.5525183 110.7986526  45.1774477
  45.9526083 111.2546786  45.5291068  42.7296861 105.3269085  41.3240361
  42.5321682 105.0184173  42.2083693  43.3396567 106.0530724  41.4538291
  50.7368195 115.8533033  44.4592302  51.4671584 115.5918321  45.0200005
  50.1275141 115.1161755  44.4994370  48.8183493 113.9940895  45.0566753
  48.0916656 113.8596860  44.4483245  48.4030779 114.3017724  45.8623471
  36.6413669 117.7130825  52.8214126  37.5616678 117.8909424  53.0154172
  36.6063252 116.7686870  52.6693825  34.9417894 111.5863055  31.2968354
  34.0349349 111.2896168  31.3731068  35.2193875 111.2892873  30.4302640
  25.8595834 112.9069419  41.7467401  25.5398618 112.0534727  41.4541775
  25.3129262 113.1217997  42.5025368  29.6375742 115.6231860  45.4636907
  29.8561751 116.5548967  45.4824941  30.0501515 115.2639834  46.2491711
  36.5579959 106.1299945  37.4512596  35.7480688 105.7847030  37.8267842
  37.2464376 105.8207489  38.0400207  38.4870508 105.2077992  39.0736892
  39.0401546 105.6273445  39.7326915  38.7240594 104.2813740  39.1159848
  34.5103607 111.1965065  54.8539656  34.4100334 112.1459422  54.7851747
  34.2925149 110.8683304  53.9815726  33.7116678 108.4449990  31.4380333
  34.5735842 108.7704889  31.6976151  33.8967022 107.6581486  30.9253399
  25.7284094 116.5272330  43.7160522  25.0347565 116.1126283  43.2030477
  26.4757085 116.5692867  43.1193941  41.8649315 107.3178517  38.5815556
  41.2847984 107.9763321  38.1993609  41.5985247 106.4955861  38.1702974
  40.3152881 106.7183574  40.7836877  40.8152659 106.8300109  39.9751196
  40.9588489 106.4144627  41.4237685  34.3734877 114.6262204  53.6704718
  33.8901959 115.4262564  53.8768607  34.4595816 114.6370149  52.7172162
  27.6420837 116.4590584  41.5926537  27.6191525 116.5578271  40.6408420
  27.9521473 117.3055735  41.9143703  30.3008214 118.5166739  45.7073151
  31.2551468 118.4850681  45.6403083  30.1020738 118.0557363  46.5223377
  30.8907597 117.0867855  48.2743949  31.7100486 117.5811934  48.2978786
  31.1644404 116.1699823  48.2461517  40.6474193 109.4778607  37.6371905
  39.7600048 109.7628258  37.4192099  41.0628182 109.3172371  36.7899182
  43.9988729 109.5025128  41.3526244  44.7749119 109.9921581  41.6250861
  43.2736863 109.9283182  41.8098113  46.4361288 110.2152747  42.4100185
  47.0305778 109.9748483  41.6993493  46.5087871 109.4959878  43.0373721
  28.6558443 124.0586358  42.7243349  28.5212911 123.2986759  42.1581347
  28.2390505 124.7827258  42.2572138  39.7917406 119.2423282  31.7319925
  40.4953256 119.4473284  32.3477580  39.0680055 119.8100044  31.9969008
  40.6215217 114.9933143  37.8522195  40.5650418 115.4501695  37.0129827
  41.1743559 114.2323828  37.6745038  44.4320022 110.7822875  38.6772314
  44.1756957 110.3819511  39.5080522  43.8072890 111.4966669  38.5522453
  48.7432360 113.5218948  41.1843606  48.1831918 113.5912138  41.9575168
  48.1375864 113.3459933  40.4643102  31.8127569 124.9555675  42.9361792
  31.6959953 125.9001108  42.8340482  30.9920015 124.6529237  43.3247591
  41.7004104 119.6805811  33.7818385  42.5349708 119.2487010  33.5995860
  41.5388447 119.5087825  34.7095279  41.3549996 116.1837924  35.1474724
  41.2998800 116.0182196  34.2063168  40.7296051 116.8913957  35.3036914
  26.1442511 111.4205989  48.9736146  26.7901374 110.9104943  49.4623371
  25.9359662 112.1574670  49.5479571  38.6695903 118.4886836  54.4728287
  39.5387063 118.6627488  54.1114922  38.1902654 119.3081253  54.3504016
  34.6646121 105.6846033  34.7260042  34.6524791 106.6287873  34.8828313
  35.5569543 105.5016179  34.4319504  32.8382083 125.6083937  46.1517720
  33.7409330 125.6407547  46.4684215  32.6119453 124.6784388  46.1664056
  34.5935685 124.3614924  42.8127799  33.6431316 124.3616785  42.6992171
  34.8968171 123.6147658  42.2963834  38.4798241 102.2788810  38.9805979
  37.7130637 101.7247297  39.1262662  38.8908946 102.3510679  39.8420131
  30.4840002 108.5673606  53.0711160  31.3471463 108.2110411  53.2814485
  29.9105412 108.2287501  53.7586565  50.3288379 130.1975462  43.8773561
  50.9666789 130.0782209  43.1736902  50.2109222 131.1456306  43.9361514
  47.1378085 130.1502890  43.8135086  46.7996597 130.0343955  42.9255621
  48.0067853 129.7494055  43.7936092  42.9964901 132.0038367  39.8031977
  42.4329766 131.9128304  39.0348265  42.8817296 131.1838271  40.2834470
  47.6197868 131.3037742  49.7721292  47.6086509 130.9090540  48.9001795
  47.7818507 130.5703815  50.3655063  45.2661336 131.4651702  45.3101835
  45.8624908 131.2407725  44.5958798  45.3236308 130.7236448  45.9127283
  44.8386364 128.9191138  33.1452026  45.0911885 128.3972659  32.3835489
  43.9010923 128.7557283  33.2478710  49.8829647 127.9226916  40.9526769
  50.6692736 127.5046339  40.6017187  50.1468352 128.8273008  41.1208418
  50.0539725 133.3599766  35.6515426  49.4185558 133.4334393  36.3636331
  49.7237131 133.9493365  34.9734506  55.2838074 127.8602149  41.8559748
  56.0163246 127.2901366  42.0897577  54.5277430 127.4723750  42.2966254
  44.5582653 130.8219244  35.3476401  44.4418911 130.1464147  36.0157486
  44.6684913 130.3351618  34.5308554  46.9014194 130.2829391  39.0523090
  46.5372401 129.7560012  39.7636012  47.7581310 129.8927860  38.8789576
  52.8063495 121.5723723  46.3154357  52.4746819 122.4419134  46.0915572
  52.2109108 121.2560007  46.9948387  46.5419681 125.3119290  34.0484439
  46.7094083 126.1799527  34.4154910  46.3516850 125.4746572  33.1245728
  49.2995014 133.7736269  45.7150269  48.9995737 134.6761308  45.6066077
  48.9546074 133.5068452  46.5671422  42.7507496 130.2250066  41.7486974
  41.8257992 130.0926280  41.9564666  42.9991909 131.0044285  42.2456916
  52.6992158 126.2918809  43.3947707  51.7909035 126.2234218  43.1006468
  52.6479754 126.7690754  44.2229532  46.5208902 127.7676948  35.0331106
  46.4008527 128.2133999  35.8716586  45.8261490 128.1162266  34.4744644
  40.1116307 129.8683340  42.5830763  40.2408688 130.1217819  43.4970175
  39.4313758 130.4611048  42.2635418  46.7733024 127.7108455  51.3382604
  45.9966358 128.2702375  51.3285469  47.4123587 128.1965238  51.8597474
  54.5653804 124.4935248  45.1725581  53.9228185 124.7867781  44.5265375
  54.0608733 124.3788168  45.9778777  52.2193968 128.2398421  35.8611440
  53.1311824 128.4725808  35.6859137  51.7103615 128.8235465  35.2986518
  45.0279396 130.5193908  50.9000571  45.7694080 131.0578952  50.6235395
  44.3216382 131.1460197  51.0572123  50.5034736 132.6623049  49.4972732
  50.9118092 132.2205459  48.7527365  49.7811997 132.0875676  49.7506925
  46.8565806 127.5995656  46.8706289  47.7027001 128.0235069  47.0140938
  46.7964443 126.9429280  47.5644852  50.8263550 133.2224240  43.2525021
  50.1972413 133.3869954  42.5501089  50.4389212 133.6365849  44.0235985
  54.7052782 134.1578677  40.6069385  54.0203820 134.5377579  40.0566418
  54.7896632 134.7674004  41.3401333  50.0065251 125.2600024  48.5287463
  49.7626183 126.0142085  47.9921739  50.2825182 125.6385372  49.3634710
  51.9603714 131.8038636  47.2064729  52.1720609 132.4470396  46.5299110
  51.9133462 130.9700953  46.7386659  49.5629943 124.4156457  44.1101301
  48.7014422 124.7137711  44.4018038  49.5892378 124.6326856  43.1782333
  46.3791512 132.9598648  40.5175106  46.8429858 133.2386351  39.7279729
  46.1148310 132.0582092  40.3348197  45.3160398 129.0821800  37.3264672
  46.0184442 129.5342844  37.7938598  44.9841027 128.4405619  37.9544565
  43.7640760 127.6733557  51.7015881  43.1339420 128.3549837  51.9351278
  43.6576848 127.5616638  50.7569019  39.0585732 127.3405353  42.6281805
  38.2684786 127.5962881  42.1521916  39.5496980 128.1553690  42.7333846
  53.0749542 134.6810592  45.3787086  53.8966986 134.2790779  45.0969768
  53.0711945 134.5778826  46.3303202  41.0100478 127.7049932  39.5865282
  40.2131641 127.8168626  40.1048777  40.7826070 128.0436584  38.7206172
  37.3423435 127.5935843  45.0596796  37.5931474 128.4782853  45.3254372
  37.8782984 127.4140445  44.2871888  61.1655535 131.0249340  41.7272057
  60.4119243 130.4556738  41.5716062  61.3003076 130.9912005  42.6742692
  43.0421503 121.9754322  54.0641132  42.6488448 121.4220521  54.7388776
  43.8587643 122.2864901  54.4547650  45.9589464 123.3912202  51.6561389
  46.6999177 123.9919355  51.5765851  46.1907386 122.6489839  51.0979431
  41.1030802 128.5768569  49.9339618  40.9884317 127.6753826  50.2346717
  40.2475319 128.8232266  49.5824435  49.9046627 119.4193304  45.9325670
  49.5610896 120.3094946  45.8564781  50.2725589 119.2294962  45.0695255
  49.8696909 129.4101916  34.4398105  49.3543533 130.1806520  34.6786493
  49.5974218 128.7367052  35.0631167  47.4544020 124.2551616  39.4983344
  46.5985617 123.8658467  39.3188982  47.8670972 124.3343577  38.6383129
  48.9843167 121.7897960  43.8974903  48.4807962 121.7528095  43.0842709
  49.2773774 122.6990702  43.9571560  45.2286053 121.8736689  42.9041085
  46.0939050 121.6779498  42.5446975  45.2963562 121.6447041  43.8310442
  54.8431183 132.1634270  36.3751279  54.0660626 131.8245430  35.9306441
  55.5222664 132.1686893  35.7006244  49.6583212 127.2829008  36.2657887
  49.3533348 127.5975157  37.1168030  50.6113655 127.3610428  36.3085220
  53.0822490 131.6368251  43.0317887  52.4246165 132.3267513  43.1198015
  53.8862889 132.0264683  43.3751873  42.8348372 124.1038897  40.2757452
  43.4092124 123.8814079  39.5430645  43.4219354 124.1727592  41.0286053
  51.8927949 129.9912624  41.0821829  52.4059831 130.6242616  41.5843538
  52.5429173 129.3913820  40.7165189  43.1617959 126.1343358  34.2953337
  42.3255271 126.4718045  34.6162612  43.0222729 125.9992338  33.3580474
  45.1371040 120.9780146  39.0032521  44.4835452 120.6629163  38.3789136
  45.0951514 120.3555887  39.7292344  46.2482244 131.2599441  30.9185814
  45.3409306 131.0288695  31.1176963  46.7453276 130.4637061  31.1059795
  48.3708780 127.4662080  43.3280169  47.4531341 127.6877027  43.1701857
  48.7868924 127.5408390  42.4691876  49.1543828 128.8653495  38.4582849
  49.9015647 129.3774893  38.1489971  49.4235417 128.5437548  39.3187243
  47.4270478 131.3612036  35.4409804  46.5181697 131.0771069  35.5382273
  47.4565562 131.7811115  34.5813110  52.6589745 134.9718626  39.2100971
  52.2052072 134.1309536  39.2666162  52.0283712 135.6080024  39.5475751
  51.6022665 125.9010612  40.4401639  50.8645422 125.3887998  40.7711881
  51.8549438 125.4610993  39.6284916  51.7034292 118.6786864  41.0343408
  52.0093169 117.8184227  40.7469323  52.4286897 119.2704484  40.8342402
  37.9958648 129.0817550  39.4225006  37.7983048 128.4886911  38.6976072
  37.4405312 128.7769760  40.1400945  45.9755372 128.9740657  41.5419599
  46.0303982 128.0214493  41.4662076  45.1646574 129.1300096  42.0260897
  47.1246566 132.9020780  32.7797882  46.6865996 132.1856639  32.3203520
  47.8657007 133.1296895  32.2182974  43.9147732 127.5917716  39.3009978
  43.1015597 127.8911887  39.7075170  44.4106726 127.1973405  40.0184460
  49.5121944 128.0559541  48.1324872  49.8671331 128.2831014  48.9919337
  50.1594075 128.3877918  47.5102127  55.2419680 131.1777977  38.8374201
  55.1037579 131.3679573  37.9095390  54.8855899 131.9397360  39.2942252
  43.4061807 125.1636072  44.9171213  44.0461186 125.0224831  44.2194176
  42.5739337 124.8770585  44.5409815  55.2689060 133.2454504  43.8485472
  55.7025567 133.1529793  44.6968526  55.9820641 133.2212004  43.2105488
  40.4904874 128.6081584  37.1065958  39.5602462 128.5466040  37.3235920
  40.5862346 128.0857537  36.3102599  40.4090423 125.1336397  39.6944200
  40.6697240 126.0481730  39.5853360  41.2307595 124.6660840  39.8440812
  41.8815348 126.5474154  46.8643024  42.5538402 126.3391516  46.2155673
  41.0545135 126.3496240  46.4248256  56.1304610 133.2878204  46.3818358
  56.3240500 134.1924015  46.6277633  56.0305228 132.8285624  47.2156943
  47.7840920 123.1736095  48.8808685  47.1368835 123.8726045  48.7873161
  48.5541936 123.6072239  49.2484933  51.1919718 133.4384947  51.9559238
  51.0405225 133.2095499  51.0389322  51.1824398 134.3955549  51.9690583
  47.9605055 131.0116860  46.9405505  48.8897115 131.1628020  46.7674472
  47.5396085 131.1000881  46.0854151  42.2842846 129.8216757  47.6245461
  42.1462644 129.0896996  48.2257000  43.1947769 129.7325657  47.3429649
  51.2457793 131.7605161  32.3729940  50.6286964 131.0351990  32.2762992
  50.7774282 132.5214522  32.0297014  44.9125146 129.5336716  47.1129141
  45.6224765 128.8929909  47.0715759  44.8694454 129.7849611  48.0355322
  43.6254080 126.5201934  48.9324780  43.0891437 126.0692673  49.5846377
  43.0370789 126.6547843  48.1895245  43.0356339 125.9790586  31.4951244
  42.1585806 125.8579387  31.1313491  43.5114092 125.1876664  31.2430133
  52.9029332 134.4343654  48.2649700  52.0156111 134.0969576  48.3876099
  53.4727883 133.7026685  48.5018465  39.3593201 125.6557942  46.0177775
  39.2751390 125.0483612  45.2828185  38.5375908 126.1466960  46.0187271
  49.5316915 124.1411506  41.3847970  50.0285615 123.3881468  41.0649040
  48.7603897 124.1775822  40.8191179  57.3846673 129.8451871  43.0266261
  57.3736549 130.7276587  42.6560195  56.5164052 129.4923422  42.8320799
  50.6146696 132.8983193  38.9586393  49.6802975 133.0184655  38.7891098
  50.7923364 131.9955660  38.6946403  46.1151884 126.2828889  41.1119655
  45.7449672 125.7299929  41.8000560  46.6110977 125.6787022  40.5594655
  54.0019247 128.7400512  39.4936428  54.4679700 129.5728504  39.4196730
  54.4526748 128.2745494  40.1981686  52.0695478 135.0844333  36.4922580
  52.3455322 134.9700928  37.4016454  51.1999977 134.6861818  36.4534753
  51.9735910 121.1081099  43.5327329  51.0598990 121.3385326  43.7009536
  52.4029012 121.1919543  44.3841361  51.7442369 129.2970991  46.0327223
  51.0913819 129.5446898  45.3779676  52.1222749 128.4835129  45.6989700
  47.7929942 130.0390802  52.5193260  47.1170579 129.9384931  53.1895635
  48.6157576 129.8830016  52.9829257  34.1326455 128.8468339  43.8610218
  34.1710555 128.3131930  44.6547336  33.6266748 128.3203544  43.2421196
  41.5117218 123.6932879  47.3572761  41.5758544 124.5547710  46.9450158
  41.4484338 123.0806881  46.6245119  40.9869490 125.7656012  51.0045795
  41.6141529 125.3833089  51.6183319  40.1297409 125.5470214  51.3701487
  37.7635033 127.5732441  36.9364150  38.0588474 126.6643119  36.8831203
  36.8623069 127.5520180  36.6145152  41.2929280 125.6488438  42.9191698
  40.5715866 126.2624405  42.7799172  42.0822536 126.1846202  42.8408344
  44.0955594 122.9842864  49.1932350  44.6189995 123.2305161  49.9558659
  43.8767927 123.8162899  48.7735487  39.4922875 125.2546539  37.0603475
  39.1635581 124.3743918  36.8778581  39.8462245 125.1994207  37.9479864
  42.6064698 125.5419508  37.4278953  42.9460770 126.0705430  36.7057561
  43.0536818 125.8799915  38.2037519  45.3008139 123.9256559  46.8782021
  44.9604959 123.1264372  47.2802700  44.5947145 124.2258270  46.3058854
  45.9524610 121.0105872  45.3309344  46.7750680 120.5366350  45.2088234
  46.1962674 121.7896355  45.8308030  44.5932845 124.0394130  35.6272245
  45.3141207 124.4175383  35.1235962  43.9698149 124.7583007  35.7307223
  48.7363968 124.7439279  36.5630578  48.9527582 125.6263917  36.2619406
  48.2558035 124.3525492  35.8336220  43.4763189 127.7024992  43.1401322
  43.3307770 128.0165295  44.0325604  42.9988393 128.3209893  42.5872221
  45.3359572 124.6927540  43.1882212  45.3221141 123.7968634  42.8514510
  46.0532000 124.6998204  43.8220498  47.1885703 125.1264880  45.2335339
  46.9303481 126.0481951  45.2319670  46.6570743 124.7295315  45.9235803
  44.7396468 123.5741920  38.4569782  44.8612379 122.6458567  38.6560669
  44.4498510 123.5880606  37.5448097  47.6087658 121.2596831  41.5936502
  47.6309355 121.3236164  40.6388481  48.0255717 120.4201340  41.7877008
  57.9871283 130.9952090  39.6315724  58.4302429 130.2459416  39.2334848
  57.1097793 130.9862227  39.2489456  38.7374873 129.3700233  48.9719140
  37.9956609 129.5182868  49.5583771  38.4167617 129.6308499  48.1085890
  55.0198487 134.9982137  36.6409654  55.5449811 135.3369410  35.9158974
  54.9320840 134.0629153  36.4572788  44.2237548 125.0873918  52.6659715
  44.2725703 125.9636041  52.2837484  44.7660062 124.5451311  52.0931358
  54.7092393 135.6315041  51.9460852  53.9187937 135.6139180  51.4065351
  54.4725748 136.1703335  52.7009888  54.8290268 132.4807507  49.2593580
  54.8788273 132.3157515  50.2009103  54.7204192 131.6134767  48.8691461
  52.1194031 128.4638436  50.5752887  53.0203893 128.3244900  50.2836885
  52.1942005 128.6292890  51.5151064  46.4536836 125.8405290  49.4206073
  45.5840145 126.1338856  49.1488662  46.6896316 126.4245735  50.1413337
  56.3308465 134.9004449  49.5035602  56.0393273 135.2634430  50.3399063
  55.7180596 134.1871457  49.3248934  57.5304147 132.4657329  42.0238172
  58.3651039 132.9047133  42.1875732  57.6663276 131.9895982  41.2046418
  54.5795653 130.0237064  47.9715660  55.0549775 130.2164710  47.1634511
  53.6561219 130.0796249  47.7259043  41.4679160 131.1861231  37.5546738
  41.2225202 130.2823561  37.7526948  41.6375074 131.1878381  36.6126216
  49.1575870 122.0584907  46.9371494  49.6757814 122.7945934  46.6117982
  48.8031003 122.3648900  47.7718253  40.7374807 126.9189588  35.0532899
  40.0444052 126.9933943  34.3972935  40.4926559 126.1549932  35.5754416
  49.4088464 118.4785190  42.4572390  49.6890218 117.8108379  43.0832817
  50.1939071 118.6714285  41.9447054  53.2797322 126.9002824  46.2043965
  54.2314745 127.0000921  46.2256189  53.1100773 126.1081092  46.7142050
  51.3011702 123.9858407  46.3903366  50.7061634 124.2663420  45.6949855
  51.0161399 124.4752308  47.1620107  55.7585400 130.1208943  45.3186265
  55.7261720 129.1824944  45.5045949  56.3686024 130.1992980  44.5852090
  47.5968731 128.9904996  31.3613469  48.5427836 128.8611204  31.4301887
  47.2182976 128.2519658  31.8382897  55.9079889 126.9119987  45.3644548
  55.3918937 126.1278443  45.1774477  56.7919837 126.5838703  45.5291068
  53.5690616 120.6561002  41.3240361  53.3715437 120.3476091  42.2083693
  54.1790321 121.3822641  41.4538291  61.5761950 131.1824950  44.4592302
  62.3065338 130.9210238  45.0200005  60.9668895 130.4453672  44.4994370
  59.6577247 129.3232813  45.0566753  58.9310411 129.1888778  44.4483245
  59.2424534 129.6309641  45.8623471  47.4807424 133.0422743  52.8214126
  48.4010433 133.2201342  53.0154172  47.4457007 132.0978788  52.6693825
  45.7811648 126.9154973  31.2968354  44.8743104 126.6188085  31.3731068
  46.0587629 126.6184791  30.4302640  36.6989589 128.2361336  41.7467401
  36.3792373 127.3826644  41.4541775  36.1523017 128.4509914  42.5025368
  47.3973714 121.4591862  37.4512596  46.5874442 121.1138947  37.8267842
  48.0858131 121.1499406  38.0400207  49.3264262 120.5369909  39.0736892
  49.8795301 120.9565363  39.7326915  49.5634349 119.6105657  39.1159848
  45.3497361 126.5256983  54.8539656  45.2494088 127.4751340  54.7851747
  45.1318903 126.1975222  53.9815726  44.5510433 123.7741908  31.4380333
  45.4129597 124.0996806  31.6976151  44.7360777 122.9873404  30.9253399
  52.7043069 122.6470434  38.5815556  52.1241738 123.3055238  38.1993609
  52.4379002 121.8247779  38.1702974  51.1546636 122.0475492  40.7836877
  51.6546414 122.1592027  39.9751196  51.7982244 121.7436545  41.4237685
  45.2128631 129.9554122  53.6704718  44.7295713 130.7554482  53.8768607
  45.2989570 129.9662067  52.7172162  51.4867947 124.8070525  37.6371905
  50.5993802 125.0920175  37.4192099  51.9021936 124.6464288  36.7899182
  54.8382483 124.8317046  41.3526244  55.6142874 125.3213498  41.6250861
  54.1130618 125.2575100  41.8098113  57.2755042 125.5444665  42.4100185
  57.8699533 125.3040401  41.6993493  57.3481626 124.8251796  43.0373721
  51.4608971 130.3225061  37.8522195  51.4044172 130.7793612  37.0129827
  52.0137313 129.5615745  37.6745038  55.2713777 126.1114793  38.6772314
  55.0150711 125.7111428  39.5080522  54.6466645 126.8258587  38.5522453
  59.5826115 128.8510866  41.1843606  59.0225673 128.9204055  41.9575168
  58.9769618 128.6751850  40.4643102  52.5397858 135.0097729  33.7818385
  53.3743462 134.5778927  33.5995860  52.3782201 134.8379742  34.7095279
  52.1943750 131.5129842  35.1474724  52.1392554 131.3474113  34.2063168
  51.5689806 132.2205875  35.3036914  36.9836265 126.7497906  48.9736146
  37.6295129 126.2396860  49.4623371  36.7753416 127.4866588  49.5479571
  49.5089657 133.8178754  54.4728287  50.3780817 133.9919406  54.1114922
  49.0296409 134.6373171  54.3504016  45.5039876 121.0137951  34.7260042
  45.4918546 121.9579791  34.8828313  46.3963298 120.8308096  34.4319504
  49.3191995 117.6080728  38.9805979  48.5524391 117.0539214  39.1262662
  49.7302700 117.6802596  39.8420131  41.3233756 123.8965523  53.0711160
  42.1865218 123.5402328  53.2814485  40.7499167 123.5579418  53.7586565
  63.6457249 136.9015641  46.3154357  63.3140574 137.7711052  46.0915572
  63.0502863 136.5851925  46.9948387  65.4047559 139.8227166  45.1725581
  64.7621939 140.1159699  44.5265375  64.9002487 139.7080086  45.9778777
  60.7440381 134.7485222  45.9325670  60.4004650 135.6386864  45.8564781
  61.1119344 134.5586880  45.0695255  59.8236921 137.1189877  43.8974903
  59.3201717 137.0820012  43.0842709  60.1167528 138.0282620  43.9571560
  55.9764794 136.3072064  39.0032521  55.3229206 135.9921081  38.3789136
  55.9345268 135.6847804  39.7292344  62.5428047 134.0078781  41.0343408
  62.8486923 133.1476145  40.7469323  63.2680651 134.5996402  40.8342402
  62.8129665 136.4373017  43.5327329  61.8992744 136.6677244  43.7009536
  63.2422766 136.5211461  44.3841361  56.7918365 136.3397789  45.3309344
  57.6144434 135.8658267  45.2088234  57.0356428 137.1188273  45.8308030
  58.4481413 136.5888749  41.5936502  58.4703110 136.6528082  40.6388481
  58.8649472 135.7493257  41.7877008  59.9969624 137.3876825  46.9371494
  60.5151568 138.1237852  46.6117982  59.6424757 137.6940818  47.7718253
  60.2482218 133.8077107  42.4572390  60.5283972 133.1400296  43.0832817
  61.0332825 134.0006203  41.9447054  64.4084370 135.9852920  41.3240361
  64.2109191 135.6768008  42.2083693  65.0184076 136.7114559  41.4538291
  58.2367468 136.7883780  37.4512596  57.4268197 136.4430865  37.8267842
  58.9251885 136.4791324  38.0400207  60.1658017 135.8661827  39.0736892
  60.7189055 136.2857280  39.7326915  60.4028103 134.9397575  39.1159848
  63.5436824 137.9762352  38.5815556  62.9635493 138.6347156  38.1993609
  63.2772756 137.1539697  38.1702974  61.9940390 137.3767410  40.7836877
  62.4940168 137.4883944  39.9751196  62.6375998 137.0728463  41.4237685
  68.1148796 140.8736583  42.4100185  68.7093287 140.6332319  41.6993493
  68.1875380 140.1543713  43.0373721  60.1585750 132.9372645  38.9805979
  59.3918146 132.3831132  39.1262662  60.5696455 133.0094514  39.8420131
   1.9335838  33.6480739  33.1063664   2.1271729  34.5526549  33.3522939
   1.8336457  33.1888158  33.9402249   0.6321497  32.8410042  35.9838887
   0.6819502  32.6760049  36.9254410   0.5235420  31.9737301  35.5936768
   2.1339694  35.2606983  36.2280908   1.8424502  35.6236964  37.0644369
   1.5211825  34.5473992  36.0494240   6.9713362  45.8869914  30.6018868
   7.6091772  45.7676661  29.8982208   6.8534205  46.8350758  30.6606820
   3.7803068  45.8397342  30.5380393   3.4421580  45.7238407  29.6500928
   4.6492836  45.4388507  30.5181399   4.2622851  46.9932194  36.4966598
   4.2511492  46.5984992  35.6247102   4.4243491  46.2598266  37.0900370
   5.2189443  51.3603786  21.8391749   4.5677422  51.9457867  21.4525762
   6.0133806  51.8909981  21.8986786   0.9830112  49.7769306  35.4445782
   0.6919978  50.6814937  35.3292449   1.6187097  49.8185833  36.1589852
   1.9086319  47.1546154  32.0347142   2.5049892  46.9302177  31.3204105
   1.9661291  46.4130900  32.6372590   6.5254631  43.6121368  27.6772076
   7.3117720  43.1940791  27.3262493   6.7893335  44.5167460  27.8453725
  11.9263058  43.5496601  28.5805055  12.6588230  42.9795818  28.8142884
  11.1702413  43.1618202  29.0211560   3.5439177  45.9723843  25.7768397
   3.1797385  45.4454464  26.4881319   4.4006293  45.5822312  25.6034883
   9.4488478  37.2618175  33.0399663   9.1171803  38.1313586  32.8160878
   8.8534091  36.9454459  33.7193694   5.9419998  49.4630721  32.4395576
   5.6420721  50.3655760  32.3311383   5.5971057  49.1962904  33.2916729
   9.3417141  41.9813261  30.1193013   8.4334019  41.9128670  29.8251774
   9.2904737  42.4585206  30.9474839   3.4158007  43.4002907  38.0627911
   2.6391341  43.9596827  38.0530775   4.0548570  43.8859690  38.5842781
  11.2078788  40.1829700  31.8970887  10.5653168  40.4762233  31.2510682
  10.7033716  40.0682620  32.7024084   1.6704379  46.2088360  37.6245878
   2.4119064  46.7473404  37.3480701   0.9641365  46.8354649  37.7817429
   7.1459719  48.3517501  36.2218039   7.5543075  47.9099911  35.4772671
   6.4236981  47.7770128  36.4752232   3.4990789  43.2890108  33.5951596
   4.3451984  43.7129521  33.7386245   3.4389427  42.6323732  34.2890159
   7.4688534  48.9118691  29.9770328   6.8397396  49.0764406  29.2746396
   7.0814196  49.3260301  30.7481292  11.3477766  49.8473129  27.3314692
  10.6628804  50.2272031  26.7811725  11.4321615  50.4568456  28.0646639
   6.6490234  40.9494476  35.2532770   6.4051166  41.7036536  34.7167045
   6.9250165  41.3279824  36.0880017   8.6028697  47.4933088  33.9310035
   8.8145592  48.1364848  33.2544416   8.5558445  46.6595405  33.4631965
   6.2054926  40.1050909  30.8346607   5.3439405  40.4032162  31.1263345
   6.2317361  40.3221308  29.9027640   3.0216496  48.6493099  27.2420413
   3.4854841  48.9280802  26.4525036   2.7573294  47.7476544  27.0593504
   9.7174525  50.3705044  32.1032393  10.5391969  49.9685231  31.8215074
   9.7136928  50.2673278  33.0548508   3.4831129  49.9189087  34.2593103
   3.5475561  50.3809494  35.0951275   2.7742052  49.2886452  34.3875413
  17.8080518  46.7143792  28.4517364  17.0544227  46.1451190  28.2961368
  17.9428059  46.6806457  29.3987999   3.1979146  51.5857194  24.1272083
   3.0624821  52.4308730  24.5556931   3.7388959  51.7876472  23.3638017
   2.6014447  39.0806653  38.3806695   3.3424160  39.6813807  38.3011158
   2.8332370  38.3384291  37.8224738   4.8247623  52.2080761  38.2572425
   4.3811477  51.4217140  37.9393330   5.4864836  52.3959911  37.5916316
   6.9228861  52.4883561  36.2853827   6.9047336  53.3092442  35.7934096
   7.8448781  52.3637636  36.5103968   3.3801915  50.0027690  37.1277335
   3.9130252  49.2415979  36.8976643   2.8515996  49.7101342  37.8701490
   6.5471610  35.1087756  32.6570977   6.2035879  35.9989398  32.5810087
   6.9150572  34.9189414  31.7940562   5.6268150  37.4792412  30.6220210
   5.1232946  37.4422547  29.8088015   5.9198757  38.3885154  30.6816867
  11.4856167  47.8528722  23.0996585  10.7085609  47.5139882  22.6551748
  12.1647648  47.8581345  22.4251551   4.7454628  49.1313683  24.6396147
   4.2175989  48.3966442  24.3269385   4.2442130  49.9088359  24.3936115
   9.7247474  47.3262703  29.7563193   9.0671148  48.0161965  29.8443322
  10.5287873  47.7159135  30.0997180   8.5352932  45.6807076  27.8067135
   9.0484814  46.3137068  28.3088845   9.1854156  45.0808272  27.4410495
   5.7975307  55.6591400  20.5627806   5.1237005  55.9623097  21.1712764
   6.1841129  56.4620481  20.2133263   5.0133763  43.1556532  30.0525476
   4.0956325  43.3771479  29.8947164   5.4293907  43.2302842  29.1937183
   5.7968811  44.5547947  25.1828156   6.5440630  45.0669345  24.8735278
   6.0660401  44.2332000  26.0432550   9.3014729  50.6613078  25.9346278
   8.8477056  49.8203987  25.9911468   8.6708695  51.2974476  26.2721058
   8.2447648  41.5905064  27.1646945   7.5070405  41.0782450  27.4957188
   8.4974422  41.1505445  26.3530222   7.7447668  52.4989574  26.8696096
   8.0370642  53.0594631  26.1508462   8.2546288  52.7918135  27.6249255
   2.6180355  44.6635109  28.2664906   2.6728965  43.7108945  28.1907382
   1.8071557  44.8194548  28.7506204   2.7081293  53.2769925  27.9589549
   2.6657472  53.5030772  27.0298081   3.6243992  53.0433300  28.1075350
   6.1546927  43.7453993  34.8570178   6.5096315  43.9725466  35.7164644
   6.8019058  44.0772370  34.2347434  11.8844664  46.8672429  25.5619507
  11.7462562  47.0574025  24.6340697  11.5280883  47.6291812  26.0187559
  11.9114043  48.9348956  30.5730779  12.3450550  48.8424245  31.4213833
  12.6245624  48.9106456  29.9350795   5.6441938  52.5351050  32.1063880
   5.6978961  53.1041986  32.8741595   4.7756720  52.7052935  31.7417917
  12.7729593  48.9772656  33.1063664  12.9665483  49.8818467  33.3522939
  12.6730211  48.5180075  33.9402249   4.4265904  38.8630547  35.6053992
   3.7793819  39.5620497  35.5118468   5.1966919  39.2966691  35.9730240
   7.8344702  49.1279399  38.6804545   7.6830208  48.8989951  37.7634629
   7.8249381  50.0850001  38.6935890   4.6030038  46.7011312  33.6650811
   5.5322098  46.8522471  33.4919779   4.1821068  46.7895333  32.8099458
   3.4018370  50.7261976  31.4349349   3.2629455  50.3580761  32.3075287
   2.6132966  51.2409616  31.2633307   3.9966522  55.8271073  22.7774886
   4.1718277  55.3559116  23.5920508   3.3099310  56.4536839  23.0056146
   4.9523585  50.1043579  28.8238187   4.6173418  50.0644349  29.7195837
   4.4527531  49.4388295  28.3508597   1.5550130  45.2231168  33.8374448
   2.2649748  44.5824361  33.7961066   1.5119438  45.4744063  34.7600628
   9.5436908  52.1598522  36.7581027   9.4849454  51.4757742  36.0911610
   9.9456427  52.9017512  36.3061653   9.5454316  50.1238106  34.9895006
   8.6581094  49.7864027  35.1121405  10.1152867  49.3921137  35.2263772
   3.0755469  54.7839558  31.9556250   3.0025640  55.5894529  32.4675554
   2.6332862  54.9831524  31.1304271   2.8645249  54.0211328  25.4659071
   2.0812770  54.5633008  25.5597296   3.5637994  54.5385308  25.8653312
  14.0271656  45.5346323  29.7511568  14.0161532  46.4171038  29.3805501
  13.1589035  45.1817874  29.5566105   5.5354152  54.6826392  34.1114408
   6.2482125  55.3173857  34.0390310   5.0444181  54.7790258  33.2954410
   7.2571679  48.5877645  25.6831700   6.3227958  48.7079107  25.5136404
   7.4348348  47.6850111  25.4191710  10.6444231  44.4294964  26.2181734
  11.1104683  45.2622956  26.1442037  11.0951731  43.9639946  26.9226993
   8.7120462  50.7738785  23.2167886   8.9880306  50.6595380  24.1261760
   7.8424961  50.3756270  23.1780059   8.6160893  36.7975551  30.2572635
   7.7023973  37.0279778  30.4254842   9.0453995  36.8813995  31.1086668
   8.3867352  44.9865443  32.7572529   7.7338802  45.2341350  32.1024982
   8.7647732  44.1729581  32.4235007   5.3474526  55.0225136  26.8600700
   5.5296920  54.2046792  27.3228452   6.1707512  55.2392828  26.4225590
   5.6816691  53.9493321  24.1215748   6.2104458  53.4385776  23.5085910
   5.9444911  53.6335851  24.9861281   4.4354925  45.7285254  39.2438567
   3.7595562  45.6279383  39.9140942   5.2582559  45.5724468  39.7074564
   3.1777708  57.0352181  33.4796183   3.7296016  57.1983803  34.2445268
   3.5183901  57.6256619  32.8076207   8.0288582  51.8613439  39.3344837
   8.5728486  52.4743397  38.8399792   7.4475427  52.4193017  39.8511850
   6.3146095  54.9834157  30.4659865   6.1897235  54.1823897  29.9570810
   6.9725186  55.4780350  29.9773835   8.3781003  52.7843177  32.0939415
   7.4311339  52.6648528  32.0217742   8.7263777  51.8965675  32.1765676
   0.7380577  38.6737316  35.9177657   1.2614979  38.9199612  36.6803966
   0.5192910  39.5057351  35.4980794   5.3827437  52.5795893  28.2943767
   5.2352399  51.6512601  28.4751337   6.2080930  52.6015984  27.8100842
   8.9861559  53.4024452  29.3808640   9.9108106  53.1967313  29.2433091
   8.8176862  53.1540853  30.2897981   1.9433122  39.6151011  33.6027327
   1.6029942  38.8158824  34.0048007   1.2372128  39.9152722  33.0304160
   2.5949594  36.7000323  32.0554650   3.4175663  36.2260802  31.9333541
   2.8387657  37.4790807  32.5553337   1.9784555  40.3821992  29.9127518
   1.9646124  39.4863085  29.5759816   2.6956983  40.3892656  30.5465804
   3.8310686  40.8159332  31.9580646   3.5728464  41.7376403  31.9564976
   3.2995726  40.4189767  32.6481110   8.7756875  53.9210119  24.7370731
   8.9493752  53.3556542  23.9844584   9.2685766  54.7211014  24.5550221
  14.6296266  46.6846542  26.3561031  15.0727412  45.9353868  25.9580154
  13.7522776  46.6756679  25.9734763   9.7632047  53.2376884  21.8367630
  10.4582952  53.8583577  22.0554944  10.1055197  52.3872235  22.1120007
  11.6623470  50.6876589  23.3654960  12.1874795  51.0263862  22.6404280
  11.5745823  49.7523605  23.1818095   3.3243519  54.6010663  35.4944837
   3.6330646  54.3559810  36.3667537   4.1219001  54.8057301  35.0063707
   3.3464131  56.7548573  27.7250213   2.9069121  56.2624951  28.4183070
   4.0972248  56.2121540  27.4842289   0.8662531  40.7768370  39.3905021
   0.9150686  41.6530493  39.0082791   1.4085045  40.2345763  38.8176664
  11.3517377  51.3209493  38.6706158  10.5612920  51.3033632  38.1310658
  11.1150731  51.8597787  39.4255195  11.4715252  48.1701959  35.9838887
  11.5213256  48.0051967  36.9254410  11.3629175  47.3029218  35.5936768
   8.7619014  44.1532887  37.2998194   9.6628877  44.0139352  37.0082191
   8.8366988  44.3187342  38.2396371   3.0961819  41.5299742  36.1451380
   2.2265129  41.8233308  35.8733968   3.3321300  42.1140187  36.8658643
  12.9733448  50.5898901  36.2280908  12.6818257  50.9528881  37.0644369
  12.3605580  49.8765909  36.0494240  14.1729131  48.1551781  28.7483479
  15.0076022  48.5941585  28.9121039  14.3088259  47.6790434  27.9291724
  11.2220637  45.7131516  34.6960966  11.6974758  45.9059162  33.8879818
  10.2986202  45.7690701  34.4504350   5.8000853  37.7479359  33.6616800
   6.3182797  38.4840386  33.3363289   5.4455986  38.0543352  34.4963559
   9.9222306  42.5897276  32.9289272  10.8739729  42.6895373  32.9501496
   9.7525756  41.7975544  33.4387356   7.9436685  39.6752859  33.1148673
   7.3486617  39.9557872  32.4195161   7.6586382  40.1646760  33.8865414
   7.0744176  53.6275786  21.8751305   8.0074849  53.5621347  22.0784181
   6.9867388  54.4632052  21.4165838   9.7032192  52.9441656  18.8355253
   9.6245824  52.6101520  19.7291011  10.5241859  53.4363424  18.8346725
  12.4010383  45.8103395  32.0431572  12.3686704  44.8719396  32.2291255
  13.0111007  45.8887432  31.3097396  12.5504872  42.6014439  32.0889855
  12.0343921  41.8172895  31.9019784  13.4344820  42.2733155  32.2536374
  10.2115599  36.3455454  28.0485667  10.0140420  36.0370542  28.9328999
  10.8215304  37.0717093  28.1783597  18.2186933  46.8719402  31.1837608
  18.9490322  46.6104690  31.7445312  17.6093879  46.1348124  31.2239676
  16.3002230  45.0127265  31.7812060  15.5735394  44.8783230  31.1728551
  15.8849517  45.3204093  32.5868778   4.1232407  48.7317194  39.5459433
   5.0435416  48.9095793  39.7399479   4.0881990  47.7873240  39.3939132
   1.9922345  42.2151435  41.5784963   1.8919072  43.1645792  41.5097054
   1.7743887  41.8869674  40.7061033   1.8553615  45.6448574  40.3950024
   1.3720696  46.4448934  40.6013913   1.9414554  45.6556519  39.4417468
  11.4807467  40.5211498  28.0771551  12.2567857  41.0107950  28.3496167
  10.7555601  40.9469552  28.5343420  13.9180025  41.2339117  29.1345491
  14.5124516  40.9934853  28.4238799  13.9906609  40.5146247  29.7619027
   8.1033954  46.0119513  24.5767501   8.0469156  46.4688064  23.7375134
   8.6562297  45.2510197  24.3990344  11.9138760  41.8009245  25.4017621
  11.6575694  41.4005880  26.2325829  11.2891628  42.5153038  25.2767760
  16.2251098  44.5405318  27.9088912  15.6650656  44.6098507  28.6820474
  15.6194601  44.3646302  27.1888409   9.1822841  50.6992181  20.5063691
  10.0168445  50.2673379  20.3241166   9.0207184  50.5274194  21.4340586
   6.1514641  49.5073206  41.1973593   7.0205800  49.6813858  40.8360228
   5.6721392  50.3267623  41.0749323   2.0754423  55.3801293  29.5373106
   1.1250054  55.3803155  29.4237478   2.3786909  54.6334028  29.0209140
  17.8107117  61.2161832  30.6018868  18.4485526  61.0968579  29.8982208
  17.6927959  62.1642676  30.6606820  14.6196823  61.1689260  30.5380393
  14.2815334  61.0530325  29.6500928  15.4886591  60.7680425  30.5181399
  10.4783638  63.0224736  26.5277284   9.9148504  62.9314673  25.7593571
  10.3636034  62.2024641  27.0079776  15.1016606  62.3224112  36.4966598
  15.0905247  61.9276910  35.6247102  15.2637245  61.5890184  37.0900370
   8.0248070  64.5175928  29.3661504   8.8169362  64.1766752  28.9507803
   8.2644721  64.6270903  30.2863658  16.0583197  66.6895704  21.8391749
  15.4071177  67.2749784  21.4525762  16.8527560  67.2201899  21.8986786
   9.9838824  63.7784841  22.2378883  10.7569700  63.2313828  22.0991759
  10.3364223  64.6429090  22.4493344  11.8223867  65.1061223  35.4445782
  11.5313733  66.0106854  35.3292449  12.4580851  65.1477751  36.1589852
  12.7480074  62.4838072  32.0347142  13.3443646  62.2594094  31.3204105
  12.8055045  61.7422817  32.6372590  12.3205102  59.9377507  19.8697333
  12.5730623  59.4159028  19.1080796  11.3829661  59.7743653  19.9724017
  17.3648385  58.9413286  27.6772076  18.1511474  58.5232709  27.3262493
  17.6287089  59.8459378  27.8453725  17.5358462  64.3786136  22.3760733
  16.9004295  64.4520762  23.0881638  17.2055869  64.9679735  21.6979812
  22.7656812  58.8788519  28.5805055  23.4981984  58.3087736  28.8142884
  22.0096168  58.4910119  29.0211560  12.0401391  61.8405613  22.0721708
  11.9237649  61.1650517  22.7402792  12.1503651  61.3537987  21.2553861
  14.3832932  61.3015760  25.7768397  14.0191139  60.7746381  26.4881319
  15.2400048  60.9114229  25.6034883  20.2882232  52.5910093  33.0399663
  19.9565557  53.4605504  32.8160878  19.6927846  52.2746377  33.7193694
  14.0238419  56.3305660  20.7729746  14.1912821  57.1985896  21.1400217
  13.8335588  56.4932942  19.8491035  16.7813752  64.7922639  32.4395576
  16.4814475  65.6947678  32.3311383  16.4364812  64.5254822  33.2916729
  10.2326233  61.2436436  28.4732280   9.3076730  61.1112650  28.6809972
  10.4810647  62.0230655  28.9702223  20.1810896  57.3105179  30.1193013
  19.2727773  57.2420587  29.8251774  20.1298492  57.7877124  30.9474839
  14.0027640  58.7863317  21.7576412  13.8827265  59.2320368  22.5961893
  13.3080228  59.1348635  21.1989951   7.5935045  60.8869709  29.3076069
   7.7227426  61.1404188  30.2215481   6.9132496  61.4797417  28.9880725
  11.7634532  71.5566959  25.4066544  11.6858562  72.5074784  25.4855024
  11.1596175  71.2112832  26.0641470  14.2551762  58.7294825  38.0627911
  13.4785096  59.2888745  38.0530775  14.8942325  59.2151608  38.5842781
  22.0472542  55.5121617  31.8970887  21.4046922  55.8054151  31.2510682
  21.5427471  55.3974538  32.7024084  19.7012706  59.2584791  22.5856746
  20.6130562  59.4912177  22.4104444  19.1922353  59.8421835  22.0231825
  12.5098134  61.5380278  37.6245878  13.2512818  62.0765322  37.3480701
  11.8035119  62.1646567  37.7817429  17.9853474  63.6809418  36.2218039
  18.3936830  63.2391829  35.4772671  17.2630735  63.1062046  36.4752232
  14.3384544  58.6182025  33.5951596  15.1845739  59.0421439  33.7386245
  14.2783181  57.9615650  34.2890159  18.3082288  64.2410609  29.9770328
  17.6791151  64.4056323  29.2746396  17.9207950  64.6552219  30.7481292
  22.1871520  65.1765047  27.3314692  21.5022558  65.5563948  26.7811725
  22.2715369  65.7860374  28.0646639  17.4883989  56.2786394  35.2532770
  17.2444921  57.0328454  34.7167045  17.7643919  56.6571741  36.0880017
  19.4422452  62.8225006  33.9310035  19.6539347  63.4656766  33.2544416
  19.3952200  61.9887323  33.4631965  17.0448681  55.4342827  30.8346607
  16.1833160  55.7324080  31.1263345  17.0711115  55.6513225  29.9027640
  13.8610250  63.9785017  27.2420413  14.3248596  64.2572720  26.4525036
  13.5967048  63.0768462  27.0593504  10.7534331  63.5256499  30.1800176
  11.3235688  63.9543767  29.5417661  11.3442443  63.2439083  30.8784362
  12.7979136  60.1008170  24.0509978  13.5003179  60.5529213  24.5183905
  12.4659765  59.4591988  24.6789871  11.2459498  58.6919926  38.4261188
  10.6158158  59.3736207  38.6596584  11.1395586  58.5803008  37.4814326
   6.5404470  58.3591722  29.3527112   5.7503524  58.6149251  28.8767222
   7.0315717  59.1740060  29.4579152  20.5568280  65.6996961  32.1032393
  21.3785723  65.2977149  31.8215074  20.5530682  65.5965196  33.0548508
   8.4919215  58.7236301  26.3110588   7.6950379  58.8354996  26.8294084
   8.2644808  59.0622954  25.4451479  14.3224883  65.2481005  34.2593103
  14.3869316  65.7101412  35.0951275  13.6135807  64.6178370  34.3875413
   4.8242173  58.6122213  31.7842103   5.0750211  59.4969223  32.0499678
   5.3601721  58.4326814  31.0117194  28.6474273  62.0435710  28.4517364
  27.8937981  61.4743108  28.2961368  28.7821814  62.0098374  29.3987999
  14.0372901  66.9149112  24.1272083  13.9018576  67.7600648  24.5556931
  14.5782713  67.1168390  23.3638017  10.5240240  52.9940692  40.7886439
  10.1307186  52.4406891  41.4634083  11.3406381  53.3051270  41.1792956
   7.4902298  64.4324550  24.7000008   8.0026819  65.2267800  24.8505573
   8.1425011  63.7350841  24.6333610   9.2997183  67.5490306  26.7822762
   9.4763811  68.4708271  26.5943746  10.0954016  67.2348726  27.2117141
  13.4408201  54.4098571  38.3806695  14.1817915  55.0105724  38.3011158
  13.6726124  53.6676209  37.8224738   8.5849539  59.5954938  36.6584925
   8.4703054  58.6940196  36.9592024   7.7294057  59.8418635  36.3069741
  15.6641377  67.5372679  38.2572425  15.2205231  66.7509057  37.9393330
  16.3258591  67.7251829  37.5916316  10.4228498  69.0668480  32.7833104
  10.9735923  68.9385544  32.0110098   9.5839974  69.3663369  32.4327997
  17.7622615  67.8175479  36.2853827  17.7441091  68.6384360  35.7934096
  18.6842535  67.6929554  36.5103968  14.2195669  65.3319608  37.1277335
  14.7524006  64.5707896  36.8976643  13.6909750  65.0393260  37.8701490
  17.3865364  50.4379674  32.6570977  17.0429634  51.3281316  32.5810087
  17.7544327  50.2481332  31.7940562   5.4551215  62.7613204  25.4759579
   6.2926437  63.1710213  25.2593287   5.6329483  61.8212647  25.4459773
  17.3515647  60.4288285  21.1643412  16.8362270  61.1992890  21.4031799
  17.0792955  59.7553421  21.7876473  14.9362758  55.2737986  26.2228650
  14.0804354  54.8844836  26.0434289  15.3489710  55.3529947  25.3628436
  16.4661905  52.8084329  30.6220210  15.9626700  52.7714464  29.8088015
  16.7592512  53.7177072  30.6816867  12.7104791  52.8923059  29.6286392
  13.5757787  52.6965868  29.2692281  12.7782299  52.6633411  30.5555749
  22.3249921  63.1820640  23.0996585  21.5479364  62.8431799  22.6551748
  23.0041402  63.1873263  22.4251551  17.1401950  58.3015377  22.9903193
  16.8352086  58.6161526  23.8413336  18.0932392  58.3796797  23.0330526
  15.5848382  64.4605601  24.6396147  15.0569744  63.7258360  24.3269385
  15.0835885  65.2380277  24.3936115  20.5641228  62.6554621  29.7563193
  19.9064902  63.3453882  29.8443322  21.3681627  63.0451053  30.0997180
  10.3167110  55.1225267  27.0002759  10.8910862  54.9000448  26.2675952
  10.9038092  55.1913961  27.7531360  19.3746687  61.0098994  27.8067135
  19.8878569  61.6428986  28.3088845  20.0247911  60.4100189  27.4410495
  10.6436697  57.1529728  21.0198644   9.8074009  57.4904414  21.3407919
  10.5041466  57.0178708  20.0825781  12.6189777  51.9966516  25.7277828
  11.9654190  51.6815533  25.1034443  12.5770251  51.3742256  26.4537651
  13.7300982  62.2785811  17.6431120  12.8228044  62.0475064  17.8422269
  14.2272014  61.4823430  17.8305102  16.6369061  70.9883318  20.5627806
  15.9630760  71.2915015  21.1712764  17.0234883  71.7912398  20.2133263
  15.8527518  58.4848449  30.0525476  14.9350079  58.7063396  29.8947164
  16.2687661  58.5594760  29.1937183  16.6362565  59.8839865  25.1828156
  17.3834384  60.3961262  24.8735278  16.9054155  59.5623918  26.0432550
  14.9089216  62.3798406  22.1655110  14.0000435  62.0957439  22.2627580
  14.9384299  62.7997484  21.3058417  20.1408483  65.9904995  25.9346278
  19.6870810  65.1495905  25.9911468  19.5102450  66.6266394  26.2721058
  19.0841403  56.9196981  27.1646945  18.3464159  56.4074367  27.4957188
  19.3368176  56.4797363  26.3530222  18.5841422  67.8281492  26.8696096
  18.8764397  68.3886549  26.1508462  19.0940043  68.1210053  27.6249255
  19.1853030  49.6973233  27.7588715  19.4911907  48.8370597  27.4714630
  19.9105635  50.2890853  27.5587708   5.4777386  60.1003920  26.1470312
   5.2801786  59.5073281  25.4221379   4.9224050  59.7956130  26.8646251
  13.4574110  59.9927026  28.2664906  13.5122719  59.0400863  28.1907382
  12.6465312  60.1486465  28.7506204  14.6065303  63.9207149  19.5043189
  14.1684733  63.2043008  19.0448826  15.3475744  64.1483264  18.9428280
  11.3966470  58.6104086  26.0255284  10.5834335  58.9098257  26.4320477
  11.8925464  58.2159775  26.7429767  13.5475047  68.6061843  27.9589549
  13.5051226  68.8322689  27.0298081  14.4637746  68.3725218  28.1075350
  16.9940681  59.0745911  34.8570178  17.3490069  59.3017384  35.7164644
  17.6412813  59.4064287  34.2347434  22.7238418  62.1964346  25.5619507
  22.5856317  62.3865942  24.6340697  22.3674637  62.9583729  26.0187559
  10.8880544  56.1822442  31.6416519  11.5279924  56.0411201  30.9439483
  10.0558075  55.8956955  31.2655121  22.7507798  64.2640873  30.5730779
  23.1844305  64.1716163  31.4213833  23.4639379  64.2398374  29.9350795
  11.6640848  65.4824872  27.7551512  12.4581447  64.9875192  27.5534087
  10.9532541  64.9542735  27.3919217  16.4835693  67.8642968  32.1063880
  16.5372715  68.4333904  32.8741595  15.6150474  68.0344853  31.7417917
   7.9723612  59.6267954  23.8311265   7.0421200  59.5652409  24.0481227
   8.0681084  59.1043906  23.0347906   7.8909161  56.1522767  26.4189506
   8.1515978  57.0668100  26.3098667   8.7126333  55.6847209  26.5686119
   9.3634086  57.5660524  33.5888331  10.0357140  57.3577886  32.9400980
   8.5363873  57.3682610  33.1493563  23.6123347  64.3064574  33.1063664
  23.8059237  65.2110385  33.3522939  23.5123966  63.8471993  33.9402249
  15.2659658  54.1922465  35.6053992  14.6187573  54.8912414  35.5118468
  16.0360674  54.6258609  35.9730240  18.6738456  64.4571317  38.6804545
  18.5223962  64.2281868  37.7634629  18.6643136  65.4141918  38.6935890
  15.4423792  62.0303230  33.6650811  16.3715852  62.1814389  33.4919779
  15.0214822  62.1187250  32.8099458  14.2412124  66.0553894  31.4349349
  14.1023210  65.6872678  32.3075287  13.4526720  66.5701533  31.2633307
  14.8360276  71.1562990  22.7774886  15.0112032  70.6851034  23.5920508
  14.1493064  71.7828757  23.0056146  15.7917339  65.4335497  28.8238187
  15.4567172  65.3936267  29.7195837  15.2921285  64.7680213  28.3508597
   9.7661583  60.8403127  34.3490768   9.6281381  60.1083366  34.9502307
  10.6766507  60.7512027  34.0674956  18.7276531  62.7791531  19.0975246
  18.1105702  62.0538359  19.0008299  18.2593020  63.5400891  18.7542321
  12.3943884  60.5523086  33.8374448  13.1043503  59.9116278  33.7961066
  12.3513192  60.8035981  34.7600628  20.3830663  67.4890439  36.7581027
  20.3243209  66.8049659  36.0911610  20.7850181  68.2309429  36.3061653
  11.1072818  57.5388304  35.6570087  10.5710175  57.0879042  36.3091683
  10.5189526  57.6734213  34.9140551   9.4021362  74.3052353  29.5514746
   9.6417960  74.9370877  30.2293764   8.5590558  73.9540393  29.8380105
  10.5175077  56.9976955  18.2196551   9.6404543  56.8765756  17.8558797
  10.9932830  56.2063034  17.9675439  20.3848070  65.4530023  34.9895006
  19.4974849  65.1155945  35.1121405  20.9546621  64.7213055  35.2263772
   2.0377217  61.7854115  28.3138058   2.7248257  61.4715845  27.7259073
   1.8825346  62.6895480  28.0405309   6.8411939  56.6744312  32.7423082
   6.7570128  56.0669981  32.0073491   6.0194646  57.1653330  32.7432578
  13.9149223  70.1131476  31.9556250  13.8419395  70.9186447  32.4675554
  13.4726616  70.3123441  31.1304271  13.7039003  69.3503246  25.4659071
  12.9206525  69.8924926  25.5597296  14.4031748  69.8677225  25.8653312
  17.0135653  55.1597875  28.1093277  17.5104353  54.4067837  27.7894347
  16.2422635  55.1962192  27.5436486  24.8665411  60.8638241  29.7511568
  24.8555287  61.7462956  29.3805501  23.9982790  60.5109791  29.5566105
  16.3747907  70.0118310  34.1114408  17.0875879  70.6465774  34.0390310
  15.8837936  70.1082176  33.2954410  18.0965434  63.9169562  25.6831700
  17.1621713  64.0371025  25.5136404  18.2742102  63.0142029  25.4191710
  13.5970622  57.3015258  27.8364961  13.2268409  56.7486299  28.5245867
  14.0929714  56.6973392  27.2839961  21.4837985  59.7586882  26.2181734
  21.9498437  60.5914873  26.1442037  21.9345486  59.2931863  26.9226993
  11.4259820  67.7612753  34.9319979  12.1269280  68.3949236  35.0849373
  10.9554935  68.1027485  34.1715618  19.5514216  66.1030703  23.2167886
  19.8274060  65.9887298  24.1261760  18.6818715  65.7048188  23.1780059
  19.4554648  52.1267469  30.2572635  18.5417728  52.3571695  30.4254842
  19.8847749  52.2105913  31.1086668  19.2261106  60.3157361  32.7572529
  18.5732557  60.5633268  32.1024982  19.6041486  59.5021499  32.4235007
  16.1868280  70.3517054  26.8600700  16.3690675  69.5338710  27.3228452
  17.0101266  70.5684746  26.4225590  16.5210446  69.2785239  24.1215748
  17.0498212  68.7677693  23.5085910  16.7838665  68.9627769  24.9861281
  15.2748679  61.0577172  39.2438567  14.5989316  60.9571301  39.9140942
  16.0976313  60.9016385  39.7074564   7.0227539  67.2949108  31.8651082
   7.6080975  66.5492796  31.9978986   6.8252377  67.6053065  32.7487746
   9.8766194  70.3300356  26.8813524   9.2076569  70.8146483  26.3977564
   9.7379063  70.5769576  27.7956903   1.6145193  59.8654708  30.5855525
   1.6529293  59.3318299  31.3792643   1.1085486  59.3389914  29.9666502
  14.0171462  72.3644099  33.4796183  14.5689770  72.5275721  34.2445268
  14.3577656  72.9548537  32.8076207   8.9935956  54.7119249  34.0818067
   9.0577282  55.5734080  33.6695465   8.9303076  54.0993251  33.3490426
   8.4688228  56.7842381  37.7291102   9.0960267  56.4019459  38.3428626
   7.6116147  56.5656583  38.0946794  18.8682337  67.1905357  39.3344837
  19.4122241  67.8035315  38.8399792  18.2869181  67.7484935  39.8511850
   5.2453771  58.5918811  23.6609456   5.5407212  57.6829489  23.6076510
   4.3441807  58.5706550  23.3390459  17.1539850  70.3126075  30.4659865
  17.0290989  69.5115814  29.9570810  17.8118941  70.8072268  29.9773835
   8.7748018  56.6674807  29.6437005   8.0534604  57.2810775  29.5044478
   9.5641274  57.2032572  29.5653651  19.2174758  68.1135095  32.0939415
  18.2705094  67.9940446  32.0217742  19.5657531  67.2257593  32.1765676
  11.5774331  54.0029234  35.9177657  12.1008733  54.2491530  36.6803966
  11.3586665  54.8349268  35.4980794   6.9741612  56.2732908  23.7848782
   6.6454319  55.3930287  23.6023887   7.3280983  56.2180577  24.6725171
  16.2221191  67.9087811  28.2943767  16.0746154  66.9804518  28.4751337
  17.0474685  67.9307902  27.8100842  10.0883436  56.5605878  24.1524259
  10.4279508  57.0891799  23.4302868  10.5355556  56.8986284  24.9282826
  19.8255313  68.7316370  29.3808640  20.7501861  68.5259231  29.2433091
  19.6570616  68.4832771  30.2897981  12.7826876  54.9442929  33.6027327
  12.4423697  54.1450742  34.0048007  12.0765883  55.2444640  33.0304160
  13.4343348  52.0292241  32.0554650  14.2569418  51.5552719  31.9333541
  13.6781412  52.8082725  32.5553337  12.0751583  55.0580500  22.3517552
  12.7959945  55.4361752  21.8481269  11.4516887  55.7769376  22.4552530
  16.2182706  55.7625649  23.2875884  16.4346320  56.6450286  22.9864712
  15.7376773  55.3711862  22.5581526  10.9581927  58.7211362  29.8646629
  10.8126508  59.0351665  30.7570910  10.4807131  59.3396262  29.3117528
  12.8178310  55.7113910  29.9127518  12.8039879  54.8155003  29.5759816
  13.5350738  55.7184574  30.5465804  14.6704441  56.1451250  31.9580646
  14.4122218  57.0668321  31.9564976  14.1389481  55.7481685  32.6481110
  19.6150629  69.2502037  24.7370731  19.7887507  68.6848460  23.9844584
  20.1079521  70.0502932  24.5550221   5.4327589  61.2616706  32.8034290
   4.8881057  62.0376514  32.9354564   6.3106939  61.6087511  32.6453411
  12.2215206  54.5928290  25.1815089  12.3431117  53.6644936  25.3805976
  11.9317248  54.6066976  24.2693404  15.0906396  52.2783200  28.3181808
  15.1128093  52.3422534  27.3633788  15.5074455  51.4387709  28.5122315
  25.4690020  62.0138460  26.3561031  25.9121167  61.2645785  25.9580154
  24.5916531  62.0048596  25.9734763  20.6025802  68.5668802  21.8367630
  21.2976706  69.1875494  22.0554944  20.9448952  67.7164153  22.1120007
   6.2193611  60.3886602  35.6964447   5.4775347  60.5369238  36.2829077
   5.8986355  60.6494868  34.8331196  22.5017225  66.0168507  23.3654960
  23.0268549  66.3555780  22.6404280  22.4139577  65.0815522  23.1818095
  14.1637274  69.9302581  35.4944837  14.4724400  69.6851727  36.3667537
  14.9612756  70.1349219  35.0063707  14.1857886  72.0840490  27.7250213
  13.7462876  71.5916869  28.4183070  14.9366003  71.5413458  27.4842289
   6.6650225  68.2752031  27.7274842   7.4908245  67.9755803  27.3473485
   6.3144277  67.5059654  28.1764630  11.6331758  67.6278499  29.7972515
  11.0111767  66.9649204  29.4974743  12.3036625  67.6539631  29.1146163
   4.8658830  66.1938358  28.6863775   4.0290738  65.7660532  28.5047776
   4.8382475  66.3870801  29.6234566  11.7056285  56.1060287  39.3905021
  11.7544441  56.9822410  39.0082791  12.2478800  55.5637680  38.8176664
  22.1911131  66.6501411  38.6706158  21.4006675  66.6325550  38.1310658
  21.9544486  67.1889704  39.4255195  22.3109006  63.4993877  35.9838887
  22.3607011  63.3343884  36.9254410  22.2022929  62.6321136  35.5936768
  11.1945265  66.1782423  23.2730976  11.3433385  66.8617887  22.6197648
  12.0011708  66.1587513  23.7880431  19.6012768  59.4824805  37.2998194
  20.5022631  59.3431270  37.0082191  19.6760743  59.6479260  38.2396371
  13.9355574  56.8591660  36.1451380  13.0658883  57.1525226  35.8733968
  14.1715054  57.4432105  36.8658643  23.8127203  65.9190819  36.2280908
  23.5212011  66.2820799  37.0644369  23.1999334  65.2057827  36.0494240
  25.0122885  63.4843698  28.7483479  25.8469777  63.9233502  28.9121039
  25.1482014  63.0082352  27.9291724  22.0614391  61.0423433  34.6960966
  22.5368513  61.2351080  33.8879818  21.1379956  61.0982619  34.4504350
   8.9497898  62.2047600  24.2792045   8.7043940  61.3009930  24.4772255
   9.1193812  62.2064751  23.3371523  16.6394608  53.0771277  33.6616800
  17.1576551  53.8132304  33.3363289  16.2849740  53.3835270  34.4963559
   8.2193545  57.9375958  21.7778206   7.5262790  58.0120313  21.1218242
   7.9745297  57.1736302  22.2999723  16.8907202  49.4971559  29.1817697
  17.1708956  48.8294748  29.8078123  17.6757809  49.6900655  28.6692361
  14.6940670  68.6730553  20.7442723  14.1214637  69.2920740  20.2913195
  15.2673464  69.2229915  21.2782645  20.7616060  57.9189193  32.9289272
  21.7133483  58.0187291  32.9501496  20.5919511  57.1267462  33.4387356
  18.7830440  55.0044776  33.1148673  18.1880372  55.2849789  32.4195161
  18.4980136  55.4938677  33.8865414  17.9137930  68.9567703  21.8751305
  18.8468603  68.8913265  22.0784181  17.8261143  69.7923970  21.4165838
  20.5425947  68.2733574  18.8355253  20.4639578  67.9393437  19.7291011
  21.3635614  68.7655342  18.8346725  23.2404138  61.1395313  32.0431572
  23.2080458  60.2011314  32.2291255  23.8504762  61.2179350  31.3097396
  15.0787469  60.0091366  18.0858776  16.0246573  59.8797574  18.1547194
  14.7001714  59.2706028  18.5628204  23.3898626  57.9306356  32.0889855
  22.8737675  57.1464813  31.9019784  24.2738575  57.6025073  32.2536374
  21.0509353  51.6747372  28.0485667  20.8534174  51.3662460  28.9328999
  21.6609059  52.4009011  28.1783597  29.0580688  62.2011320  31.1837608
  29.7884076  61.9396608  31.7445312  28.4487633  61.4640042  31.2239676
  27.1395985  60.3419182  31.7812060  26.4129148  60.2075147  31.1728551
  26.7243272  60.6496011  32.5868778  14.9626161  64.0609112  39.5459433
  15.8829171  64.2387711  39.7399479  14.9275744  63.1165157  39.3939132
  13.2630386  57.9341342  18.0213661  12.3561841  57.6374455  18.0976374
  13.5406367  57.6371160  17.1547947   4.1808326  59.2547706  28.4712707
   3.8611111  58.4013014  28.1787081   3.6341754  59.4696284  29.2270675
   7.9588234  61.9710147  32.1882214   8.1774244  62.9027255  32.2070248
   8.3714008  61.6118121  32.9737018  14.8792452  52.4778232  24.1757902
  14.0693180  52.1325317  24.5513148  15.5676869  52.1685776  24.7645514
  16.8083000  51.5556279  25.7982199  17.3614039  51.9751732  26.4572222
  17.0453086  50.6292027  25.8405155  12.8316099  57.5443352  41.5784963
  12.7312826  58.4937709  41.5097054  12.6137641  57.2161591  40.7061033
  12.0329171  54.7928278  18.1625640  12.8948335  55.1183176  18.4221457
  12.2179515  54.0059773  17.6498706   4.0496586  62.8750617  30.4405829
   3.3560058  62.4604570  29.9275783   4.7969577  62.9171154  29.8439248
  20.1861807  53.6656804  25.3060863  19.6060476  54.3241608  24.9238915
  19.9197740  52.8434149  24.8948281  18.6365373  53.0661862  27.5082183
  19.1365152  53.1778396  26.6996502  19.2800981  52.7622915  28.1482992
  12.6947369  60.9740491  40.3950024  12.2114451  61.7740851  40.6013913
  12.7808308  60.9848436  39.4417468   5.9633329  62.8068871  28.3171844
   5.9404017  62.9056558  27.3653727   6.2733965  63.6534022  28.6389010
   8.6220707  64.8645026  32.4318458   9.5763960  64.8328968  32.3648390
   8.4233230  64.4035650  33.2468684   9.2120089  63.4346142  34.9989256
  10.0312978  63.9290221  35.0224093   9.4856897  62.5178110  34.9706823
  18.9686685  55.8256894  24.3617211  18.0812540  56.1106545  24.1437406
  19.3840674  55.6650658  23.5144488  22.3201221  55.8503415  28.0771551
  23.0961611  56.3399868  28.3496167  21.5949355  56.2761470  28.5343420
  24.7573780  56.5631035  29.1345491  25.3518271  56.3226771  28.4238799
  24.8300363  55.8438165  29.7619027   6.9770935  70.4064646  29.4488656
   6.8425403  69.6465046  28.8826654   6.5602998  71.1305545  28.9817445
  18.1129899  65.5901569  18.4565231  18.8165749  65.7951572  19.0722887
  17.3892547  66.1578331  18.7214315  18.9427709  61.3411430  24.5767501
  18.8862910  61.7979982  23.7375134  19.4956051  60.5802115  24.3990344
  22.7532515  57.1301162  25.4017621  22.4969449  56.7297798  26.2325829
  22.1285383  57.8444956  25.2767760  27.0644853  59.8697235  27.9088912
  26.5044411  59.9390425  28.6820474  26.4588356  59.6938220  27.1888409
  10.1340061  71.3033963  29.6607099  10.0172446  72.2479395  29.5585789
   9.3132508  71.0007524  30.0492898  20.0216596  66.0284098  20.5063691
  20.8562200  65.5965297  20.3241166  19.8600939  65.8566112  21.4340586
  19.6762488  62.5316212  21.8720031  19.6211292  62.3660483  20.9308475
  19.0508543  63.2392244  22.0282220   4.4655003  57.7684276  35.6981453
   5.1113867  57.2583230  36.1868678   4.2572154  58.5052958  36.2724878
  16.9908395  64.8365123  41.1973593  17.8599555  65.0105776  40.8360228
  16.5115147  65.6559540  41.0749323  12.9858614  52.0324321  21.4505349
  12.9737283  52.9766160  21.6073620  13.8782035  51.8494466  21.1564810
  11.1594575  71.9562224  32.8763027  12.0621822  71.9885835  33.1929522
  10.9331946  71.0262675  32.8909363  12.9148178  70.7093211  29.5373106
  11.9643809  70.7095073  29.4237478  13.2180664  69.9625946  29.0209140
  16.8010733  48.6267097  25.7051286  16.0343129  48.0725584  25.8507968
  17.2121438  48.6988966  26.5665437   8.8052494  54.9151893  39.7956467
   9.6683956  54.5588698  40.0059792   8.2317905  54.5765788  40.4831871
  28.6500871  76.5453749  30.6018868  29.2879281  76.4260497  29.8982208
  28.5321714  77.4934593  30.6606820  25.4590577  76.4981177  30.5380393
  25.1209089  76.3822242  29.6500928  26.3280345  76.0972343  30.5181399
  21.3177393  78.3516654  26.5277284  20.7542258  78.2606591  25.7593571
  21.2029788  77.5316558  27.0079776  25.9410360  77.6516029  36.4966598
  25.9299001  77.2568827  35.6247102  26.1031000  76.9182102  37.0900370
  18.8641825  79.8467845  29.3661504  19.6563117  79.5058670  28.9507803
  19.1038475  79.9562821  30.2863658  26.8976952  82.0187622  21.8391749
  26.2464931  82.6041702  21.4525762  27.6921314  82.5493817  21.8986786
  20.8232579  79.1076759  22.2378883  21.5963455  78.5605746  22.0991759
  21.1757978  79.9721008  22.4493344  22.6617621  80.4353141  35.4445782
  22.3707487  81.3398772  35.3292449  23.2974606  80.4769669  36.1589852
  23.5873828  77.8129990  32.0347142  24.1837401  77.5886012  31.3204105
  23.6448800  77.0714735  32.6372590  23.1598857  75.2669425  19.8697333
  23.4124377  74.7450946  19.1080796  22.2223416  75.1035570  19.9724017
  28.2042139  74.2705203  27.6772076  28.9905229  73.8524626  27.3262493
  28.4680844  75.1751295  27.8453725  28.3752217  79.7078054  22.3760733
  27.7398050  79.7812680  23.0881638  28.0449623  80.2971652  21.6979812
  33.6050567  74.2080436  28.5805055  34.3375739  73.6379653  28.8142884
  32.8489922  73.8202037  29.0211560  22.8795145  77.1697531  22.0721708
  22.7631404  76.4942434  22.7402792  22.9897405  76.6829905  21.2553861
  25.2226686  76.6307678  25.7768397  24.8584894  76.1038299  26.4881319
  26.0793802  76.2406147  25.6034883  31.1275987  67.9202011  33.0399663
  30.7959312  68.7897421  32.8160878  30.5321600  67.6038295  33.7193694
  24.8632173  71.6597578  20.7729746  25.0306576  72.5277814  21.1400217
  24.6729342  71.8224859  19.8491035  27.6207506  80.1214557  32.4395576
  27.3208230  81.0239595  32.3311383  27.2758566  79.8546740  33.2916729
  21.0719988  76.5728353  28.4732280  20.1470484  76.4404567  28.6809972
  21.3204401  77.3522573  28.9702223  31.0204650  72.6397097  30.1193013
  30.1121528  72.5712505  29.8251774  30.9692246  73.1169042  30.9474839
  24.8421394  74.1155235  21.7576412  24.7221019  74.5612286  22.5961893
  24.1473983  74.4640553  21.1989951  18.4328799  76.2161627  29.3076069
  18.5621180  76.4696106  30.2215481  17.7526250  76.8089335  28.9880725
  22.6028286  86.8858877  25.4066544  22.5252316  87.8366702  25.4855024
  21.9989930  86.5404749  26.0641470  25.0945516  74.0586742  38.0627911
  24.3178850  74.6180662  38.0530775  25.7336079  74.5443525  38.5842781
  32.8866297  70.8413535  31.8970887  32.2440677  71.1346068  31.2510682
  32.3821225  70.7266455  32.7024084  30.5406460  74.5876708  22.5856746
  31.4524316  74.8204095  22.4104444  30.0316107  75.1713753  22.0231825
  23.3491888  76.8672196  37.6245878  24.0906573  77.4057240  37.3480701
  22.6428874  77.4938484  37.7817429  28.8247228  79.0101336  36.2218039
  29.2330584  78.5683747  35.4772671  28.1024490  78.4353964  36.4752232
  25.1778298  73.9473943  33.5951596  26.0239493  74.3713356  33.7386245
  25.1176936  73.2907567  34.2890159  29.1476043  79.5702527  29.9770328
  28.5184905  79.7348241  29.2746396  28.7601705  79.9844136  30.7481292
  33.0265275  80.5056965  27.3314692  32.3416313  80.8855866  26.7811725
  33.1109124  81.1152291  28.0646639  28.3277743  71.6078311  35.2532770
  28.0838675  72.3620372  34.7167045  28.6037674  71.9863659  36.0880017
  30.2816206  78.1516924  33.9310035  30.4933101  78.7948684  33.2544416
  30.2345954  77.3179240  33.4631965  27.8842435  70.7634744  30.8346607
  27.0226914  71.0615998  31.1263345  27.9104870  70.9805143  29.9027640
  24.7004005  79.3076935  27.2420413  25.1642350  79.5864638  26.4525036
  24.4360803  78.4060379  27.0593504  21.5928086  78.8548416  30.1800176
  22.1629443  79.2835685  29.5417661  22.1836197  78.5731001  30.8784362
  23.6372891  75.4300087  24.0509978  24.3396934  75.8821131  24.5183905
  23.3053519  74.7883906  24.6789871  22.0853252  74.0211844  38.4261188
  21.4551913  74.7028125  38.6596584  21.9789340  73.9094925  37.4814326
  17.3798225  73.6883640  29.3527112  16.5897279  73.9441168  28.8767222
  17.8709472  74.5031978  29.4579152  31.3962034  81.0288879  32.1032393
  32.2179478  80.6269066  31.8215074  31.3924437  80.9257113  33.0548508
  19.3312970  74.0528219  26.3110588  18.5344133  74.1646913  26.8294084
  19.1038562  74.3914871  25.4451479  25.1618638  80.5772922  34.2593103
  25.2263070  81.0393330  35.0951275  24.4529561  79.9470287  34.3875413
  15.6635928  73.9414130  31.7842103  15.9143966  74.8261140  32.0499678
  16.1995476  73.7618732  31.0117194  39.4868027  77.3727628  28.4517364
  38.7331736  76.8035026  28.2961368  39.6215568  77.3390292  29.3987999
  24.8766655  82.2441030  24.1272083  24.7412330  83.0892566  24.5556931
  25.4176468  82.4460307  23.3638017  21.3633995  68.3232610  40.7886439
  20.9700940  67.7698808  41.4634083  22.1800135  68.6343188  41.1792956
  18.3296053  79.7616468  24.7000008  18.8420573  80.5559718  24.8505573
  18.9818765  79.0642758  24.6333610  20.1390937  82.8782224  26.7822762
  20.3157566  83.8000189  26.5943746  20.9347771  82.5640643  27.2117141
  24.2801956  69.7390489  38.3806695  25.0211669  70.3397642  38.3011158
  24.5119879  68.9968127  37.8224738  19.4243294  74.9246856  36.6584925
  19.3096809  74.0232113  36.9592024  18.5687812  75.1710553  36.3069741
  26.5035132  82.8664596  38.2572425  26.0598986  82.0800975  37.9393330
  27.1652345  83.0543747  37.5916316  21.2622253  84.3960398  32.7833104
  21.8129678  84.2677461  32.0110098  20.4233729  84.6955287  32.4327997
  28.6016370  83.1467396  36.2853827  28.5834845  83.9676277  35.7934096
  29.5236290  83.0221471  36.5103968  25.0589424  80.6611526  37.1277335
  25.5917761  79.8999814  36.8976643  24.5303505  80.3685178  37.8701490
  28.2259119  65.7671592  32.6570977  27.8823388  66.6573233  32.5810087
  28.5938081  65.5773249  31.7940562  16.2944969  78.0905122  25.4759579
  17.1320191  78.5002131  25.2593287  16.4723237  77.1504564  25.4459773
  28.1909402  75.7580203  21.1643412  27.6756025  76.5284807  21.4031799
  27.9186710  75.0845339  21.7876473  25.7756513  70.6029904  26.2228650
  24.9198109  70.2136754  26.0434289  26.1883464  70.6821864  25.3628436
  27.3055659  68.1376247  30.6220210  26.8020455  68.1006382  29.8088015
  27.5986266  69.0468990  30.6816867  23.5498545  68.2214977  29.6286392
  24.4151542  68.0257785  29.2692281  23.6176054  67.9925328  30.5555749
  33.1643676  78.5112557  23.0996585  32.3873118  78.1723717  22.6551748
  33.8435157  78.5165181  22.4251551  27.9795705  73.6307295  22.9903193
  27.6745840  73.9453444  23.8413336  28.9326147  73.7088715  23.0330526
  26.4242137  79.7897518  24.6396147  25.8963498  79.0550278  24.3269385
  25.9229639  80.5672195  24.3936115  31.4034983  77.9846539  29.7563193
  30.7458657  78.6745800  29.8443322  32.2075382  78.3742971  30.0997180
  21.1560864  70.4517185  27.0002759  21.7304616  70.2292366  26.2675952
  21.7431847  70.5205879  27.7531360  30.2140441  76.3390911  27.8067135
  30.7272323  76.9720903  28.3088845  30.8641665  75.7392107  27.4410495
  21.4830451  72.4821646  21.0198644  20.6467763  72.8196332  21.3407919
  21.3435221  72.3470625  20.0825781  23.4583532  67.3258433  25.7277828
  22.8047944  67.0107451  25.1034443  23.4164006  66.7034174  26.4537651
  24.5694737  77.6077728  17.6431120  23.6621798  77.3766982  17.8422269
  25.0665769  76.8115348  17.8305102  27.4762816  86.3175236  20.5627806
  26.8024514  86.6206932  21.1712764  27.8628638  87.1204316  20.2133263
  26.6921272  73.8140367  30.0525476  25.7743834  74.0355314  29.8947164
  27.1081416  73.8886677  29.1937183  27.4756320  75.2131783  25.1828156
  28.2228139  75.7253180  24.8735278  27.7447910  74.8915835  26.0432550
  25.7482970  77.7090323  22.1655110  24.8394189  77.4249356  22.2627580
  25.7778054  78.1289402  21.3058417  30.9802238  81.3196913  25.9346278
  30.5264565  80.4787823  25.9911468  30.3496204  81.9558311  26.2721058
  29.9235157  72.2488899  27.1646945  29.1857914  71.7366285  27.4957188
  30.1761931  71.8089281  26.3530222  29.4235177  83.1573410  26.8696096
  29.7158151  83.7178467  26.1508462  29.9333797  83.4501971  27.6249255
  30.0246784  65.0265151  27.7588715  30.3305661  64.1662514  27.4714630
  30.7499389  65.6182771  27.5587708  16.3171141  75.4295837  26.1470312
  16.1195540  74.8365198  25.4221379  15.7617805  75.1248048  26.8646251
  24.2967864  75.3218944  28.2664906  24.3516474  74.3692780  28.1907382
  23.4859066  75.4778383  28.7506204  25.4459058  79.2499067  19.5043189
  25.0078488  78.5334926  19.0448826  26.1869499  79.4775182  18.9428280
  22.2360224  73.9396004  26.0255284  21.4228090  74.2390174  26.4320477
  22.7319218  73.5451692  26.7429767  24.3868802  83.9353761  27.9589549
  24.3444981  84.1614607  27.0298081  25.3031501  83.7017135  28.1075350
  27.8334436  74.4037828  34.8570178  28.1883824  74.6309301  35.7164644
  28.4806567  74.7356205  34.2347434  33.5632173  77.5256264  25.5619507
  33.4250071  77.7157860  24.6340697  33.2068392  78.2875647  26.0187559
  21.7274299  71.5114359  31.6416519  22.3673678  71.3703118  30.9439483
  20.8951829  71.2248873  31.2655121  33.5901552  79.5932791  30.5730779
  34.0238059  79.5008080  31.4213833  34.3033133  79.5690292  29.9350795
  22.5034603  80.8116790  27.7551512  23.2975201  80.3167110  27.5534087
  21.7926295  80.2834653  27.3919217  27.3229447  83.1934885  32.1063880
  27.3766470  83.7625822  32.8741595  26.4544229  83.3636770  31.7417917
  18.8117366  74.9559871  23.8311265  17.8814954  74.8944327  24.0481227
  18.9074838  74.4335824  23.0347906  18.7302915  71.4814684  26.4189506
  18.9909733  72.3960017  26.3098667  19.5520088  71.0139127  26.5686119
  20.2027841  72.8952441  33.5888331  20.8750894  72.6869804  32.9400980
  19.3757627  72.6974527  33.1493563  34.4517102  79.6356492  33.1063664
  34.6452992  80.5402302  33.3522939  34.3517720  79.1763911  33.9402249
  26.1053413  69.5214382  35.6053992  25.4581328  70.2204332  35.5118468
  26.8754428  69.9550526  35.9730240  29.5132211  79.7863234  38.6804545
  29.3617717  79.5573786  37.7634629  29.5036890  80.7433836  38.6935890
  26.2817547  77.3595147  33.6650811  27.2109607  77.5106307  33.4919779
  25.8608577  77.4479168  32.8099458  25.0805879  81.3845812  31.4349349
  24.9416964  81.0164596  32.3075287  24.2920475  81.8993451  31.2633307
  25.6754031  86.4854908  22.7774886  25.8505786  86.0142951  23.5920508
  24.9886819  87.1120674  23.0056146  26.6311094  80.7627414  28.8238187
  26.2960927  80.7228184  29.7195837  26.1315040  80.0972130  28.3508597
  20.6055338  76.1695044  34.3490768  20.4675136  75.4375283  34.9502307
  21.5160261  76.0803944  34.0674956  29.5670286  78.1083449  19.0975246
  28.9499456  77.3830277  19.0008299  29.0986774  78.8692809  18.7542321
  23.2337639  75.8815004  33.8374448  23.9437257  75.2408196  33.7961066
  23.1906947  76.1327899  34.7600628  31.2224417  82.8182357  36.7581027
  31.1636963  82.1341577  36.0911610  31.6243936  83.5601347  36.3061653
  21.9466573  72.8680222  35.6570087  21.4103930  72.4170960  36.3091683
  21.3583281  73.0026130  34.9140551  20.2415116  89.6344271  29.5514746
  20.4811714  90.2662795  30.2293764  19.3984312  89.2832311  29.8380105
  21.3568831  72.3268873  18.2196551  20.4798298  72.2057674  17.8558797
  21.8326585  71.5354951  17.9675439  31.2241824  80.7821941  34.9895006
  30.3368603  80.4447863  35.1121405  31.7940376  80.0504972  35.2263772
  12.8770972  77.1146033  28.3138058  13.5642011  76.8007763  27.7259073
  12.7219100  78.0187397  28.0405309  17.6805694  72.0036229  32.7423082
  17.5963882  71.3961899  32.0073491  16.8588400  72.4945248  32.7432578
  24.7542978  85.4423393  31.9556250  24.6813149  86.2478365  32.4675554
  24.3120371  85.6415359  31.1304271  24.5432757  84.6795163  25.4659071
  23.7600279  85.2216844  25.5597296  25.2425503  85.1969143  25.8653312
  27.8529408  70.4889793  28.1093277  28.3498107  69.7359755  27.7894347
  27.0816389  70.5254109  27.5436486  35.7059165  76.1930158  29.7511568
  35.6949041  77.0754874  29.3805501  34.8376544  75.8401709  29.5566105
  27.2141661  85.3410227  34.1114408  27.9269634  85.9757692  34.0390310
  26.7231690  85.4374093  33.2954410  28.9359188  79.2461480  25.6831700
  28.0015467  79.3662942  25.5136404  29.1135857  78.3433947  25.4191710
  24.4364376  72.6307176  27.8364961  24.0662164  72.0778216  28.5245867
  24.9323469  72.0265309  27.2839961  32.3231740  75.0878799  26.2181734
  32.7892192  75.9206791  26.1442037  32.7739240  74.6223781  26.9226993
  22.2653575  83.0904671  34.9319979  22.9663034  83.7241154  35.0849373
  21.7948690  83.4319402  34.1715618  30.3907971  81.4322621  23.2167886
  30.6667815  81.3179215  24.1261760  29.5212469  81.0340105  23.1780059
  30.2948402  67.4559386  30.2572635  29.3811482  67.6863613  30.4254842
  30.7241504  67.5397830  31.1086668  30.0654861  75.6449278  32.7572529
  29.4126311  75.8925186  32.1024982  30.4435241  74.8313416  32.4235007
  27.0262035  85.6808971  26.8600700  27.2084429  84.8630627  27.3228452
  27.8495021  85.8976664  26.4225590  27.3604200  84.6077157  24.1215748
  27.8891967  84.0969611  23.5085910  27.6232420  84.2919687  24.9861281
  26.1142434  76.3869089  39.2438567  25.4383071  76.2863219  39.9140942
  26.9370068  76.2308303  39.7074564  17.8621293  82.6241026  31.8651082
  18.4474730  81.8784714  31.9978986  17.6646131  82.9344983  32.7487746
  20.7159948  85.6592273  26.8813524  20.0470323  86.1438401  26.3977564
  20.5772818  85.9061494  27.7956903  12.4538948  75.1946626  30.5855525
  12.4923047  74.6610217  31.3792643  11.9479241  74.6681832  29.9666502
  24.8565217  87.6936017  33.4796183  25.4083525  87.8567638  34.2445268
  25.1971410  88.2840455  32.8076207  19.8329710  70.0411167  34.0818067
  19.8971037  70.9025997  33.6695465  19.7696830  69.4285168  33.3490426
  19.3081983  72.1134299  37.7291102  19.9354021  71.7311376  38.3428626
  18.4509901  71.8948501  38.0946794  29.7076091  82.5197274  39.3344837
  30.2515995  83.1327233  38.8399792  29.1262936  83.0776853  39.8511850
  16.0847525  73.9210728  23.6609456  16.3800966  73.0121407  23.6076510
  15.1835561  73.8998468  23.3390459  27.9933604  85.6417992  30.4659865
  27.8684744  84.8407732  29.9570810  28.6512695  86.1364186  29.9773835
  19.6141772  71.9966725  29.6437005  18.8928358  72.6102693  29.5044478
  20.4035028  72.5324490  29.5653651  30.0568512  83.4427012  32.0939415
  29.1098848  83.3232364  32.0217742  30.4051286  82.5549510  32.1765676
  22.4168086  69.3321151  35.9177657  22.9402488  69.5783448  36.6803966
  22.1980419  70.1641186  35.4980794  17.8135367  71.6024826  23.7848782
  17.4848073  70.7222205  23.6023887  18.1674738  71.5472495  24.6725171
  27.0614946  83.2379729  28.2943767  26.9139908  82.3096436  28.4751337
  27.8868439  83.2599819  27.8100842  20.9277190  71.8897796  24.1524259
  21.2673263  72.4183717  23.4302868  21.3749311  72.2278202  24.9282826
  30.6649068  84.0608287  29.3808640  31.5895615  83.8551149  29.2433091
  30.4964371  83.8124688  30.2897981  23.6220631  70.2734846  33.6027327
  23.2817451  69.4742659  34.0048007  22.9159637  70.5736557  33.0304160
  24.2737103  67.3584159  32.0554650  25.0963172  66.8844637  31.9333541
  24.5175166  68.1374643  32.5553337  22.9145337  70.3872417  22.3517552
  23.6353700  70.7653670  21.8481269  22.2910641  71.1061294  22.4552530
  27.0576460  71.0917566  23.2875884  27.2740074  71.9742204  22.9864712
  26.5770527  70.7003780  22.5581526  21.7975681  74.0503279  29.8646629
  21.6520262  74.3643583  30.7570910  21.3200885  74.6688180  29.3117528
  23.6572064  71.0405827  29.9127518  23.6433633  70.1446921  29.5759816
  24.3744492  71.0476491  30.5465804  25.5098195  71.4743168  31.9580646
  25.2515973  72.3960238  31.9564976  24.9783235  71.0773602  32.6481110
  30.4544384  84.5793955  24.7370731  30.6281261  84.0140377  23.9844584
  30.9473275  85.3794850  24.5550221  16.2721344  76.5908624  32.8034290
  15.7274812  77.3668432  32.9354564  17.1500693  76.9379428  32.6453411
  23.0608960  69.9220208  25.1815089  23.1824871  68.9936854  25.3805976
  22.7711003  69.9358894  24.2693404  25.9300151  67.6075118  28.3181808
  25.9521847  67.6714451  27.3633788  26.3468210  66.7679627  28.5122315
  36.3083775  77.3430378  26.3561031  36.7514921  76.5937703  25.9580154
  35.4310285  77.3340514  25.9734763  31.4419556  83.8960719  21.8367630
  32.1370461  84.5167412  22.0554944  31.7842706  83.0456070  22.1120007
  17.0587365  75.7178520  35.6964447  16.3169102  75.8661155  36.2829077
  16.7380110  75.9786786  34.8331196  33.3410979  81.3460425  23.3654960
  33.8662304  81.6847697  22.6404280  33.2533332  80.4107440  23.1818095
  25.0031028  85.2594498  35.4944837  25.3118155  85.0143645  36.3667537
  25.8006510  85.4641137  35.0063707  25.0251640  87.4132408  27.7250213
  24.5856630  86.9208787  28.4183070  25.7759757  86.8705376  27.4842289
  17.5043979  83.6043949  27.7274842  18.3301999  83.3047721  27.3473485
  17.1538031  82.8351571  28.1764630  22.4725512  82.9570417  29.7972515
  21.8505522  82.2941122  29.4974743  23.1430379  82.9831549  29.1146163
  15.7052584  81.5230275  28.6863775  14.8684493  81.0952450  28.5047776
  15.6776230  81.7162719  29.6234566  22.5450040  71.4352205  39.3905021
  22.5938195  72.3114328  39.0082791  23.0872554  70.8929598  38.8176664
  33.0304885  81.9793328  38.6706158  32.2400429  81.9617467  38.1310658
  32.7938240  82.5181622  39.4255195  33.1502761  78.8285795  35.9838887
  33.2000765  78.6635802  36.9254410  33.0416684  77.9613054  35.5936768
  22.0339019  81.5074340  23.2730976  22.1827140  82.1909805  22.6197648
  22.8405463  81.4879430  23.7880431  30.4406523  74.8116723  37.2998194
  31.3416386  74.6723188  37.0082191  30.5154497  74.9771178  38.2396371
  24.7749328  72.1883578  36.1451380  23.9052638  72.4817144  35.8733968
  25.0108809  72.7724023  36.8658643  34.6520957  81.2482736  36.2280908
  34.3605766  81.6112717  37.0644369  34.0393089  80.5349745  36.0494240
  35.8516640  78.8135616  28.7483479  36.6863531  79.2525420  28.9121039
  35.9875768  78.3374269  27.9291724  32.9008146  76.3715351  34.6960966
  33.3762267  76.5642997  33.8879818  31.9773711  76.4274537  34.4504350
  19.7891652  77.5339518  24.2792045  19.5437694  76.6301848  24.4772255
  19.9587567  77.5356669  23.3371523  27.4788362  68.4063194  33.6616800
  27.9970306  69.1424221  33.3363289  27.1243495  68.7127188  34.4963559
  19.0587300  73.2667876  21.7778206  18.3656545  73.3412231  21.1218242
  18.8139052  72.5028219  22.2999723  27.7300956  64.8263477  29.1817697
  28.0102710  64.1586666  29.8078123  28.5151563  65.0192573  28.6692361
  25.5334425  84.0022471  20.7442723  24.9608392  84.6212658  20.2913195
  26.1067218  84.5521833  21.2782645  31.6009815  73.2481111  32.9289272
  32.5527237  73.3479209  32.9501496  31.4313265  72.4559380  33.4387356
  29.6224194  70.3336694  33.1148673  29.0274126  70.6141707  32.4195161
  29.3373891  70.8230595  33.8865414  28.7531685  84.2859621  21.8751305
  29.6862358  84.2205183  22.0784181  28.6654897  85.1215888  21.4165838
  31.3819701  83.6025491  18.8355253  31.3033333  83.2685355  19.7291011
  32.2029368  84.0947259  18.8346725  34.0797892  76.4687231  32.0431572
  34.0474212  75.5303231  32.2291255  34.6898516  76.5471267  31.3097396
  25.9181223  75.3383284  18.0858776  26.8640328  75.2089492  18.1547194
  25.5395468  74.5997946  18.5628204  34.2292381  73.2598274  32.0889855
  33.7131430  72.4756731  31.9019784  35.1132329  72.9316991  32.2536374
  31.8903108  67.0039290  28.0485667  31.6927929  66.6954378  28.9328999
  32.5002813  67.7300929  28.1783597  39.8974442  77.5303237  31.1837608
  40.6277831  77.2688526  31.7445312  39.2881388  76.7931959  31.2239676
  37.9789739  75.6711100  31.7812060  37.2522903  75.5367065  31.1728551
  37.5637026  75.9787929  32.5868778  25.8019916  79.3901030  39.5459433
  26.7222925  79.5679629  39.7399479  25.7669499  78.4457075  39.3939132
  24.1024140  73.2633260  18.0213661  23.1955596  72.9666373  18.0976374
  24.3800121  72.9663078  17.1547947  15.0202081  74.5839623  28.4712707
  14.7004865  73.7304932  28.1787081  14.4735509  74.7988202  29.2270675
  18.7981988  77.3002064  32.1882214  19.0167998  78.2319172  32.2070248
  19.2107762  76.9410039  32.9737018  25.7186206  67.8070150  24.1757902
  24.9086934  67.4617235  24.5513148  26.4070623  67.4977693  24.7645514
  27.6476754  66.8848197  25.7982199  28.2007793  67.3043650  26.4572222
  27.8846841  65.9583945  25.8405155  23.6709854  72.8735270  41.5784963
  23.5706581  73.8229627  41.5097054  23.4531396  72.5453509  40.7061033
  22.8722925  70.1220195  18.1625640  23.7342089  70.4475094  18.4221457
  23.0573269  69.3351691  17.6498706  14.8890341  78.2042535  30.4405829
  14.1953812  77.7896488  29.9275783  15.6363332  78.2463071  29.8439248
  31.0255562  68.9948722  25.3060863  30.4454231  69.6533526  24.9238915
  30.7591494  68.1726066  24.8948281  29.4759128  68.3953779  27.5082183
  29.9758906  68.5070314  26.6996502  30.1194736  68.0914832  28.1482992
  23.5341124  76.3032409  40.3950024  23.0508205  77.1032769  40.6013913
  23.6202063  76.3140354  39.4417468  16.8027083  78.1360789  28.3171844
  16.7797771  78.2348476  27.3653727  17.1127720  78.9825939  28.6389010
  19.4614461  80.1936944  32.4318458  20.4157715  80.1620886  32.3648390
  19.2626985  79.7327567  33.2468684  20.0513843  78.7638060  34.9989256
  20.8706732  79.2582138  35.0224093  20.3250651  77.8470028  34.9706823
  29.8080440  71.1548812  24.3617211  28.9206295  71.4398463  24.1437406
  30.2234429  70.9942575  23.5144488  33.1594976  71.1795333  28.0771551
  33.9355366  71.6691785  28.3496167  32.4343110  71.6053387  28.5343420
  35.5967534  71.8922952  29.1345491  36.1912025  71.6518688  28.4238799
  35.6694118  71.1730083  29.7619027  17.8164690  85.7356563  29.4488656
  17.6819158  84.9756964  28.8826654  17.3996752  86.4597463  28.9817445
  28.9523653  80.9193487  18.4565231  29.6559503  81.1243489  19.0722887
  28.2286302  81.4870249  18.7214315  29.7821463  76.6703348  24.5767501
  29.7256665  77.1271899  23.7375134  30.3349806  75.9094033  24.3990344
  33.5926269  72.4593080  25.4017621  33.3363203  72.0589716  26.2325829
  32.9679137  73.1736874  25.2767760  37.9038607  75.1989153  27.9088912
  37.3438165  75.2682342  28.6820474  37.2982110  75.0230138  27.1888409
  20.9733816  86.6325880  29.6607099  20.8566200  87.5771313  29.5585789
  20.1526262  86.3299442  30.0492898  30.8610350  81.3576016  20.5063691
  31.6955954  80.9257214  20.3241166  30.6994693  81.1858030  21.4340586
  30.5156243  77.8608129  21.8720031  30.4605046  77.6952401  20.9308475
  29.8902298  78.5684162  22.0282220  15.3048758  73.0976194  35.6981453
  15.9507621  72.5875148  36.1868678  15.0965909  73.8344875  36.2724878
  27.8302150  80.1657041  41.1973593  28.6993309  80.3397693  40.8360228
  27.3508901  80.9851458  41.0749323  23.8252368  67.3616238  21.4505349
  23.8131038  68.3058078  21.6073620  24.7175790  67.1786384  21.1564810
  21.9988330  87.2854142  32.8763027  22.9015577  87.3177752  33.1929522
  21.7725700  86.3554593  32.8909363  23.7541932  86.0385129  29.5373106
  22.8037563  86.0386990  29.4237478  24.0574418  85.2917863  29.0209140
  27.6404487  63.9559015  25.7051286  26.8736883  63.4017502  25.8507968
  28.0515192  64.0280884  26.5665437  19.6446249  70.2443811  39.7956467
  20.5077710  69.8880616  40.0059792  19.0711659  69.9057706  40.4831871
  39.4894625  91.8745667  30.6018868  40.1273035  91.7552414  29.8982208
  39.3715468  92.8226511  30.6606820  36.2984332  91.8273095  30.5380393
  35.9602843  91.7114160  29.6500928  37.1674100  91.4264260  30.5181399
  32.1571147  93.6808572  26.5277284  31.5936013  93.5898509  25.7593571
  32.0423543  92.8608476  27.0079776  36.7804115  92.9807947  36.4966598
  36.7692756  92.5860745  35.6247102  36.9424754  92.2474020  37.0900370
  29.7035579  95.1759763  29.3661504  30.4956871  94.8350588  28.9507803
  29.9432230  95.2854738  30.2863658  37.7370706  97.3479539  21.8391749
  37.0858686  97.9333620  21.4525762  38.5315069  97.8785734  21.8986786
  31.6626333  94.4368676  22.2378883  32.4357209  93.8897664  22.0991759
  32.0151732  95.3012926  22.4493344  33.5011376  95.7645059  35.4445782
  33.2101242  96.6690690  35.3292449  34.1368360  95.8061586  36.1589852
  34.4267583  93.1421907  32.0347142  35.0231155  92.9177930  31.3204105
  34.4842554  92.4006653  32.6372590  33.9992611  90.5961343  19.8697333
  34.2518132  90.0742864  19.1080796  33.0617170  90.4327488  19.9724017
  39.0435894  89.5997121  27.6772076  39.8298983  89.1816544  27.3262493
  39.3074598  90.5043213  27.8453725  39.2145971  95.0369971  22.3760733
  38.5791804  95.1104598  23.0881638  38.8843378  95.6263570  21.6979812
  44.4444321  89.5372354  28.5805055  45.1769493  88.9671571  28.8142884
  43.6883677  89.1493955  29.0211560  33.7188900  92.4989449  22.0721708
  33.6025158  91.8234352  22.7402792  33.8291160  92.0121822  21.2553861
  36.0620441  91.9599596  25.7768397  35.6978648  91.4330217  26.4881319
  36.9187557  91.5698065  25.6034883  41.9669741  83.2493928  33.0399663
  41.6353066  84.1189339  32.8160878  41.3715355  82.9330212  33.7193694
  35.7025928  86.9889495  20.7729746  35.8700330  87.8569732  21.1400217
  35.5123097  87.1516777  19.8491035  38.4601261  95.4506474  32.4395576
  38.1601984  96.3531513  32.3311383  38.1152321  95.1838657  33.2916729
  31.9113742  91.9020271  28.4732280  30.9864239  91.7696485  28.6809972
  32.1598156  92.6814490  28.9702223  41.8598405  87.9689014  30.1193013
  40.9515282  87.9004423  29.8251774  41.8086001  88.4460959  30.9474839
  35.6815149  89.4447153  21.7576412  35.5614774  89.8904204  22.5961893
  34.9867737  89.7932470  21.1989951  29.2722554  91.5453545  29.3076069
  29.4014935  91.7988024  30.2215481  28.5920005  92.1381253  28.9880725
  33.4422041 102.2150795  25.4066544  33.3646070 103.1658620  25.4855024
  32.8383684 101.8696667  26.0641470  35.9339271  89.3878660  38.0627911
  35.1572605  89.9472580  38.0530775  36.5729834  89.8735443  38.5842781
  43.7260051  86.1705453  31.8970887  43.0834431  86.4637986  31.2510682
  43.2214980  86.0558373  32.7024084  41.3800215  89.9168626  22.5856746
  42.2918071  90.1496013  22.4104444  40.8709862  90.5005670  22.0231825
  34.1885643  92.1964113  37.6245878  34.9300327  92.7349157  37.3480701
  33.4822628  92.8230402  37.7817429  39.6640983  94.3393254  36.2218039
  40.0724339  93.8975664  35.4772671  38.9418244  93.7645881  36.4752232
  36.0172053  89.2765861  33.5951596  36.8633248  89.7005274  33.7386245
  35.9570690  88.6199485  34.2890159  39.9869797  94.8994444  29.9770328
  39.3578660  95.0640159  29.2746396  39.5995459  95.3136054  30.7481292
  43.8659029  95.8348882  27.3314692  43.1810067  96.2147784  26.7811725
  43.9502878  96.4444209  28.0646639  39.1671498  86.9370229  35.2532770
  38.9232430  87.6912289  34.7167045  39.4431428  87.3155577  36.0880017
  41.1209961  93.4808841  33.9310035  41.3326856  94.1240601  33.2544416
  41.0739709  92.6471158  33.4631965  38.7236190  86.0926662  30.8346607
  37.8620669  86.3907916  31.1263345  38.7498624  86.3097061  29.9027640
  35.5397759  94.6368853  27.2420413  36.0036105  94.9156556  26.4525036
  35.2754557  93.7352297  27.0593504  32.4321840  94.1840334  30.1800176
  33.0023197  94.6127602  29.5417661  33.0229952  93.9022919  30.8784362
  34.4766645  90.7592005  24.0509978  35.1790688  91.2113049  24.5183905
  34.1447274  90.1175824  24.6789871  32.9247007  89.3503762  38.4261188
  32.2945667  90.0320042  38.6596584  32.8183094  89.2386843  37.4814326
  28.2191979  89.0175558  29.3527112  27.4291033  89.2733086  28.8767222
  28.7103226  89.8323895  29.4579152  42.2355789  96.3580797  32.1032393
  43.0573232  95.9560984  31.8215074  42.2318191  96.2549031  33.0548508
  30.1706724  89.3820137  26.3110588  29.3737888  89.4938831  26.8294084
  29.9432317  89.7206789  25.4451479  36.0012392  95.9064840  34.2593103
  36.0656825  96.3685247  35.0951275  35.2923316  95.2762205  34.3875413
  26.5029682  89.2706048  31.7842103  26.7537720  90.1553058  32.0499678
  27.0389230  89.0910650  31.0117194  50.3261782  92.7019545  28.4517364
  49.5725490  92.1326943  28.2961368  50.4609323  92.6682210  29.3987999
  35.7160410  97.5732948  24.1272083  35.5806084  98.4184483  24.5556931
  36.2570222  97.7752225  23.3638017  32.2027749  83.6524527  40.7886439
  31.8094695  83.0990726  41.4634083  33.0193890  83.9635106  41.1792956
  29.1689807  95.0908386  24.7000008  29.6814328  95.8851636  24.8505573
  29.8212520  94.3934676  24.6333610  30.9784692  98.2074142  26.7822762
  31.1551320  99.1292107  26.5943746  31.7741525  97.8932561  27.2117141
  35.1195710  85.0682406  38.3806695  35.8605424  85.6689560  38.3011158
  35.3513633  84.3260044  37.8224738  30.2637048  90.2538774  36.6584925
  30.1490563  89.3524031  36.9592024  29.4081566  90.5002470  36.3069741
  37.3428886  98.1956514  38.2572425  36.8992740  97.4092893  37.9393330
  38.0046100  98.3835665  37.5916316  32.1016007  99.7252316  32.7833104
  32.6523432  99.5969379  32.0110098  31.2627483 100.0247205  32.4327997
  39.4410124  98.4759314  36.2853827  39.4228599  99.2968195  35.7934096
  40.3630044  98.3513389  36.5103968  35.8983178  95.9903443  37.1277335
  36.4311515  95.2291732  36.8976643  35.3697259  95.6977095  37.8701490
  39.0652873  81.0963509  32.6570977  38.7217143  81.9865151  32.5810087
  39.4331836  80.9065167  31.7940562  27.1338724  93.4197040  25.4759579
  27.9713946  93.8294048  25.2593287  27.3116992  92.4796482  25.4459773
  39.0303156  91.0872120  21.1643412  38.5149779  91.8576725  21.4031799
  38.7580464  90.4137257  21.7876473  36.6150267  85.9321821  26.2228650
  35.7591863  85.5428672  26.0434289  37.0277219  86.0113782  25.3628436
  38.1449414  83.4668165  30.6220210  37.6414209  83.4298300  29.8088015
  38.4380021  84.3760907  30.6816867  34.3892300  83.5506894  29.6286392
  35.2545296  83.3549703  29.2692281  34.4569808  83.3217246  30.5555749
  44.0037430  93.8404475  23.0996585  43.2266873  93.5015635  22.6551748
  44.6828911  93.8457098  22.4251551  38.8189459  88.9599213  22.9903193
  38.5139595  89.2745362  23.8413336  39.7719901  89.0380632  23.0330526
  37.2635891  95.1189436  24.6396147  36.7357253  94.3842195  24.3269385
  36.7623394  95.8964112  24.3936115  42.2428737  93.3138456  29.7563193
  41.5852411  94.0037718  29.8443322  43.0469136  93.7034888  30.0997180
  31.9954619  85.7809102  27.0002759  32.5698371  85.5584284  26.2675952
  32.5825601  85.8497797  27.7531360  41.0534196  91.6682829  27.8067135
  41.5666078  92.3012821  28.3088845  41.7035420  91.0684025  27.4410495
  32.3224206  87.8113563  21.0198644  31.4861518  88.1488250  21.3407919
  32.1828975  87.6762543  20.0825781  34.2977286  82.6550351  25.7277828
  33.6441699  82.3399368  25.1034443  34.2557760  82.0326092  26.4537651
  35.4088491  92.9369646  17.6431120  34.5015553  92.7058900  17.8422269
  35.9059523  92.1407265  17.8305102  38.3156570 101.6467153  20.5627806
  37.6418269 101.9498850  21.1712764  38.7022392 102.4496234  20.2133263
  37.5315027  89.1432285  30.0525476  36.6137588  89.3647232  29.8947164
  37.9475170  89.2178595  29.1937183  38.3150074  90.5423700  25.1828156
  39.0621893  91.0545098  24.8735278  38.5841664  90.2207753  26.0432550
  36.5876725  93.0382241  22.1655110  35.6787944  92.7541274  22.2627580
  36.6171808  93.4581320  21.3058417  41.8195992  96.6488831  25.9346278
  41.3658319  95.8079740  25.9911468  41.1889959  97.2850229  26.2721058
  40.7628912  87.5780817  27.1646945  40.0251668  87.0658203  27.4957188
  41.0155685  87.1381198  26.3530222  40.2628931  98.4865327  26.8696096
  40.5551906  99.0470384  26.1508462  40.7727552  98.7793888  27.6249255
  40.8640539  80.3557069  27.7588715  41.1699416  79.4954432  27.4714630
  41.5893144  80.9474689  27.5587708  27.1564895  90.7587755  26.1470312
  26.9589295  90.1657116  25.4221379  26.6011559  90.4539965  26.8646251
  35.1361619  90.6510862  28.2664906  35.1910228  89.6984698  28.1907382
  34.3252821  90.8070301  28.7506204  36.2852812  94.5790985  19.5043189
  35.8472242  93.8626844  19.0448826  37.0263253  94.8067100  18.9428280
  33.0753979  89.2687921  26.0255284  32.2621844  89.5682092  26.4320477
  33.5712973  88.8743610  26.7429767  35.2262556  99.2645678  27.9589549
  35.1838735  99.4906525  27.0298081  36.1425255  99.0309053  28.1075350
  38.6728190  89.7329746  34.8570178  39.0277578  89.9601219  35.7164644
  39.3200321  90.0648123  34.2347434  44.4025927  92.8548182  25.5619507
  44.2643826  93.0449778  24.6340697  44.0462146  93.6167565  26.0187559
  32.5668053  86.8406277  31.6416519  33.2067433  86.6995036  30.9439483
  31.7345584  86.5540790  31.2655121  44.4295307  94.9224709  30.5730779
  44.8631813  94.8299998  31.4213833  45.1426888  94.8982209  29.9350795
  33.3428357  96.1408707  27.7551512  34.1368956  95.6459027  27.5534087
  32.6320050  95.6126570  27.3919217  38.1623202  98.5226803  32.1063880
  38.2160224  99.0917739  32.8741595  37.2937983  98.6928688  31.7417917
  29.6511121  90.2851789  23.8311265  28.7208709  90.2236245  24.0481227
  29.7468593  89.7627742  23.0347906  29.5696670  86.8106602  26.4189506
  29.8303487  87.7251935  26.3098667  30.3913842  86.3431044  26.5686119
  31.0421595  88.2244359  33.5888331  31.7144649  88.0161721  32.9400980
  30.2151382  88.0266445  33.1493563  45.2910856  94.9648409  33.1063664
  45.4846746  95.8694220  33.3522939  45.1911475  94.5055828  33.9402249
  36.9447167  84.8506300  35.6053992  36.2975082  85.5496250  35.5118468
  37.7148183  85.2842444  35.9730240  40.3525965  95.1155152  38.6804545
  40.2011471  94.8865704  37.7634629  40.3430645  96.0725754  38.6935890
  37.1211301  92.6887065  33.6650811  38.0503361  92.8398225  33.4919779
  36.7002331  92.7771086  32.8099458  35.9199633  96.7137729  31.4349349
  35.7810719  96.3456514  32.3075287  35.1314229  97.2285369  31.2633307
  36.5147785 101.8146826  22.7774886  36.6899541 101.3434869  23.5920508
  35.8280573 102.4412592  23.0056146  37.4704848  96.0919332  28.8238187
  37.1354681  96.0520102  29.7195837  36.9708794  95.4264048  28.3508597
  31.4449092  91.4986962  34.3490768  31.3068890  90.7667201  34.9502307
  32.3554016  91.4095862  34.0674956  40.4064040  93.4375366  19.0975246
  39.7893211  92.7122195  19.0008299  39.9380529  94.1984727  18.7542321
  34.0731393  91.2106921  33.8374448  34.7831012  90.5700114  33.7961066
  34.0300701  91.4619816  34.7600628  42.0618172  98.1474275  36.7581027
  42.0030718  97.4633495  36.0911610  42.4637690  98.8893265  36.3061653
  32.7860327  88.1972139  35.6570087  32.2497684  87.7462878  36.3091683
  32.1977035  88.3318048  34.9140551  31.0808871 104.9636189  29.5514746
  31.3205469 105.5954713  30.2293764  30.2378067 104.6124229  29.8380105
  32.1962586  87.6560791  18.2196551  31.3192052  87.5349591  17.8558797
  32.6720339  86.8646869  17.9675439  42.0635579  96.1113859  34.9895006
  41.1762358  95.7739780  35.1121405  42.6334130  95.3796890  35.2263772
  23.7164726  92.4437950  28.3138058  24.4035766  92.1299680  27.7259073
  23.5612855  93.3479315  28.0405309  28.5199448  87.3328147  32.7423082
  28.4357637  86.7253817  32.0073491  27.6982155  87.8237165  32.7432578
  35.5936732 100.7715311  31.9556250  35.5206904 101.5770282  32.4675554
  35.1514125 100.9707277  31.1304271  35.3826512 100.0087081  25.4659071
  34.5994034 100.5508761  25.5597296  36.0819257 100.5261061  25.8653312
  38.6923162  85.8181710  28.1093277  39.1891862  85.0651673  27.7894347
  37.9210144  85.8546027  27.5436486  46.5452920  91.5222076  29.7511568
  46.5342796  92.4046791  29.3805501  45.6770299  91.1693627  29.5566105
  38.0535416 100.6702145  34.1114408  38.7663388 101.3049610  34.0390310
  37.5625445 100.7666011  33.2954410  39.7752943  94.5753398  25.6831700
  38.8409222  94.6954860  25.5136404  39.9529611  93.6725864  25.4191710
  35.2758131  87.9599093  27.8364961  34.9055918  87.4070134  28.5245867
  35.7717223  87.3557227  27.2839961  43.1625494  90.4170717  26.2181734
  43.6285946  91.2498709  26.1442037  43.6132995  89.9515699  26.9226993
  33.1047329  98.4196588  34.9319979  33.8056789  99.0533071  35.0849373
  32.6342444  98.7611320  34.1715618  41.2301725  96.7614538  23.2167886
  41.5061569  96.6471133  24.1261760  40.3606224  96.3632023  23.1780059
  41.1342157  82.7851304  30.2572635  40.2205237  83.0155531  30.4254842
  41.5635258  82.8689748  31.1086668  40.9048615  90.9741196  32.7572529
  40.2520066  91.2217103  32.1024982  41.2828995  90.1605334  32.4235007
  37.8655789 101.0100889  26.8600700  38.0478184 100.1922545  27.3228452
  38.6888775 101.2268581  26.4225590  38.1997955  99.9369074  24.1215748
  38.7285721  99.4261529  23.5085910  38.4626174  99.6211604  24.9861281
  36.9536188  91.7161007  39.2438567  36.2776825  91.6155136  39.9140942
  37.7763822  91.5600221  39.7074564  28.7015047  97.9532944  31.8651082
  29.2868484  97.2076631  31.9978986  28.5039886  98.2636900  32.7487746
  31.5553703 100.9884191  26.8813524  30.8864078 101.4730319  26.3977564
  31.4166572 101.2353411  27.7956903  23.2932702  90.5238544  30.5855525
  23.3316802  89.9902134  31.3792643  22.7872995  89.9973749  29.9666502
  35.6958971 103.0227934  33.4796183  36.2477279 103.1859556  34.2445268
  36.0365165 103.6132372  32.8076207  30.6723465  85.3703084  34.0818067
  30.7364791  86.2317915  33.6695465  30.6090585  84.7577086  33.3490426
  30.1475737  87.4426217  37.7291102  30.7747776  87.0603294  38.3428626
  29.2903656  87.2240419  38.0946794  40.5469846  97.8489192  39.3344837
  41.0909750  98.4619150  38.8399792  39.9656690  98.4068770  39.8511850
  26.9241280  89.2502646  23.6609456  27.2194721  88.3413324  23.6076510
  26.0229316  89.2290385  23.3390459  38.8327359 100.9709910  30.4659865
  38.7078498 100.1699650  29.9570810  39.4906450 101.4656103  29.9773835
  30.4535527  87.3258642  29.6437005  29.7322113  87.9394610  29.5044478
  31.2428783  87.8616407  29.5653651  40.8962267  98.7718930  32.0939415
  39.9492602  98.6524281  32.0217742  41.2445040  97.8841428  32.1765676
  33.2561840  84.6613069  35.9177657  33.7796242  84.9075366  36.6803966
  33.0374174  85.4933104  35.4980794  28.6529121  86.9316744  23.7848782
  28.3241828  86.0514122  23.6023887  29.0068492  86.8764412  24.6725171
  37.9008700  98.5671646  28.2943767  37.7533663  97.6388354  28.4751337
  38.7262194  98.5891737  27.8100842  31.7670945  87.2189713  24.1524259
  32.1067017  87.7475635  23.4302868  32.2143065  87.5570119  24.9282826
  41.5042822  99.3900205  29.3808640  42.4289370  99.1843066  29.2433091
  41.3358125  99.1416606  30.2897981  34.4614385  85.6026764  33.6027327
  34.1211206  84.8034577  34.0048007  33.7553392  85.9028475  33.0304160
  35.1130857  82.6876076  32.0554650  35.9356927  82.2136555  31.9333541
  35.3568921  83.4666560  32.5553337  33.7539092  85.7164335  22.3517552
  34.4747454  86.0945588  21.8481269  33.1304396  86.4353212  22.4552530
  37.8970215  86.4209484  23.2875884  38.1133829  87.3034122  22.9864712
  37.4164282  86.0295697  22.5581526  32.6369436  89.3795197  29.8646629
  32.4914017  89.6935500  30.7570910  32.1594640  89.9980097  29.3117528
  34.4965819  86.3697745  29.9127518  34.4827388  85.4738838  29.5759816
  35.2138247  86.3768409  30.5465804  36.3491950  86.8035085  31.9580646
  36.0909727  87.7252156  31.9564976  35.8176990  86.4065520  32.6481110
  41.2938138  99.9085872  24.7370731  41.4675016  99.3432295  23.9844584
  41.7867030 100.7086767  24.5550221  27.1115098  91.9200542  32.8034290
  26.5668566  92.6960350  32.9354564  27.9894448  92.2671346  32.6453411
  33.9002715  85.2512125  25.1815089  34.0218626  84.3228772  25.3805976
  33.6104757  85.2650811  24.2693404  36.7693905  82.9367036  28.3181808
  36.7915602  83.0006369  27.3633788  37.1861964  82.0971544  28.5122315
  47.1477529  92.6722295  26.3561031  47.5908676  91.9229621  25.9580154
  46.2704040  92.6632432  25.9734763  42.2813311  99.2252637  21.8367630
  42.9764215  99.8459330  22.0554944  42.6236461  98.3747988  22.1120007
  27.8981120  91.0470438  35.6964447  27.1562856  91.1953073  36.2829077
  27.5773864  91.3078703  34.8331196  44.1804734  96.6752342  23.3654960
  44.7056058  97.0139615  22.6404280  44.0927086  95.7399358  23.1818095
  35.8424783 100.5886416  35.4944837  36.1511909 100.3435563  36.3667537
  36.6400265 100.7933055  35.0063707  35.8645395 102.7424326  27.7250213
  35.4250385 102.2500704  28.4183070  36.6153512 102.1997293  27.4842289
  28.3437734  98.9335867  27.7274842  29.1695754  98.6339638  27.3473485
  27.9931786  98.1643489  28.1764630  33.3119267  98.2862335  29.7972515
  32.6899276  97.6233040  29.4974743  33.9824134  98.3123467  29.1146163
  26.5446339  96.8522193  28.6863775  25.7078247  96.4244367  28.5047776
  26.5169984  97.0454636  29.6234566  33.3843794  86.7644123  39.3905021
  33.4331950  87.6406246  39.0082791  33.9266309  86.2221516  38.8176664
  43.8698640  97.3085246  38.6706158  43.0794184  97.2909385  38.1310658
  43.6331995  97.8473540  39.4255195  43.9896515  94.1577712  35.9838887
  44.0394520  93.9927720  36.9254410  43.8810438  93.2904971  35.5936768
  32.8732774  96.8366258  23.2730976  33.0220894  97.5201722  22.6197648
  33.6799217  96.8171348  23.7880431  41.2800277  90.1408640  37.2998194
  42.1810140  90.0015105  37.0082191  41.3548252  90.3063095  38.2396371
  35.6143083  87.5175495  36.1451380  34.7446392  87.8109061  35.8733968
  35.8502563  88.1015940  36.8658643  45.4914712  96.5774654  36.2280908
  45.1999520  96.9404634  37.0644369  44.8786843  95.8641662  36.0494240
  46.6910394  94.1427534  28.7483479  47.5257286  94.5817338  28.9121039
  46.8269523  93.6666187  27.9291724  43.7401900  91.7007269  34.6960966
  44.2156022  91.8934915  33.8879818  42.8167465  91.7566454  34.4504350
  30.6285407  92.8631436  24.2792045  30.3831449  91.9593766  24.4772255
  30.7981321  92.8648586  23.3371523  38.3182117  83.7355112  33.6616800
  38.8364060  84.4716139  33.3363289  37.9637249  84.0419105  34.4963559
  29.8981054  88.5959793  21.7778206  29.2050299  88.6704148  21.1218242
  29.6532806  87.8320137  22.2999723  38.5694711  80.1555395  29.1817697
  38.8496465  79.4878584  29.8078123  39.3545318  80.3484490  28.6692361
  36.3728179  99.3314389  20.7442723  35.8002146  99.9504576  20.2913195
  36.9460973  99.8813750  21.2782645  42.4403569  88.5773029  32.9289272
  43.3920992  88.6771126  32.9501496  42.2707020  87.7851297  33.4387356
  40.4617949  85.6628612  33.1148673  39.8667881  85.9433625  32.4195161
  40.1767645  86.1522513  33.8865414  39.5925439  99.6151539  21.8751305
  40.5256112  99.5497100  22.0784181  39.5048652 100.4507806  21.4165838
  42.2213456  98.9317409  18.8355253  42.1427087  98.5977273  19.7291011
  43.0423122  99.4239177  18.8346725  44.9191647  91.7979148  32.0431572
  44.8867967  90.8595149  32.2291255  45.5292271  91.8763185  31.3097396
  36.7574978  90.6675201  18.0858776  37.7034082  90.5381409  18.1547194
  36.3789223  89.9289863  18.5628204  45.0686135  88.5890192  32.0889855
  44.5525184  87.8048648  31.9019784  45.9526084  88.2608908  32.2536374
  42.7296862  82.3331207  28.0485667  42.5321683  82.0246296  28.9328999
  43.3396568  83.0592846  28.1783597  50.7368197  92.8595155  31.1837608
  51.4671585  92.5980443  31.7445312  50.1275142  92.1223877  31.2239676
  48.8183494  91.0003018  31.7812060  48.0916657  90.8658983  31.1728551
  48.4030781  91.3079846  32.5868778  36.6413670  94.7192947  39.5459433
  37.5616680  94.8971546  39.7399479  36.6063253  93.7748993  39.3939132
  34.9417895  88.5925178  18.0213661  34.0349350  88.2958290  18.0976374
  35.2193876  88.2954996  17.1547947  25.8595835  89.9131541  28.4712707
  25.5398620  89.0596849  28.1787081  25.3129263  90.1280119  29.2270675
  29.6375743  92.6293982  32.1882214  29.8561753  93.5611090  32.2070248
  30.0501517  92.2701956  32.9737018  36.5579961  83.1362067  24.1757902
  35.7480689  82.7909152  24.5513148  37.2464378  82.8269611  24.7645514
  38.4870509  82.2140114  25.7982199  39.0401548  82.6335568  26.4572222
  38.7240595  81.2875862  25.8405155  34.5103608  88.2027188  41.5784963
  34.4100335  89.1521545  41.5097054  34.2925150  87.8745427  40.7061033
  33.7116680  85.4512113  18.1625640  34.5735844  85.7767011  18.4221457
  33.8967024  84.6643609  17.6498706  25.7284095  93.5334453  30.4405829
  25.0347567  93.1188405  29.9275783  26.4757086  93.5754989  29.8439248
  41.8649316  84.3240639  25.3060863  41.2847985  84.9825443  24.9238915
  41.5985249  83.5017984  24.8948281  40.3152882  83.7245697  27.5082183
  40.8152661  83.8362232  26.6996502  40.9588490  83.4206750  28.1482992
  34.3734878  91.6324327  40.3950024  33.8901960  92.4324687  40.6013913
  34.4595817  91.6432272  39.4417468  27.6420838  93.4652706  28.3171844
  27.6191526  93.5640394  27.3653727  27.9521474  94.3117857  28.6389010
  30.3008216  95.5228861  32.4318458  31.2551469  95.4912804  32.3648390
  30.1020739  95.0619485  33.2468684  30.8907598  94.0929977  34.9989256
  31.7100487  94.5874056  35.0224093  31.1644406  93.1761946  34.9706823
  40.6474194  86.4840730  24.3617211  39.7600049  86.7690380  24.1437406
  41.0628183  86.3234493  23.5144488  43.9988730  86.5087251  28.0771551
  44.7749120  86.9983703  28.3496167  43.2736864  86.9345305  28.5343420
  46.4361289  87.2214870  29.1345491  47.0305780  86.9810606  28.4238799
  46.5087872  86.5022001  29.7619027  28.6558444 101.0648481  29.4488656
  28.5212912 100.3048882  28.8826654  28.2390507 101.7889381  28.9817445
  39.7917407  96.2485404  18.4565231  40.4953258  96.4535407  19.0722887
  39.0680056  96.8162166  18.7214315  40.6215218  91.9995266  24.5767501
  40.5650419  92.4563817  23.7375134  41.1743560  91.2385950  24.3990344
  44.4320024  87.7884998  25.4017621  44.1756958  87.3881633  26.2325829
  43.8072892  88.5028791  25.2767760  48.7432362  90.5281071  27.9088912
  48.1831920  90.5974260  28.6820474  48.1375865  90.3522055  27.1888409
  31.8127570 101.9617798  29.6607099  31.6959954 102.9063230  29.5585789
  30.9920017 101.6591359  30.0492898  41.7004105  96.6867934  20.5063691
  42.5349709  96.2549132  20.3241166  41.5388448  96.5149947  21.4340586
  41.3549997  93.1900047  21.8720031  41.2998801  93.0244318  20.9308475
  40.7296052  93.8976080  22.0282220  26.1442512  88.4268111  35.6981453
  26.7901376  87.9167065  36.1868678  25.9359663  89.1636793  36.2724878
  38.6695904  95.4948959  41.1973593  39.5387064  95.6689611  40.8360228
  38.1902656  96.3143376  41.0749323  34.6646123  82.6908156  21.4505349
  34.6524792  83.6349996  21.6073620  35.5569544  82.5078301  21.1564810
  32.8382084 102.6146060  32.8763027  33.7409331 102.6469670  33.1929522
  32.6119455 101.6846511  32.8909363  34.5935686 101.3677046  29.5373106
  33.6431318 101.3678908  29.4237478  34.8968173 100.6209781  29.0209140
  38.4798242  79.2850933  25.7051286  37.7130638  78.7309419  25.8507968
  38.8908947  79.3572801  26.5665437  30.4840003  85.5735728  39.7956467
  31.3471465  85.2172533  40.0059792  29.9105414  85.2349623  40.4831871
  50.3288380 107.2037585  30.6018868  50.9666790 107.0844332  29.8982208
  50.2109223 108.1518429  30.6606820  47.1378086 107.1565013  30.5380393
  46.7996598 107.0406078  29.6500928  48.0067854 106.7556178  30.5181399
  42.9964902 109.0100489  26.5277284  42.4329767 108.9190426  25.7593571
  42.8817297 108.1900394  27.0079776  47.6197869 108.3099865  36.4966598
  47.6086510 107.9152663  35.6247102  47.7818509 107.5765937  37.0900370
  40.5429334 110.5051681  29.3661504  41.3350626 110.1642505  28.9507803
  40.7825984 110.6146656  30.2863658  48.5764461 112.6771457  21.8391749
  47.9252440 113.2625537  21.4525762  49.3708823 113.2077652  21.8986786
  42.5020088 109.7660594  22.2378883  43.2750964 109.2189581  22.0991759
  42.8545487 110.6304843  22.4493344  44.3405130 111.0936976  35.4445782
  44.0494996 111.9982607  35.3292449  44.9762115 111.1353504  36.1589852
  45.2661337 108.4713825  32.0347142  45.8624909 108.2469847  31.3204105
  45.3236309 107.7298570  32.6372590  44.8386366 105.9253260  19.8697333
  45.0911886 105.4034781  19.1080796  43.9010925 105.7619406  19.9724017
  49.8829648 104.9289039  27.6772076  50.6692738 104.5108462  27.3262493
  50.1468353 105.8335131  27.8453725  50.0539726 110.3661889  22.3760733
  49.4185559 110.4396515  23.0881638  49.7237132 110.9555488  21.6979812
  55.2838076 104.8664272  28.5805055  56.0163248 104.2963489  28.8142884
  54.5277431 104.4785872  29.0211560  44.5582654 107.8281366  22.0721708
  44.4418912 107.1526270  22.7402792  44.6684914 107.3413740  21.2553861
  46.9014195 107.2891513  25.7768397  46.5372403 106.7622134  26.4881319
  47.7581311 106.8989982  25.6034883  52.8063496  98.5785846  33.0399663
  52.4746821  99.4481257  32.8160878  52.2109109  98.2622130  33.7193694
  46.5419682 102.3181413  20.7729746  46.7094085 103.1861649  21.1400217
  46.3516851 102.4808695  19.8491035  49.2995015 110.7798392  32.4395576
  48.9995739 111.6823431  32.3311383  48.9546075 110.5130575  33.2916729
  42.7507497 107.2312189  28.4732280  41.8257993 107.0988403  28.6809972
  42.9991910 108.0106408  28.9702223  52.6992159 103.2980932  30.1193013
  51.7909037 103.2296340  29.8251774  52.6479755 103.7752877  30.9474839
  46.5208903 104.7739070  21.7576412  46.4008528 105.2196121  22.5961893
  45.8261492 105.1224388  21.1989951  40.1116308 106.8745462  29.3076069
  40.2408689 107.1279941  30.2215481  39.4313759 107.4673170  28.9880725
  44.2815795 117.5442712  25.4066544  44.2039825 118.4950537  25.4855024
  43.6777439 117.1988585  26.0641470  46.7733025 104.7170578  38.0627911
  45.9966359 105.2764498  38.0530775  47.4123588 105.2027361  38.5842781
  54.5653806 101.4997370  31.8970887  53.9228186 101.7929904  31.2510682
  54.0608734 101.3850291  32.7024084  52.2193969 105.2460544  22.5856746
  53.1311825 105.4787930  22.4104444  51.7103616 105.8297588  22.0231825
  45.0279397 107.5256031  37.6245878  45.7694082 108.0641075  37.3480701
  44.3216383 108.1522320  37.7817429  50.5034737 109.6685171  36.2218039
  50.9118093 109.2267582  35.4772671  49.7811998 109.0937799  36.4752232
  46.8565807 104.6057778  33.5951596  47.7027002 105.0297192  33.7386245
  46.7964445 103.9491403  34.2890159  50.8263552 110.2286362  29.9770328
  50.1972414 110.3932076  29.2746396  50.4389214 110.6427972  30.7481292
  54.7052784 111.1640800  27.3314692  54.0203822 111.5439701  26.7811725
  54.7896633 111.7736127  28.0646639  50.0065252 102.2662147  35.2532770
  49.7626184 103.0204207  34.7167045  50.2825183 102.6447494  36.0880017
  51.9603715 108.8100759  33.9310035  52.1720610 109.4532519  33.2544416
  51.9133463 107.9763076  33.4631965  49.5629944 101.4218580  30.8346607
  48.7014423 101.7199833  31.1263345  49.5892379 101.6388979  29.9027640
  46.3791514 109.9660770  27.2420413  46.8429859 110.2448473  26.4525036
  46.1148312 109.0644215  27.0593504  43.2715595 109.5132252  30.1800176
  43.8416952 109.9419520  29.5417661  43.8623706 109.2314836  30.8784362
  45.3160400 106.0883923  24.0509978  46.0184443 106.5404966  24.5183905
  44.9841028 105.4467741  24.6789871  43.7640761 104.6795679  38.4261188
  43.1339422 105.3611960  38.6596584  43.6576849 104.5678761  37.4814326
  39.0585734 104.3467475  29.3527112  38.2684788 104.6025004  28.8767222
  39.5496981 105.1615813  29.4579152  53.0749543 111.6872714  32.1032393
  53.8966987 111.2852902  31.8215074  53.0711946 111.5840949  33.0548508
  41.0100479 104.7112054  26.3110588  40.2131642 104.8230749  26.8294084
  40.7826071 105.0498707  25.4451479  46.8406147 111.2356758  34.2593103
  46.9050579 111.6977165  35.0951275  46.1317070 110.6054123  34.3875413
  37.3423437 104.5997966  31.7842103  37.5931475 105.4844976  32.0499678
  37.8782985 104.4202567  31.0117194  61.1655536 108.0311463  28.4517364
  60.4119245 107.4618861  28.2961368  61.3003077 107.9974127  29.3987999
  46.5554164 112.9024865  24.1272083  46.4199839 113.7476401  24.5556931
  47.0963977 113.1044143  23.3638017  43.0421504  98.9816445  40.7886439
  42.6488449  98.4282644  41.4634083  43.8587644  99.2927024  41.1792956
  40.0083562 110.4200303  24.7000008  40.5208082 111.2143553  24.8505573
  40.6606274 109.7226594  24.6333610  41.8178446 113.5366060  26.7822762
  41.9945075 114.4584024  26.5943746  42.6135280 113.2224479  27.2117141
  45.9589465 100.3974324  38.3806695  46.6999178 100.9981477  38.3011158
  46.1907388  99.6551962  37.8224738  41.1030803 105.5830691  36.6584925
  40.9884318 104.6815949  36.9592024  40.2475321 105.8294388  36.3069741
  48.1822641 113.5248432  38.2572425  47.7386495 112.7384810  37.9393330
  48.8439854 113.7127582  37.5916316  42.9409762 115.0544233  32.7833104
  43.4917187 114.9261297  32.0110098  42.1021238 115.3539122  32.4327997
  50.2803879 113.8051232  36.2853827  50.2622354 114.6260113  35.7934096
  51.2023799 113.6805307  36.5103968  46.7376933 111.3195361  37.1277335
  47.2705270 110.5583649  36.8976643  46.2091014 111.0269013  37.8701490
  49.9046628  96.4255427  32.6570977  49.5610897  97.3157069  32.5810087
  50.2725590  96.2357085  31.7940562  37.9732478 108.7488958  25.4759579
  38.8107700 109.1585966  25.2593287  38.1510746 107.8088400  25.4459773
  49.8696910 106.4164038  21.1643412  49.3543534 107.1868643  21.4031799
  49.5974219 105.7429174  21.7876473  47.4544022 101.2613739  26.2228650
  46.5985618 100.8720589  26.0434289  47.8670973 101.3405700  25.3628436
  48.9843168  98.7960082  30.6220210  48.4807964  98.7590217  29.8088015
  49.2773775  99.7052825  30.6816867  45.2286054  98.8798812  29.6286392
  46.0939051  98.6841621  29.2692281  45.2963563  98.6509164  30.5555749
  54.8431185 109.1696393  23.0996585  54.0660627 108.8307552  22.6551748
  55.5222666 109.1749016  22.4251551  49.6583214 104.2891130  22.9903193
  49.3533349 104.6037279  23.8413336  50.6113656 104.3672550  23.0330526
  48.1029646 110.4481354  24.6396147  47.5751007 109.7134113  24.3269385
  47.6017148 111.2256030  24.3936115  53.0822492 108.6430374  29.7563193
  52.4246166 109.3329635  29.8443322  53.8862891 109.0326806  30.0997180
  42.8348373 101.1101020  27.0002759  43.4092125 100.8876201  26.2675952
  43.4219356 101.1789714  27.7531360  51.8927950 106.9974747  27.8067135
  52.4059832 107.6304739  28.3088845  52.5429174 106.3975942  27.4410495
  43.1617960 103.1405481  21.0198644  42.3255272 103.4780167  21.3407919
  43.0222730 103.0054461  20.0825781  45.1371041  97.9842269  25.7277828
  44.4835453  97.6691286  25.1034443  45.0951515  97.3618009  26.4537651
  46.2482246 108.2661564  17.6431120  45.3409307 108.0350817  17.8422269
  46.7453278 107.4699183  17.8305102  49.1550325 116.9759071  20.5627806
  48.4812023 117.2790768  21.1712764  49.5416147 117.7788151  20.2133263
  48.3708781 104.4724202  30.0525476  47.4531343 104.6939149  29.8947164
  48.7868925 104.5470513  29.1937183  49.1543829 105.8715618  25.1828156
  49.9015648 106.3837015  24.8735278  49.4235418 105.5499671  26.0432550
  47.4270479 108.3674159  22.1655110  46.5181698 108.0833192  22.2627580
  47.4565563 108.7873237  21.3058417  52.6589747 111.9780748  25.9346278
  52.2052074 111.1371658  25.9911468  52.0283713 112.6142147  26.2721058
  51.6022666 102.9072734  27.1646945  50.8645423 102.3950120  27.4957188
  51.8549440 102.4673116  26.3530222  51.1022686 113.8157245  26.8696096
  51.3945660 114.3762302  26.1508462  51.6121306 114.1085806  27.6249255
  51.7034293  95.6848986  27.7588715  52.0093170  94.8246350  27.4714630
  52.4286898  96.2766606  27.5587708  37.9958650 106.0879673  26.1470312
  37.7983049 105.4949034  25.4221379  37.4405313 105.7831883  26.8646251
  45.9755373 105.9802779  28.2664906  46.0303983 105.0276616  28.1907382
  45.1646575 106.1362218  28.7506204  47.1246567 109.9082902  19.5043189
  46.6865997 109.1918761  19.0448826  47.8657008 110.1359017  18.9428280
  43.9147733 104.5979839  26.0255284  43.1015599 104.8974010  26.4320477
  44.4106727 104.2035528  26.7429767  46.0656311 114.5937596  27.9589549
  46.0232490 114.8198442  27.0298081  46.9819010 114.3600971  28.1075350
  49.5121945 105.0621664  34.8570178  49.8671332 105.2893137  35.7164644
  50.1594076 105.3940040  34.2347434  55.2419682 108.1840099  25.5619507
  55.1037580 108.3741695  24.6340697  54.8855901 108.9459482  26.0187559
  43.4061808 102.1698195  31.6416519  44.0461187 102.0286954  30.9439483
  42.5739338 101.8832708  31.2655121  55.2689061 110.2516626  30.5730779
  55.7025568 110.1591916  31.4213833  55.9820642 110.2274127  29.9350795
  44.1822112 111.4700625  27.7551512  44.9762710 110.9750945  27.5534087
  43.4713804 110.9418488  27.3919217  49.0016956 113.8518721  32.1063880
  49.0553978 114.4209657  32.8741595  48.1331738 114.0220606  31.7417917
  40.4904875 105.6143707  23.8311265  39.5602463 105.5528162  24.0481227
  40.5862347 105.0919660  23.0347906  40.4090424 102.1398520  26.4189506
  40.6697242 103.0543853  26.3098667  41.2307597 101.6722962  26.5686119
  41.8815350 103.5536277  33.5888331  42.5538403 103.3453639  32.9400980
  41.0545136 103.3558363  33.1493563  56.1304611 110.2940327  33.1063664
  56.3240501 111.1986138  33.3522939  56.0305229 109.8347746  33.9402249
  47.7840922 100.1798218  35.6053992  47.1368837 100.8788167  35.5118468
  48.5541937 100.6134362  35.9730240  51.1919720 110.4447070  38.6804545
  51.0405226 110.2157622  37.7634629  51.1824399 111.4017671  38.6935890
  47.9605056 108.0178983  33.6650811  48.8897116 108.1690142  33.4919779
  47.5396086 108.1063003  32.8099458  46.7593388 112.0429647  31.4349349
  46.6204473 111.6748431  32.3075287  45.9707984 112.5577286  31.2633307
  47.3541540 117.1438743  22.7774886  47.5293295 116.6726787  23.5920508
  46.6674328 117.7704510  23.0056146  48.3098603 111.4211250  28.8238187
  47.9748435 111.3812020  29.7195837  47.8102549 110.7555966  28.3508597
  42.2842847 106.8278880  34.3490768  42.1462645 106.0959119  34.9502307
  43.1947770 106.7387780  34.0674956  51.2457795 108.7667284  19.0975246
  50.6286965 108.0414112  19.0008299  50.7774283 109.5276644  18.7542321
  44.9125148 106.5398839  33.8374448  45.6224766 105.8992031  33.7961066
  44.8694456 106.7911734  34.7600628  52.9011926 113.4766192  36.7581027
  52.8424472 112.7925413  36.0911610  53.3031445 114.2185182  36.3061653
  43.6254081 103.5264057  35.6570087  43.0891439 103.0754795  36.3091683
  43.0370790 103.6609966  34.9140551  41.9202625 120.2928106  29.5514746
  42.1599223 120.9246630  30.2293764  41.0771821 119.9416146  29.8380105
  43.0356340 102.9852708  18.2196551  42.1585807 102.8641509  17.8558797
  43.5114094 102.1938787  17.9675439  52.9029333 111.4405776  34.9895006
  52.0156112 111.1031698  35.1121405  53.4727885 110.7088808  35.2263772
  34.5558481 107.7729868  28.3138058  35.2429520 107.4591598  27.7259073
  34.4006609 108.6771233  28.0405309  39.3593203 102.6620065  32.7423082
  39.2751391 102.0545734  32.0073491  38.5375909 103.1529083  32.7432578
  46.4330487 116.1007229  31.9556250  46.3600658 116.9062200  32.4675554
  45.9907880 116.2999194  31.1304271  46.2220266 115.3378999  25.4659071
  45.4387788 115.8800679  25.5597296  46.9213012 115.8552978  25.8653312
  49.5316917 101.1473628  28.1093277  50.0285616 100.3943590  27.7894347
  48.7603898 101.1837945  27.5436486  57.3846674 106.8513994  29.7511568
  57.3736550 107.7338709  29.3805501  56.5164053 106.4985545  29.5566105
  48.8929170 115.9994063  34.1114408  49.6057143 116.6341528  34.0390310
  48.4019199 116.0957929  33.2954410  50.6146697 109.9045315  25.6831700
  49.6802976 110.0246778  25.5136404  50.7923366 109.0017782  25.4191710
  46.1151885 103.2891011  27.8364961  45.7449673 102.7362052  28.5245867
  46.6110978 102.6849145  27.2839961  54.0019249 105.7462635  26.2181734
  54.4679701 106.5790626  26.1442037  54.4526749 105.2807616  26.9226993
  43.9441084 113.7488506  34.9319979  44.6450543 114.3824989  35.0849373
  43.4736199 114.0903238  34.1715618  52.0695480 112.0906456  23.2167886
  52.3455324 111.9763051  24.1261760  51.1999978 111.6923941  23.1780059
  51.9735911  98.1143222  30.2572635  51.0598991  98.3447448  30.4254842
  52.4029013  98.1981666  31.1086668  51.7442370 106.3033114  32.7572529
  51.0913820 106.5509021  32.1024982  52.1222750 105.4897252  32.4235007
  48.7049544 116.3392807  26.8600700  48.8871938 115.5214463  27.3228452
  49.5282530 116.5560499  26.4225590  49.0391709 115.2660992  24.1215748
  49.5679476 114.7553447  23.5085910  49.3019929 114.9503522  24.9861281
  47.7929943 107.0452925  39.2438567  47.1170580 106.9447054  39.9140942
  48.6157577 106.8892138  39.7074564  39.5408802 113.2824861  31.8651082
  40.1262239 112.5368549  31.9978986  39.3433640 113.5928818  32.7487746
  42.3947457 116.3176109  26.8813524  41.7257832 116.8022236  26.3977564
  42.2560327 116.5645329  27.7956903  34.1326457 105.8530461  30.5855525
  34.1710556 105.3194052  31.3792643  33.6266750 105.3265667  29.9666502
  46.5352726 118.3519852  33.4796183  47.0871034 118.5151474  34.2445268
  46.8758919 118.9424290  32.8076207  41.5117219 100.6995002  34.0818067
  41.5758545 101.5609833  33.6695465  41.4484339 100.0869004  33.3490426
  40.9869492 102.7718134  37.7291102  41.6141530 102.3895212  38.3428626
  40.1297410 102.5532336  38.0946794  51.3863600 113.1781110  39.3344837
  51.9303504 113.7911068  38.8399792  50.8050445 113.7360688  39.8511850
  37.7635034 104.5794564  23.6609456  38.0588475 103.6705242  23.6076510
  36.8623070 104.5582303  23.3390459  49.6721113 116.3001828  30.4659865
  49.5472253 115.4991567  29.9570810  50.3300204 116.7948021  29.9773835
  41.2929281 102.6550560  29.6437005  40.5715867 103.2686528  29.5044478
  42.0822537 103.1908325  29.5653651  51.7356021 114.1010848  32.0939415
  50.7886357 113.9816199  32.0217742  52.0838795 113.2133346  32.1765676
  44.0955595  99.9904987  35.9177657  44.6189997 100.2367283  36.6803966
  43.8767928 100.8225021  35.4980794  39.4922876 102.2608661  23.7848782
  39.1635582 101.3806040  23.6023887  39.8462247 102.2056330  24.6725171
  48.7402455 113.8963564  28.2943767  48.5927417 112.9680271  28.4751337
  49.5655948 113.9183655  27.8100842  42.6064699 102.5481631  24.1524259
  42.9460772 103.0767552  23.4302868  43.0536820 102.8862037  24.9282826
  52.3436577 114.7192123  29.3808640  53.2683124 114.5134984  29.2433091
  52.1751880 114.4708524  30.2897981  45.3008140 100.9318682  33.6027327
  44.9604960 100.1326495  34.0048007  44.5947146 101.2320393  33.0304160
  45.9524612  98.0167994  32.0554650  46.7750681  97.5428472  31.9333541
  46.1962675  98.7958478  32.5553337  44.5932846 101.0456253  22.3517552
  45.3141209 101.4237505  21.8481269  43.9698150 101.7645129  22.4552530
  48.7363969 101.7501402  23.2875884  48.9527583 102.6326039  22.9864712
  48.2558036 101.3587615  22.5581526  43.4763190 104.7087115  29.8646629
  43.3307771 105.0227418  30.7570910  42.9988394 105.3272015  29.3117528
  45.3359573 101.6989663  29.9127518  45.3221142 100.8030756  29.5759816
  46.0532001 101.7060327  30.5465804  47.1885704 102.1327003  31.9580646
  46.9303482 103.0544074  31.9564976  46.6570744 101.7357438  32.6481110
  52.1331893 115.2377790  24.7370731  52.3068770 114.6724213  23.9844584
  52.6260784 116.0378685  24.5550221  37.9508853 107.2492459  32.8034290
  37.4062321 108.0252267  32.9354564  38.8288202 107.5963264  32.6453411
  44.7396469 100.5804043  25.1815089  44.8612380  99.6520689  25.3805976
  44.4498512 100.5942729  24.2693404  47.6087660  98.2658954  28.3181808
  47.6309356  98.3298287  27.3633788  48.0255719  97.4263462  28.5122315
  57.9871284 108.0014213  26.3561031  58.4302430 107.2521538  25.9580154
  57.1097794 107.9924349  25.9734763  53.1207065 114.5544555  21.8367630
  53.8157970 115.1751247  22.0554944  53.4630215 113.7039906  22.1120007
  38.7374874 106.3762355  35.6964447  37.9956610 106.5244991  36.2829077
  38.4167619 106.6370621  34.8331196  55.0198488 112.0044260  23.3654960
  55.5449812 112.3431533  22.6404280  54.9320841 111.0691275  23.1818095
  46.6818537 115.9178334  35.4944837  46.9905664 115.6727480  36.3667537
  47.4794019 116.1224972  35.0063707  46.7039149 118.0716243  27.7250213
  46.2644139 117.5792622  28.4183070  47.4547266 117.5289211  27.4842289
  39.1831488 114.2627784  27.7274842  40.0089508 113.9631556  27.3473485
  38.8325540 113.4935407  28.1764630  44.1513021 113.6154252  29.7972515
  43.5293031 112.9524957  29.4974743  44.8217888 113.6415384  29.1146163
  37.3840093 112.1814111  28.6863775  36.5472001 111.7536285  28.5047776
  37.3563739 112.3746554  29.6234566  44.2237549 102.0936040  39.3905021
  44.2725704 102.9698163  39.0082791  44.7660063 101.5513434  38.8176664
  54.7092394 112.6377164  38.6706158  53.9187938 112.6201303  38.1310658
  54.4725749 113.1765457  39.4255195  54.8290270 109.4869630  35.9838887
  54.8788274 109.3219638  36.9254410  54.7204193 108.6196889  35.5936768
  43.7126528 112.1658176  23.2730976  43.8614649 112.8493640  22.6197648
  44.5192972 112.1463266  23.7880431  52.1194032 105.4700558  37.2998194
  53.0203895 105.3307023  37.0082191  52.1942006 105.6355013  38.2396371
  46.4536837 102.8467413  36.1451380  45.5840147 103.1400979  35.8733968
  46.6896318 103.4307858  36.8658643  56.3308466 111.9066572  36.2280908
  56.0393275 112.2696552  37.0644369  55.7180598 111.1933580  36.0494240
  57.5304149 109.4719451  28.7483479  58.3651040 109.9109255  28.9121039
  57.6663277 108.9958105  27.9291724  54.5795655 107.0299186  34.6960966
  55.0549776 107.2226833  33.8879818  53.6561220 107.0858372  34.4504350
  41.4679161 108.1923353  24.2792045  41.2225203 107.2885683  24.4772255
  41.6375076 108.1940504  23.3371523  49.1575871  99.0647030  33.6616800
  49.6757815  99.8008057  33.3363289  48.8031004  99.3711023  34.4963559
  40.7374809 103.9251711  21.7778206  40.0444054 103.9996066  21.1218242
  40.4926561 103.1612055  22.2999723  49.4088465  95.4847312  29.1817697
  49.6890219  94.8170501  29.8078123  50.1939072  95.6776408  28.6692361
  47.2121934 114.6606306  20.7442723  46.6395901 115.2796493  20.2913195
  47.7854727 115.2105668  21.2782645  53.2797324 103.9064946  32.9289272
  54.2314746 104.0063044  32.9501496  53.1100774 103.1143215  33.4387356
  51.3011703 100.9920530  33.1148673  50.7061635 101.2725542  32.4195161
  51.0161400 101.4814430  33.8865414  50.4319194 114.9443456  21.8751305
  51.3649867 114.8789018  22.0784181  50.3442406 115.7799723  21.4165838
  53.0607210 114.2609327  18.8355253  52.9820842 113.9269190  19.7291011
  53.8816877 114.7531095  18.8346725  55.7585401 107.1271066  32.0431572
  55.7261721 106.1887067  32.2291255  56.3686025 107.2055103  31.3097396
  47.5968732 105.9967119  18.0858776  48.5427837 105.8673327  18.1547194
  47.2182977 105.2581781  18.5628204  55.9079890 103.9182109  32.0889855
  55.3918939 103.1340566  31.9019784  56.7919838 103.5900826  32.2536374
  53.5690617  97.6623125  28.0485667  53.3715438  97.3538213  28.9328999
  54.1790322  98.3884764  28.1783597  61.5761951 108.1887073  31.1837608
  62.3065340 107.9272361  31.7445312  60.9668897 107.4515795  31.2239676
  59.6577248 106.3294935  31.7812060  58.9310412 106.1950900  31.1728551
  59.2424535 106.6371764  32.5868778  47.4807425 110.0484865  39.5459433
  48.4010434 110.2263464  39.7399479  47.4457008 109.1040910  39.3939132
  45.7811649 103.9217095  18.0213661  44.8743105 103.6250208  18.0976374
  46.0587630 103.6246913  17.1547947  36.6989590 105.2423459  28.4712707
  36.3792374 104.3888767  28.1787081  36.1523018 105.4572037  29.2270675
  40.4769497 107.9585900  32.1882214  40.6955507 108.8903008  32.2070248
  40.8895271 107.5993874  32.9737018  47.3973715  98.4653985  24.1757902
  46.5874443  98.1201070  24.5513148  48.0858132  98.1561529  24.7645514
  49.3264263  97.5432032  25.7982199  49.8795302  97.9627485  26.4572222
  49.5634350  96.6167780  25.8405155  45.3497363 103.5319106  41.5784963
  45.2494090 104.4813462  41.5097054  45.1318905 103.2037344  40.7061033
  44.5510434 100.7804031  18.1625640  45.4129598 101.1058929  18.4221457
  44.7360778  99.9935526  17.6498706  36.5677850 108.8626370  30.4405829
  35.8741321 108.4480323  29.9275783  37.3150841 108.9046907  29.8439248
  52.7043070  99.6532557  25.3060863  52.1241740 100.3117361  24.9238915
  52.4379003  98.8309902  24.8948281  51.1546637  99.0537615  27.5082183
  51.6546415  99.1654149  26.6996502  51.7982245  98.7498668  28.1482992
  45.2128633 106.9616244  40.3950024  44.7295714 107.7616604  40.6013913
  45.2989572 106.9724189  39.4417468  38.4814592 108.7944624  28.3171844
  38.4585280 108.8932311  27.3653727  38.7915229 109.6409775  28.6389010
  41.1401970 110.8520779  32.4318458  42.0945224 110.8204721  32.3648390
  40.9414494 110.3911403  33.2468684  41.7301352 109.4221895  34.9989256
  42.5494241 109.9165974  35.0224093  42.0038160 108.5053863  34.9706823
  51.4867949 101.8132647  24.3617211  50.5993804 102.0982298  24.1437406
  51.9021938 101.6526411  23.5144488  54.8382485 101.8379168  28.0771551
  55.6142875 102.3275621  28.3496167  54.1130619 102.2637223  28.5343420
  57.2755043 102.5506788  29.1345491  57.8699534 102.3102524  28.4238799
  57.3481627 101.8313918  29.7619027  39.4952199 116.3940399  29.4488656
  39.3606667 115.6340799  28.8826654  39.0784261 117.1181298  28.9817445
  50.6311162 111.5777322  18.4565231  51.3347012 111.7827325  19.0722887
  49.9073811 112.1454084  18.7214315  51.4608972 107.3287183  24.5767501
  51.4044174 107.7855735  23.7375134  52.0137315 106.5677868  24.3990344
  55.2713778 103.1176915  25.4017621  55.0150712 102.7173551  26.2325829
  54.6466646 103.8320709  25.2767760  59.5826116 105.8572988  27.9088912
  59.0225674 105.9266178  28.6820474  58.9769619 105.6813973  27.1888409
  42.6521325 117.2909716  29.6607099  42.5353709 118.2355148  29.5585789
  41.8313771 116.9883277  30.0492898  52.5397859 112.0159851  20.5063691
  53.3743463 111.5841050  20.3241166  52.3782202 111.8441865  21.4340586
  52.1943752 108.5191965  21.8720031  52.1392555 108.3536236  20.9308475
  51.5689807 109.2267998  22.0282220  36.9836267 103.7560029  35.6981453
  37.6295130 103.2458983  36.1868678  36.7753418 104.4928711  36.2724878
  49.5089659 110.8240876  41.1973593  50.3780818 110.9981529  40.8360228
  49.0296410 111.6435293  41.0749323  45.5039877  98.0200074  21.4505349
  45.4918547  98.9641914  21.6073620  46.3963299  97.8370219  21.1564810
  43.6775839 117.9437977  32.8763027  44.5803086 117.9761588  33.1929522
  43.4513209 117.0138428  32.8909363  45.4329441 116.6968964  29.5373106
  44.4825072 116.6970826  29.4237478  45.7361927 115.9501699  29.0209140
  49.3191996  94.6142850  25.7051286  48.5524392  94.0601337  25.8507968
  49.7302701  94.6864719  26.5665437  41.3233758 100.9027646  39.7956467
  42.1865219 100.5464451  40.0059792  40.7499168 100.5641541  40.4831871
  61.1682134 122.5329502  30.6018868  61.8060544 122.4136250  29.8982208
  61.0502977 123.4810346  30.6606820  57.9771841 122.4856931  30.5380393
  57.6390352 122.3697995  29.6500928  58.8461609 122.0848096  30.5181399
  53.8358656 124.3392407  26.5277284  53.2723522 124.2482344  25.7593571
  53.7211051 123.5192311  27.0079776  58.4591624 123.6391782  36.4966598
  58.4480265 123.2444581  35.6247102  58.6212263 122.9057855  37.0900370
  51.3823088 125.8343599  29.3661504  52.1744380 125.4934423  28.9507803
  51.6219739 125.9438574  30.2863658  59.4158215 128.0063375  21.8391749
  58.7646195 128.5917455  21.4525762  60.2102578 128.5369570  21.8986786
  53.3413842 125.0952512  22.2378883  54.1144718 124.5481499  22.0991759
  53.6939241 125.9596761  22.4493344  55.1798885 126.4228894  35.4445782
  54.8888751 127.3274525  35.3292449  55.8155869 126.4645422  36.1589852
  56.1055092 123.8005743  32.0347142  56.7018664 123.5761765  31.3204105
  56.1630063 123.0590488  32.6372590  55.6780120 121.2545178  19.8697333
  55.9305641 120.7326699  19.1080796  54.7404679 121.0911323  19.9724017
  60.7223403 120.2580956  27.6772076  61.5086492 119.8400379  27.3262493
  60.9862107 121.1627048  27.8453725  60.8933480 125.6953807  22.3760733
  60.2579313 125.7688433  23.0881638  60.5630887 126.2847405  21.6979812
  66.1231830 120.1956189  28.5805055  66.8557002 119.6255406  28.8142884
  65.3671186 119.8077790  29.0211560  55.3976409 123.1573284  22.0721708
  55.2812667 122.4818187  22.7402792  55.5078669 122.6705658  21.2553861
  57.7407950 122.6183431  25.7768397  57.3766157 122.0914052  26.4881319
  58.5975066 122.2281900  25.6034883  63.6457250 113.9077764  33.0399663
  63.3140575 114.7773175  32.8160878  63.0502864 113.5914048  33.7193694
  57.3813437 117.6473331  20.7729746  57.5487839 118.5153567  21.1400217
  57.1910606 117.8100612  19.8491035  60.1388770 126.1090310  32.4395576
  59.8389493 127.0115348  32.3311383  59.7939829 125.8422493  33.2916729
  53.5901251 122.5604106  28.4732280  52.6651748 122.4280321  28.6809972
  53.8385665 123.3398326  28.9702223  63.5385914 118.6272850  30.1193013
  62.6302791 118.5588258  29.8251774  63.4873510 119.1044795  30.9474839
  57.3602658 120.1030988  21.7576412  57.2402283 120.5488039  22.5961893
  56.6655246 120.4516306  21.1989951  50.9510062 122.2037380  29.3076069
  51.0802444 122.4571859  30.2215481  50.2707514 122.7965088  28.9880725
  55.1209550 132.8734630  25.4066544  55.0433579 133.8242455  25.4855024
  54.5171193 132.5280502  26.0641470  57.6126780 120.0462495  38.0627911
  56.8360114 120.6056415  38.0530775  58.2517343 120.5319278  38.5842781
  65.4047560 116.8289288  31.8970887  64.7621940 117.1221821  31.2510682
  64.9002489 116.7142208  32.7024084  63.0587724 120.5752461  22.5856746
  63.9705580 120.8079848  22.4104444  62.5497371 121.1589506  22.0231825
  55.8673152 122.8547949  37.6245878  56.6087836 123.3932993  37.3480701
  55.1610137 123.4814237  37.7817429  61.3428491 124.9977089  36.2218039
  61.7511848 124.5559500  35.4772671  60.6205753 124.4229717  36.4752232
  57.6959562 119.9349696  33.5951596  58.5420757 120.3589109  33.7386245
  57.6358199 119.2783320  34.2890159  61.6657306 125.5578280  29.9770328
  61.0366169 125.7223994  29.2746396  61.2782968 125.9719889  30.7481292
  65.5446538 126.4932718  27.3314692  64.8597576 126.8731619  26.7811725
  65.6290387 127.1028044  28.0646639  60.8459007 117.5954064  35.2532770
  60.6019939 118.3496125  34.7167045  61.1218937 117.9739412  36.0880017
  62.7997470 124.1392677  33.9310035  63.0114365 124.7824437  33.2544416
  62.7527218 123.3054993  33.4631965  60.4023699 116.7510497  30.8346607
  59.5408178 117.0491751  31.1263345  60.4286133 116.9680896  29.9027640
  57.2185268 125.2952688  27.2420413  57.6823614 125.5740391  26.4525036
  56.9542066 124.3936132  27.0593504  54.1109349 124.8424169  30.1800176
  54.6810706 125.2711438  29.5417661  54.7017461 124.5606754  30.8784362
  56.1554154 121.4175840  24.0509978  56.8578197 121.8696884  24.5183905
  55.8234783 120.7759659  24.6789871  54.6034516 120.0087597  38.4261188
  53.9733176 120.6903878  38.6596584  54.4970603 119.8970678  37.4814326
  49.8979488 119.6759393  29.3527112  49.1078542 119.9316921  28.8767222
  50.3890735 120.4907731  29.4579152  63.9143298 127.0164632  32.1032393
  64.7360741 126.6144819  31.8215074  63.9105700 126.9132866  33.0548508
  51.8494233 120.0403972  26.3110588  51.0525397 120.1522666  26.8294084
  51.6219826 120.3790624  25.4451479  57.6799901 126.5648675  34.2593103
  57.7444334 127.0269083  35.0951275  56.9710825 125.9346040  34.3875413
  48.1817191 119.9289883  31.7842103  48.4325229 120.8136893  32.0499678
  48.7176739 119.7494485  31.0117194  72.0049291 123.3603381  28.4517364
  71.2512999 122.7910779  28.2961368  72.1396832 123.3266045  29.3987999
  57.3947919 128.2316783  24.1272083  57.2593593 129.0768319  24.5556931
  57.9357731 128.4336061  23.3638017  53.8815258 114.3108363  40.7886439
  53.4882204 113.7574561  41.4634083  54.6981399 114.6218941  41.1792956
  50.8477316 125.7492221  24.7000008  51.3601837 126.5435471  24.8505573
  51.5000029 125.0518511  24.6333610  52.6572201 128.8657977  26.7822762
  52.8338829 129.7875942  26.5943746  53.4529034 128.5516396  27.2117141
  56.7983219 115.7266242  38.3806695  57.5392933 116.3273395  38.3011158
  57.0301142 114.9843880  37.8224738  51.9424557 120.9122609  36.6584925
  51.8278072 120.0107866  36.9592024  51.0869075 121.1586306  36.3069741
  59.0216395 128.8540349  38.2572425  58.5780249 128.0676728  37.9393330
  59.6833609 129.0419500  37.5916316  53.7803516 130.3836151  32.7833104
  54.3310941 130.2553214  32.0110098  52.9414992 130.6831040  32.4327997
  61.1197633 129.1343149  36.2853827  61.1016108 129.9552030  35.7934096
  62.0417553 129.0097225  36.5103968  57.5770687 126.6487279  37.1277335
  58.1099024 125.8875567  36.8976643  57.0484768 126.3560931  37.8701490
  60.7440382 111.7547345  32.6570977  60.4004652 112.6448986  32.5810087
  61.1119345 111.5649002  31.7940562  48.8126233 124.0780875  25.4759579
  49.6501455 124.4877884  25.2593287  48.9904501 123.1380317  25.4459773
  60.7090665 121.7455956  21.1643412  60.1937288 122.5160560  21.4031799
  60.4367973 121.0721092  21.7876473  58.2937776 116.5905657  26.2228650
  57.4379372 116.2012507  26.0434289  58.7064728 116.6697617  25.3628436
  59.8236923 114.1252000  30.6220210  59.3201718 114.0882135  29.8088015
  60.1167530 115.0344743  30.6816867  56.0679809 114.2090730  29.6286392
  56.9332805 114.0133538  29.2692281  56.1357317 113.9801081  30.5555749
  65.6824939 124.4988311  23.0996585  64.9054382 124.1599470  22.6551748
  66.3616420 124.5040934  22.4251551  60.4976968 119.6183048  22.9903193
  60.1927104 119.9329197  23.8413336  61.4507410 119.6964468  23.0330526
  58.9423400 125.7773271  24.6396147  58.4144762 125.0426031  24.3269385
  58.4410903 126.5547948  24.3936115  63.9216246 123.9722292  29.7563193
  63.2639920 124.6621553  29.8443322  64.7256645 124.3618724  30.0997180
  53.6742128 116.4392938  27.0002759  54.2485880 116.2168119  26.2675952
  54.2613110 116.5081632  27.7531360  62.7321705 122.3266664  27.8067135
  63.2453587 122.9596656  28.3088845  63.3822929 121.7267860  27.4410495
  54.0011715 118.4697399  21.0198644  53.1649027 118.8072085  21.3407919
  53.8616484 118.3346378  20.0825781  55.9764795 113.3134186  25.7277828
  55.3229208 112.9983204  25.1034443  55.9345269 112.6909927  26.4537651
  57.0876000 123.5953482  17.6431120  56.1803062 123.3642735  17.8422269
  57.5847032 122.7991101  17.8305102  59.9944079 132.3050989  20.5627806
  59.3205778 132.6082685  21.1712764  60.3809901 133.1080069  20.2133263
  59.2102536 119.8016120  30.0525476  58.2925097 120.0231067  29.8947164
  59.6262679 119.8762430  29.1937183  59.9937583 121.2007536  25.1828156
  60.7409402 121.7128933  24.8735278  60.2629173 120.8791588  26.0432550
  58.2664234 123.6966076  22.1655110  57.3575453 123.4125109  22.2627580
  58.2959317 124.1165155  21.3058417  63.4983501 127.3072666  25.9346278
  63.0445828 126.4663576  25.9911468  62.8677468 127.9434064  26.2721058
  62.4416421 118.2364652  27.1646945  61.7039177 117.7242038  27.4957188
  62.6943194 117.7965034  26.3530222  61.9416440 129.1449163  26.8696096
  62.2339415 129.7054220  26.1508462  62.4515061 129.4377724  27.6249255
  62.5428048 111.0140904  27.7588715  62.8486925 110.1538267  27.4714630
  63.2680653 111.6058524  27.5587708  48.8352404 121.4171591  26.1470312
  48.6376804 120.8240951  25.4221379  48.2799068 121.1123801  26.8646251
  56.8149128 121.3094697  28.2664906  56.8697737 120.3568533  28.1907382
  56.0040330 121.4654136  28.7506204  57.9640321 125.2374820  19.5043189
  57.5259751 124.5210679  19.0448826  58.7050762 125.4650935  18.9428280
  54.7541488 119.9271757  26.0255284  53.9409353 120.2265927  26.4320477
  55.2500482 119.5327446  26.7429767  56.9050065 129.9229514  27.9589549
  56.8626244 130.1490360  27.0298081  57.8212764 129.6892888  28.1075350
  60.3515699 120.3913581  34.8570178  60.7065087 120.6185054  35.7164644
  60.9987830 120.7231958  34.2347434  66.0813436 123.5132017  25.5619507
  65.9431335 123.7033613  24.6340697  65.7249655 124.2751400  26.0187559
  54.2455562 117.4990112  31.6416519  54.8854942 117.3578871  30.9439483
  53.4133093 117.2124626  31.2655121  66.1082816 125.5808544  30.5730779
  66.5419322 125.4883833  31.4213833  66.8214397 125.5566045  29.9350795
  55.0215866 126.7992543  27.7551512  55.8156465 126.3042863  27.5534087
  54.3107559 126.2710406  27.3919217  59.8410711 129.1810638  32.1063880
  59.8947733 129.7501575  32.8741595  58.9725492 129.3512523  31.7417917
  51.3298630 120.9435624  23.8311265  50.3996218 120.8820080  24.0481227
  51.4256102 120.4211577  23.0347906  51.2484179 117.4690437  26.4189506
  51.5090996 118.3835771  26.3098667  52.0701351 117.0014880  26.5686119
  52.7209104 118.8828194  33.5888331  53.3932158 118.6745557  32.9400980
  51.8938891 118.6850280  33.1493563  66.9698365 125.6232245  33.1063664
  67.1634255 126.5278055  33.3522939  66.8698984 125.1639664  33.9402249
  58.6234676 115.5090135  35.6053992  57.9762591 116.2080085  35.5118468
  59.3935691 115.9426279  35.9730240  62.0313474 125.7738988  38.6804545
  61.8798980 125.5449539  37.7634629  62.0218154 126.7309589  38.6935890
  58.7998810 123.3470900  33.6650811  59.7290870 123.4982060  33.4919779
  58.3789840 123.4354921  32.8099458  57.5987142 127.3721565  31.4349349
  57.4598228 127.0040349  32.3075287  56.8101738 127.8869204  31.2633307
  58.1935294 132.4730661  22.7774886  58.3687050 132.0018704  23.5920508
  57.5068082 133.0996427  23.0056146  59.1492357 126.7503167  28.8238187
  58.8142190 126.7103937  29.7195837  58.6496303 126.0847883  28.3508597
  53.1236601 122.1570797  34.3490768  52.9856399 121.4251036  34.9502307
  54.0341525 122.0679698  34.0674956  62.0851549 124.0959202  19.0975246
  61.4680720 123.3706030  19.0008299  61.6168037 124.8568562  18.7542321
  55.7518902 121.8690757  33.8374448  56.4618521 121.2283949  33.7961066
  55.7088210 122.1203652  34.7600628  63.7405681 128.8058110  36.7581027
  63.6818227 128.1217330  36.0911610  64.1425199 129.5477100  36.3061653
  54.4647836 118.8555975  35.6570087  53.9285193 118.4046713  36.3091683
  53.8764544 118.9901883  34.9140551  53.8750095 118.3144626  18.2196551
  52.9979561 118.1933427  17.8558797  54.3507848 117.5230704  17.9675439
  63.7423088 126.7697694  34.9895006  62.8549867 126.4323616  35.1121405
  64.3121639 126.0380725  35.2263772  45.3952235 123.1021786  28.3138058
  46.0823275 122.7883516  27.7259073  45.2400364 124.0063150  28.0405309
  50.1986957 117.9911982  32.7423082  50.1145146 117.3837652  32.0073491
  49.3769664 118.4821001  32.7432578  57.2724241 131.4299146  31.9556250
  57.1994413 132.2354118  32.4675554  56.8301634 131.6291112  31.1304271
  57.0614021 130.6670916  25.4659071  56.2781543 131.2092597  25.5597296
  57.7606766 131.1844896  25.8653312  60.3710671 116.4765546  28.1093277
  60.8679371 115.7235508  27.7894347  59.5997653 116.5129862  27.5436486
  68.2240428 122.1805911  29.7511568  68.2130305 123.0630627  29.3805501
  67.3557808 121.8277462  29.5566105  59.7322925 131.3285980  34.1114408
  60.4450897 131.9633445  34.0390310  59.2412954 131.4249846  33.2954410
  61.4540452 125.2337233  25.6831700  60.5196731 125.3538696  25.5136404
  61.6317120 124.3309700  25.4191710  56.9545640 118.6182929  27.8364961
  56.5843427 118.0653969  28.5245867  57.4504732 118.0141062  27.2839961
  64.8413003 121.0754552  26.2181734  65.3073455 121.9082544  26.1442037
  65.2920504 120.6099534  26.9226993  54.7834838 129.0780424  34.9319979
  55.4844298 129.7116907  35.0849373  54.3129953 129.4195155  34.1715618
  62.9089234 127.4198374  23.2167886  63.1849078 127.3054968  24.1261760
  62.0393733 127.0215858  23.1780059  62.8129666 113.4435139  30.2572635
  61.8992746 113.6739366  30.4254842  63.2422767 113.5273583  31.1086668
  62.5836124 121.6325031  32.7572529  61.9307575 121.8800939  32.1024982
  62.9616504 120.8189169  32.4235007  59.5443298 131.6684724  26.8600700
  59.7265693 130.8506380  27.3228452  60.3676284 131.8852417  26.4225590
  59.8785464 130.5952910  24.1215748  60.4073230 130.0845364  23.5085910
  60.1413683 130.2795440  24.9861281  58.6323697 122.3744842  39.2438567
  57.9564334 122.2738972  39.9140942  59.4551331 122.2184056  39.7074564
  50.3802556 128.6116779  31.8651082  50.9655993 127.8660467  31.9978986
  50.1827395 128.9220736  32.7487746  53.2341212 131.6468026  26.8813524
  52.5651587 132.1314154  26.3977564  53.0954081 131.8937247  27.7956903
  44.9720211 121.1822379  30.5855525  45.0104311 120.6485970  31.3792643
  44.4660504 120.6557585  29.9666502  57.3746480 133.6811770  33.4796183
  57.9264788 133.8443391  34.2445268  57.7152674 134.2716208  32.8076207
  52.3510973 116.0286920  34.0818067  52.4152300 116.8901751  33.6695465
  52.2878094 115.4160921  33.3490426  51.8263246 118.1010052  37.7291102
  52.4535285 117.7187129  38.3428626  50.9691165 117.8824254  38.0946794
  62.2257355 128.5073027  39.3344837  62.7697259 129.1202986  38.8399792
  61.6444199 129.0652606  39.8511850  48.6028789 119.9086481  23.6609456
  48.8982230 118.9997160  23.6076510  47.7016825 119.8874221  23.3390459
  60.5114868 131.6293745  30.4659865  60.3866007 130.8283485  29.9570810
  61.1693959 132.1239939  29.9773835  52.1323036 117.9842478  29.6437005
  51.4109622 118.5978446  29.5044478  52.9216292 118.5200243  29.5653651
  62.5749776 129.4302765  32.0939415  61.6280111 129.3108117  32.0217742
  62.9232549 128.5425263  32.1765676  54.9349349 115.3196904  35.9177657
  55.4583751 115.5659201  36.6803966  54.7161683 116.1516939  35.4980794
  50.3316630 117.5900579  23.7848782  50.0029337 116.7097958  23.6023887
  50.6856001 117.5348248  24.6725171  59.5796209 129.2255482  28.2943767
  59.4321172 128.2972189  28.4751337  60.4049703 129.2475572  27.8100842
  53.4458454 117.8773549  24.1524259  53.7854526 118.4059470  23.4302868
  53.8930574 118.2153955  24.9282826  63.1830331 130.0484040  29.3808640
  64.1076879 129.8426902  29.2433091  63.0145634 129.8000442  30.2897981
  56.1401894 116.2610599  33.6027327  55.7998715 115.4618412  34.0048007
  55.4340901 116.5612310  33.0304160  56.7918366 113.3459912  32.0554650
  57.6144435 112.8720390  31.9333541  57.0356430 114.1250396  32.5553337
  55.4326601 116.3748170  22.3517552  56.1534963 116.7529423  21.8481269
  54.8091905 117.0937047  22.4552530  59.5757724 117.0793319  23.2875884
  59.7921338 117.9617957  22.9864712  59.0951791 116.6879533  22.5581526
  54.3156945 120.0379033  29.8646629  54.1701526 120.3519336  30.7570910
  53.8382149 120.6563933  29.3117528  56.1753328 117.0281580  29.9127518
  56.1614897 116.1322674  29.5759816  56.8925756 117.0352244  30.5465804
  58.0279459 117.4618921  31.9580646  57.7697236 118.3835991  31.9564976
  57.4964499 117.0649355  32.6481110  62.9725647 130.5669708  24.7370731
  63.1462525 130.0016130  23.9844584  63.4654539 131.3670603  24.5550221
  48.7902607 122.5784377  32.8034290  48.2456075 123.3544185  32.9354564
  49.6681957 122.9255181  32.6453411  55.5790224 115.9095961  25.1815089
  55.7006135 114.9812607  25.3805976  55.2892266 115.9234647  24.2693404
  58.4481414 113.5950871  28.3181808  58.4703111 113.6590204  27.3633788
  58.8649473 112.7555380  28.5122315  68.8265038 123.3306131  26.3561031
  69.2696184 122.5813456  25.9580154  67.9491549 123.3216267  25.9734763
  63.9600820 129.8836472  21.8367630  64.6551724 130.5043165  22.0554944
  64.3023970 129.0331823  22.1120007  49.5768629 121.7054273  35.6964447
  48.8350365 121.8536909  36.2829077  49.2561373 121.9662539  34.8331196
  65.8592243 127.3336178  23.3654960  66.3843567 127.6723451  22.6404280
  65.7714595 126.3983193  23.1818095  57.5212292 131.2470251  35.4944837
  57.8299418 131.0019398  36.3667537  58.3187774 131.4516890  35.0063707
  57.5432904 133.4008161  27.7250213  57.1037894 132.9084540  28.4183070
  58.2941021 132.8581129  27.4842289  50.0225243 129.5919702  27.7274842
  50.8483263 129.2923474  27.3473485  49.6719295 128.8227324  28.1764630
  54.9906776 128.9446170  29.7972515  54.3686785 128.2816875  29.4974743
  55.6611643 128.9707302  29.1146163  48.2233848 127.5106028  28.6863775
  47.3865756 127.0828203  28.5047776  48.1957493 127.7038472  29.6234566
  55.0631303 117.4227958  39.3905021  55.1119459 118.2990081  39.0082791
  55.6053817 116.8805351  38.8176664  65.5486149 127.9669081  38.6706158
  64.7581693 127.9493220  38.1310658  65.3119504 128.5057375  39.4255195
  65.6684024 124.8161548  35.9838887  65.7182029 124.6511555  36.9254410
  65.5597947 123.9488807  35.5936768  54.5520283 127.4950093  23.2730976
  54.7008403 128.1785558  22.6197648  55.3586726 127.4755184  23.7880431
  62.9587786 120.7992476  37.2998194  63.8597649 120.6598941  37.0082191
  63.0335761 120.9646931  38.2396371  57.2930592 118.1759331  36.1451380
  56.4233901 118.4692897  35.8733968  57.5290072 118.7599776  36.8658643
  67.1702221 127.2358489  36.2280908  66.8787029 127.5988470  37.0644369
  66.5574352 126.5225498  36.0494240  68.3697903 124.8011369  28.7483479
  69.2044795 125.2401173  28.9121039  68.5057032 124.3250022  27.9291724
  65.4189409 122.3591104  34.6960966  65.8943531 122.5518750  33.8879818
  64.4954974 122.4150290  34.4504350  52.3072916 123.5215271  24.2792045
  52.0618958 122.6177601  24.4772255  52.4768830 123.5232422  23.3371523
  59.9969626 114.3938947  33.6616800  60.5151569 115.1299974  33.3363289
  59.6424758 114.7002941  34.4963559  51.5768563 119.2543629  21.7778206
  50.8837808 119.3287984  21.1218242  51.3320315 118.4903972  22.2999723
  60.2482220 110.8139230  29.1817697  60.5283974 110.1462419  29.8078123
  61.0332827 111.0068326  28.6692361  58.0515688 129.9898224  20.7442723
  57.4789655 130.6088411  20.2913195  58.6248482 130.5397586  21.2782645
  64.1191078 119.2356864  32.9289272  65.0708501 119.3354962  32.9501496
  63.9494528 118.4435133  33.4387356  62.1405458 116.3212447  33.1148673
  61.5455390 116.6017460  32.4195161  61.8555154 116.8106348  33.8865414
  61.2712948 130.2735374  21.8751305  62.2043621 130.2080936  22.0784181
  61.1836161 131.1091641  21.4165838  63.9000965 129.5901244  18.8355253
  63.8214596 129.2561108  19.7291011  64.7210631 130.0823012  18.8346725
  66.5979156 122.4562984  32.0431572  66.5655476 121.5178984  32.2291255
  67.2079780 122.5347020  31.3097396  58.4362487 121.3259037  18.0858776
  59.3821591 121.1965245  18.1547194  58.0576732 120.5873699  18.5628204
  66.7473644 119.2474027  32.0889855  66.2312693 118.4632484  31.9019784
  67.6313593 118.9192744  32.2536374  64.4084371 112.9915043  28.0485667
  64.2109192 112.6830131  28.9328999  65.0184077 113.7176682  28.1783597
  72.4155706 123.5178991  31.1837608  73.1459094 123.2564279  31.7445312
  71.8062651 122.7807712  31.2239676  70.4971003 121.6586853  31.7812060
  69.7704166 121.5242818  31.1728551  70.0818290 121.9663682  32.5868778
  58.3201179 125.3776783  39.5459433  59.2404189 125.5555382  39.7399479
  58.2850762 124.4332828  39.3939132  56.6205404 119.2509013  18.0213661
  55.7136859 118.9542126  18.0976374  56.8981385 118.9538831  17.1547947
  47.5383344 120.5715376  28.4712707  47.2186129 119.7180685  28.1787081
  46.9916772 120.7863955  29.2270675  51.3163252 123.2877817  32.1882214
  51.5349262 124.2194925  32.2070248  51.7289026 122.9285792  32.9737018
  58.2367470 113.7945903  24.1757902  57.4268198 113.4492988  24.5513148
  58.9251887 113.4853446  24.7645514  60.1658018 112.8723950  25.7982199
  60.7189057 113.2919403  26.4572222  60.4028104 111.9459698  25.8405155
  56.1891117 118.8611023  41.5784963  56.0887844 119.8105380  41.5097054
  55.9712659 118.5329262  40.7061033  55.3904189 116.1095948  18.1625640
  56.2523353 116.4350847  18.4221457  55.5754533 115.3227444  17.6498706
  47.4071604 124.1918288  30.4405829  46.7135076 123.7772241  29.9275783
  48.1544595 124.2338824  29.8439248  63.5436825 114.9824475  25.3060863
  62.9635494 115.6409279  24.9238915  63.2772758 114.1601819  24.8948281
  61.9940391 114.3829532  27.5082183  62.4940170 114.4946067  26.6996502
  62.6375999 114.0790585  28.1482992  56.0522387 122.2908162  40.3950024
  55.5689469 123.0908522  40.6013913  56.1383326 122.3016107  39.4417468
  49.3208347 124.1236542  28.3171844  49.2979035 124.2224229  27.3653727
  49.6308983 124.9701693  28.6389010  51.9795725 126.1812697  32.4318458
  52.9338978 126.1496639  32.3648390  51.7808248 125.7203320  33.2468684
  52.5695107 124.7513813  34.9989256  53.3887996 125.2457891  35.0224093
  52.8431915 123.8345781  34.9706823  62.3261703 117.1424565  24.3617211
  61.4387558 117.4274216  24.1437406  62.7415692 116.9818328  23.5144488
  65.6776239 117.1671086  28.0771551  66.4536629 117.6567539  28.3496167
  64.9524373 117.5929140  28.5343420  68.1148798 117.8798705  29.1345491
  68.7093289 117.6394441  28.4238799  68.1875381 117.1605836  29.7619027
  50.3345953 131.7232316  29.4488656  50.2000421 130.9632717  28.8826654
  49.9178016 132.4473216  28.9817445  61.4704916 126.9069240  18.4565231
  62.1740767 127.1119242  19.0722887  60.7467565 127.4746002  18.7214315
  62.3002727 122.6579101  24.5767501  62.2437928 123.1147652  23.7375134
  62.8531069 121.8969786  24.3990344  66.1107533 118.4468833  25.4017621
  65.8544467 118.0465469  26.2325829  65.4860401 119.1612627  25.2767760
  70.4219871 121.1864906  27.9088912  69.8619428 121.2558095  28.6820474
  69.8163374 121.0105891  27.1888409  53.4915079 132.6201633  29.6607099
  53.3747463 133.5647066  29.5585789  52.6707526 132.3175195  30.0492898
  63.3791614 127.3451769  20.5063691  64.2137218 126.9132967  20.3241166
  63.2175957 127.1733783  21.4340586  63.0337506 123.8483882  21.8720031
  62.9786310 123.6828154  20.9308475  62.4083561 124.5559915  22.0282220
  47.8230021 119.0851947  35.6981453  48.4688885 118.5750901  36.1868678
  47.6147172 119.8220628  36.2724878  60.3483413 126.1532794  41.1973593
  61.2174573 126.3273446  40.8360228  59.8690165 126.9727211  41.0749323
  56.3433632 113.3491991  21.4505349  56.3312301 114.2933831  21.6073620
  57.2357053 113.1662137  21.1564810  54.5169593 133.2729895  32.8763027
  55.4196840 133.3053505  33.1929522  54.2906964 132.3430346  32.8909363
  56.2723195 132.0260882  29.5373106  55.3218826 132.0262743  29.4237478
  56.5755682 131.2793616  29.0209140  60.1585751 109.9434768  25.7051286
  59.3918147 109.3893255  25.8507968  60.5696456 110.0156637  26.5665437
  52.1627512 116.2319564  39.7956467  53.0258974 115.8756369  40.0059792
  51.5892923 115.8933459  40.4831871  72.0075889 137.8621420  30.6018868
  72.6454299 137.7428167  29.8982208  71.8896732 138.8102264  30.6606820
  68.8165595 137.8148848  30.5380393  68.4784107 137.6989913  29.6500928
  69.6855363 137.4140013  30.5181399  64.6752411 139.6684325  26.5277284
  64.1117276 139.5774262  25.7593571  64.5604806 138.8484229  27.0079776
  69.2985378 138.9683700  36.4966598  69.2874019 138.5736498  35.6247102
  69.4606018 138.2349773  37.0900370  66.9448846 139.1297660  32.0347142
  67.5412418 138.9053683  31.3204105  67.0023818 138.3882406  32.6372590
  71.5617157 135.5872874  27.6772076  72.3480247 135.1692297  27.3262493
  71.8255862 136.4918966  27.8453725  76.9625585 135.5248107  28.5805055
  77.6950757 134.9547324  28.8142884  76.2064940 135.1369708  29.0211560
  68.5801704 137.9475349  25.7768397  68.2159912 137.4205970  26.4881319
  69.4368820 137.5573818  25.6034883  74.4851005 129.2369681  33.0399663
  74.1534330 130.1065092  32.8160878  73.8896618 128.9205965  33.7193694
  70.9782524 141.4382227  32.4395576  70.6783248 142.3407266  32.3311383
  70.6333584 141.1714410  33.2916729  64.4295006 137.8896024  28.4732280
  63.5045502 137.7572238  28.6809972  64.6779419 138.6690243  28.9702223
  74.3779668 133.9564767  30.1193013  73.4696546 133.8880176  29.8251774
  74.3267264 134.4336712  30.9474839  61.7903817 137.5329298  29.3076069
  61.9196198 137.7863777  30.2215481  61.1101268 138.1257006  28.9880725
  68.4520534 135.3754413  38.0627911  67.6753868 135.9348333  38.0530775
  69.0911097 135.8611196  38.5842781  76.2441315 132.1581206  31.8970887
  75.6015695 132.4513739  31.2510682  75.7396243 132.0434126  32.7024084
  66.7066906 138.1839866  37.6245878  67.4481591 138.7224910  37.3480701
  66.0003892 138.8106155  37.7817429  72.1822246 140.3269007  36.2218039
  72.5905602 139.8851417  35.4772671  71.4599507 139.7521634  36.4752232
  68.5353316 135.2641614  33.5951596  69.3814511 135.6881027  33.7386245
  68.4751954 134.6075238  34.2890159  72.5051061 140.8870197  29.9770328
  71.8759923 141.0515912  29.2746396  72.1176723 141.3011807  30.7481292
  71.6852761 132.9245982  35.2532770  71.4413693 133.6788042  34.7167045
  71.9612692 133.3031330  36.0880017  73.6391224 139.4684594  33.9310035
  73.8508119 140.1116354  33.2544416  73.5920972 138.6346911  33.4631965
  71.2417453 132.0802415  30.8346607  70.3801932 132.3783669  31.1263345
  71.2679888 132.2972814  29.9027640  68.0579022 140.6244606  27.2420413
  68.5217368 140.9032309  26.4525036  67.7935821 139.7228050  27.0593504
  66.9947909 136.7467758  24.0509978  67.6971952 137.1988802  24.5183905
  66.6628537 136.1051577  24.6789871  65.4428270 135.3379515  38.4261188
  64.8126931 136.0195795  38.6596584  65.3364358 135.2262596  37.4814326
  60.7373243 135.0051311  29.3527112  59.9472296 135.2608839  28.8767222
  61.2284490 135.8199648  29.4579152  74.7537052 142.3456550  32.1032393
  75.5754496 141.9436737  31.8215074  74.7499455 142.2424784  33.0548508
  62.6887988 135.3695890  26.3110588  61.8919151 135.4814584  26.8294084
  62.4613580 135.7082542  25.4451479  59.0210945 135.2581801  31.7842103
  59.2718984 136.1428811  32.0499678  59.5570494 135.0786403  31.0117194
  64.7209013 129.6400280  40.7886439  64.3275958 129.0866479  41.4634083
  65.5375153 129.9510859  41.1792956  67.6376974 131.0558159  38.3806695
  68.3786687 131.6565313  38.3011158  67.8694897 130.3135797  37.8224738
  62.7818312 136.2414527  36.6584925  62.6671827 135.3399784  36.9592024
  61.9262830 136.4878224  36.3069741  71.5834137 127.0839262  32.6570977
  71.2398406 127.9740904  32.5810087  71.9513099 126.8940920  31.7940562
  69.1331531 131.9197574  26.2228650  68.2773127 131.5304425  26.0434289
  69.5458482 131.9989535  25.3628436  70.6630677 129.4543918  30.6220210
  70.1595473 129.4174053  29.8088015  70.9561284 130.3636660  30.6816867
  66.9073563 129.5382647  29.6286392  67.7726560 129.3425456  29.2692281
  66.9751072 129.3092999  30.5555749  74.7610001 139.3014209  29.7563193
  74.1033675 139.9913471  29.8443322  75.5650400 139.6910641  30.0997180
  64.5135882 131.7684855  27.0002759  65.0879634 131.5460037  26.2675952
  65.1006865 131.8373550  27.7531360  73.5715459 137.6558582  27.8067135
  74.0847341 138.2888574  28.3088845  74.2216683 137.0559778  27.4410495
  66.8158550 128.6426104  25.7277828  66.1622962 128.3275121  25.1034443
  66.7739024 128.0201845  26.4537651  70.0496290 135.1308038  30.0525476
  69.1318852 135.3522985  29.8947164  70.4656434 135.2054348  29.1937183
  73.2810175 133.5656570  27.1646945  72.5432932 133.0533956  27.4957188
  73.5336949 133.1256951  26.3530222  73.3821802 126.3432822  27.7588715
  73.6880679 125.4830185  27.4714630  74.1074407 126.9350442  27.5587708
  59.6746158 136.7463508  26.1470312  59.4770558 136.1532869  25.4221379
  59.1192822 136.4415718  26.8646251  67.6542882 136.6386615  28.2664906
  67.7091492 135.6860451  28.1907382  66.8434084 136.7946054  28.7506204
  65.5935242 135.2563674  26.0255284  64.7803108 135.5557845  26.4320477
  66.0894236 134.8619363  26.7429767  71.1909454 135.7205499  34.8570178
  71.5458841 135.9476972  35.7164644  71.8381585 136.0523876  34.2347434
  65.0849317 132.8282030  31.6416519  65.7248696 132.6870789  30.9439483
  64.2526847 132.5416543  31.2655121  62.1692384 136.2727542  23.8311265
  61.2389972 136.2111998  24.0481227  62.2649856 135.7503495  23.0347906
  62.0877933 132.7982355  26.4189506  62.3484751 133.7127688  26.3098667
  62.9095106 132.3306797  26.5686119  63.5602859 134.2120112  33.5888331
  64.2325912 134.0037474  32.9400980  62.7332645 134.0142198  33.1493563
  77.8092120 140.9524162  33.1063664  78.0028010 141.8569973  33.3522939
  77.7092738 140.4931582  33.9402249  69.4628431 130.8382053  35.6053992
  68.8156346 131.5372003  35.5118468  70.2329446 131.2718197  35.9730240
  72.8707229 141.1030905  38.6804545  72.7192735 140.8741457  37.7634629
  72.8611908 142.0601507  38.6935890  69.6392565 138.6762818  33.6650811
  70.5684625 138.8273978  33.4919779  69.2183595 138.7646839  32.8099458
  63.9630356 137.4862715  34.3490768  63.8250154 136.7542954  34.9502307
  64.8735279 137.3971615  34.0674956  66.5912656 137.1982674  33.8374448
  67.3012275 136.5575867  33.7961066  66.5481965 137.4495569  34.7600628
  65.3041590 134.1847892  35.6570087  64.7678947 133.7338631  36.3091683
  64.7158299 134.3193801  34.9140551  74.5816842 142.0989612  34.9895006
  73.6943621 141.7615533  35.1121405  75.1515394 141.3672643  35.2263772
  61.0380712 133.3203900  32.7423082  60.9538900 132.7129570  32.0073491
  60.2163418 133.8112918  32.7432578  71.2104426 131.8057464  28.1093277
  71.7073125 131.0527426  27.7894347  70.4391407 131.8421780  27.5436486
  79.0634183 137.5097829  29.7511568  79.0524059 138.3922544  29.3805501
  78.1951562 137.1569380  29.5566105  67.7939394 133.9474847  27.8364961
  67.4237182 133.3945887  28.5245867  68.2898487 133.3432980  27.2839961
  73.6523420 128.7727057  30.2572635  72.7386500 129.0031284  30.4254842
  74.0816522 128.8565501  31.1086668  73.4229879 136.9616949  32.7572529
  72.7701329 137.2092856  32.1024982  73.8010259 136.1481087  32.4235007
  69.4717452 137.7036760  39.2438567  68.7958089 137.6030889  39.9140942
  70.2945086 137.5475974  39.7074564  55.8113966 136.5114297  30.5855525
  55.8498065 135.9777887  31.3792643  55.3054259 135.9849502  29.9666502
  63.1904728 131.3578837  34.0818067  63.2546054 132.2193668  33.6695465
  63.1271848 130.7452839  33.3490426  62.6657001 133.4301970  37.7291102
  63.2929039 133.0479047  38.3428626  61.8084919 133.2116172  38.0946794
  59.4422543 135.2378399  23.6609456  59.7375984 134.3289077  23.6076510
  58.5410579 135.2166138  23.3390459  62.9716790 133.3134396  29.6437005
  62.2503376 133.9270363  29.5044478  63.7610046 133.8492160  29.5653651
  65.7743104 130.6488822  35.9177657  66.2977506 130.8951119  36.6803966
  65.5555437 131.4808857  35.4980794  61.1710385 132.9192497  23.7848782
  60.8423091 132.0389876  23.6023887  61.5249756 132.8640165  24.6725171
  64.2852208 133.2065466  24.1524259  64.6248281 133.7351388  23.4302868
  64.7324328 133.5445873  24.9282826  66.9795649 131.5902517  33.6027327
  66.6392469 130.7910330  34.0048007  66.2734655 131.8904228  33.0304160
  67.6312121 128.6751830  32.0554650  68.4538190 128.2012308  31.9333541
  67.8750184 129.4542313  32.5553337  66.2720355 131.7040088  22.3517552
  66.9928718 132.0821341  21.8481269  65.6485659 132.4228965  22.4552530
  70.4151478 132.4085237  23.2875884  70.6315092 133.2909875  22.9864712
  69.9345545 132.0171450  22.5581526  65.1550699 135.3670950  29.8646629
  65.0095280 135.6811253  30.7570910  64.6775903 135.9855851  29.3117528
  67.0147082 132.3573498  29.9127518  67.0008651 131.4614591  29.5759816
  67.7319510 132.3644162  30.5465804  68.8673213 132.7910838  31.9580646
  68.6090991 133.7127909  31.9564976  68.3358253 132.3941273  32.6481110
  66.4183978 131.2387878  25.1815089  66.5399889 130.3104525  25.3805976
  66.1286021 131.2526564  24.2693404  69.2875169 128.9242789  28.3181808
  69.3096865 128.9882122  27.3633788  69.7043228 128.0847298  28.5122315
  60.4162383 137.0346191  35.6964447  59.6744119 137.1828826  36.2829077
  60.0955128 137.2954456  34.8331196  65.9025058 132.7519876  39.3905021
  65.9513213 133.6281999  39.0082791  66.4447572 132.2097269  38.8176664
  76.3879903 143.2960999  38.6706158  75.5975447 143.2785138  38.1310658
  76.1513258 143.8349293  39.4255195  76.5077778 140.1453465  35.9838887
  76.5575783 139.9803473  36.9254410  76.3991702 139.2780724  35.5936768
  73.7981541 136.1284393  37.2998194  74.6991404 135.9890858  37.0082191
  73.8729515 136.2938848  38.2396371  68.1324346 133.5051248  36.1451380
  67.2627656 133.7984814  35.8733968  68.3683827 134.0891693  36.8658643
  78.0095975 142.5650407  36.2280908  77.7180784 142.9280388  37.0644369
  77.3968107 141.8517415  36.0494240  76.2583164 137.6883022  34.6960966
  76.7337285 137.8810668  33.8879818  75.3348729 137.7442207  34.4504350
  63.1466670 138.8507189  24.2792045  62.9012712 137.9469519  24.4772255
  63.3162585 138.8524339  23.3371523  70.8363380 129.7230865  33.6616800
  71.3545324 130.4591892  33.3363289  70.4818513 130.0294858  34.4963559
  62.4162318 134.5835546  21.7778206  61.7231563 134.6579901  21.1218242
  62.1714070 133.8195890  22.2999723  71.0875974 126.1431148  29.1817697
  71.3677728 125.4754337  29.8078123  71.8726581 126.3360243  28.6692361
  74.9584833 134.5648782  32.9289272  75.9102255 134.6646879  32.9501496
  74.7888283 133.7727050  33.4387356  72.9799212 131.6504365  33.1148673
  72.3849144 131.9309378  32.4195161  72.6948909 132.1398266  33.8865414
  77.4372910 137.7854901  32.0431572  77.4049230 136.8470902  32.2291255
  78.0473534 137.8638938  31.3097396  77.5867399 134.5765945  32.0889855
  77.0706447 133.7924401  31.9019784  78.4707347 134.2484661  32.2536374
  75.2478126 128.3206960  28.0485667  75.0502947 128.0122049  28.9328999
  75.8577831 129.0468599  28.1783597  83.2549460 138.8470908  31.1837608
  83.9852849 138.5856196  31.7445312  82.6456406 138.1099630  31.2239676
  81.3364757 136.9878771  31.7812060  80.6097921 136.8534736  31.1728551
  80.9212044 137.2955599  32.5868778  69.1594934 140.7068700  39.5459433
  70.0797943 140.8847299  39.7399479  69.1244517 139.7624746  39.3939132
  58.3777099 135.9007294  28.4712707  58.0579883 135.0472602  28.1787081
  57.8310527 136.1155872  29.2270675  69.0761224 129.1237820  24.1757902
  68.2661952 128.7784905  24.5513148  69.7645641 128.8145364  24.7645514
  71.0051772 128.2015867  25.7982199  71.5582811 128.6211321  26.4572222
  71.2421859 127.2751615  25.8405155  67.0284872 134.1902941  41.5784963
  66.9281599 135.1397298  41.5097054  66.8106414 133.8621180  40.7061033
  74.3830579 130.3116392  25.3060863  73.8029249 130.9701196  24.9238915
  74.1166512 129.4893737  24.8948281  72.8334146 129.7121450  27.5082183
  73.3333924 129.8237985  26.6996502  73.4769754 129.4082503  28.1482992
  66.8916142 137.6200080  40.3950024  66.4083223 138.4200440  40.6013913
  66.9777081 137.6308025  39.4417468  73.1655457 132.4716483  24.3617211
  72.2781313 132.7566133  24.1437406  73.5809447 132.3110246  23.5144488
  76.5169994 132.4963004  28.0771551  77.2930384 132.9859456  28.3496167
  75.7918128 132.9221058  28.5343420  78.9542552 133.2090623  29.1345491
  79.5487043 132.9686359  28.4238799  79.0269136 132.4897754  29.7619027
  58.6623776 134.4143864  35.6981453  59.3082639 133.9042818  36.1868678
  58.4540927 135.1512546  36.2724878  71.1877168 141.4824712  41.1973593
  72.0568327 141.6565364  40.8360228  70.7083919 142.3019129  41.0749323
  67.1827386 128.6783909  21.4505349  67.1706056 129.6225749  21.6073620
  68.0750808 128.4954054  21.1564810  70.9979505 125.2726686  25.7051286
  70.2311901 124.7185172  25.8507968  71.4090210 125.3448554  26.5665437
  63.0021267 131.5611481  39.7956467  63.8652728 131.2048286  40.0059792
  62.4286677 131.2225376  40.4831871  15.6641378  44.5434801  24.9817732
  15.2205233  43.7571180  24.6638637  16.3258592  44.7313952  24.3161623
  17.7622616  44.8237601  23.0099133  17.7441092  45.6446482  22.5179403
  18.6842536  44.6991676  23.2349275  14.2195671  42.3381731  23.8522642
  14.7524007  41.5770019  23.6221950  13.6909752  42.0455382  24.5946796
  23.6123349  41.3126697  19.8308971  23.8059239  42.2172507  20.0768246
  23.5123967  40.8534116  20.6647556  18.6738457  41.4633439  25.4049852
  18.5223964  41.2343991  24.4879935  18.6643137  42.4204041  25.4181197
  20.3830664  44.4952562  23.4826333  20.3243210  43.8111782  22.8156916
  20.7850182  45.2371552  23.0306959  20.3848071  42.4592146  21.7140313
  19.4974850  42.1218068  21.8366712  20.9546622  41.7275177  21.9509078
  16.3747908  47.0180432  20.8359715  17.0875880  47.6527897  20.7635616
  15.8837937  47.1144298  20.0199717  15.2748681  38.0639294  25.9683873
  14.5989318  37.9633424  26.6386248  16.0976315  37.9078508  26.4319870
  14.0171464  49.3706222  20.2041489  14.5689772  49.5337843  20.9690574
  14.3577657  49.9610660  19.5321514  18.8682338  44.1967479  26.0590144
  19.4122242  44.8097437  25.5645098  18.2869183  44.7547058  26.5757157
  14.1637275  46.9364703  22.2190144  14.4724401  46.6913850  23.0912843
  14.9612757  47.1411342  21.7309014  22.1911132  43.6563533  25.3951465
  21.4006676  43.6387672  24.8555964  21.9544487  44.1951827  26.1500501
  22.3109007  40.5056000  22.7084193  22.3607012  40.3406007  23.6499716
  22.2022931  39.6383259  22.3182074  19.6012770  36.4886928  24.0243500
  20.5022632  36.3493393  23.7327498  19.6760744  36.6541383  24.9641678
  23.8127204  42.9252941  22.9526215  23.5212012  43.2882922  23.7889676
  23.1999335  42.2119949  22.7739547  14.9626163  41.0671235  26.2704739
  15.8829172  41.2449834  26.4644786  14.9275746  40.1227280  26.1184439
  12.6947370  37.9802614  27.1195331  12.2114452  38.7802974  27.3259220
  12.7808310  37.9910559  26.1662775  16.9908397  41.8427246  27.9218900
  17.8599556  42.0167898  27.5605535  16.5115148  42.6621663  27.7994629
  28.6500872  53.5515872  17.3264175  29.2879282  53.4322619  16.6227515
  28.5321715  54.4996716  17.3852127  25.4590579  53.5043300  17.2625699
  25.1209090  53.3884365  16.3746234  26.3280347  53.1034465  17.2426706
  25.9410362  54.6578152  23.2211905  25.9299002  54.2630950  22.3492409
  26.1031001  53.9244224  23.8145676  18.8641826  56.8529968  16.0906811
  19.6563118  56.5120793  15.6753110  19.1038476  56.9624943  17.0108964
  26.8976953  59.0249744   8.5637055  26.2464933  59.6103825   8.1771069
  27.6921316  59.5555939   8.6232093  22.6617623  57.4415264  22.1691089
  22.3707489  58.3460894  22.0537755  23.2974607  57.4831791  22.8835158
  23.5873830  54.8192112  18.7592449  24.1837402  54.5948135  18.0449412
  23.6448801  54.0776858  19.3617896  28.2042141  51.2767326  14.4017383
  28.9905230  50.8586749  14.0507800  28.4680845  52.1813418  14.5699031
  33.6050568  51.2142559  15.3050361  34.3375740  50.6441776  15.5388191
  32.8489924  50.8264159  15.7456867  25.2226688  53.6369801  12.5013704
  24.8584895  53.1100421  13.2126625  26.0793804  53.2468270  12.3280189
  31.1275988  44.9264133  19.7644970  30.7959313  45.7959544  19.5406185
  30.5321602  44.6100417  20.4439000  27.6207508  57.1276679  19.1640883
  27.3208231  58.0301718  19.0556690  27.2758567  56.8608862  20.0162036
  21.0719989  53.5790476  15.1977587  20.1470486  53.4466690  15.4055279
  21.3204402  54.3584695  15.6947529  31.0204652  49.6459219  16.8438320
  30.1121529  49.5774628  16.5497081  30.9692247  50.1231164  17.6720145
  18.4328800  53.2223750  16.0321376  18.5621181  53.4758228  16.9460788
  17.7526252  53.8151458  15.7126031  22.6028288  63.8920999  12.1311850
  22.5252317  64.8428825  12.2100331  21.9989931  63.5466872  12.7886777
  25.0945517  51.0648865  24.7873217  24.3178851  51.6242785  24.7776082
  25.7336080  51.5505648  25.3088087  32.8866298  47.8475658  18.6216194
  32.2440678  48.1408191  17.9755988  32.3821226  47.7328578  19.4269391
  23.3491890  53.8734318  24.3491184  24.0906574  54.4119362  24.0726008
  22.6428875  54.5000607  24.5062736  28.8247229  56.0163459  22.9463346
  29.2330585  55.5745869  22.2017978  28.1024491  55.4416086  23.1997539
  25.1778299  50.9536065  20.3196903  26.0239495  51.3775479  20.4631552
  25.1176937  50.2969690  21.0135466  29.1476044  56.5764649  16.7015635
  28.5184906  56.7410363  15.9991702  28.7601706  56.9906259  17.4726599
  33.0265276  57.5119087  14.0559998  32.3416314  57.8917989  13.5057032
  33.1109125  58.1214414  14.7891946  28.3277745  48.6140434  21.9778076
  28.0838677  49.3682494  21.4412352  28.6037675  48.9925781  22.8125323
  30.2816207  55.1579046  20.6555342  30.4933103  55.8010806  19.9789723
  30.2345956  54.3241363  20.1877272  27.8842436  47.7696867  17.5591914
  27.0226915  48.0678120  17.8508652  27.9104871  47.9867266  16.6272947
  24.7004006  56.3139057  13.9665720  25.1642351  56.5926760  13.1770342
  24.4360804  55.4122502  13.7838810  21.5928087  55.8610539  16.9045483
  22.1629444  56.2897807  16.2662967  22.1836199  55.5793124  17.6029669
  22.0853253  51.0273966  25.1506494  21.4551914  51.7090247  25.3841891
  21.9789341  50.9157048  24.2059632  31.3962035  58.0351002  18.8277699
  32.2179479  57.6331189  18.5460381  31.3924438  57.9319236  19.7793815
  25.1618639  57.5835045  20.9838410  25.2263071  58.0455452  21.8196582
  24.4529563  56.9532410  21.1120720  15.6635929  50.9476253  18.5087409
  15.9143967  51.8323263  18.7744985  16.1995477  50.7680854  17.7362501
  39.4868028  54.3789750  15.1762671  38.7331737  53.8097148  15.0206675
  39.6215570  54.3452415  16.1233305  24.8766656  59.2503152  10.8517390
  24.7412331  60.0954688  11.2802238  25.4176469  59.4522430  10.0883324
  21.3633996  45.3294732  27.5131745  20.9700942  44.7760931  28.1879389
  22.1800136  45.6405311  27.9038263  20.1390939  59.8844347  13.5068068
  20.3157567  60.8062311  13.3189052  20.9347772  59.5702766  13.9362448
  24.2801957  46.7452611  25.1052002  25.0211670  47.3459765  25.0256464
  24.5119880  46.0030249  24.5470044  19.4243295  51.9308979  23.3830232
  19.3096810  51.0294236  23.6837330  18.5687813  52.1772675  23.0315048
  26.5035133  59.8726719  24.9817732  26.0598987  59.0863097  24.6638637
  27.1652346  60.0605869  24.3161623  21.2622254  61.4022521  19.5078411
  21.8129679  61.2739584  18.7355405  20.4233730  61.7017410  19.1573303
  28.6016371  60.1529519  23.0099133  28.5834846  60.9738400  22.5179403
  29.5236291  60.0283594  23.2349275  25.0589425  57.6673648  23.8522642
  25.5917762  56.9061937  23.6221950  24.5303506  57.3747300  24.5946796
  28.2259120  42.7733714  19.3816284  27.8823389  43.6635356  19.3055394
  28.5938083  42.5835372  18.5185869  27.3055660  45.1438369  17.3465517
  26.8020456  45.1068505  16.5333322  27.5986267  46.0531112  17.4062173
  33.1643677  55.5174680   9.8241892  32.3873120  55.1785840   9.3797054
  33.8435158  55.5227303   9.1496857  26.4242138  56.7959641  11.3641454
  25.8963499  56.0612400  11.0514691  25.9229641  57.5734317  11.1181422
  31.4034984  54.9908661  16.4808500  30.7458658  55.6807923  16.5688629
  32.2075383  55.3805093  16.8242486  30.2140443  53.3453034  14.5312442
  30.7272324  53.9783026  15.0334152  30.8641666  52.7454230  14.1655802
  27.4762817  63.3237358   7.2873113  26.8024516  63.6269055   7.8958071
  27.8628639  64.1266439   6.9378570  26.6921273  50.8202490  16.7770782
  25.7743835  51.0417437  16.6192470  27.1081417  50.8948800  15.9182490
  27.4756321  52.2193905  11.9073463  28.2228140  52.7315302  11.5980585
  27.7447911  51.8977958  12.7677856  30.9802239  58.3259035  12.6591584
  30.5264566  57.4849945  12.7156775  30.3496206  58.9620434  12.9966365
  29.9235158  49.2551021  13.8892252  29.1857915  48.7428408  14.2202494
  30.1761932  48.8151403  13.0775529  29.4235178  60.1635532  13.5941403
  29.7158152  60.7240589  12.8753768  29.9333799  60.4564093  14.3494562
  24.2967865  52.3281067  14.9910212  24.3516475  51.3754903  14.9152689
  23.4859067  52.4840506  15.4751511  24.3868803  60.9415883  14.6834856
  24.3444982  61.1676730  13.7543388  25.3031502  60.7079258  14.8320657
  27.8334437  51.4099951  21.5815485  28.1883825  51.6371424  22.4409951
  28.4806568  51.7418328  20.9592740  33.5632174  54.5318387  12.2864814
  33.4250073  54.7219983  11.3586003  33.2068393  55.2937769  12.7432865
  21.7274300  48.5176482  18.3661826  22.3673679  48.3765241  17.6684789
  20.8951831  48.2310995  17.9900428  33.5901554  56.5994914  17.2976086
  34.0238060  56.5070203  18.1459140  34.3033134  56.5752414  16.6596102
  22.5034604  57.8178912  14.4796819  23.2975203  57.3229232  14.2779393
  21.7926296  57.2896775  14.1164524  27.3229448  60.1997008  18.8309186
  27.3766471  60.7687944  19.5986902  26.4544230  60.3698893  18.4663223
  20.2027842  49.9014564  20.3133637  20.8750895  49.6931926  19.6646286
  19.3757628  49.7036650  19.8738870  34.4517103  56.6418614  19.8308971
  34.6452993  57.5464425  20.0768246  34.3517721  56.1826033  20.6647556
  26.1053414  46.5276505  22.3299298  25.4581329  47.2266455  22.2363775
  26.8754429  46.9612649  22.6975546  29.5132212  56.7925357  25.4049852
  29.3617718  56.5635909  24.4879935  29.5036891  57.7495958  25.4181197
  26.2817548  54.3657270  20.3896118  27.2109608  54.5168429  20.2165085
  25.8608578  54.4541291  19.5344765  25.0805880  58.3907934  18.1594656
  24.9416966  58.0226719  19.0320594  24.2920476  58.9055574  17.9878613
  25.6754032  63.4917031   9.5020192  25.8505788  63.0205074  10.3165815
  24.9886820  64.1182797   9.7301453  26.6311095  57.7689537  15.5483493
  26.2960928  57.7290307  16.4441143  26.1315041  57.1034253  15.0753904
  20.6055339  53.1757167  21.0736075  20.4675137  52.4437406  21.6747614
  21.5160263  53.0866067  20.7920262  23.2337640  52.8877126  20.5619754
  23.9437258  52.2470318  20.5206373  23.1906948  53.1390021  21.4845935
  31.2224418  59.8244480  23.4826333  31.1636965  59.1403700  22.8156916
  31.6243937  60.5663470  23.0306959  21.9466574  49.8742344  22.3815394
  21.4103931  49.4233083  23.0336990  21.3583282  50.0088253  21.6385858
  20.2415117  66.6406393  16.2760052  20.4811715  67.2724918  16.9539071
  19.3984314  66.2894433  16.5625412  31.2241826  57.7884064  21.7140313
  30.3368605  57.4509985  21.8366712  31.7940377  57.0567095  21.9509078
  17.6805695  49.0098352  19.4668388  17.5963884  48.4024021  18.7318798
  16.8588401  49.5007370  19.4677885  24.7542979  62.4485516  18.6801556
  24.6813151  63.2540487  19.1920861  24.3120372  62.6477482  17.8549578
  24.5432759  61.6857286  12.1904378  23.7600281  62.2278966  12.2842602
  25.2425504  62.2031266  12.5898619  35.7059166  53.1992281  16.4756875
  35.6949043  54.0816996  16.1050808  34.8376546  52.8463832  16.2811412
  27.2141663  62.3472350  20.8359715  27.9269635  62.9819815  20.7635616
  26.7231691  62.4436216  20.0199717  28.9359190  56.2523603  12.4077007
  28.0015468  56.3725065  12.2381711  29.1135858  55.3496069  12.1437016
  32.3231741  52.0940922  12.9427041  32.7892193  52.9268913  12.8687343
  32.7739241  51.6285903  13.6472299  22.2653576  60.0966793  21.6565286
  22.9663036  60.7303276  21.8094680  21.7948691  60.4381525  20.8960925
  30.3907972  58.4384743   9.9413193  30.6667816  58.3241338  10.8507067
  29.5212471  58.0402228   9.9025366  30.2948404  44.4621509  16.9817942
  29.3811483  44.6925736  17.1500149  30.7241505  44.5459953  17.8331974
  30.0654862  52.6511401  19.4817836  29.4126312  52.8987308  18.8270289
  30.4435242  51.8375539  19.1480313  27.0262036  62.6871094  13.5846006
  27.2084431  61.8692750  14.0473759  27.8495022  62.9038786  13.1470896
  27.3604202  61.6139279  10.8461055  27.8891968  61.1031734  10.2331217
  27.6232421  61.2981809  11.7106588  26.1142435  53.3931212  25.9683873
  25.4383072  53.2925341  26.6386248  26.9370069  53.2370426  26.4319870
  17.8621294  59.6303148  18.5896388  18.4474731  58.8846836  18.7224293
  17.6646133  59.9407105  19.4733052  20.7159949  62.6654396  13.6058831
  20.0470325  63.1500523  13.1222871  20.5772819  62.9123616  14.5202209
  24.8565218  64.6998139  20.2041489  25.4083526  64.8629761  20.9690574
  25.1971412  65.2902577  19.5321514  19.8329711  47.0473289  20.8063374
  19.8971038  47.9088120  20.3940772  19.7696832  46.4347291  20.0735732
  19.3081984  49.1196422  24.4536408  19.9354023  48.7373499  25.0673932
  18.4509903  48.9010624  24.8192101  29.7076092  59.5259397  26.0590144
  30.2515996  60.1389355  25.5645098  29.1262937  60.0838975  26.5757157
  27.9933605  62.6480115  17.1905171  27.8684745  61.8469855  16.6816117
  28.6512696  63.1426308  16.7019141  30.0568514  60.4489135  18.8184721
  29.1098849  60.3294486  18.7463048  30.4051287  59.5611633  18.9010983
  22.4168087  46.3383274  22.6422963  22.9402489  46.5845570  23.4049273
  22.1980420  47.1703309  22.2226101  27.0614947  60.2441851  15.0189074
  26.9139909  59.3158559  15.1996644  27.8868441  60.2661942  14.5346149
  30.6649069  61.0670410  16.1053946  31.5895616  60.8613271  15.9678398
  30.4964372  60.8186811  17.0143288  23.6220632  47.2796969  20.3272634
  23.2817452  46.4804782  20.7293314  22.9159638  47.5798680  19.7549467
  24.2737104  44.3646281  18.7799957  25.0963173  43.8906760  18.6578847
  24.5175167  45.1436765  19.2798643  21.7975683  51.0565402  16.5891936
  21.6520263  51.3705705  17.4816217  21.3200886  51.6750302  16.0362834
  23.6572066  48.0467950  16.6372825  23.6433634  47.1509043  16.3005123
  24.3744494  48.0538614  17.2711111  25.5098196  48.4805290  18.6825953
  25.2515974  49.4022361  18.6810283  24.9783237  48.0835725  19.3726417
  30.4544385  61.5856077  11.4616038  30.6281263  61.0202500  10.7089890
  30.9473276  62.3856972  11.2795528  16.2721345  53.5970746  19.5279597
  15.7274813  54.3730554  19.6599871  17.1500695  53.9441551  19.3698718
  36.3083776  54.3492500  13.0806338  36.7514922  53.5999826  12.6825461
  35.4310287  54.3402637  12.6980070  31.4419558  60.9022842   8.5612936
  32.1370462  61.5229534   8.7800251  31.7842708  60.0518193   8.8365314
  17.0587367  52.7240643  22.4209754  16.3169103  52.8723278  23.0074384
  16.7380111  52.9848908  21.5576503  33.3410981  58.3522547  10.0900267
  33.8662305  58.6909820   9.3649587  33.2533333  57.4169563   9.9063402
  25.0031029  62.2656621  22.2190144  25.3118156  62.0205768  23.0912843
  25.8006511  62.4703259  21.7309014  25.0251641  64.4194531  14.4495520
  24.5856632  63.9270909  15.1428377  25.7759758  63.8767498  14.2087595
  17.5043980  60.6106071  14.4520148  18.3302000  60.3109843  14.0718792
  17.1538032  59.8413694  14.9009937  22.4725514  59.9632540  16.5217822
  21.8505523  59.3003245  16.2220050  23.1430380  59.9893672  15.8391470
  15.7052585  58.5292398  15.4109082  14.8684494  58.1014572  15.2293083
  15.6776231  58.7224841  16.3479873  22.5450041  48.4414328  26.1150328
  22.5938197  49.3176451  25.7328097  23.0872555  47.8991721  25.5421971
  33.0304887  58.9855451  25.3951465  32.2400430  58.9679590  24.8555964
  32.7938241  59.5243745  26.1500501  33.1502762  55.8347917  22.7084193
  33.2000767  55.6697925  23.6499716  33.0416685  54.9675176  22.3182074
  30.4406524  51.8178845  24.0243500  31.3416387  51.6785310  23.7327498
  30.5154499  51.9833300  24.9641678  24.7749330  49.1945700  22.8696686
  23.9052639  49.4879266  22.5979275  25.0108810  49.7786145  23.5903950
  34.6520959  58.2544859  22.9526215  34.3605767  58.6174839  23.7889676
  34.0393090  57.5411867  22.7739547  35.8516641  55.8197739  15.4728785
  36.6863532  56.2587543  15.6366346  35.9875770  55.3436392  14.6537031
  32.9008147  53.3777473  21.4206273  33.3762268  53.5705120  20.6125124
  31.9773712  53.4336659  21.1749657  27.4788363  45.4125317  20.3862107
  27.9970307  46.1486344  20.0608595  27.1243496  45.7189310  21.2208866
  31.6009816  50.2543234  19.6534579  32.5527239  50.3541331  19.6746803
  31.4313266  49.4621502  20.1632663  29.6224195  47.3398817  19.8393979
  29.0274127  47.6203829  19.1440468  29.3373892  47.8292718  20.6110721
  28.7531686  61.2921744   8.5996612  29.6862359  61.2267305   8.8029488
  28.6654899  62.1278010   8.1411145  31.3819702  60.6087614   5.5600560
  31.3033334  60.2747478   6.4536318  32.2029369  61.1009382   5.5592032
  34.0797894  53.4749353  18.7676878  34.0474214  52.5365354  18.9536562
  34.6898517  53.5533390  18.0342703  34.2292382  50.2660397  18.8135161
  33.7131431  49.4818853  18.6265090  35.1132331  49.9379113  18.9781681
  31.8903109  44.0101412  14.7730974  31.6927930  43.7016500  15.6574306
  32.5002815  44.7363051  14.9028904  39.8974444  54.5365360  17.9082915
  40.6277832  54.2750648  18.4690618  39.2881389  53.7994082  17.9484983
  37.9789741  52.6773223  18.5057366  37.2522904  52.5429188  17.8973858
  37.5637028  52.9850051  19.3114084  25.8019917  56.3963152  26.2704739
  26.7222927  56.5741751  26.4644786  25.7669500  55.4519198  26.1184439
  18.7981990  54.3064187  18.9127520  19.0167999  55.2381295  18.9315554
  19.2107763  53.9472161  19.6982324  23.6709855  49.8797393  28.3030269
  23.5706582  50.8291750  28.2342360  23.4531397  49.5515632  27.4306339
  14.8890342  55.2104657  17.1651135  14.1953813  54.7958610  16.6521090
  15.6363333  55.2525194  16.5684554  23.5341125  53.3094532  27.1195331
  23.0508207  54.1094892  27.3259220  23.6202064  53.3202476  26.1662775
  19.4614462  57.1999066  19.1563765  20.4157716  57.1683009  19.0893696
  19.2626986  56.7389690  19.9713991  20.0513845  55.7700182  21.7234562
  20.8706734  56.2644261  21.7469400  20.3250652  54.8532150  21.6952130
  33.1594977  48.1857456  14.8016857  33.9355367  48.6753908  15.0741474
  32.4343111  48.6115510  15.2588727  35.5967536  48.8985075  15.8590798
  36.1912026  48.6580811  15.1484106  35.6694119  48.1792205  16.4864334
  17.8164691  62.7418686  16.1733963  17.6819159  61.9819087  15.6071961
  17.3996754  63.4659586  15.7062752  29.7821465  53.6765471  11.3012808
  29.7256666  54.1334022  10.4620441  30.3349807  52.9156155  11.1235651
  33.5926270  49.4655202  12.1262928  33.3363205  49.0651838  12.9571135
  32.9679138  50.1798996  12.0013067  37.9038608  52.2051276  14.6334219
  37.3438166  52.2744465  15.4065781  37.2982112  52.0292260  13.9133715
  20.9733817  63.6388003  16.3852405  20.8566201  64.5833435  16.2831096
  20.1526263  63.3361564  16.7738204  30.8610352  58.3638139   7.2308998
  31.6955956  57.9319337   7.0486473  30.6994695  58.1920152   8.1585892
  15.3048759  50.1038316  22.4226759  15.9507622  49.5937270  22.9113985
  15.0965910  50.8406998  22.9970185  27.8302151  57.1719164  27.9218900
  28.6993311  57.3459816  27.5605535  27.3508902  57.9913581  27.7994629
  21.9988331  64.2916265  19.6008334  22.9015578  64.3239875  19.9174829
  21.7725701  63.3616716  19.6154669  23.7541933  63.0447251  16.2618412
  22.8037564  63.0449113  16.1482785  24.0574419  62.2979986  15.7454447
  19.6446250  47.2505933  26.5201774  20.5077711  46.8942738  26.7305098
  19.0711660  46.9119828  27.2077178  39.4894627  68.8807790  17.3264175
  40.1273037  68.7614537  16.6227515  39.3715470  69.8288634  17.3852127
  36.2984333  68.8335218  17.2625699  35.9602845  68.7176282  16.3746234
  37.1674101  68.4326383  17.2426706  32.1571149  70.6870694  13.2522590
  31.5936014  70.5960631  12.4838878  32.0423544  69.8670599  13.7325083
  36.7804116  69.9870069  23.2211905  36.7692757  69.5922868  22.3492409
  36.9424755  69.2536142  23.8145676  29.7035581  72.1821886  16.0906811
  30.4956873  71.8412710  15.6753110  29.9432231  72.2916861  17.0108964
  37.7370707  74.3541662   8.5637055  37.0858687  74.9395742   8.1771069
  38.5315070  74.8847857   8.6232093  31.6626335  71.4430799   8.9624190
  32.4357211  70.8959786   8.8237065  32.0151733  72.3075048   9.1738651
  33.5011377  72.7707181  22.1691089  33.2101243  73.6752812  22.0537755
  34.1368362  72.8123709  22.8835158  34.4267584  70.1484030  18.7592449
  35.0231156  69.9240052  18.0449412  34.4842556  69.4068775  19.3617896
  33.9992612  67.6023465   6.5942640  34.2518133  67.0804986   5.8326103
  33.0617172  67.4389611   6.6969323  39.0435895  66.6059243  14.4017383
  39.8298984  66.1878667  14.0507800  39.3074600  67.5105336  14.5699031
  39.2145973  72.0432094   9.1006040  38.5791806  72.1166720   9.8126944
  38.8843379  72.6325693   8.4225119  44.4444322  66.5434477  15.3050361
  45.1769494  65.9733694  15.5388191  43.6883678  66.1556077  15.7456867
  33.7188901  69.5051571   8.7967014  33.6025159  68.8296474   9.4648099
  33.8291161  69.0183945   7.9799168  36.0620442  68.9661718  12.5013704
  35.6978649  68.4392339  13.2126625  36.9187558  68.5760187  12.3280189
  41.9669743  60.2556051  19.7644970  41.6353067  61.1251462  19.5406185
  41.3715356  59.9392335  20.4439000  35.7025929  63.9951618   7.4975052
  35.8700331  64.8631854   7.8645523  35.5123098  64.1578900   6.5736341
  38.4601262  72.4568597  19.1640883  38.1601985  73.3593636  19.0556690
  38.1152322  72.1900780  20.0162036  31.9113744  68.9082394  15.1977587
  30.9864240  68.7758608  15.4055279  32.1598157  69.6876613  15.6947529
  41.8598406  64.9751137  16.8438320  40.9515283  64.9066545  16.5497081
  41.8086002  65.4523082  17.6720145  35.6815150  66.4509275   8.4821719
  35.5614775  66.8966326   9.3207199  34.9867738  66.7994593   7.9235257
  29.2722555  68.5515667  16.0321376  29.4014936  68.8050146  16.9460788
  28.5920006  69.1443375  15.7126031  33.4422042  79.2212917  12.1311850
  33.3646072  80.1720742  12.2100331  32.8383686  78.8758790  12.7886777
  35.9339272  66.3940783  24.7873217  35.1572606  66.9534703  24.7776082
  36.5729835  66.8797566  25.3088087  43.7260052  63.1767575  18.6216194
  43.0834433  63.4700109  17.9755988  43.2214981  63.0620496  19.4269391
  41.3800216  66.9230749   9.3102053  42.2918072  67.1558135   9.1349751
  40.8709863  67.5067793   8.7477132  34.1885644  69.2026236  24.3491184
  34.9300328  69.7411280  24.0726008  33.4822630  69.8292525  24.5062736
  39.6640984  71.3455376  22.9463346  40.0724340  70.9037787  22.2017978
  38.9418245  70.7708004  23.1997539  36.0172054  66.2827983  20.3196903
  36.8633249  66.7067397  20.4631552  35.9570691  65.6261607  21.0135466
  39.9869798  71.9056567  16.7015635  39.3578661  72.0702281  15.9991702
  39.5995460  72.3198177  17.4726599  43.8659030  72.8411005  14.0559998
  43.1810068  73.2209906  13.5057032  43.9502880  73.4506332  14.7891946
  39.1671499  63.9432352  21.9778076  38.9232431  64.6974412  21.4412352
  39.4431430  64.3217699  22.8125323  41.1209962  70.4870964  20.6555342
  41.3326857  71.1302724  19.9789723  41.0739710  69.6533280  20.1877272
  38.7236191  63.0988785  17.5591914  37.8620670  63.3970038  17.8508652
  38.7498626  63.3159183  16.6272947  35.5397760  71.6430975  13.9665720
  36.0036106  71.9218678  13.1770342  35.2754558  70.7414420  13.7838810
  32.4321841  71.1902457  16.9045483  33.0023198  71.6189725  16.2662967
  33.0229953  70.9085041  17.6029669  34.4766646  67.7654127  10.7755285
  35.1790690  68.2175171  11.2429211  34.1447275  67.1237946  11.4035178
  32.9247008  66.3565884  25.1506494  32.2945668  67.0382165  25.3841891
  32.8183096  66.2448966  24.2059632  28.2191980  66.0237680  16.0772418
  27.4291034  66.2795209  15.6012529  28.7103228  66.8386018  16.1824459
  42.2355790  73.3642919  18.8277699  43.0573234  72.9623107  18.5460381
  42.2318193  73.2611153  19.7793815  30.1706726  66.3882259  13.0355895
  29.3737889  66.5000954  13.5539391  29.9432318  66.7268912  12.1696786
  36.0012393  72.9126963  20.9838410  36.0656826  73.3747370  21.8196582
  35.2923317  72.2824328  21.1120720  26.5029683  66.2768171  18.5087409
  26.7537722  67.1615181  18.7744985  27.0389232  66.0972772  17.7362501
  50.3261783  69.7081668  15.1762671  49.5725491  69.1389066  15.0206675
  50.4609324  69.6744332  16.1233305  35.7160411  74.5795070  10.8517390
  35.5806086  75.4246606  11.2802238  36.2570223  74.7814348  10.0883324
  32.2027751  60.6586650  27.5131745  31.8094696  60.1052849  28.1879389
  33.0193891  60.9697228  27.9038263  29.1689808  72.0970508  11.4245315
  29.6814329  72.8913758  11.5750880  29.8212521  71.3996799  11.3578917
  30.9784693  75.2136264  13.5068068  31.1551321  76.1354229  13.3189052
  31.7741527  74.8994684  13.9362448  35.1195712  62.0744529  25.1052002
  35.8605425  62.6751682  25.0256464  35.3513634  61.3322167  24.5470044
  30.2637050  67.2600896  23.3830232  30.1490565  66.3586154  23.6837330
  29.4081567  67.5064593  23.0315048  37.3428887  75.2018637  24.9817732
  36.8992742  74.4155015  24.6638637  38.0046101  75.3897787  24.3161623
  32.1016009  76.7314438  19.5078411  32.6523434  76.6031502  18.7355405
  31.2627484  77.0309327  19.1573303  39.4410125  75.4821437  23.0099133
  39.4228601  76.3030318  22.5179403  40.3630045  75.3575512  23.2349275
  35.8983180  72.9965566  23.8522642  36.4311516  72.2353854  23.6221950
  35.3697261  72.7039218  24.5946796  39.0652875  58.1025632  19.3816284
  38.7217144  58.9927274  19.3055394  39.4331837  57.9127290  18.5185869
  27.1338725  70.4259162  12.2004886  27.9713947  70.8356171  11.9838593
  27.3116993  69.4858605  12.1705080  39.0303157  68.0934243   7.8888719
  38.5149781  68.8638848   8.1277106  38.7580466  67.4199379   8.5121780
  36.6150268  62.9383944  12.9473957  35.7591865  62.5490794  12.7679596
  37.0277220  63.0175905  12.0873743  38.1449415  60.4730287  17.3465517
  37.6414211  60.4360422  16.5333322  38.4380022  61.3823030  17.4062173
  34.3892301  60.5569017  16.3531698  35.2545298  60.3611826  15.9937588
  34.4569810  60.3279369  17.2801055  44.0037431  70.8466598   9.8241892
  43.2266874  70.5077757   9.3797054  44.6828912  70.8519221   9.1496857
  38.8189460  65.9661335   9.7148500  38.5139596  66.2807484  10.5658643
  39.7719903  66.0442755   9.7575833  37.2635892  72.1251559  11.3641454
  36.7357254  71.3904318  11.0514691  36.7623395  72.9026235  11.1181422
  42.2428738  70.3200579  16.4808500  41.5852413  71.0099840  16.5688629
  43.0469138  70.7097011  16.8242486  31.9954620  62.7871225  13.7248065
  32.5698372  62.5646406  12.9921258  32.5825602  62.8559919  14.4776667
  41.0534197  68.6744952  14.5312442  41.5666079  69.3074944  15.0334152
  41.7035421  68.0746147  14.1655802  32.3224207  64.8175686   7.7443951
  31.4861519  65.1550372   8.0653225  32.1828977  64.6824666   6.8071088
  34.2977288  59.6612474  12.4523135  33.6441700  59.3461491  11.8279749
  34.2557762  59.0388214  13.1782958  35.4088492  69.9431769   4.3676427
  34.5015554  69.7121022   4.5667576  35.9059524  69.1469388   4.5550408
  38.3156571  78.6529276   7.2873113  37.6418270  78.9560973   7.8958071
  38.7022393  79.4558356   6.9378570  37.5315028  66.1494407  16.7770782
  36.6137589  66.3709354  16.6192470  37.9475172  66.2240718  15.9182490
  38.3150076  67.5485823  11.9073463  39.0621895  68.0607220  11.5980585
  38.5841665  67.2269876  12.7677856  36.5876726  70.0444364   8.8900417
  35.6787945  69.7603396   8.9872887  36.6171810  70.4643442   8.0303724
  41.8195993  73.6550953  12.6591584  41.3658320  72.8141863  12.7156775
  41.1889960  74.2912352  12.9966365  40.7628913  64.5842939  13.8892252
  40.0251670  64.0720325  14.2202494  41.0155686  64.1443321  13.0775529
  40.2628933  75.4927450  13.5941403  40.5551907  76.0532507  12.8753768
  40.7727553  75.7856011  14.3494562  40.8640540  57.3619191  14.4834021
  41.1699417  56.5016555  14.1959936  41.5893145  57.9536811  14.2833015
  27.1564896  67.7649878  12.8715619  26.9589296  67.1719238  12.1466686
  26.6011560  67.4602088  13.5891558  35.1361620  67.6572984  14.9910212
  35.1910230  66.7046821  14.9152689  34.3252822  67.8132423  15.4751511
  36.2852814  71.5853107   6.2288495  35.8472244  70.8688966   5.7694133
  37.0263255  71.8129222   5.6673587  33.0753980  66.2750044  12.7500591
  32.2621845  66.5744215  13.1565783  33.5712974  65.8805733  13.4675073
  35.2262558  76.2707801  14.6834856  35.1838737  76.4968647  13.7543388
  36.1425257  76.0371176  14.8320657  38.6728192  66.7391868  21.5815485
  39.0277579  66.9663342  22.4409951  39.3200323  67.0710245  20.9592740
  44.4025928  69.8610304  12.2864814  44.2643827  70.0511900  11.3586003
  44.0462147  70.6229687  12.7432865  32.5668055  63.8468400  18.3661826
  33.2067434  63.7057159  17.6684789  31.7345585  63.5602913  17.9900428
  44.4295308  71.9286831  17.2976086  44.8631815  71.8362120  18.1459140
  45.1426889  71.9044332  16.6596102  33.3428359  73.1470830  14.4796819
  34.1368957  72.6521150  14.2779393  32.6320051  72.6188693  14.1164524
  38.1623203  75.5288925  18.8309186  38.2160225  76.0979862  19.5986902
  37.2937984  75.6990810  18.4663223  29.6511122  67.2913912  10.5556571
  28.7208710  67.2298367  10.7726533  29.7468594  66.7689864   9.7593212
  29.5696671  63.8168724  13.1434813  29.8303488  64.7314058  13.0343973
  30.3913843  63.3493167  13.2931426  31.0421596  65.2306482  20.3133637
  31.7144650  65.0223844  19.6646286  30.2151383  65.0328568  19.8738870
  45.2910858  71.9710532  19.8308971  45.4846748  72.8756343  20.0768246
  45.1911476  71.5117951  20.6647556  36.9447168  61.8568423  22.3299298
  36.2975083  62.5558372  22.2363775  37.7148184  62.2904567  22.6975546
  40.3525966  72.1217275  25.4049852  40.2011473  71.8927826  24.4879935
  40.3430646  73.0787876  25.4181197  37.1211303  69.6949187  20.3896118
  38.0503363  69.8460347  20.2165085  36.7002333  69.7833208  19.5344765
  35.9199635  73.7199852  18.1594656  35.7810720  73.3518636  19.0320594
  35.1314231  74.2347491  17.9878613  36.5147786  78.8208948   9.5020192
  36.6899542  78.3496992  10.3165815  35.8280575  79.4474715   9.7301453
  37.4704850  73.0981455  15.5483493  37.1354682  73.0582225  16.4441143
  36.9708795  72.4326171  15.0753904  31.4449094  68.5049085  21.0736075
  31.3068892  67.7729323  21.6747614  32.3554017  68.4157985  20.7920262
  40.4064041  70.4437489   5.8220553  39.7893212  69.7184317   5.7253606
  39.9380530  71.2046849   5.4787627  34.0731394  68.2169044  20.5619754
  34.7831013  67.5762236  20.5206373  34.0300702  68.4681939  21.4845935
  42.0618173  75.1536397  23.4826333  42.0030719  74.4695617  22.8156916
  42.4637691  75.8955387  23.0306959  32.7860328  65.2034262  22.3815394
  32.2497685  64.7525000  23.0336990  32.1977037  65.3380171  21.6385858
  31.0808872  81.9698311  16.2760052  31.3205470  82.6016835  16.9539071
  30.2378068  81.6186351  16.5625412  32.1962587  64.6622913   4.9441857
  31.3192054  64.5411714   4.5804104  32.6720340  63.8708992   4.6920746
  42.0635580  73.1175981  21.7140313  41.1762359  72.7801903  21.8366712
  42.6334131  72.3859012  21.9509078  23.7164727  69.4500073  15.0383364
  24.4035767  69.1361803  14.4504380  23.5612856  70.3541438  14.7650616
  28.5199449  64.3390270  19.4668388  28.4357638  63.7315939  18.7318798
  27.6982156  64.8299288  19.4677885  35.5936734  77.7777434  18.6801556
  35.5206905  78.5832405  19.1920861  35.1514127  77.9769399  17.8549578
  35.3826513  77.0149204  12.1904378  34.5994035  77.5570884  12.2842602
  36.0819258  77.5323183  12.5898619  38.6923163  62.8243833  14.8338583
  39.1891863  62.0713795  14.5139653  37.9210145  62.8608150  14.2681793
  46.5452921  68.5284199  16.4756875  46.5342797  69.4108914  16.1050808
  45.6770300  68.1755749  16.2811412  38.0535417  77.6764268  20.8359715
  38.7663389  78.3111732  20.7635616  37.5625446  77.7728134  20.0199717
  39.7752944  71.5815520  12.4077007  38.8409223  71.7016983  12.2381711
  39.9529613  70.6787987  12.1437016  35.2758132  64.9661216  14.5610268
  34.9055920  64.4132256  15.2491173  35.7717225  64.3619350  14.0085268
  43.1625495  67.4232840  12.9427041  43.6285948  68.2560831  12.8687343
  43.6132996  66.9577821  13.6472299  33.1047331  75.4258711  21.6565286
  33.8056790  76.0595194  21.8094680  32.6342446  75.7673443  20.8960925
  41.2301727  73.7676661   9.9413193  41.5061570  73.6533255  10.8507067
  40.3606225  73.3694146   9.9025366  41.1342158  59.7913427  16.9817942
  40.2205238  60.0217653  17.1500149  41.5635260  59.8751871  17.8331974
  40.9048617  67.9803319  19.4817836  40.2520067  68.2279226  18.8270289
  41.2828997  67.1667457  19.1480313  37.8655791  78.0163012  13.5846006
  38.0478185  77.1984668  14.0473759  38.6888777  78.2330704  13.1470896
  38.1997956  76.9431197  10.8461055  38.7285722  76.4323651  10.2331217
  38.4626176  76.6273727  11.7106588  36.9536190  68.7223130  25.9683873
  36.2776827  68.6217259  26.6386248  37.7763824  68.5662343  26.4319870
  28.7015049  74.9595066  18.5896388  29.2868486  74.2138754  18.7224293
  28.5039887  75.2699023  19.4733052  31.5553704  77.9946314  13.6058831
  30.8864079  78.4792441  13.1222871  31.4166574  78.2415534  14.5202209
  23.2932703  67.5300666  17.3100832  23.3316803  66.9964257  18.1037950
  22.7872996  67.0035872  16.6911809  35.6958973  80.0290057  20.2041489
  36.2477281  80.1921679  20.9690574  36.0365166  80.6194495  19.5321514
  30.6723466  62.3765207  20.8063374  30.7364792  63.2380038  20.3940772
  30.6090586  61.7639208  20.0735732  30.1475738  64.4488339  24.4536408
  30.7747777  64.0665417  25.0673932  29.2903657  64.2302541  24.8192101
  40.5469847  74.8551315  26.0590144  41.0909751  75.4681273  25.5645098
  39.9656692  75.4130893  26.5757157  26.9241281  66.2564769  10.3854763
  27.2194722  65.3475447  10.3321817  26.0229317  66.2352508  10.0635765
  38.8327360  77.9772033  17.1905171  38.7078499  77.1761772  16.6816117
  39.4906451  78.4718226  16.7019141  30.4535528  64.3320765  16.3682312
  29.7322114  64.9456733  16.2289785  31.2428784  64.8678530  16.2898958
  40.8962268  75.7781053  18.8184721  39.9492604  75.6586404  18.7463048
  41.2445041  74.8903551  18.9010983  33.2561842  61.6675192  22.6422963
  33.7796243  61.9137488  23.4049273  33.0374175  62.4995226  22.2226101
  28.6529123  63.9378866  10.5094088  28.3241829  63.0576245  10.3269194
  29.0068493  63.8826535  11.3970477  37.9008702  75.5733769  15.0189074
  37.7533664  74.6450476  15.1996644  38.7262195  75.5953860  14.5346149
  31.7670946  64.2251836  10.8769566  32.1067018  64.7537757  10.1548174
  32.2143066  64.5632242  11.6528132  41.5042823  76.3962328  16.1053946
  42.4289371  76.1905189  15.9678398  41.3358127  76.1478729  17.0143288
  34.4614387  62.6088887  20.3272634  34.1211207  61.8096700  20.7293314
  33.7553393  62.9090598  19.7549467  35.1130858  59.6938199  18.7799957
  35.9356928  59.2198677  18.6578847  35.3568922  60.4728683  19.2798643
  33.7539093  62.7226458   9.0762859  34.4747455  63.1007710   8.5726575
  33.1304397  63.4415334   9.1797837  37.8970216  63.4271607  10.0121191
  38.1133830  64.3096244   9.7110019  37.4164283  63.0357820   9.2826833
  32.6369437  66.3857320  16.5891936  32.4914018  66.6997623  17.4816217
  32.1594641  67.0042220  16.0362834  34.4965820  63.3759868  16.6372825
  34.4827389  62.4800961  16.3005123  35.2138248  63.3830531  17.2711111
  36.3491951  63.8097208  18.6825953  36.0909729  64.7314279  18.6810283
  35.8176991  63.4127642  19.3726417  41.2938140  76.9147995  11.4616038
  41.4675017  76.3494418  10.7089890  41.7867031  77.7148890  11.2795528
  27.1115099  68.9262664  19.5279597  26.5668567  69.7022472  19.6599871
  27.9894449  69.2733469  19.3698718  33.9002716  62.2574248  11.9060395
  34.0218627  61.3290894  12.1051283  33.6104758  62.2712934  10.9938711
  36.7693906  59.9429158  15.0427115  36.7915603  60.0068492  14.0879095
  37.1861965  59.1033667  15.2367621  47.1477531  69.6784418  13.0806338
  47.5908677  68.9291743  12.6825461  46.2704041  69.6694554  12.6980070
  42.2813312  76.2314759   8.5612936  42.9764217  76.8521452   8.7800251
  42.6236462  75.3810111   8.8365314  27.8981121  68.0532560  22.4209754
  27.1562857  68.2015196  23.0074384  27.5773866  68.3140826  21.5576503
  44.1804735  73.6814465  10.0900267  44.7056059  74.0201738   9.3649587
  44.0927088  72.7461480   9.9063402  35.8424784  77.5948539  22.2190144
  36.1511910  77.3497685  23.0912843  36.6400266  77.7995177  21.7309014
  35.8645396  79.7486448  14.4495520  35.4250386  79.2562827  15.1428377
  36.6153513  79.2059416  14.2087595  28.3437735  75.9397989  14.4520148
  29.1695755  75.6401761  14.0718792  27.9931787  75.1705612  14.9009937
  33.3119268  75.2924457  16.5217822  32.6899277  74.6295162  16.2220050
  33.9824135  75.3185589  15.8391470  26.5446340  73.8584316  15.4109082
  25.7078248  73.4306490  15.2293083  26.5169985  74.0516759  16.3479873
  33.3843796  63.7706245  26.1150328  33.4331951  64.6468368  25.7328097
  33.9266310  63.2283638  25.5421971  43.8698641  74.3147369  25.3951465
  43.0794185  74.2971507  24.8555964  43.6331996  74.8535662  26.1500501
  43.9896516  71.1639835  22.7084193  44.0394521  70.9989842  23.6499716
  43.8810440  70.2967094  22.3182074  32.8732775  73.8428381   9.9976282
  33.0220895  74.5263845   9.3442955  33.6799218  73.8233471  10.5125738
  41.2800279  67.1470763  24.0243500  42.1810141  67.0077228  23.7327498
  41.3548253  67.3125218  24.9641678  35.6143084  64.5237618  22.8696686
  34.7446393  64.8171184  22.5979275  35.8502564  65.1078063  23.5903950
  45.4914713  73.5836777  22.9526215  45.1999521  73.9466757  23.7889676
  44.8786844  72.8703785  22.7739547  46.6910395  71.1489656  15.4728785
  47.5257287  71.5879460  15.6366346  46.8269524  70.6728310  14.6537031
  43.7401901  68.7069391  21.4206273  44.2156023  68.8997037  20.6125124
  42.8167467  68.7628577  21.1749657  30.6285408  69.8693558  11.0037351
  30.3831450  68.9655888  11.2017561  30.7981322  69.8710709  10.0616829
  38.3182118  60.7417235  20.3862107  38.8364062  61.4778262  20.0608595
  37.9637251  61.0481228  21.2208866  29.8981055  65.6021916   8.5023513
  29.2050300  65.6766271   7.8463549  29.6532807  64.8382260   9.0245030
  38.5694712  57.1617517  15.9063003  38.8496466  56.4940706  16.5323430
  39.3545319  57.3546613  15.3937667  36.3728181  76.3376511   7.4688030
  35.8002148  76.9566698   7.0158502  36.9460974  76.8875873   8.0027952
  42.4403570  65.5835151  19.6534579  43.3920993  65.6833249  19.6746803
  42.2707021  64.7913420  20.1632663  40.4617950  62.6690734  19.8393979
  39.8667882  62.9495747  19.1440468  40.1767647  63.1584635  20.6110721
  39.5925440  76.6213661   8.5996612  40.5256113  76.5559223   8.8029488
  39.5048653  77.4569928   8.1411145  42.2213457  75.9379532   5.5600560
  42.1427088  75.6039395   6.4536318  43.0423124  76.4301300   5.5592032
  44.9191648  68.8041271  18.7676878  44.8867968  67.8657272  18.9536562
  45.5292272  68.8825308  18.0342703  36.7574979  67.6737324   4.8104082
  37.7034084  67.5443532   4.8792500  36.3789224  66.9351986   5.2873510
  45.0686137  65.5952314  18.8135161  44.5525185  64.8110771  18.6265090
  45.9526085  65.2671031  18.9781681  42.7296864  59.3393330  14.7730974
  42.5321685  59.0308418  15.6574306  43.3396569  60.0654969  14.9028904
  50.7368198  69.8657278  17.9082915  51.4671586  69.6042566  18.4690618
  50.1275143  69.1286000  17.9484983  48.8183495  68.0065140  18.5057366
  48.0916659  67.8721105  17.8973858  48.4030782  68.3141969  19.3114084
  36.6413672  71.7255070  26.2704739  37.5616681  71.9033669  26.4644786
  36.6063255  70.7811115  26.1184439  34.9417896  65.5987300   4.7458967
  34.0349352  65.3020413   4.8221681  35.2193877  65.3017118   3.8793254
  25.8595837  66.9193664  15.1958014  25.5398621  66.0658972  14.9032388
  25.3129265  67.1342242  15.9515981  29.6375744  69.6356105  18.9127520
  29.8561754  70.5673212  18.9315554  30.0501518  69.2764079  19.6982324
  36.5579962  60.1424190  10.9003209  35.7480690  59.7971275  11.2758455
  37.2464379  59.8331734  11.4890820  38.4870510  59.2202237  12.5227505
  39.0401549  59.6397690  13.1817529  38.7240597  58.2937985  12.5650461
  34.5103609  65.2089310  28.3030269  34.4100336  66.1583667  28.2342360
  34.2925151  64.8807549  27.4306339  33.7116681  62.4574236   4.8870947
  34.5735845  62.7829134   5.1466764  33.8967025  61.6705731   4.3744012
  25.7284097  70.5396575  17.1651135  25.0347568  70.1250528  16.6521090
  26.4757088  70.5817112  16.5684554  41.8649317  61.3302762  12.0306170
  41.2847986  61.9887566  11.6484222  41.5985250  60.5080107  11.6193587
  40.3152884  60.7307820  14.2327490  40.8152662  60.8424354  13.4241809
  40.9588492  60.4268873  14.8728298  34.3734879  68.6386449  27.1195331
  33.8901961  69.4386809  27.3259220  34.4595818  68.6494394  26.1662775
  27.6420839  70.4714829  15.0417150  27.6191527  70.5702516  14.0899033
  27.9521476  71.3179980  15.3634316  30.3008217  72.5290984  19.1563765
  31.2551470  72.4974926  19.0893696  30.1020741  72.0681608  19.9713991
  30.8907599  71.0992100  21.7234562  31.7100488  71.5936179  21.7469400
  31.1644407  70.1824068  21.6952130  40.6474195  63.4902852  11.0862518
  39.7600050  63.7752503  10.8682713  41.0628184  63.3296616  10.2389795
  43.9988731  63.5149373  14.8016857  44.7749122  64.0045826  15.0741474
  43.2736866  63.9407428  15.2588727  46.4361290  64.2276993  15.8590798
  47.0305781  63.9872729  15.1484106  46.5087874  63.5084123  16.4864334
  28.6558446  78.0710603  16.1733963  28.5212914  77.3111004  15.6071961
  28.2390508  78.7951503  15.7062752  39.7917409  73.2547527   5.1810538
  40.4953259  73.4597530   5.7968194  39.0680058  73.8224289   5.4459621
  40.6215219  69.0057388  11.3012808  40.5650420  69.4625940  10.4620441
  41.1743561  68.2448073  11.1235651  44.4320025  64.7947120  12.1262928
  44.1756959  64.3943756  12.9571135  43.8072893  65.5090914  12.0013067
  48.7432363  67.5343193  14.6334219  48.1831921  67.6036383  15.4065781
  48.1375866  67.3584178  13.9133715  31.8127572  78.9679921  16.3852405
  31.6959956  79.9125353  16.2831096  30.9920018  78.6653482  16.7738204
  41.7004106  73.6930056   7.2308998  42.5349710  73.2611255   7.0486473
  41.5388449  73.5212070   8.1585892  41.3549998  70.1962170   8.5965337
  41.2998802  70.0306441   7.6553781  40.7296054  70.9038202   8.7527527
  26.1442513  65.4330234  22.4226759  26.7901377  64.9229188  22.9113985
  25.9359664  66.1698916  22.9970185  38.6695906  72.5011081  27.9218900
  39.5387065  72.6751734  27.5605535  38.1902657  73.3205498  27.7994629
  34.6646124  59.6970279   8.1750656  34.6524794  60.6412118   8.3318927
  35.5569546  59.5140424   7.8810117  32.8382086  79.6208182  19.6008334
  33.7409332  79.6531793  19.9174829  32.6119456  78.6908633  19.6154669
  34.5935688  78.3739169  16.2618412  33.6431319  78.3741031  16.1482785
  34.8968174  77.6271904  15.7454447  38.4798243  56.2913055  12.4296592
  37.7130639  55.7371542  12.5753275  38.8908948  56.3634924  13.2910744
  30.4840004  62.5797851  26.5201774  31.3471466  62.2234656  26.7305098
  29.9105415  62.2411746  27.2077178  50.3288381  84.2099707  17.3264175
  50.9666791  84.0906455  16.6227515  50.2109224  85.1580551  17.3852127
  47.1378088  84.1627135  17.2625699  46.7996599  84.0468200  16.3746234
  48.0067856  83.7618301  17.2426706  42.9964903  86.0162612  13.2522590
  42.4329768  85.9252549  12.4838878  42.8817298  85.1962516  13.7325083
  47.6197871  85.3161987  23.2211905  47.6086511  84.9214785  22.3492409
  47.7818510  84.5828060  23.8145676  40.5429335  87.5113803  16.0906811
  41.3350627  87.1704628  15.6753110  40.7825985  87.6208778  17.0108964
  48.5764462  89.6833580   8.5637055  47.9252442  90.2687660   8.1771069
  49.3708825  90.2139774   8.6232093  42.5020089  86.7722717   8.9624190
  43.2750965  86.2251704   8.8237065  42.8545488  87.6366966   9.1738651
  44.3405132  88.0999099  22.1691089  44.0494998  89.0044730  22.0537755
  44.9762116  88.1415627  22.8835158  45.2661339  85.4775947  18.7592449
  45.8624911  85.2531970  18.0449412  45.3236310  84.7360693  19.3617896
  44.8386367  82.9315383   6.5942640  45.0911888  82.4096904   5.8326103
  43.9010926  82.7681528   6.6969323  49.8829650  81.9351161  14.4017383
  50.6692739  81.5170584  14.0507800  50.1468354  82.8397253  14.5699031
  50.0539727  87.3724011   9.1006040  49.4185560  87.4458638   9.8126944
  49.7237133  87.9617610   8.4225119  55.2838077  81.8726394  15.3050361
  56.0163249  81.3025611  15.5388191  54.5277433  81.4847995  15.7456867
  44.5582656  84.8343489   8.7967014  44.4418914  84.1588392   9.4648099
  44.6684916  84.3475863   7.9799168  46.9014197  84.2953636  12.5013704
  46.5372404  83.7684257  13.2126625  47.7581312  83.9052105  12.3280189
  52.8063497  75.5847968  19.7644970  52.4746822  76.4543379  19.5406185
  52.2109111  75.2684252  20.4439000  46.5419684  79.3243536   7.4975052
  46.7094086  80.1923772   7.8645523  46.3516853  79.4870817   6.5736341
  49.2995017  87.7860514  19.1640883  48.9995740  88.6885553  19.0556690
  48.9546076  87.5192698  20.0162036  42.7507498  84.2374311  15.1977587
  41.8257995  84.1050525  15.4055279  42.9991911  85.0168531  15.6947529
  52.6992161  80.3043055  16.8438320  51.7909038  80.2358463  16.5497081
  52.6479756  80.7815000  17.6720145  46.5208904  81.7801193   8.4821719
  46.4008530  82.2258244   9.3207199  45.8261493  82.1286511   7.9235257
  40.1116309  83.8807585  16.0321376  40.2408690  84.1342064  16.9460788
  39.4313761  84.4735293  15.7126031  44.2815797  94.5504835  12.1311850
  44.2039826  95.5012660  12.2100331  43.6777440  94.2050707  12.7886777
  46.7733026  81.7232700  24.7873217  45.9966360  82.2826620  24.7776082
  47.4123589  82.2089483  25.3088087  54.5653807  78.5059493  18.6216194
  53.9228187  78.7992026  17.9755988  54.0608735  78.3912413  19.4269391
  52.2193971  82.2522666   9.3102053  53.1311827  82.4850053   9.1349751
  51.7103618  82.8359710   8.7477132  45.0279399  84.5318154  24.3491184
  45.7694083  85.0703198  24.0726008  44.3216384  85.1584442  24.5062736
  50.5034738  86.6747294  22.9463346  50.9118094  86.2329705  22.2017978
  49.7812000  86.0999922  23.1997539  46.8565808  81.6119901  20.3196903
  47.7027004  82.0359314  20.4631552  46.7964446  80.9553525  21.0135466
  50.8263553  87.2348485  16.7015635  50.1972415  87.3994199  15.9991702
  50.4389215  87.6490094  17.4726599  54.7052785  88.1702923  14.0559998
  54.0203823  88.5501824  13.5057032  54.7896634  88.7798249  14.7891946
  50.0065254  79.2724269  21.9778076  49.7626186  80.0266330  21.4412352
  50.2825184  79.6509617  22.8125323  51.9603716  85.8162882  20.6555342
  52.1720612  86.4594641  19.9789723  51.9133465  84.9825198  20.1877272
  49.5629945  78.4280702  17.5591914  48.7014424  78.7261956  17.8508652
  49.5892380  78.6451101  16.6272947  46.3791515  86.9722893  13.9665720
  46.8429860  87.2510596  13.1770342  46.1148313  86.0706337  13.7838810
  43.2715596  86.5194374  16.9045483  43.8416953  86.9481643  16.2662967
  43.8623708  86.2376959  17.6029669  45.3160401  83.0946045  10.7755285
  46.0184444  83.5467089  11.2429211  44.9841029  82.4529864  11.4035178
  43.7640762  81.6857802  25.1506494  43.1339423  82.3674083  25.3841891
  43.6576850  81.5740883  24.2059632  39.0585735  81.3529598  16.0772418
  38.2684789  81.6087126  15.6012529  39.5496982  82.1677936  16.1824459
  53.0749544  88.6934837  18.8277699  53.8966988  88.2915024  18.5460381
  53.0711947  88.5903071  19.7793815  41.0100480  81.7174177  13.0355895
  40.2131643  81.8292871  13.5539391  40.7826072  82.0560829  12.1696786
  46.8406148  88.2418880  20.9838410  46.9050580  88.7039288  21.8196582
  46.1317072  87.6116245  21.1120720  37.3423438  81.6060088  18.5087409
  37.5931476  82.4907098  18.7744985  37.8782986  81.4264690  17.7362501
  61.1655537  85.0373585  15.1762671  60.4119246  84.4680984  15.0206675
  61.3003079  85.0036250  16.1233305  46.5554165  89.9086988  10.8517390
  46.4199840  90.7538524  11.2802238  47.0963978  90.1106265  10.0883324
  43.0421505  75.9878568  27.5131745  42.6488451  75.4344766  28.1879389
  43.8587645  76.2989146  27.9038263  40.0083563  87.4262426  11.4245315
  40.5208083  88.2205676  11.5750880  40.6606276  86.7288716  11.3578917
  41.8178448  90.5428182  13.5068068  41.9945076  91.4646147  13.3189052
  42.6135281  90.2286601  13.9362448  45.9589466  77.4036447  25.1052002
  46.6999179  78.0043600  25.0256464  46.1907389  76.6614085  24.5470044
  41.1030804  82.5892814  23.3830232  40.9884319  81.6878071  23.6837330
  40.2475322  82.8356511  23.0315048  48.1822642  90.5310554  24.9817732
  47.7386496  89.7446933  24.6638637  48.8439855  90.7189705  24.3161623
  42.9409763  92.0606356  19.5078411  43.4917188  91.9323419  18.7355405
  42.1021239  92.3601245  19.1573303  50.2803880  90.8113354  23.0099133
  50.2622355  91.6322235  22.5179403  51.2023800  90.6867429  23.2349275
  46.7376934  88.3257484  23.8522642  47.2705271  87.5645772  23.6221950
  46.2091015  88.0331136  24.5946796  49.9046629  73.4317550  19.3816284
  49.5610898  74.3219191  19.3055394  50.2725592  73.2419207  18.5185869
  37.9732480  85.7551080  12.2004886  38.8107702  86.1648088  11.9838593
  38.1510747  84.8150522  12.1705080  49.8696912  83.4226161   7.8888719
  49.3543535  84.1930765   8.1277106  49.5974220  82.7491297   8.5121780
  47.4544023  78.2675862  12.9473957  46.5985619  77.8782712  12.7679596
  47.8670975  78.3467822  12.0873743  48.9843169  75.8022205  17.3465517
  48.4807965  75.7652340  16.5333322  49.2773776  76.7114948  17.4062173
  45.2286055  75.8860935  16.3531698  46.0939052  75.6903743  15.9937588
  45.2963564  75.6571286  17.2801055  54.8431186  86.1758515   9.8241892
  54.0660629  85.8369675   9.3797054  55.5222667  86.1811139   9.1496857
  49.6583215  81.2953253   9.7148500  49.3533350  81.6099402  10.5658643
  50.6113657  81.3734673   9.7575833  48.1029647  87.4543476  11.3641454
  47.5751008  86.7196236  11.0514691  47.6017149  88.2318153  11.1181422
  53.0822493  85.6492497  16.4808500  52.4246167  86.3391758  16.5688629
  53.8862892  86.0388929  16.8242486  42.8348374  78.1163142  13.7248065
  43.4092126  77.8938324  12.9921258  43.4219357  78.1851837  14.4776667
  51.8927952  84.0036869  14.5312442  52.4059833  84.6366861  15.0334152
  52.5429175  83.4038065  14.1655802  43.1617961  80.1467603   7.7443951
  42.3255274  80.4842290   8.0653225  43.0222731  80.0116583   6.8071088
  45.1371042  74.9904391  12.4523135  44.4835454  74.6753409  11.8279749
  45.0951516  74.3680132  13.1782958  46.2482247  85.2723686   4.3676427
  45.3409309  85.0412940   4.5667576  46.7453279  84.4761306   4.5550408
  49.1550326  93.9821194   7.2873113  48.4812025  94.2852890   7.8958071
  49.5416148  94.7850274   6.9378570  48.3708782  81.4786325  16.7770782
  47.4531344  81.7001272  16.6192470  48.7868926  81.5532635  15.9182490
  49.1543830  82.8777741  11.9073463  49.9015649  83.3899138  11.5980585
  49.4235420  82.5561793  12.7677856  47.4270480  85.3736281   8.8900417
  46.5181700  85.0895314   8.9872887  47.4565564  85.7935360   8.0303724
  52.6589748  88.9842871  12.6591584  52.2052075  88.1433781  12.7156775
  52.0283715  89.6204269  12.9966365  51.6022667  79.9134857  13.8892252
  50.8645424  79.4012243  14.2202494  51.8549441  79.4735238  13.0775529
  51.1022687  90.8219368  13.5941403  51.3945661  91.3824425  12.8753768
  51.6121308  91.1147929  14.3494562  51.7034295  72.6911109  14.4834021
  52.0093171  71.8308472  14.1959936  52.4286899  73.2828729  14.2833015
  37.9958651  83.0941795  12.8715619  37.7983051  82.5011156  12.1466686
  37.4405315  82.7894006  13.5891558  45.9755374  82.9864902  14.9910212
  46.0303984  82.0338738  14.9152689  45.1646576  83.1424341  15.4751511
  47.1246568  86.9145025   6.2288495  46.6865998  86.1980884   5.7694133
  47.8657009  87.1421140   5.6673587  43.9147734  81.6041962  12.7500591
  43.1015600  81.9036132  13.1565783  44.4106729  81.2097650  13.4675073
  46.0656312  91.5999719  14.6834856  46.0232491  91.8260565  13.7543388
  46.9819011  91.3663093  14.8320657  49.5121946  82.0683786  21.5815485
  49.8671334  82.2955259  22.4409951  50.1594077  82.4002163  20.9592740
  55.2419683  85.1902222  12.2864814  55.1037582  85.3803818  11.3586003
  54.8855902  85.9521605  12.7432865  43.4061809  79.1760317  18.3661826
  44.0461188  79.0349076  17.6684789  42.5739340  78.8894831  17.9900428
  55.2689063  87.2578749  17.2976086  55.7025569  87.1654038  18.1459140
  55.9820643  87.2336249  16.6596102  44.1822113  88.4762748  14.4796819
  44.9762711  87.9813068  14.2779393  43.4713805  87.9480611  14.1164524
  49.0016957  90.8580843  18.8309186  49.0553980  91.4271779  19.5986902
  48.1331739  91.0282728  18.4663223  40.4904876  82.6205829  10.5556571
  39.5602465  82.5590285  10.7726533  40.5862348  82.0981782   9.7593212
  40.4090426  79.1460642  13.1434813  40.6697243  80.0605975  13.0343973
  41.2307598  78.6785085  13.2931426  41.8815351  80.5598399  20.3133637
  42.5538404  80.3515761  19.6646286  41.0545137  80.3620485  19.8738870
  56.1304612  87.3002450  19.8308971  56.3240502  88.2048260  20.0768246
  56.0305230  86.8409869  20.6647556  47.7840923  77.1860340  22.3299298
  47.1368838  77.8850290  22.2363775  48.5541938  77.6196484  22.6975546
  51.1919721  87.4509192  25.4049852  51.0405227  87.2219744  24.4879935
  51.1824400  88.4079794  25.4181197  47.9605057  85.0241105  20.3896118
  48.8897117  85.1752265  20.2165085  47.5396087  85.1125126  19.5344765
  46.7593389  89.0491770  18.1594656  46.6204475  88.6810554  19.0320594
  45.9707985  89.5639409  17.9878613  47.3541541  94.1500866   9.5020192
  47.5293297  93.6788909  10.3165815  46.6674329  94.7766632   9.7301453
  48.3098604  88.4273372  15.5483493  47.9748437  88.3874142  16.4441143
  47.8102550  87.7618088  15.0753904  42.2842848  83.8341002  21.0736075
  42.1462646  83.1021241  21.6747614  43.1947772  83.7449902  20.7920262
  51.2457796  85.7729407   5.8220553  50.6286966  85.0476235   5.7253606
  50.7774284  86.5338767   5.4787627  44.9125149  83.5460962  20.5619754
  45.6224767  82.9054154  20.5206373  44.8694457  83.7973856  21.4845935
  52.9011927  90.4828315  23.4826333  52.8424474  89.7987535  22.8156916
  53.3031446  91.2247305  23.0306959  43.6254083  80.5326180  22.3815394
  43.0891440  80.0816918  23.0336990  43.0370791  80.6672088  21.6385858
  41.9202626  97.2990229  16.2760052  42.1599224  97.9308753  16.9539071
  41.0771823  96.9478269  16.5625412  43.0356342  79.9914831   4.9441857
  42.1585808  79.8703632   4.5804104  43.5114095  79.2000909   4.6920746
  52.9029335  88.4467899  21.7140313  52.0156113  88.1093821  21.8366712
  53.4727886  87.7150930  21.9509078  34.5558482  84.7791991  15.0383364
  35.2429522  84.4653721  14.4504380  34.4006611  85.6833355  14.7650616
  39.3593204  79.6682187  19.4668388  39.2751393  79.0607857  18.7318798
  38.5375910  80.1591206  19.4677885  46.4330488  93.1069351  18.6801556
  46.3600660  93.9124323  19.1920861  45.9907881  93.3061317  17.8549578
  46.2220268  92.3441121  12.1904378  45.4387790  92.8862801  12.2842602
  46.9213013  92.8615101  12.5898619  49.5316918  78.1535751  14.8338583
  50.0285617  77.4005713  14.5139653  48.7603899  78.1900067  14.2681793
  57.3846675  83.8576116  16.4756875  57.3736552  84.7400832  16.1050808
  56.5164055  83.5047667  16.2811412  48.8929172  93.0056185  20.8359715
  49.6057144  93.6403650  20.7635616  48.4019200  93.1020051  20.0199717
  50.6146699  86.9107438  12.4077007  49.6802977  87.0308900  12.2381711
  50.7923367  86.0079905  12.1437016  46.1151887  80.2953134  14.5610268
  45.7449674  79.7424174  15.2491173  46.6110979  79.6911267  14.0085268
  54.0019250  82.7524757  12.9427041  54.4679702  83.5852749  12.8687343
  54.4526750  82.2869739  13.6472299  43.9441085  90.7550629  21.6565286
  44.6450545  91.3887112  21.8094680  43.4736200  91.0965360  20.8960925
  52.0695481  89.0968579   9.9413193  52.3455325  88.9825173  10.8507067
  51.1999980  88.6986063   9.9025366  51.9735913  75.1205344  16.9817942
  51.0598992  75.3509571  17.1500149  52.4029014  75.2043788  17.8331974
  51.7442371  83.3095236  19.4817836  51.0913821  83.5571144  18.8270289
  52.1222751  82.4959374  19.1480313  48.7049545  93.3454929  13.5846006
  48.8871940  92.5276585  14.0473759  49.5282531  93.5622622  13.1470896
  49.0391711  92.2723115  10.8461055  49.5679477  91.7615569  10.2331217
  49.3019930  91.9565645  11.7106588  47.7929944  84.0515047  25.9683873
  47.1170581  83.9509177  26.6386248  48.6157578  83.8954261  26.4319870
  39.5408803  90.2886984  18.5896388  40.1262240  89.5430672  18.7224293
  39.3433642  90.5990941  19.4733052  42.3947458  93.3238231  13.6058831
  41.7257834  93.8084359  13.1222871  42.2560328  93.5707452  14.5202209
  34.1326458  82.8592584  17.3100832  34.1710557  82.3256175  18.1037950
  33.6266751  82.3327790  16.6911809  46.5352727  95.3581975  20.2041489
  47.0871035  95.5213596  20.9690574  46.8758920  95.9486413  19.5321514
  41.5117220  77.7057125  20.8063374  41.5758547  78.5671955  20.3940772
  41.4484341  77.0931126  20.0735732  40.9869493  79.7780257  24.4536408
  41.6141532  79.3957334  25.0673932  40.1297412  79.5594459  24.8192101
  51.3863601  90.1843232  26.0590144  51.9303505  90.7973191  25.5645098
  50.8050446  90.7422811  26.5757157  37.7635036  81.5856686  10.3854763
  38.0588477  80.6767365  10.3321817  36.8623071  81.5644426  10.0635765
  49.6721114  93.3063950  17.1905171  49.5472254  92.5053690  16.6816117
  50.3300205  93.8010144  16.7019141  41.2929283  79.6612683  16.3682312
  40.5715868  80.2748650  16.2289785  42.0822538  80.1970448  16.2898958
  51.7356023  91.1072970  18.8184721  50.7886358  90.9878322  18.7463048
  52.0838796  90.2195468  18.9010983  44.0955596  76.9967109  22.6422963
  44.6189998  77.2429406  23.4049273  43.8767929  77.8287144  22.2226101
  39.4922877  79.2670784  10.5094088  39.1635583  78.3868163  10.3269194
  39.8462248  79.2118453  11.3970477  48.7402456  90.9025687  15.0189074
  48.5927418  89.9742394  15.1996644  49.5655950  90.9245777  14.5346149
  42.6064700  79.5543754  10.8769566  42.9460773  80.0829675  10.1548174
  43.0536821  79.8924160  11.6528132  52.3436578  91.7254245  16.1053946
  53.2683125  91.5197107  15.9678398  52.1751881  91.4770646  17.0143288
  45.3008141  77.9380804  20.3272634  44.9604961  77.1388617  20.7293314
  44.5947147  78.2382515  19.7549467  45.9524613  75.0230117  18.7799957
  46.7750682  74.5490595  18.6578847  46.1962676  75.8020601  19.2798643
  44.5932847  78.0518375   9.0762859  45.3141210  78.4299628   8.5726575
  43.9698152  78.7707252   9.1797837  48.7363970  78.7563524  10.0121191
  48.9527585  79.6388162   9.7110019  48.2558037  78.3649738   9.2826833
  43.4763192  81.7149237  16.5891936  43.3307772  82.0289540  17.4816217
  42.9988395  82.3334138  16.0362834  45.3359575  78.7051785  16.6372825
  45.3221143  77.8092879  16.3005123  46.0532003  78.7122449  17.2711111
  47.1885705  79.1389126  18.6825953  46.9303483  80.0606196  18.6810283
  46.6570746  78.7419560  19.3726417  52.1331894  92.2439913  11.4616038
  52.3068772  91.6786335  10.7089890  52.6260785  93.0440808  11.2795528
  37.9508854  84.2554582  19.5279597  37.4062322  85.0314390  19.6599871
  38.8288204  84.6025386  19.3698718  44.7396471  77.5866166  11.9060395
  44.8612382  76.6582812  12.1051283  44.4498513  77.6004852  10.9938711
  47.6087661  75.2721076  15.0427115  47.6309358  75.3360409  14.0879095
  48.0255720  74.4325585  15.2367621  57.9871285  85.0076336  13.0806338
  58.4302431  84.2583661  12.6825461  57.1097796  84.9986472  12.6980070
  53.1207067  91.5606677   8.5612936  53.8157971  92.1813370   8.7800251
  53.4630217  90.7102028   8.8365314  38.7374876  83.3824478  22.4209754
  37.9956612  83.5307113  23.0074384  38.4167620  83.6432744  21.5576503
  55.0198490  89.0106383  10.0900267  55.5449814  89.3493655   9.3649587
  54.9320842  88.0753398   9.9063402  46.6818538  92.9240456  22.2190144
  46.9905665  92.6789603  23.0912843  47.4794020  93.1287095  21.7309014
  46.7039150  95.0778366  14.4495520  46.2644141  94.5854745  15.1428377
  47.4547267  94.5351334  14.2087595  39.1831489  91.2689907  14.4520148
  40.0089509  90.9693679  14.0718792  38.8325541  90.4997529  14.9009937
  44.1513023  90.6216375  16.5217822  43.5293032  89.9587080  16.2220050
  44.8217889  90.6477507  15.8391470  37.3840094  89.1876233  15.4109082
  36.5472003  88.7598408  15.2293083  37.3563740  89.3808677  16.3479873
  44.2237550  79.0998163  26.1150328  44.2725706  79.9760286  25.7328097
  44.7660064  78.5575556  25.5421971  54.7092396  89.6439286  25.3951465
  53.9187939  89.6263425  24.8555964  54.4725750  90.1827580  26.1500501
  54.8290271  86.4931753  22.7084193  54.8788276  86.3281760  23.6499716
  54.7204194  85.6259012  22.3182074  43.7126529  89.1720298   9.9976282
  43.8614650  89.8555763   9.3442955  44.5192973  89.1525388  10.5125738
  52.1194033  82.4762681  24.0243500  53.0203896  82.3369146  23.7327498
  52.1942008  82.6417136  24.9641678  46.4536838  79.8529535  22.8696686
  45.5840148  80.1463102  22.5979275  46.6896319  80.4369980  23.5903950
  56.3308468  88.9128694  22.9526215  56.0393276  89.2758675  23.7889676
  55.7180599  88.1995702  22.7739547  57.5304150  86.4781574  15.4728785
  58.3651041  86.9171378  15.6366346  57.6663279  86.0020227  14.6537031
  54.5795656  84.0361309  21.4206273  55.0549777  84.2288955  20.6125124
  53.6561221  84.0920495  21.1749657  41.4679162  85.1985476  11.0037351
  41.2225204  84.2947806  11.2017561  41.6375077  85.2002626  10.0616829
  49.1575872  76.0709152  20.3862107  49.6757816  76.8070179  20.0608595
  48.8031005  76.3773146  21.2208866  40.7374810  80.9313834   8.5023513
  40.0444055  81.0058189   7.8463549  40.4926562  80.1674177   9.0245030
  49.4088466  72.4909435  15.9063003  49.6890220  71.8232624  16.5323430
  50.1939073  72.6838531  15.3937667  47.2121935  91.6668429   7.4688030
  46.6395902  92.2858616   7.0158502  47.7854729  92.2167791   8.0027952
  53.2797325  80.9127069  19.6534579  54.2314748  81.0125167  19.6746803
  53.1100775  80.1205337  20.1632663  51.3011704  77.9982652  19.8393979
  50.7061636  78.2787665  19.1440468  51.0161401  78.4876553  20.6110721
  50.4319195  91.9505579   8.5996612  51.3649868  91.8851141   8.8029488
  50.3442408  92.7861846   8.1411145  53.0607211  91.2671449   5.5600560
  52.9820843  90.9331313   6.4536318  53.8816878  91.7593217   5.5592032
  55.7585403  84.1333189  18.7676878  55.7261723  83.1949189  18.9536562
  56.3686026  84.2117225  18.0342703  47.5968733  83.0029242   4.8104082
  48.5427838  82.8735450   4.8792500  47.2182978  82.2643903   5.2873510
  55.9079891  80.9244232  18.8135161  55.3918940  80.1402689  18.6265090
  56.7919840  80.5962949  18.9781681  53.5690618  74.6685248  14.7730974
  53.3715439  74.3600336  15.6574306  54.1790324  75.3946887  14.9028904
  61.5761952  85.1949195  17.9082915  62.3065341  84.9334484  18.4690618
  60.9668898  84.4577917  17.9484983  59.6577250  83.3357058  18.5057366
  58.9310413  83.2013023  17.8973858  59.2424536  83.6433887  19.3114084
  47.4807426  87.0546988  26.2704739  48.4010435  87.2325587  26.4644786
  47.4457009  86.1103033  26.1184439  45.7811651  80.9279218   4.7458967
  44.8743106  80.6312331   4.8221681  46.0587632  80.6309036   3.8793254
  36.6989591  82.2485581  15.1958014  36.3792375  81.3950890  14.9032388
  36.1523019  82.4634160  15.9515981  40.4769499  84.9648022  18.9127520
  40.6955508  85.8965130  18.9315554  40.8895272  84.6055997  19.6982324
  47.3973716  75.4716108  10.9003209  46.5874445  75.1263193  11.2758455
  48.0858133  75.1623651  11.4890820  49.3264265  74.5494154  12.5227505
  49.8795303  74.9689608  13.1817529  49.5634351  73.6229903  12.5650461
  45.3497364  80.5381228  28.3030269  45.2494091  81.4875585  28.2342360
  45.1318906  80.2099467  27.4306339  44.5510435  77.7866153   4.8870947
  45.4129599  78.1121051   5.1466764  44.7360779  76.9997649   4.3744012
  36.5677851  85.8688493  17.1651135  35.8741322  85.4542446  16.6521090
  37.3150842  85.9109029  16.5684554  52.7043072  76.6594680  12.0306170
  52.1241741  77.3179484  11.6484222  52.4379004  75.8372024  11.6193587
  51.1546638  76.0599737  14.2327490  51.6546416  76.1716272  13.4241809
  51.7982246  75.7560790  14.8728298  45.2128634  83.9678367  27.1195331
  44.7295716  84.7678727  27.3259220  45.2989573  83.9786312  26.1662775
  38.4814594  85.8006747  15.0417150  38.4585282  85.8994434  14.0899033
  38.7915230  86.6471897  15.3634316  41.1401971  87.8582902  19.1563765
  42.0945225  87.8266844  19.0893696  40.9414495  87.3973525  19.9713991
  41.7301354  86.4284018  21.7234562  42.5494243  86.9228096  21.7469400
  42.0038161  85.5115986  21.6952130  51.4867950  78.8194770  11.0862518
  50.5993805  79.1044421  10.8682713  51.9021939  78.6588533  10.2389795
  54.8382486  78.8441291  14.8016857  55.6142876  79.3337743  15.0741474
  54.1130620  79.2699345  15.2588727  57.2755045  79.5568910  15.8590798
  57.8699535  79.3164646  15.1484106  57.3481628  78.8376041  16.4864334
  39.4952200  93.4002521  16.1733963  39.3606668  92.6402922  15.6071961
  39.0784262  94.1243421  15.7062752  50.6311163  88.5839445   5.1810538
  51.3347013  88.7889447   5.7968194  49.9073812  89.1516207   5.4459621
  51.4608974  84.3349306  11.3012808  51.4044175  84.7917857  10.4620441
  52.0137316  83.5739991  11.1235651  55.2713779  80.1239038  12.1262928
  55.0150714  79.7235673  12.9571135  54.6466647  80.8382832  12.0013067
  59.5826117  82.8635111  14.6334219  59.0225675  82.9328300  15.4065781
  58.9769621  82.6876096  13.9133715  42.6521326  94.2971838  16.3852405
  42.5353710  95.2417271  16.2831096  41.8313772  93.9945400  16.7738204
  52.5397861  89.0221974   7.2308998  53.3743465  88.5903172   7.0486473
  52.3782204  88.8503988   8.1585892  52.1943753  85.5254087   8.5965337
  52.1392557  85.3598359   7.6553781  51.5689808  86.2330120   8.7527527
  36.9836268  80.7622152  22.4226759  37.6295131  80.2521106  22.9113985
  36.7753419  81.4990833  22.9970185  49.5089660  87.8302999  27.9218900
  50.3780820  88.0043651  27.5605535  49.0296411  88.6497416  27.7994629
  45.5039878  75.0262196   8.1750656  45.4918548  75.9704036   8.3318927
  46.3963300  74.8432342   7.8810117  43.6775840  94.9500100  19.6008334
  44.5803087  94.9823710  19.9174829  43.4513210  94.0200551  19.6154669
  45.4329442  93.7031087  16.2618412  44.4825073  93.7032948  16.1482785
  45.7361928  92.9563821  15.7454447  49.3191998  71.6204973  12.4296592
  48.5524394  71.0663460  12.5753275  49.7302703  71.6926842  13.2910744
  41.3233759  77.9089769  26.5201774  42.1865220  77.5526574  26.7305098
  40.7499169  77.5703663  27.2077178  61.1682136  99.5391625  17.3264175
  61.8060546  99.4198372  16.6227515  61.0502979 100.4872469  17.3852127
  57.9771842  99.4919053  17.2625699  57.6390354  99.3760118  16.3746234
  58.8461610  99.0910218  17.2426706  53.8358658 101.3454530  13.2522590
  53.2723523 101.2544466  12.4838878  53.7211053 100.5254434  13.7325083
  58.4591625 100.6453905  23.2211905  58.4480266 100.2506703  22.3492409
  58.6212264  99.9119977  23.8145676  51.3823090 102.8405721  16.0906811
  52.1744382 102.4996546  15.6753110  51.6219740 102.9500696  17.0108964
  59.4158216 105.0125497   8.5637055  58.7646196 105.5979578   8.1771069
  60.2102579 105.5431692   8.6232093  53.3413844 102.1014634   8.9624190
  54.1144720 101.5543621   8.8237065  53.6939242 102.9658884   9.1738651
  55.1798886 103.4291017  22.1691089  54.8888752 104.3336647  22.0537755
  55.8155870 103.4707544  22.8835158  56.1055093 100.8067865  18.7592449
  56.7018665 100.5823888  18.0449412  56.1630065 100.0652611  19.3617896
  55.6780121  98.2607300   6.5942640  55.9305642  97.7388822   5.8326103
  54.7404680  98.0973446   6.6969323  60.7223404  97.2643079  14.4017383
  61.5086493  96.8462502  14.0507800  60.9862109  98.1689171  14.5699031
  60.8933482 102.7015929   9.1006040  60.2579315 102.7750556   9.8126944
  60.5630888 103.2909528   8.4225119  66.1231831  97.2018312  15.3050361
  66.8557003  96.6317529  15.5388191  65.3671187  96.8139913  15.7456867
  55.3976410 100.1635406   8.7967014  55.2812668  99.4880310   9.4648099
  55.5078670  99.6767780   7.9799168  57.7407951  99.6245554  12.5013704
  57.3766158  99.0976175  13.2126625  58.5975067  99.2344023  12.3280189
  63.6457252  90.9139886  19.7644970  63.3140576  91.7835297  19.5406185
  63.0502865  90.5976170  20.4439000  57.3813438  94.6535453   7.4975052
  57.5487840  95.5215690   7.8645523  57.1910607  94.8162735   6.5736341
  60.1388771 103.1152432  19.1640883  59.8389494 104.0177471  19.0556690
  59.7939831 102.8484615  20.0162036  53.5901253  99.5666229  15.1977587
  52.6651749  99.4342443  15.4055279  53.8385666 100.3460448  15.6947529
  63.5385915  95.6334972  16.8438320  62.6302792  95.5650381  16.5497081
  63.4873511  96.1106917  17.6720145  57.3602659  97.1093111   8.4821719
  57.2402284  97.5550162   9.3207199  56.6655247  97.4578428   7.9235257
  50.9510064  99.2099503  16.0321376  51.0802445  99.4633981  16.9460788
  50.2707515  99.8027211  15.7126031  55.1209551 109.8796753  12.1311850
  55.0433581 110.8304578  12.2100331  54.5171195 109.5342625  12.7886777
  57.6126781  97.0524618  24.7873217  56.8360115  97.6118538  24.7776082
  58.2517344  97.5381401  25.3088087  65.4047561  93.8351411  18.6216194
  64.7621942  94.1283944  17.9755988  64.9002490  93.7204331  19.4269391
  63.0587725  97.5814584   9.3102053  63.9705581  97.8141971   9.1349751
  62.5497372  98.1651628   8.7477132  55.8673153  99.8610071  24.3491184
  56.6087837 100.3995115  24.0726008  55.1610139 100.4876360  24.5062736
  61.3428493 102.0039212  22.9463346  61.7511849 101.5621622  22.2017978
  60.6205754 101.4291839  23.1997539  57.6959563  96.9411819  20.3196903
  58.5420758  97.3651232  20.4631552  57.6358200  96.2845443  21.0135466
  61.6657307 102.5640402  16.7015635  61.0366170 102.7286117  15.9991702
  61.2782969 102.9782012  17.4726599  65.5446539 103.4994840  14.0559998
  64.8597577 103.8793742  13.5057032  65.6290389 104.1090167  14.7891946
  60.8459008  94.6016187  21.9778076  60.6019940  95.3558247  21.4412352
  61.1218939  94.9801534  22.8125323  62.7997471 101.1454799  20.6555342
  63.0114366 101.7886559  19.9789723  62.7527219 100.3117116  20.1877272
  60.4023700  93.7572620  17.5591914  59.5408179  94.0553873  17.8508652
  60.4286135  93.9743019  16.6272947  57.2185269 102.3014810  13.9665720
  57.6823615 102.5802513  13.1770342  56.9542067 101.3998255  13.7838810
  54.1109350 101.8486292  16.9045483  54.6810707 102.2773560  16.2662967
  54.7017462 101.5668877  17.6029669  56.1554155  98.4237963  10.7755285
  56.8578199  98.8759007  11.2429211  55.8234784  97.7821782  11.4035178
  54.6034517  97.0149719  25.1506494  53.9733177  97.6966000  25.3841891
  54.4970605  96.9032801  24.2059632  49.8979489  96.6821515  16.0772418
  49.1078543  96.9379044  15.6012529  50.3890737  97.4969853  16.1824459
  63.9143299 104.0226755  18.8277699  64.7360743 103.6206942  18.5460381
  63.9105702 103.9194989  19.7793815  51.8494235  97.0466095  13.0355895
  51.0525398  97.1584789  13.5539391  51.6219827  97.3852747  12.1696786
  57.6799902 103.5710798  20.9838410  57.7444335 104.0331205  21.8196582
  56.9710826 102.9408163  21.1120720  48.1817192  96.9352006  18.5087409
  48.4325231  97.8199016  18.7744985  48.7176741  96.7556607  17.7362501
  72.0049292 100.3665503  15.1762671  71.2513000  99.7972901  15.0206675
  72.1396833 100.3328168  16.1233305  57.3947920 105.2378905  10.8517390
  57.2593595 106.0830441  11.2802238  57.9357732 105.4398183  10.0883324
  53.8815260  91.3170485  27.5131745  53.4882205  90.7636684  28.1879389
  54.6981400  91.6281064  27.9038263  50.8477317 102.7554343  11.4245315
  51.3601838 103.5497594  11.5750880  51.5000030 102.0580634  11.3578917
  52.6572202 105.8720100  13.5068068  52.8338830 106.7938064  13.3189052
  53.4529036 105.5578519  13.9362448  56.7983221  92.7328364  25.1052002
  57.5392934  93.3335518  25.0256464  57.0301143  91.9906002  24.5470044
  51.9424559  97.9184732  23.3830232  51.8278074  97.0169989  23.6837330
  51.0869076  98.1648428  23.0315048  59.0216396 105.8602472  24.9817732
  58.5780251 105.0738851  24.6638637  59.6833610 106.0481622  24.3161623
  53.7803518 107.3898274  19.5078411  54.3310943 107.2615337  18.7355405
  52.9414993 107.6893163  19.1573303  61.1197634 106.1405272  23.0099133
  61.1016110 106.9614153  22.5179403  62.0417554 106.0159347  23.2349275
  57.5770689 103.6549401  23.8522642  58.1099025 102.8937690  23.6221950
  57.0484770 103.3623053  24.5946796  60.7440384  88.7609467  19.3816284
  60.4004653  89.6511109  19.3055394  61.1119346  88.5711125  18.5185869
  48.8126234 101.0842998  12.2004886  49.6501456 101.4940006  11.9838593
  48.9904502 100.1442440  12.1705080  60.7090666  98.7518078   7.8888719
  60.1937290  99.5222683   8.1277106  60.4367975  98.0783215   8.5121780
  58.2937777  93.5967779  12.9473957  57.4379374  93.2074630  12.7679596
  58.7064729  93.6759740  12.0873743  59.8236924  91.1314122  17.3465517
  59.3201719  91.0944258  16.5333322  60.1167531  92.0406865  17.4062173
  56.0679810  91.2152852  16.3531698  56.9332807  91.0195661  15.9937588
  56.1357319  90.9863204  17.2801055  65.6824940 101.5050433   9.8241892
  64.9054383 101.1661593   9.3797054  66.3616421 101.5103056   9.1496857
  60.4976969  96.6245171   9.7148500  60.1927105  96.9391320  10.5658643
  61.4507412  96.7026590   9.7575833  58.9423401 102.7835394  11.3641454
  58.4144763 102.0488153  11.0514691  58.4410904 103.5610070  11.1181422
  63.9216247 100.9784414  16.4808500  63.2639922 101.6683676  16.5688629
  64.7256646 101.3680846  16.8242486  53.6742129  93.4455060  13.7248065
  54.2485881  93.2230242  12.9921258  54.2613111  93.5143755  14.4776667
  62.7321706  99.3328787  14.5312442  63.2453588  99.9658779  15.0334152
  63.3822930  98.7329983  14.1655802  54.0011716  95.4759521   7.7443951
  53.1649028  95.8134208   8.0653225  53.8616486  95.3408501   6.8071088
  55.9764797  90.3196309  12.4523135  55.3229209  90.0045326  11.8279749
  55.9345271  89.6972050  13.1782958  57.0876001 100.6015604   4.3676427
  56.1803063 100.3704858   4.5667576  57.5847033  99.8053223   4.5550408
  59.9944080 109.3113111   7.2873113  59.3205779 109.6144808   7.8958071
  60.3809902 110.1142192   6.9378570  59.2102537  96.8078243  16.7770782
  58.2925098  97.0293190  16.6192470  59.6262681  96.8824553  15.9182490
  59.9937585  98.2069658  11.9073463  60.7409404  98.7191055  11.5980585
  60.2629174  97.8853711  12.7677856  58.2664235 100.7028199   8.8900417
  57.3575454 100.4187232   8.9872887  58.2959319 101.1227278   8.0303724
  63.4983502 104.3134788  12.6591584  63.0445829 103.4725698  12.7156775
  62.8677469 104.9496187  12.9966365  62.4416422  95.2426775  13.8892252
  61.7039179  94.7304161  14.2202494  62.6943195  94.8027156  13.0775529
  61.9416442 106.1511285  13.5941403  62.2339416 106.7116342  12.8753768
  62.4515062 106.4439846  14.3494562  62.5428049  88.0203027  14.4834021
  62.8486926  87.1600390  14.1959936  63.2680654  88.6120647  14.2833015
  48.8352405  98.4233713  12.8715619  48.6376805  97.8303074  12.1466686
  48.2799069  98.1185923  13.5891558  56.8149129  98.3156820  14.9910212
  56.8697739  97.3630656  14.9152689  56.0040331  98.4716259  15.4751511
  57.9640323 102.2436943   6.2288495  57.5259753 101.5272802   5.7694133
  58.7050764 102.4713057   5.6673587  54.7541489  96.9333879  12.7500591
  53.9409354  97.2328050  13.1565783  55.2500483  96.5389568  13.4675073
  56.9050067 106.9291636  14.6834856  56.8626246 107.1552483  13.7543388
  57.8212766 106.6955011  14.8320657  60.3515701  97.3975704  21.5815485
  60.7065088  97.6247177  22.4409951  60.9987832  97.7294081  20.9592740
  66.0813437 100.5194140  12.2864814  65.9431336 100.7095736  11.3586003
  65.7249656 101.2813523  12.7432865  54.2455564  94.5052235  18.3661826
  54.8854943  94.3640994  17.6684789  53.4133094  94.2186748  17.9900428
  66.1082817 102.5870667  17.2976086  66.5419324 102.4945956  18.1459140
  66.8214398 102.5628167  16.6596102  55.0215867 103.8054665  14.4796819
  55.8156466 103.3104985  14.2779393  54.3107560 103.2772528  14.1164524
  59.8410712 106.1872761  18.8309186  59.8947734 106.7563697  19.5986902
  58.9725493 106.3574646  18.4663223  51.3298631  97.9497747  10.5556571
  50.3996219  97.8882203  10.7726533  51.4256103  97.4273700   9.7593212
  51.2484180  94.4752560  13.1434813  51.5090997  95.3897893  13.0343973
  52.0701352  94.0077002  13.2931426  52.7209105  95.8890317  20.3133637
  53.3932159  95.6807679  19.6646286  51.8938892  95.6912403  19.8738870
  66.9698367 102.6294367  19.8308971  67.1634257 103.5340178  20.0768246
  66.8698985 102.1701786  20.6647556  58.6234677  92.5152258  22.3299298
  57.9762592  93.2142208  22.2363775  59.3935693  92.9488402  22.6975546
  62.0313475 102.7801110  25.4049852  61.8798982 102.5511662  24.4879935
  62.0218155 103.7371712  25.4181197  58.7998812 100.3533023  20.3896118
  59.7290872 100.5044182  20.2165085  58.3789842 100.4417044  19.5344765
  57.5987143 104.3783687  18.1594656  57.4598229 104.0102472  19.0320594
  56.8101740 104.8931327  17.9878613  58.1935295 109.4792784   9.5020192
  58.3687051 109.0080827  10.3165815  57.5068083 110.1058550   9.7301453
  59.1492359 103.7565290  15.5483493  58.8142191 103.7166060  16.4441143
  58.6496304 103.0910006  15.0753904  53.1236603  99.1632920  21.0736075
  52.9856401  98.4313159  21.6747614  54.0341526  99.0741820  20.7920262
  62.0851550 101.1021324   5.8220553  61.4680721 100.3768152   5.7253606
  61.6168039 101.8630685   5.4787627  55.7518903  98.8752879  20.5619754
  56.4618522  98.2346072  20.5206373  55.7088211  99.1265774  21.4845935
  63.7405682 105.8120233  23.4826333  63.6818228 105.1279453  22.8156916
  64.1425200 106.5539223  23.0306959  54.4647837  95.8618097  22.3815394
  53.9285194  95.4108836  23.0336990  53.8764546  95.9964006  21.6385858
  52.7596381 112.6282147  16.2760052  52.9992979 113.2600671  16.9539071
  51.9165577 112.2770187  16.5625412  53.8750096  95.3206749   4.9441857
  52.9979563  95.1995549   4.5804104  54.3507849  94.5292827   4.6920746
  63.7423089 103.7759817  21.7140313  62.8549868 103.4385738  21.8366712
  64.3121640 103.0442848  21.9509078  45.3952236 100.1083908  15.0383364
  46.0823276  99.7945638  14.4504380  45.2400365 101.0125273  14.7650616
  50.1986958  94.9974105  19.4668388  50.1145147  94.3899774  18.7318798
  49.3769665  95.4883123  19.4677885  57.2724243 108.4361269  18.6801556
  57.1994414 109.2416240  19.1920861  56.8301636 108.6353235  17.8549578
  57.0614022 107.6733039  12.1904378  56.2781544 108.2154719  12.2842602
  57.7606767 108.1907019  12.5898619  60.3710672  93.4827668  14.8338583
  60.8679372  92.7297631  14.5139653  59.5997654  93.5191985  14.2681793
  68.2240430  99.1868034  16.4756875  68.2130306 100.0692749  16.1050808
  67.3557809  98.8339585  16.2811412  59.7322926 108.3348103  20.8359715
  60.4450898 108.9695568  20.7635616  59.2412955 108.4311969  20.0199717
  61.4540453 102.2399356  12.4077007  60.5196732 102.3600818  12.2381711
  61.6317121 101.3371822  12.1437016  56.9545641  95.6245051  14.5610268
  56.5843429  95.0716092  15.2491173  57.4504734  95.0203185  14.0085268
  64.8413004  98.0816675  12.9427041  65.3073457  98.9144667  12.8687343
  65.2920505  97.6161657  13.6472299  54.7834840 106.0842546  21.6565286
  55.4844299 106.7179029  21.8094680  54.3129955 106.4257278  20.8960925
  62.9089235 104.4260496   9.9413193  63.1849079 104.3117091  10.8507067
  62.0393734 104.0277981   9.9025366  62.8129667  90.4497262  16.9817942
  61.8992747  90.6801489  17.1500149  63.2422769  90.5335706  17.8331974
  62.5836126  98.6387154  19.4817836  61.9307576  98.8863061  18.8270289
  62.9616506  97.8251292  19.1480313  59.5443300 108.6746847  13.5846006
  59.7265694 107.8568503  14.0473759  60.3676286 108.8914539  13.1470896
  59.8785465 107.6015032  10.8461055  60.4073231 107.0907487  10.2331217
  60.1413685 107.2857562  11.7106588  58.6323699  99.3806965  25.9683873
  57.9564336  99.2801094  26.6386248  59.4551333  99.2246179  26.4319870
  50.3802558 105.6178901  18.5896388  50.9655995 104.8722589  18.7224293
  50.1827396 105.9282858  19.4733052  53.2341213 108.6530149  13.6058831
  52.5651588 109.1376277  13.1222871  53.0954083 108.8999369  14.5202209
  44.9720212  98.1884502  17.3100832  45.0104312  97.6548092  18.1037950
  44.4660505  97.6619707  16.6911809  57.3746482 110.6873892  20.2041489
  57.9264790 110.8505514  20.9690574  57.7152675 111.2778330  19.5321514
  52.3510975  93.0349042  20.8063374  52.4152301  93.8963873  20.3940772
  52.2878095  92.4223044  20.0735732  51.8263247  95.1072175  24.4536408
  52.4535286  94.7249252  25.0673932  50.9691166  94.8886377  24.8192101
  62.2257356 105.5135150  26.0590144  62.7697260 106.1265108  25.5645098
  61.6444201 106.0714728  26.5757157  48.6028790  96.9148604  10.3854763
  48.8982231  96.0059282  10.3321817  47.7016826  96.8936343  10.0635765
  60.5114869 108.6355868  17.1905171  60.3866008 107.8345608  16.6816117
  61.1693960 109.1302061  16.7019141  52.1323037  94.9904600  16.3682312
  51.4109623  95.6040568  16.2289785  52.9216293  95.5262365  16.2898958
  62.5749777 106.4364888  18.8184721  61.6280113 106.3170239  18.7463048
  62.9232550 105.5487386  18.9010983  54.9349351  92.3259027  22.6422963
  55.4583752  92.5721323  23.4049273  54.7161684  93.1579062  22.2226101
  50.3316632  94.5962702  10.5094088  50.0029338  93.7160080  10.3269194
  50.6856002  94.5410370  11.3970477  59.5796210 106.2317604  15.0189074
  59.4321173 105.3034312  15.1996644  60.4049704 106.2537695  14.5346149
  53.4458455  94.8835671  10.8769566  53.7854527  95.4121593  10.1548174
  53.8930575  95.2216077  11.6528132  63.1830332 107.0546163  16.1053946
  64.1076880 106.8489024  15.9678398  63.0145636 106.8062564  17.0143288
  56.1401896  93.2672722  20.3272634  55.7998716  92.4680535  20.7293314
  55.4340902  93.5674433  19.7549467  56.7918367  90.3522034  18.7799957
  57.6144437  89.8782513  18.6578847  57.0356431  91.1312518  19.2798643
  55.4326602  93.3810293   9.0762859  56.1534964  93.7591546   8.5726575
  54.8091906  94.0999170   9.1797837  59.5757725  94.0855442  10.0121191
  59.7921339  94.9680080   9.7110019  59.0951792  93.6941655   9.2826833
  54.3156946  97.0441155  16.5891936  54.1701527  97.3581458  17.4816217
  53.8382150  97.6626055  16.0362834  56.1753329  94.0343703  16.6372825
  56.1614898  93.1384796  16.3005123  56.8925757  94.0414367  17.2711111
  58.0279460  94.4681043  18.6825953  57.7697238  95.3898114  18.6810283
  57.4964500  94.0711478  19.3726417  62.9725649 107.5731830  11.4616038
  63.1462526 107.0078253  10.7089890  63.4654540 108.3732725  11.2795528
  48.7902608  99.5846499  19.5279597  48.2456076 100.3606307  19.6599871
  49.6681958  99.9317304  19.3698718  55.5790225  92.9158083  11.9060395
  55.7006136  91.9874730  12.1051283  55.2892267  92.9296769  10.9938711
  58.4481415  90.6012994  15.0427115  58.4703112  90.6652327  14.0879095
  58.8649474  89.7617502  15.2367621  68.8265040 100.3368253  13.0806338
  69.2696186  99.5875579  12.6825461  67.9491550 100.3278390  12.6980070
  63.9600821 106.8898595   8.5612936  64.6551726 107.5105287   8.7800251
  64.3023971 106.0393946   8.8365314  49.5768630  98.7116396  22.4209754
  48.8350366  98.8599031  23.0074384  49.2561374  98.9724661  21.5576503
  65.8592244 104.3398300  10.0900267  66.3843568 104.6785573   9.3649587
  65.7714597 103.4045316   9.9063402  57.5212293 108.2532374  22.2190144
  57.8299419 108.0081521  23.0912843  58.3187775 108.4579012  21.7309014
  57.5432905 110.4070284  14.4495520  57.1037895 109.9146662  15.1428377
  58.2941022 109.8643251  14.2087595  50.0225244 106.5981824  14.4520148
  50.8483264 106.2985596  14.0718792  49.6719296 105.8289447  14.9009937
  54.9906777 105.9508293  16.5217822  54.3686786 105.2878998  16.2220050
  55.6611644 105.9769425  15.8391470  48.2233849 104.5168151  15.4109082
  47.3865757 104.0890325  15.2293083  48.1957494 104.7100594  16.3479873
  55.0631305  94.4290081  26.1150328  55.1119460  95.3052204  25.7328097
  55.6053819  93.8867474  25.5421971  65.5486150 104.9731204  25.3951465
  64.7581694 104.9555343  24.8555964  65.3119505 105.5119498  26.1500501
  65.6684025 101.8223670  22.7084193  65.7182030 101.6573678  23.6499716
  65.5597949 100.9550929  22.3182074  54.5520284 104.5012216   9.9976282
  54.7008404 105.1847680   9.3442955  55.3586727 104.4817306  10.5125738
  62.9587788  97.8054598  24.0243500  63.8597650  97.6661063  23.7327498
  63.0335762  97.9709053  24.9641678  57.2930593  95.1821453  22.8696686
  56.4233902  95.4755019  22.5979275  57.5290073  95.7661898  23.5903950
  67.1702222 104.2420612  22.9526215  66.8787030 104.6050592  23.7889676
  66.5574353 103.5287620  22.7739547  68.3697904 101.8073492  15.4728785
  69.2044796 102.2463296  15.6366346  68.5057033 101.3312145  14.6537031
  65.4189410  99.3653226  21.4206273  65.8943532  99.5580873  20.6125124
  64.4954976  99.4212412  21.1749657  52.3072917 100.5277394  11.0037351
  52.0618959  99.6239724  11.2017561  52.4768831 100.5294544  10.0616829
  59.9969627  91.4001070  20.3862107  60.5151571  92.1362097  20.0608595
  59.6424760  91.7065063  21.2208866  51.5768564  96.2605751   8.5023513
  50.8837809  96.3350106   7.8463549  51.3320316  95.4966095   9.0245030
  60.2482221  87.8201353  15.9063003  60.5283975  87.1524542  16.5323430
  61.0332828  88.0130448  15.3937667  58.0515689 106.9960346   7.4688030
  57.4789657 107.6150534   7.0158502  58.6248483 107.5459708   8.0027952
  64.1191079  96.2418987  19.6534579  65.0708502  96.3417084  19.6746803
  63.9494530  95.4497255  20.1632663  62.1405459  93.3274570  19.8393979
  61.5455391  93.6079583  19.1440468  61.8555156  93.8168471  20.6110721
  61.2712949 107.2797497   8.5996612  62.2043622 107.2143058   8.8029488
  61.1836162 108.1153763   8.1411145  63.9000966 106.5963367   5.5600560
  63.8214597 106.2623231   6.4536318  64.7210633 107.0885135   5.5592032
  66.5979157  99.4625106  18.7676878  66.5655477  98.5241107  18.9536562
  67.2079781  99.5409143  18.0342703  58.4362488  98.3321159   4.8104082
  59.3821593  98.2027367   4.8792500  58.0576733  97.5935821   5.2873510
  66.7473646  96.2536150  18.8135161  66.2312694  95.4694606  18.6265090
  67.6313594  95.9254866  18.9781681  64.4084373  89.9977165  14.7730974
  64.2109194  89.6892253  15.6574306  65.0184078  90.7238804  14.9028904
  72.4155707 100.5241113  17.9082915  73.1459095 100.2626401  18.4690618
  71.8062652  99.7869835  17.9484983  70.4971004  98.6648976  18.5057366
  69.7704168  98.5304941  17.8973858  70.0818291  98.9725804  19.3114084
  58.3201181 102.3838905  26.2704739  59.2404190 102.5617504  26.4644786
  58.2850764 101.4394951  26.1184439  56.6205405  96.2571136   4.7458967
  55.7136861  95.9604248   4.8221681  56.8981386  95.9600954   3.8793254
  47.5383346  97.5777499  15.1958014  47.2186130  96.7242807  14.9032388
  46.9916774  97.7926077  15.9515981  51.3163253 100.2939940  18.9127520
  51.5349263 101.2257048  18.9315554  51.7289027  99.9347914  19.6982324
  58.2367471  90.8008025  10.9003209  57.4268199  90.4555110  11.2758455
  58.9251888  90.4915569  11.4890820  60.1658019  89.8786072  12.5227505
  60.7189058  90.2981526  13.1817529  60.4028106  88.9521820  12.5650461
  56.1891118  95.8673146  28.3030269  56.0887845  96.8167503  28.2342360
  55.9712660  95.5391385  27.4306339  55.3904190  93.1158071   4.8870947
  56.2523354  93.4412969   5.1466764  55.5754534  92.3289567   4.3744012
  47.4071606 101.1980411  17.1651135  46.7135077 100.7834363  16.6521090
  48.1544597 101.2400947  16.5684554  63.5436826  91.9886597  12.0306170
  62.9635495  92.6471401  11.6484222  63.2772759  91.1663942  11.6193587
  61.9940393  91.3891655  14.2327490  62.4940171  91.5008190  13.4241809
  62.6376001  91.0852708  14.8728298  56.0522388  99.2970285  27.1195331
  55.5689470 100.0970645  27.3259220  56.1383327  99.3078230  26.1662775
  49.3208348 101.1298664  15.0417150  49.2979036 101.2286352  14.0899033
  49.6308985 101.9763815  15.3634316  51.9795726 103.1874819  19.1563765
  52.9338979 103.1558762  19.0893696  51.7808250 102.7265443  19.9713991
  52.5695108 101.7575935  21.7234562  53.3887997 102.2520014  21.7469400
  52.8431916 100.8407904  21.6952130  62.3261704  94.1486688  11.0862518
  61.4387559  94.4336338  10.8682713  62.7415693  93.9880451  10.2389795
  65.6776240  94.1733209  14.8016857  66.4536631  94.6629661  15.0741474
  64.9524375  94.5991263  15.2588727  68.1148799  94.8860828  15.8590798
  68.7093290  94.6456564  15.1484106  68.1875383  94.1667958  16.4864334
  50.3345955 108.7294439  16.1733963  50.2000423 107.9694840  15.6071961
  49.9178017 109.4535339  15.7062752  61.4704918 103.9131362   5.1810538
  62.1740768 104.1181365   5.7968194  60.7467566 104.4808124   5.4459621
  62.3002728  99.6641224  11.3012808  62.2437929 100.1209775  10.4620441
  62.8531070  98.9031908  11.1235651  66.1107534  95.4530955  12.1262928
  65.8544468  95.0527591  12.9571135  65.4860402  96.1674749  12.0013067
  70.4219872  98.1927029  14.6334219  69.8619430  98.2620218  15.4065781
  69.8163375  98.0168013  13.9133715  53.4915081 109.6263756  16.3852405
  53.3747465 110.5709188  16.2831096  52.6707527 109.3237317  16.7738204
  63.3791615 104.3513892   7.2308998  64.2137219 103.9195090   7.0486473
  63.2175958 104.1795905   8.1585892  63.0337507 100.8546005   8.5965337
  62.9786311 100.6890276   7.6553781  62.4083563 101.5622038   8.7527527
  47.8230022  96.0914069  22.4226759  48.4688886  95.5813023  22.9113985
  47.6147173  96.8282751  22.9970185  60.3483414 103.1594917  27.9218900
  61.2174574 103.3335569  27.5605535  59.8690166 103.9789334  27.7994629
  56.3433633  90.3554114   8.1750656  56.3312303  91.2995954   8.3318927
  57.2357055  90.1724259   7.8810117  54.5169595 110.2792018  19.6008334
  55.4196841 110.3115628  19.9174829  54.2906965 109.3492469  19.6154669
  56.2723197 109.0323004  16.2618412  55.3218828 109.0324866  16.1482785
  56.5755683 108.2855739  15.7454447  60.1585752  86.9496891  12.4296592
  59.3918148  86.3955377  12.5753275  60.5696457  87.0218759  13.2910744
  52.1627513  93.2381686  26.5201774  53.0258975  92.8818491  26.7305098
  51.5892924  92.8995581  27.2077178  72.0075890 114.8683543  17.3264175
  72.6454300 114.7490290  16.6227515  71.8896733 115.8164387  17.3852127
  68.8165597 114.8210971  17.2625699  68.4784108 114.7052035  16.3746234
  69.6855365 114.4202136  17.2426706  64.6752412 116.6746447  13.2522590
  64.1117277 116.5836384  12.4838878  64.5604807 115.8546352  13.7325083
  69.2985379 115.9745823  23.2211905  69.2874020 115.5798621  22.3492409
  69.4606019 115.2411895  23.8145676  62.2216844 118.1697639  16.0906811
  63.0138136 117.8288463  15.6753110  62.4613494 118.2792614  17.0108964
  66.0192641 118.7582934  22.1691089  65.7282507 119.6628565  22.0537755
  66.6549625 118.7999462  22.8835158  66.9448847 116.1359783  18.7592449
  67.5412420 115.9115805  18.0449412  67.0023819 115.3944528  19.3617896
  71.5617159 112.5934997  14.4017383  72.3480248 112.1754420  14.0507800
  71.8255863 113.4981089  14.5699031  76.9625586 112.5310230  15.3050361
  77.6950758 111.9609447  15.5388191  76.2064942 112.1431830  15.7456867
  68.5801706 114.9537471  12.5013704  68.2159913 114.4268092  13.2126625
  69.4368821 114.5635940  12.3280189  74.4851006 106.2431804  19.7644970
  74.1534331 107.1127215  19.5406185  73.8896620 105.9268088  20.4439000
  70.9782526 118.4444350  19.1640883  70.6783249 119.3469389  19.0556690
  70.6333585 118.1776533  20.0162036  64.4295007 114.8958147  15.1977587
  63.5045504 114.7634361  15.4055279  64.6779420 115.6752366  15.6947529
  74.3779670 110.9626890  16.8438320  73.4696547 110.8942298  16.5497081
  74.3267265 111.4398835  17.6720145  61.7903818 114.5391420  16.0321376
  61.9196199 114.7925899  16.9460788  61.1101270 115.1319128  15.7126031
  68.4520535 112.3816536  24.7873217  67.6753869 112.9410456  24.7776082
  69.0911098 112.8673319  25.3088087  76.2441316 109.1643328  18.6216194
  75.6015696 109.4575862  17.9755988  75.7396244 109.0496249  19.4269391
  66.7066908 115.1901989  24.3491184  67.4481592 115.7287033  24.0726008
  66.0003893 115.8168278  24.5062736  72.1822247 117.3331129  22.9463346
  72.5905603 116.8913540  22.2017978  71.4599509 116.7583757  23.1997539
  68.5353317 112.2703736  20.3196903  69.3814512 112.6943150  20.4631552
  68.4751955 111.6137361  21.0135466  72.5051062 117.8932320  16.7015635
  71.8759924 118.0578034  15.9991702  72.1176724 118.3073930  17.4726599
  71.6852763 109.9308105  21.9778076  71.4413694 110.6850165  21.4412352
  71.9612693 110.3093452  22.8125323  73.6391225 116.4746717  20.6555342
  73.8508121 117.1178477  19.9789723  73.5920974 115.6409033  20.1877272
  71.2417454 109.0864538  17.5591914  70.3801933 109.3845791  17.8508652
  71.2679889 109.3034936  16.6272947  68.0579024 117.6306728  13.9665720
  68.5217369 117.9094431  13.1770342  67.7935822 116.7290173  13.7838810
  64.9503105 117.1778210  16.9045483  65.5204462 117.6065478  16.2662967
  65.5411217 116.8960794  17.6029669  66.9947910 113.7529881  10.7755285
  67.6971953 114.2050924  11.2429211  66.6628538 113.1113699  11.4035178
  65.4428271 112.3441637  25.1506494  64.8126932 113.0257918  25.3841891
  65.3364359 112.2324719  24.2059632  60.7373244 112.0113433  16.0772418
  59.9472298 112.2670962  15.6012529  61.2284491 112.8261771  16.1824459
  74.7537053 119.3518672  18.8277699  75.5754497 118.9498860  18.5460381
  74.7499456 119.2486907  19.7793815  62.6887989 112.3758012  13.0355895
  61.8919152 112.4876707  13.5539391  62.4613581 112.7144665  12.1696786
  68.5193657 118.9002716  20.9838410  68.5838089 119.3623123  21.8196582
  67.8104581 118.2700081  21.1120720  59.0210947 112.2643924  18.5087409
  59.2718985 113.1490934  18.7744985  59.5570495 112.0848525  17.7362501
  64.7209014 106.6462403  27.5131745  64.3275960 106.0928602  28.1879389
  65.5375154 106.9572981  27.9038263  61.6871072 118.0846261  11.4245315
  62.1995592 118.8789511  11.5750880  62.3393785 117.3872552  11.3578917
  67.6376975 108.0620282  25.1052002  68.3786688 108.6627435  25.0256464
  67.8694898 107.3197920  24.5470044  62.7818313 113.2476649  23.3830232
  62.6671828 112.3461907  23.6837330  61.9262831 113.4940346  23.0315048
  69.8610151 121.1894390  24.9817732  69.4174005 120.4030768  24.6638637
  70.5227364 121.3773540  24.3161623  64.6197272 122.7190191  19.5078411
  65.1704697 122.5907255  18.7355405  63.7808748 123.0185080  19.1573303
  71.9591389 121.4697190  23.0099133  71.9409864 122.2906071  22.5179403
  72.8811309 121.3451265  23.2349275  68.4164443 118.9841319  23.8522642
  68.9492780 118.2229607  23.6221950  67.8878524 118.6914971  24.5946796
  71.5834138 104.0901385  19.3816284  71.2398407 104.9803027  19.3055394
  71.9513101 103.9003043  18.5185869  59.6519989 116.4134915  12.2004886
  60.4895211 116.8231924  11.9838593  59.8298256 115.4734358  12.1705080
  69.1331532 108.9259697  12.9473957  68.2773128 108.5366547  12.7679596
  69.5458484 109.0051658  12.0873743  70.6630678 106.4606040  17.3465517
  70.1595474 106.4236175  16.5333322  70.9561285 107.3698783  17.4062173
  66.9073564 106.5444770  16.3531698  67.7726561 106.3487579  15.9937588
  66.9751073 106.3155122  17.2801055  74.7610002 116.3076332  16.4808500
  74.1033676 116.9975593  16.5688629  75.5650401 116.6972764  16.8242486
  64.5135883 108.7746978  13.7248065  65.0879635 108.5522159  12.9921258
  65.1006866 108.8435672  14.4776667  73.5715461 114.6620705  14.5312442
  74.0847342 115.2950697  15.0334152  74.2216684 114.0621900  14.1655802
  66.8158551 105.6488227  12.4523135  66.1622963 105.3337244  11.8279749
  66.7739025 105.0263967  13.1782958  70.0496291 112.1370160  16.7770782
  69.1318853 112.3585107  16.6192470  70.4656435 112.2116471  15.9182490
  73.2810176 110.5718692  13.8892252  72.5432933 110.0596078  14.2202494
  73.5336950 110.1319074  13.0775529  73.3821804 103.3494944  14.4834021
  73.6880680 102.4892308  14.1959936  74.1074408 103.9412564  14.2833015
  59.6746160 113.7525631  12.8715619  59.4770560 113.1594991  12.1466686
  59.1192824 113.4477841  13.5891558  67.6542883 113.6448737  14.9910212
  67.7091493 112.6922574  14.9152689  66.8434085 113.8008176  15.4751511
  65.5935243 112.2625797  12.7500591  64.7803109 112.5619968  13.1565783
  66.0894238 111.8681486  13.4675073  71.1909455 112.7267621  21.5815485
  71.5458843 112.9539095  22.4409951  71.8381586 113.0585998  20.9592740
  65.0849318 109.8344153  18.3661826  65.7248697 109.6932912  17.6684789
  64.2526849 109.5478666  17.9900428  65.8609622 119.1346583  14.4796819
  66.6550220 118.6396903  14.2779393  65.1501314 118.6064446  14.1164524
  70.6804466 121.5164678  18.8309186  70.7341489 122.0855615  19.5986902
  69.8119248 121.6866564  18.4663223  62.1692385 113.2789665  10.5556571
  61.2389974 113.2174120  10.7726533  62.2649857 112.7565617   9.7593212
  62.0877934 109.8044478  13.1434813  62.3484752 110.7189811  13.0343973
  62.9095107 109.3368920  13.2931426  63.5602860 111.2182235  20.3133637
  64.2325913 111.0099597  19.6646286  62.7332646 111.0204321  19.8738870
  77.8092121 117.9586285  19.8308971  78.0028011 118.8632096  20.0768246
  77.7092739 117.4993704  20.6647556  69.4628432 107.8444176  22.3299298
  68.8156347 108.5434125  22.2363775  70.2329447 108.2780320  22.6975546
  72.8707230 118.1093028  25.4049852  72.7192736 117.8803579  24.4879935
  72.8611909 119.0663629  25.4181197  69.6392566 115.6824941  20.3896118
  70.5684626 115.8336100  20.2165085  69.2183596 115.7708961  19.5344765
  68.4380898 119.7075605  18.1594656  68.2991984 119.3394389  19.0320594
  67.6495494 120.2223244  17.9878613  69.9886113 119.0857208  15.5483493
  69.6535946 119.0457978  16.4441143  69.4890059 118.4201924  15.0753904
  63.9630357 114.4924838  21.0736075  63.8250155 113.7605076  21.6747614
  64.8735281 114.4033738  20.7920262  66.5912658 114.2044797  20.5619754
  67.3012276 113.5637989  20.5206373  66.5481966 114.4557692  21.4845935
  74.5799436 121.1412150  23.4826333  74.5211983 120.4571370  22.8156916
  74.9818955 121.8831140  23.0306959  65.3041592 111.1910015  22.3815394
  64.7678949 110.7400753  23.0336990  64.7158300 111.3255924  21.6385858
  74.5816844 119.1051734  21.7140313  73.6943622 118.7677656  21.8366712
  75.1515395 118.3734766  21.9509078  56.2345991 115.4375826  15.0383364
  56.9217031 115.1237556  14.4504380  56.0794120 116.3417191  14.7650616
  61.0380713 110.3266023  19.4668388  60.9538902 109.7191692  18.7318798
  60.2163419 110.8175041  19.4677885  68.1117997 123.7653187  18.6801556
  68.0388169 124.5708158  19.1920861  67.6695390 123.9645152  17.8549578
  71.2104427 108.8119586  14.8338583  71.7073126 108.0589548  14.5139653
  70.4391408 108.8483903  14.2681793  79.0634184 114.5159952  16.4756875
  79.0524060 115.3984667  16.1050808  78.1951564 114.1631502  16.2811412
  70.5716681 123.6640021  20.8359715  71.2844653 124.2987485  20.7635616
  70.0806709 123.7603887  20.0199717  67.7939396 110.9536969  14.5610268
  67.4237183 110.4008009  15.2491173  68.2898488 110.3495103  14.0085268
  65.6228594 121.4134464  21.6565286  66.3238054 122.0470947  21.8094680
  65.1523709 121.7549196  20.8960925  73.6523422 105.7789180  16.9817942
  72.7386501 106.0093406  17.1500149  74.0816523 105.8627624  17.8331974
  73.4229880 113.9679072  19.4817836  72.7701330 114.2154979  18.8270289
  73.8010260 113.1543210  19.1480313  69.4717453 114.7098883  25.9683873
  68.7958090 114.6093012  26.6386248  70.2945087 114.5538096  26.4319870
  61.2196312 120.9470819  18.5896388  61.8049749 120.2014507  18.7224293
  61.0221151 121.2574776  19.4733052  55.8113967 113.5176419  17.3100832
  55.8498066 112.9840010  18.1037950  55.3054260 112.9911625  16.6911809
  68.2140236 126.0165810  20.2041489  68.7658544 126.1797432  20.9690574
  68.5546429 126.6070248  19.5321514  63.1904729 108.3640960  20.8063374
  63.2546056 109.2255791  20.3940772  63.1271849 107.7514962  20.0735732
  62.6657002 110.4364092  24.4536408  63.2929041 110.0541170  25.0673932
  61.8084921 110.2178294  24.8192101  73.0651110 120.8427068  26.0590144
  73.6091014 121.4557026  25.5645098  72.4837955 121.4006646  26.5757157
  59.4422545 112.2440522  10.3854763  59.7375986 111.3351200  10.3321817
  58.5410580 112.2228261  10.0635765  62.9716792 110.3196518  16.3682312
  62.2503377 110.9332486  16.2289785  63.7610047 110.8554283  16.2898958
  73.4143532 121.7656806  18.8184721  72.4673867 121.6462157  18.7463048
  73.7626305 120.8779304  18.9010983  65.7743105 107.6550945  22.6422963
  66.2977507 107.9013241  23.4049273  65.5555438 108.4870979  22.2226101
  61.1710386 109.9254619  10.5094088  60.8423092 109.0451998  10.3269194
  61.5249757 109.8702288  11.3970477  64.2852209 110.2127589  10.8769566
  64.6248282 110.7413510  10.1548174  64.7324330 110.5507995  11.6528132
  66.9795650 108.5964640  20.3272634  66.6392470 107.7972453  20.7293314
  66.2734656 108.8966351  19.7549467  67.6312122 105.6813952  18.7799957
  68.4538191 105.2074430  18.6578847  67.8750185 106.4604436  19.2798643
  66.2720356 108.7102211   9.0762859  66.9928719 109.0883463   8.5726575
  65.6485661 109.4291087   9.1797837  70.4151479 109.4147360  10.0121191
  70.6315094 110.2971997   9.7110019  69.9345546 109.0233573   9.2826833
  65.1550701 112.3733073  16.5891936  65.0095281 112.6873376  17.4816217
  64.6775904 112.9917973  16.0362834  67.0147084 109.3635621  16.6372825
  67.0008652 108.4676714  16.3005123  67.7319512 109.3706285  17.2711111
  68.8673214 109.7972961  18.6825953  68.6090992 110.7190032  18.6810283
  68.3358255 109.4003395  19.3726417  59.6296363 114.9138417  19.5279597
  59.0849831 115.6898225  19.6599871  60.5075713 115.2609222  19.3698718
  66.4183979 108.2450001  11.9060395  66.5399891 107.3166647  12.1051283
  66.1286022 108.2588687  10.9938711  69.2875170 105.9304911  15.0427115
  69.3096867 105.9944245  14.0879095  69.7043229 105.0909420  15.2367621
  60.4162385 114.0408313  22.4209754  59.6744121 114.1890949  23.0074384
  60.0955129 114.3016579  21.5576503  68.3606047 123.5824292  22.2190144
  68.6693174 123.3373438  23.0912843  69.1581529 123.7870930  21.7309014
  60.8618998 121.9273742  14.4520148  61.6877018 121.6277514  14.0718792
  60.5113050 121.1581365  14.9009937  65.8300532 121.2800210  16.5217822
  65.2080541 120.6170915  16.2220050  66.5005398 121.3061342  15.8391470
  59.0627603 119.8460069  15.4109082  58.2259512 119.4182243  15.2293083
  59.0351249 120.0392512  16.3479873  65.9025059 109.7581998  26.1150328
  65.9513215 110.6344121  25.7328097  66.4447573 109.2159391  25.5421971
  76.3879905 120.3023122  25.3951465  75.5975448 120.2847261  24.8555964
  76.1513259 120.8411415  26.1500501  76.5077780 117.1515588  22.7084193
  76.5575785 116.9865595  23.6499716  76.3991703 116.2842847  22.3182074
  73.7981542 113.1346516  24.0243500  74.6991405 112.9952981  23.7327498
  73.8729517 113.3000971  24.9641678  68.1324347 110.5113371  22.8696686
  67.2627657 110.8046937  22.5979275  68.3683828 111.0953816  23.5903950
  78.0095977 119.5712530  22.9526215  77.7180785 119.9342510  23.7889676
  77.3968108 118.8579538  22.7739547  76.2583165 114.6945144  21.4206273
  76.7337286 114.8872790  20.6125124  75.3348730 114.7504330  21.1749657
  63.1466671 115.8569311  11.0037351  62.9012713 114.9531641  11.2017561
  63.3162586 115.8586462  10.0616829  70.8363381 106.7292988  20.3862107
  71.3545325 107.4654015  20.0608595  70.4818514 107.0356981  21.2208866
  62.4162319 111.5897669   8.5023513  61.7231564 111.6642024   7.8463549
  62.1714071 110.8258013   9.0245030  71.0875975 103.1493270  15.9063003
  71.3677729 102.4816459  16.5323430  71.8726582 103.3422366  15.3937667
  74.9584834 111.5710904  19.6534579  75.9102257 111.6709002  19.6746803
  74.7888284 110.7789173  20.1632663  72.9799213 108.6566487  19.8393979
  72.3849145 108.9371500  19.1440468  72.6948910 109.1460388  20.6110721
  77.4372912 114.7917024  18.7676878  77.4049232 113.8533025  18.9536562
  78.0473535 114.8701061  18.0342703  77.5867400 111.5828067  18.8135161
  77.0706449 110.7986524  18.6265090  78.4707349 111.2546784  18.9781681
  75.2478127 105.3269083  14.7730974  75.0502948 105.0184171  15.6574306
  75.8577833 106.0530722  14.9028904  83.2549461 115.8533031  17.9082915
  83.9852850 115.5918319  18.4690618  82.6456407 115.1161753  17.9484983
  81.3364759 113.9940893  18.5057366  80.6097922 113.8596858  17.8973858
  80.9212045 114.3017722  19.3114084  69.1594935 117.7130823  26.2704739
  70.0797944 117.8909422  26.4644786  69.1244518 116.7686868  26.1184439
  58.3777100 112.9069417  15.1958014  58.0579884 112.0534725  14.9032388
  57.8310528 113.1217995  15.9515981  62.1557008 115.6231858  18.9127520
  62.3743017 116.5548966  18.9315554  62.5682781 115.2639832  19.6982324
  69.0761225 106.1299943  10.9003209  68.2661954 105.7847028  11.2758455
  69.7645642 105.8207487  11.4890820  71.0051774 105.2077990  12.5227505
  71.5582812 105.6273443  13.1817529  71.2421860 104.2813738  12.5650461
  67.0284873 111.1965063  28.3030269  66.9281600 112.1459420  28.2342360
  66.8106415 110.8683302  27.4306339  58.2465360 116.5272328  17.1651135
  57.5528831 116.1126281  16.6521090  58.9938351 116.5692865  16.5684554
  74.3830581 107.3178515  12.0306170  73.8029250 107.9763319  11.6484222
  74.1166513 106.4955860  11.6193587  72.8334147 106.7183573  14.2327490
  73.3333925 106.8300107  13.4241809  73.4769755 106.4144626  14.8728298
  66.8916143 114.6262202  27.1195331  66.4083225 115.4262562  27.3259220
  66.9777082 114.6370147  26.1662775  60.1602103 116.4590582  15.0417150
  60.1372791 116.5578269  14.0899033  60.4702739 117.3055733  15.3634316
  62.8189480 118.5166737  19.1563765  63.7732734 118.4850679  19.0893696
  62.6202004 118.0557361  19.9713991  63.4088863 117.0867853  21.7234562
  64.2281752 117.5811932  21.7469400  63.6825670 116.1699821  21.6952130
  73.1655459 109.4778605  11.0862518  72.2781314 109.7628256  10.8682713
  73.5809448 109.3172369  10.2389795  76.5169995 109.5025126  14.8016857
  77.2930385 109.9921579  15.0741474  75.7918129 109.9283181  15.2588727
  78.9542554 110.2152746  15.8590798  79.5487044 109.9748482  15.1484106
  79.0269137 109.4959876  16.4864334  61.1739709 124.0586357  16.1733963
  61.0394177 123.2986757  15.6071961  60.7571771 124.7827256  15.7062752
  64.3308835 124.9555674  16.3852405  64.2141219 125.9001106  16.2831096
  63.5101281 124.6529235  16.7738204  58.6623777 111.4205987  22.4226759
  59.3082640 110.9104941  22.9113985  58.4540928 112.1574669  22.9970185
  71.1877169 118.4886834  27.9218900  72.0568329 118.6627487  27.5605535
  70.7083920 119.3081251  27.7994629  67.1827387 105.6846032   8.1750656
  67.1706057 106.6287871   8.3318927  68.0750809 105.5016177   7.8810117
  65.3563349 125.6083935  19.6008334  66.2590596 125.6407546  19.9174829
  65.1300719 124.6784386  19.6154669  70.9979507 102.2788808  12.4296592
  70.2311903 101.7247295  12.5753275  71.4090212 102.3510677  13.2910744
  63.0021268 108.5673604  26.5201774  63.8652729 108.2110409  26.7305098
  62.4286678 108.2287499  27.2077178  79.2914290 127.7108453  24.7873217
  78.5147624 128.2702373  24.7776082  79.9304853 128.1965236  25.3088087
  76.2822026 127.6733555  25.1506494  75.6520686 128.3549836  25.3841891
  76.1758114 127.5616636  24.2059632  75.5602769 121.9754321  27.5131745
  75.1669714 121.4220519  28.1879389  76.3768909 122.2864899  27.9038263
  78.4770730 123.3912200  25.1052002  79.2180443 123.9919353  25.0256464
  78.7088652 122.6489838  24.5470044  73.6212068 128.5768567  23.3830232
  73.5065583 127.6753824  23.6837330  72.7656585 128.8232264  23.0315048
  80.3022186 123.1736093  22.3299298  79.6550101 123.8726043  22.2363775
  81.0723202 123.6072237  22.6975546  76.1435346 126.5201933  22.3815394
  75.6072703 126.0692671  23.0336990  75.5552055 126.6547841  21.6385858
  71.8774467 125.6557940  19.4668388  71.7932656 125.0483610  18.7318798
  71.0557174 126.1466959  19.4677885  80.3111208 130.0390800  25.9683873
  79.6351845 129.9384930  26.6386248  81.1338842 129.8830014  26.4319870
  74.0298484 123.6932878  20.8063374  74.0939810 124.5547708  20.3940772
  73.9665604 123.0806879  20.0735732  73.5050756 125.7656010  24.4536408
  74.1322795 125.3833087  25.0673932  72.6478675 125.5470212  24.8192101
  76.6136860 122.9842862  22.6422963  77.1371261 123.2305159  23.4049273
  76.3949193 123.8162897  22.2226101  71.2556139 129.3700231  22.4209754
  70.5137875 129.5182866  23.0074384  70.9348883 129.6308497  21.5576503
  76.7418814 125.0873916  26.1150328  76.7906969 125.9636039  25.7328097
  77.2841328 124.5451309  25.5421971  78.9718102 125.8405288  22.8696686
  78.1021411 126.1338855  22.5979275  79.2077582 126.4245733  23.5903950
  77.8678627 126.5256981  28.3030269  77.7675354 127.4751338  28.2342360
  77.6500169 126.1975220  27.4306339  77.7309897 129.9554120  27.1195331
  77.2476979 130.7554480  27.3259220  77.8170836 129.9662065  26.1662775
  69.5017531 126.7497905  22.4226759  70.1476395 126.2396859  22.9113985
  69.2934682 127.4866586  22.9970185  73.8415022 123.8965522  26.5201774
  74.7046484 123.5402327  26.7305098  73.2680433 123.5579417  27.2077178
  37.3428889  52.2080759  11.7063039  36.8992743  51.4217138  11.3883943
  38.0046102  52.3959910  11.0406930  39.4410127  52.4883559   9.7344440
  39.4228602  53.3092440   9.2424709  40.3630047  52.3637634   9.9594581
  35.8983181  50.0027689  10.5767948  36.4311518  49.2415977  10.3467256
  35.3697262  49.7101340  11.3192103  45.2910859  48.9772655   6.5554278
  45.4846749  49.8818465   6.8013553  45.1911477  48.5180074   7.3892863
  40.3525968  49.1279397  12.1295158  40.2011474  48.8989949  11.2125242
  40.3430647  50.0849999  12.1426503  42.0618174  52.1598520  10.2071640
  42.0030720  51.4757740   9.5402223  42.4637693  52.9017510   9.7552266
  42.0635581  50.1238104   8.4385620  41.1762360  49.7864026   8.5612019
  42.6334133  49.3921135   8.6754385  38.0535418  54.6826390   7.5605022
  38.7663391  55.3173855   7.4880923  37.5625447  54.7790256   6.7445023
  36.9536191  45.7285252  12.6929180  36.2776828  45.6279382  13.3631555
  37.7763825  45.5724466  13.1565177  35.6958974  57.0352180   6.9286796
  36.2477282  57.1983801   7.6935881  36.0365167  57.6256617   6.2566821
  40.5469848  51.8613437  12.7835450  41.0909752  52.4743395  12.2890405
  39.9656693  52.4193016  13.3002463  35.8424785  54.6010661   8.9435450
  36.1511912  54.3559808   9.8158150  36.6400267  54.8057300   8.4554320
  43.8698642  51.3209491  12.1196772  43.0794186  51.3033630  11.5801271
  43.6331997  51.8597785  12.8745808  43.9896518  48.1701958   9.4329500
  44.0394522  48.0051965  10.3745023  43.8810441  47.3029217   9.0427381
  41.2800280  44.1532886  10.7488807  42.1810143  44.0139350  10.4572805
  41.3548254  44.3187340  11.6886984  45.4914714  50.5898899   9.6771522
  45.1999523  50.9528880  10.5134983  44.8786846  49.8765907   9.4984854
  36.6413673  48.7317193  12.9950046  37.5616682  48.9095792  13.1890092
  36.6063256  47.7873238  12.8429745  34.3734881  45.6448572  13.8440638
  33.8901962  46.4448932  14.0504527  34.4595820  45.6556517  12.8908082
  38.6695907  49.5073204  14.6464207  39.5387066  49.6813856  14.2850842
  38.1902658  50.3267621  14.5239936  50.3288382  61.2161830   4.0509481
  50.9666792  61.0968577   3.3472821  50.2109225  62.1642674   4.1097434
  47.1378089  61.1689258   3.9871006  46.7996600  61.0530323   3.0991541
  48.0067857  60.7680423   3.9672012  47.6197872  62.3224110   9.9457212
  47.6086513  61.9276908   9.0737715  47.7818511  61.5890182  10.5390983
  40.5429336  64.5175926   2.8152117  41.3350628  64.1766751   2.3998417
  40.7825987  64.6270901   3.7354271  48.5764463  66.6895702  -4.7117638
  47.9252443  67.2749783  -5.0983624  49.3708826  67.2201897  -4.6522601
  44.3405133  65.1061222   8.8936396  44.0494999  66.0106852   8.7783062
  44.9762117  65.1477749   9.6080465  45.2661340  62.4838070   5.4837755
  45.8624912  62.2594092   4.7694718  45.3236311  61.7422816   6.0863203
  49.8829651  58.9413284   1.1262689  50.6692740  58.5232707   0.7753106
  50.1468355  59.8459376   1.2944338  55.2838078  58.8788517   2.0295668
  56.0163250  58.3087734   2.2633497  54.5277434  58.4910117   2.4702173
  46.9014198  61.3015758  -0.7740990  46.5372405  60.7746379  -0.0628068
  47.7581314  60.9114228  -0.9474504  52.8063498  52.5910091   6.4890277
  52.4746823  53.4605502   6.2651491  52.2109112  52.2746375   7.1684307
  49.2995018  64.7922637   5.8886189  48.9995741  65.6947676   5.7801996
  48.9546078  64.5254820   6.7407342  42.7507499  61.2436434   1.9222894
  41.8257996  61.1112648   2.1300585  42.9991913  62.0230653   2.4192836
  52.6992162  57.3105177   3.5683627  51.7909039  57.2420586   3.2742388
  52.6479758  57.7877122   4.3965452  40.1116311  60.8869707   2.7566683
  40.2408692  61.1404186   3.6706094  39.4313762  61.4797415   2.4371338
  44.2815798  71.5566957  -1.1442843  44.2039827  72.5074783  -1.0654362
  43.6777441  71.2112830  -0.4867917  46.7733028  58.7294823  11.5118524
  45.9966362  59.2888743  11.5021388  47.4123591  59.2151606  12.0333394
  54.5653808  55.5121616   5.3461500  53.9228188  55.8054149   4.7001295
  54.0608737  55.3974536   6.1514697  45.0279400  61.5380276  11.0736491
  45.7694084  62.0765320  10.7971314  44.3216385  62.1646565  11.2308043
  50.5034740  63.6809417   9.6708652  50.9118096  63.2391827   8.9263285
  49.7812001  63.1062044   9.9242845  46.8565810  58.6182023   7.0442209
  47.7027005  59.0421437   7.1876858  46.7964447  57.9615648   7.7380772
  50.8263554  64.2410607   3.4260941  50.1972417  64.4056321   2.7237009
  50.4389216  64.6552217   4.1971905  54.7052786  65.1765045   0.7805305
  54.0203824  65.5563947   0.2302338  54.7896635  65.7860372   1.5137253
  50.0065255  56.2786392   8.7023383  49.7626187  57.0328452   8.1657659
  50.2825185  56.6571739   9.5370630  51.9603718  62.8225004   7.3800648
  52.1720613  63.4656764   6.7035030  51.9133466  61.9887321   6.9122579
  49.5629947  55.4342825   4.2837221  48.7014426  55.7324078   4.5753958
  49.5892381  55.6513224   3.3518253  46.3791516  63.9785015   0.6911026
  46.8429862  64.2572718  -0.0984351  46.1148314  63.0768460   0.5084117
  43.2715597  63.5256497   3.6290790  43.8416954  63.9543765   2.9908274
  43.8623709  63.2439082   4.3274975  43.7640764  58.6919924  11.8751801
  43.1339424  59.3736205  12.1087198  43.6576852  58.5803006  10.9304939
  53.0749546  65.6996960   5.5523006  53.8966989  65.2977147   5.2705687
  53.0711948  65.5965194   6.5039122  46.8406149  65.2481003   7.7083716
  46.9050582  65.7101410   8.5441888  46.1317073  64.6178368   7.8366026
  37.3423439  58.6122211   5.2332716  37.5931477  59.4969221   5.4990292
  37.8782987  58.4326812   4.4607808  61.1655539  62.0435708   1.9007977
  60.4119247  61.4743106   1.7451982  61.3003080  62.0098373   2.8478612
  46.5554167  66.9149110  -2.4237303  46.4199841  67.7600646  -1.9952456
  47.0963979  67.1168388  -3.1871370  43.0421506  52.9940690  14.2377052
  42.6488452  52.4406889  14.9124696  43.8587647  53.3051269  14.6283569
  41.8178449  67.5490305   0.2313375  41.9945077  68.4708269   0.0434359
  42.6135282  67.2348724   0.6607755  45.9589467  54.4098569  11.8297308
  46.6999181  55.0105722  11.7501771  46.1907390  53.6676207  11.2715351
  41.1030805  59.5954937  10.1075538  40.9884320  58.6940194  10.4082637
  40.2475323  59.8418633   9.7560355  48.1822643  67.5372677  11.7063039
  47.7386497  66.7509055  11.3883943  48.8439857  67.7251827  11.0406930
  42.9409764  69.0668478   6.2323717  43.4917189  68.9385542   5.4600711
  42.1021240  69.3663367   5.8818610  50.2803881  67.8175477   9.7344440
  50.2622357  68.6384358   9.2424709  51.2023801  67.6929552   9.9594581
  46.7376935  65.3319606  10.5767948  47.2705272  64.5707894  10.3467256
  46.2091016  65.0393258  11.3192103  49.9046630  50.4379672   6.1061590
  49.5610900  51.3281314   6.0300701  50.2725593  50.2481330   5.2431175
  48.9843171  52.8084327   4.0710823  48.4807966  52.7714463   3.2578629
  49.2773778  53.7177070   4.1307480  54.8431187  63.1820638  -3.4512801
  54.0660630  62.8431798  -3.8957639  55.5222668  63.1873261  -4.1257836
  48.1029648  64.4605599  -1.9113240  47.5751010  63.7258358  -2.2240002
  47.6017151  65.2380275  -2.1573271  53.0822494  62.6554619   3.2053807
  52.4246168  63.3453881   3.2933935  53.8862893  63.0451051   3.5487793
  51.8927953  61.0098992   1.2557748  52.4059835  61.6428984   1.7579458
  52.5429177  60.4100187   0.8901108  49.1550327  70.9883316  -5.9881580
  48.4812026  71.2915013  -5.3796623  49.5416149  71.7912397  -6.3376123
  48.3708784  58.4848448   3.5016089  47.4531345  58.7063395   3.3437777
  48.7868927  58.5594758   2.6427796  49.1543831  59.8839863  -1.3681231
  49.9015650  60.3961260  -1.6774109  49.4235421  59.5623916  -0.5076837
  52.6589749  65.9904993  -0.6163109  52.2052076  65.1495903  -0.5597918
  52.0283716  66.6266392  -0.2788329  51.6022669  56.9196979   0.6137559
  50.8645425  56.4074366   0.9447801  51.8549442  56.4797361  -0.1979165
  51.1022688  67.8281490   0.3186709  51.3945663  68.3886547  -0.4000925
  51.6121309  68.1210051   1.0739868  45.9755376  59.9927025   1.7155519
  46.0303985  59.0400861   1.6397995  45.1646578  60.1486464   2.1996817
  46.0656313  68.6061841   1.4080162  46.0232492  68.8322687   0.4788694
  46.9819012  68.3725216   1.5565964  49.5121947  59.0745909   8.3060792
  49.8671335  59.3017382   9.1655257  50.1594079  59.4064286   7.6838047
  55.2419684  62.1964345  -0.9889879  55.1037583  62.3865941  -1.9168690
  54.8855903  62.9583727  -0.5321828  43.4061810  56.1822440   5.0907133
  44.0461190  56.0411199   4.3930096  42.5739341  55.8956953   4.7145735
  55.2689064  64.2640872   4.0221392  55.7025570  64.1716161   4.8704446
  55.9820645  64.2398372   3.3841408  44.1822114  65.4824870   1.2042125
  44.9762713  64.9875190   1.0024700  43.4713807  64.9542733   0.8409831
  49.0016959  67.8642966   5.5554493  49.0553981  68.4333902   6.3232209
  48.1331740  68.0344851   5.1908530  41.8815352  57.5660522   7.0378944
  42.5538406  57.3577884   6.3891593  41.0545139  57.3682608   6.5984176
  56.1304613  64.3064572   6.5554278  56.3240503  65.2110383   6.8013553
  56.0305232  63.8471991   7.3892863  47.7840924  54.1922463   9.0544605
  47.1368839  54.8912413   8.9609081  48.5541940  54.6258607   9.4220853
  51.1919722  64.4571315  12.1295158  51.0405228  64.2281867  11.2125242
  51.1824402  65.4141916  12.1426503  47.9605058  62.0303228   7.1141425
  48.8897118  62.1814387   6.9410392  47.5396088  62.1187249   6.2590071
  46.7593390  66.0553892   4.8839962  46.6204476  65.6872677   5.7565900
  45.9707986  66.5701532   4.7123920  47.3541542  71.1562989  -3.7734501
  47.5293298  70.6851032  -2.9588879  46.6674330  71.7828755  -3.5453240
  48.3098605  65.4335495   2.2728800  47.9748438  65.3936265   3.1686450
  47.8102551  64.7680211   1.7999210  42.2842849  60.8403125   7.7981381
  42.1462647  60.1083364   8.3992920  43.1947773  60.7512025   7.5165569
  44.9125150  60.5523084   7.2865061  45.6224769  59.9116276   7.2451679
  44.8694458  60.8035979   8.2091242  52.9011929  67.4890438  10.2071640
  52.8424475  66.8049658   9.5402223  53.3031447  68.2309428   9.7552266
  43.6254084  57.5388302   9.1060700  43.0891441  57.0879041   9.7582297
  43.0370792  57.6734211   8.3631165  41.9202628  74.3052351   3.0005359
  42.1599226  74.9370876   3.6784378  41.0771824  73.9540391   3.2870718
  52.9029336  65.4530022   8.4385620  52.0156115  65.1155943   8.5612019
  53.4727887  64.7213053   8.6754385  39.3593205  56.6744310   6.1913695
  39.2751394  56.0669979   5.4564105  38.5375912  57.1653328   6.1923191
  46.4330489  70.1131474   5.4046863  46.3600661  70.9186445   5.9166167
  45.9907882  70.3123440   4.5794884  46.2220269  69.3503244  -1.0850316
  45.4387791  69.8924924  -0.9912091  46.9213014  69.8677224  -0.6856074
  57.3846677  60.8638239   3.2002181  57.3736553  61.7462954   2.8296114
  56.5164056  60.5109790   3.0056718  48.8929173  70.0118308   7.5605022
  49.6057145  70.6465773   7.4880923  48.4019202  70.1082174   6.7445023
  50.6146700  63.9169561  -0.8677687  49.6802979  64.0371023  -1.0372982
  50.7923368  63.0142027  -1.1317677  54.0019251  59.7586880  -0.3327653
  54.4679703  60.5914871  -0.4067350  54.4526752  59.2931861   0.3717606
  43.9441086  67.7612751   8.3810592  44.6450546  68.3949234   8.5339987
  43.4736201  68.1027483   7.6206232  52.0695482  66.1030701  -3.3341501
  52.3455326  65.9887296  -2.4247626  51.1999981  65.7048186  -3.3729327
  51.9735914  52.1267467   3.7063249  51.0598994  52.3571694   3.8745456
  52.4029015  52.2105911   4.5577281  51.7442372  60.3157359   6.2063143
  51.0913823  60.5633266   5.5515596  52.1222752  59.5021497   5.8725620
  48.7049546  70.3517052   0.3091313  48.8871941  69.5338708   0.7719065
  49.5282532  70.5684744  -0.1283797  49.0391712  69.2785237  -2.4293638
  49.5679478  68.7677692  -3.0423476  49.3019931  68.9627767  -1.5648105
  47.7929945  61.0577170  12.6929180  47.1170582  60.9571299  13.3631555
  48.6157579  60.9016384  13.1565177  39.5408804  67.2949106   5.3141695
  40.1262241  66.5492794   5.4469599  39.3433643  67.6053063   6.1978359
  42.3947460  70.3300354   0.3304137  41.7257835  70.8146481  -0.1531822
  42.2560329  70.5769574   1.2447516  46.5352728  72.3644097   6.9286796
  47.0871036  72.5275719   7.6935881  46.8758922  72.9548535   6.2566821
  41.5117222  54.7119247   7.5308681  41.5758548  55.5734078   7.1186078
  41.4484342  54.0993249   6.7981039  40.9869494  56.7842380  11.1781715
  41.6141533  56.4019457  11.7919239  40.1297413  56.5656582  11.5437407
  51.3863603  67.1905355  12.7835450  51.9303507  67.8035313  12.2890405
  50.8050447  67.7484933  13.3002463  49.6721116  70.3126073   3.9150478
  49.5472255  69.5115813   3.4061423  50.3300207  70.8072266   3.4264448
  51.7356024  68.1135093   5.5430028  50.7886359  67.9940444   5.4708355
  52.0838797  67.2257591   5.6256290  44.0955597  54.0029232   9.3668270
  44.6189999  54.2491528  10.1294579  43.8767931  54.8349267   8.9471407
  48.7402457  67.9087809   1.7434380  48.5927420  66.9804517   1.9241950
  49.5655951  67.9307900   1.2591456  52.3436579  68.7316368   2.8299253
  53.2683127  68.5259229   2.6923704  52.1751882  68.4832769   3.7388595
  45.3008142  54.9442927   7.0517941  44.9604963  54.1450740   7.4538620
  44.5947149  55.2444638   6.4794774  45.9524614  52.0292239   5.5045264
  46.7750684  51.5552718   5.3824154  46.1962678  52.8082723   6.0043950
  43.4763193  58.7211360   3.3137242  43.3307774  59.0351663   4.2061524
  42.9988397  59.3396260   2.7608141  45.3359576  55.7113908   3.3618132
  45.3221145  54.8155001   3.0250430  46.0532004  55.7184572   3.9956418
  47.1885707  56.1451248   5.4071259  46.9303484  57.0668319   5.4055590
  46.6570747  55.7481683   6.0971723  52.1331895  69.2502035  -1.8138655
  52.3068773  68.6848458  -2.5664803  52.6260787  70.0502930  -1.9959166
  37.9508855  61.2616704   6.2524903  37.4062323  62.0376512   6.3845178
  38.8288205  61.6087509   6.0944025  57.9871286  62.0138458  -0.1948356
  58.4302433  61.2645783  -0.5929232  57.1097797  62.0048595  -0.5774624
  53.1207068  68.5668800  -4.7141757  53.8157972  69.1875492  -4.4954443
  53.4630218  67.7164151  -4.4389379  38.7374877  60.3886601   9.1455060
  37.9956613  60.5369236   9.7319691  38.4167621  60.6494866   8.2821810
  55.0198491  66.0168505  -3.1854426  55.5449815  66.3555778  -3.9105106
  54.9320843  65.0815521  -3.3691292  46.6818540  69.9302579   8.9435450
  46.9905666  69.6851726   9.8158150  47.4794022  70.1349217   8.4554320
  46.7039152  72.0840489   1.1740827  46.2644142  71.5916867   1.8673683
  47.4547269  71.5413456   0.9332902  39.1831491  68.2752029   1.1765455
  40.0089511  67.9755801   0.7964098  38.8325543  67.5059652   1.6255243
  44.1513024  67.6278498   3.2463128  43.5293033  66.9649203   2.9465356
  44.8217891  67.6539630   2.5636776  37.3840096  66.1938356   2.1354388
  36.5472004  65.7660530   1.9538390  37.3563741  66.3870799   3.0725180
  44.2237551  56.1060286  12.8395634  44.2725707  56.9822408  12.4573404
  44.7660066  55.5637679  12.2667278  54.7092397  66.6501409  12.1196772
  53.9187941  66.6325548  11.5801271  54.4725752  67.1889703  12.8745808
  54.8290272  63.4993875   9.4329500  54.8788277  63.3343883  10.3745023
  54.7204195  62.6321134   9.0427381  52.1194034  59.4824803  10.7488807
  53.0203897  59.3431268  10.4572805  52.1942009  59.6479258  11.6886984
  46.4536840  56.8591658   9.5941993  45.5840149  57.1525224   9.3224582
  46.6896320  57.4432103  10.3149257  56.3308469  65.9190817   9.6771522
  56.0393277  66.2820797  10.5134983  55.7180600  65.2057825   9.4984854
  57.5304151  63.4843697   2.1974092  58.3651043  63.9233501   2.3611652
  57.6663280  63.0082350   1.3782338  54.5795657  61.0423431   8.1451580
  55.0549779  61.2351078   7.3370431  53.6561222  61.0982617   7.8994963
  49.1575874  53.0771275   7.1107414  49.6757817  53.8132302   6.7853902
  48.8031006  53.3835268   7.9454173  53.2797326  57.9189192   6.3779885
  54.2314749  58.0187289   6.3992109  53.1100777  57.1267460   6.8877970
  51.3011706  55.0044775   6.5639286  50.7061638  55.2849787   5.8685775
  51.0161402  55.4938676   7.3356027  50.4319196  68.9567702  -4.6758081
  51.3649869  68.8913263  -4.4725206  50.3442409  69.7923968  -5.1343549
  53.0607213  68.2733572  -7.7154134  52.9820844  67.9393435  -6.8218376
  53.8816879  68.7655340  -7.7162661  55.7585404  61.1395311   5.4922185
  55.7261724  60.2011312   5.6781869  56.3686028  61.2179348   4.7588010
  55.9079892  57.9306355   5.5380468  55.3918941  57.1464811   5.3510397
  56.7919841  57.6025071   5.7026988  53.5690619  51.6747370   1.4976281
  53.3715440  51.3662458   2.3819613  54.1790325  52.4009009   1.6274211
  61.5761954  62.2011318   4.6328222  62.3065342  61.9396606   5.1935925
  60.9668899  61.4640040   4.6730290  59.6577251  60.3419181   5.2302673
  58.9310414  60.2075146   4.6219164  59.2424538  60.6496009   6.0359391
  47.4807427  64.0609110  12.9950046  48.4010437  64.2387709  13.1890092
  47.4457010  63.1165156  12.8429745  40.4769500  61.9710145   5.6372827
  40.6955510  62.9027253   5.6560861  40.8895274  61.6118119   6.4227631
  45.3497365  57.5443351  15.0275576  45.2494092  58.4937708  14.9587667
  45.1318907  57.2161590  14.1551646  36.5677852  62.8750615   3.8896442
  35.8741324  62.4604568   3.3766397  37.3150843  62.9171152   3.2929861
  45.2128635  60.9740490  13.8440638  44.7295717  61.7740850  14.0504527
  45.2989574  60.9848434  12.8908082  41.1401973  64.8645024   5.8809071
  42.0945226  64.8328967   5.8139003  40.9414496  64.4035648   6.6959297
  41.7301355  63.4346140   8.4479869  42.5494244  63.9290219   8.4714706
  42.0038163  62.5178108   8.4197437  54.8382487  55.8503414   1.5262164
  55.6142877  56.3399866   1.7986781  54.1130621  56.2761468   1.9834033
  57.2755046  56.5631033   2.5836104  57.8699537  56.3226769   1.8729413
  57.3481629  55.8438163   3.2109641  39.4952201  70.4064644   2.8979269
  39.3606669  69.6465045   2.3317267  39.0784264  71.1305544   2.4308058
  51.4608975  61.3411429  -1.9741885  51.4044176  61.7979980  -2.8134253
  52.0137317  60.5802113  -2.1519043  55.2713781  57.1301160  -1.1491766
  55.0150715  56.7297796  -0.3183558  54.6466649  57.8444954  -1.2741627
  59.5826119  59.8697234   1.3579526  59.0225677  59.9390423   2.1311088
  58.9769622  59.6938218   0.6379022  42.6521327  71.3033961   3.1097712
  42.5353712  72.2479393   3.0076402  41.8313774  71.0007522   3.4983511
  52.5397862  66.0284096  -6.0445695  53.3743466  65.5965295  -6.2268221
  52.3782205  65.8566110  -5.1168801  36.9836269  57.7684274   9.1472066
  37.6295133  57.2583228   9.6359291  36.7753420  58.5052956   9.7215491
  49.5089661  64.8365122  14.6464207  50.3780821  65.0105774  14.2850842
  49.0296413  65.6559538  14.5239936  43.6775841  71.9562223   6.3253640
  44.5803088  71.9885833   6.6420135  43.4513212  71.0262674   6.3399976
  45.4329443  70.7093209   2.9863719  44.4825075  70.7095071   2.8728091
  45.7361930  69.9625944   2.4699754  41.3233760  54.9151891  13.2447080
  42.1865222  54.5588696  13.4550405  40.7499171  54.5765786  13.9322485
  61.1682137  76.5453748   4.0509481  61.8060547  76.4260495   3.3472821
  61.0502980  77.4934592   4.1097434  57.9771843  76.4981176   3.9871006
  57.6390355  76.3822240   3.0991541  58.8461611  76.0972341   3.9672012
  53.8358659  78.3516652  -0.0232103  53.2723524  78.2606589  -0.7915815
  53.7211054  77.5316557   0.4570390  58.4591626  77.6516027   9.9457212
  58.4480267  77.2568826   9.0737715  58.6212266  76.9182100  10.5390983
  51.3823091  79.8467844   2.8152117  52.1744383  79.5058668   2.3998417
  51.6219741  79.9562819   3.7354271  59.4158218  82.0187620  -4.7117638
  58.7646197  82.6041700  -5.0983624  60.2102580  82.5493815  -4.6522601
  53.3413845  79.1076757  -4.3130504  54.1144721  78.5605744  -4.4517628
  53.6939244  79.9721006  -4.1016042  55.1798887  80.4353139   8.8936396
  54.8888753  81.3398770   8.7783062  55.8155872  80.4769667   9.6080465
  56.1055094  77.8129988   5.4837755  56.7018667  77.5886010   4.7694718
  56.1630066  77.0714733   6.0863203  55.6780123  75.2669423  -6.6812054
  55.9305643  74.7450944  -7.4428591  54.7404682  75.1035569  -6.5785370
  60.7223405  74.2705201   1.1262689  61.5086495  73.8524625   0.7753106
  60.9862110  75.1751294   1.2944338  60.8933483  79.7078052  -4.1748654
  60.2579316  79.7812678  -3.4627749  60.5630889  80.2971651  -4.8529575
  66.1231833  74.2080435   2.0295668  66.8557005  73.6379651   2.2633497
  65.3671188  73.8202035   2.4702173  55.3976411  77.1697529  -4.4787679
  55.2812669  76.4942432  -3.8106595  55.5078671  76.6829903  -5.2955526
  57.7407952  76.6307676  -0.7740990  57.3766160  76.1038297  -0.0628068
  58.5975068  76.2406145  -0.9474504  63.6457253  67.9202009   6.4890277
  63.3140578  68.7897420   6.2651491  63.0502866  67.6038293   7.1684307
  57.3813439  71.6597576  -5.7779641  57.5487842  72.5277812  -5.4109170
  57.1910608  71.8224858  -6.7018352  60.1388772  80.1214555   5.8886189
  59.8389496  81.0239594   5.7801996  59.7939832  79.8546738   6.7407342
  53.5901254  76.5728352   1.9222894  52.6651750  76.4404566   2.1300585
  53.8385667  77.3522571   2.4192836  63.5385916  72.6397095   3.5683627
  62.6302794  72.5712503   3.2742388  63.4873512  73.1169040   4.3965452
  57.3602660  74.1155233  -4.7932974  57.2402285  74.5612284  -3.9547494
  56.6655249  74.4640551  -5.3519436  50.9510065  76.2161625   2.7566683
  51.0802446  76.4696104   3.6706094  50.2707516  76.8089333   2.4371338
  55.1209552  86.8858875  -1.1442843  55.0433582  87.8366700  -1.0654362
  54.5171196  86.5404748  -0.4867917  57.6126782  74.0586741  11.5118524
  56.8360116  74.6180661  11.5021388  58.2517345  74.5443524  12.0333394
  65.4047563  70.8413533   5.3461500  64.7621943  71.1346066   4.7001295
  64.9002491  70.7266454   6.1514697  63.0587726  74.5876707  -3.9652640
  63.9705582  74.8204093  -4.1404943  62.5497373  75.1713751  -4.5277562
  55.8673154  76.8672194  11.0736491  56.6087839  77.4057238  10.7971314
  55.1610140  77.4938483  11.2308043  61.3428494  79.0101334   9.6708652
  61.7511850  78.5683745   8.9263285  60.6205756  78.4353962   9.9242845
  57.6959564  73.9473941   7.0442209  58.5420759  74.3713355   7.1876858
  57.6358202  73.2907565   7.7380772  61.6657309  79.5702525   3.4260941
  61.0366171  79.7348239   2.7237009  61.2782971  79.9844135   4.1971905
  65.5446541  80.5056963   0.7805305  64.8597579  80.8855864   0.2302338
  65.6290390  81.1152289   1.5137253  60.8459009  71.6078309   8.7023383
  60.6019941  72.3620370   8.1657659  61.1218940  71.9863657   9.5370630
  62.7997472  78.1516922   7.3800648  63.0114367  78.7948682   6.7035030
  62.7527220  77.3179238   6.9122579  60.4023701  70.7634742   4.2837221
  59.5408180  71.0615996   4.5753958  60.4286136  70.9805141   3.3518253
  57.2185271  79.3076933   0.6911026  57.6823616  79.5864636  -0.0984351
  56.9542069  78.4060378   0.5084117  54.1109352  78.8548415   3.6290790
  54.6810709  79.2835683   2.9908274  54.7017463  78.5730999   4.3274975
  56.1554157  75.4300085  -2.4999409  56.8578200  75.8821129  -2.0325482
  55.8234785  74.7883904  -1.8719515  54.6034518  74.0211842  11.8751801
  53.9733179  74.7028123  12.1087198  54.4970606  73.9094924  10.9304939
  49.8979491  73.6883638   2.8017725  49.1078545  73.9441167   2.3257836
  50.3890738  74.5031976   2.9069766  63.9143300  81.0288877   5.5523006
  64.7360744  80.6269065   5.2705687  63.9105703  80.9257111   6.5039122
  51.8494236  74.0528217  -0.2398798  51.0525399  74.1646912   0.2784697
  51.6219828  74.3914870  -1.1057908  57.6799904  80.5772921   7.7083716
  57.7444336  81.0393328   8.5441888  56.9710827  79.9470285   7.8366026
  48.1817194  73.9414129   5.2332716  48.4325232  74.8261138   5.4990292
  48.7176742  73.7618730   4.4607808  72.0049293  77.3727626   1.9007977
  71.2513002  76.8035024   1.7451982  72.1396834  77.3390290   2.8478612
  57.3947921  82.2441028  -2.4237303  57.2593596  83.0892564  -1.9952456
  57.9357734  82.4460306  -3.1871370  53.8815261  68.3232608  14.2377052
  53.4882206  67.7698806  14.9124696  54.6981401  68.6343186  14.6283569
  50.8477319  79.7616466  -1.8509378  51.3601839  80.5559716  -1.7003814
  51.5000031  79.0642757  -1.9175777  52.6572203  82.8782222   0.2313375
  52.8338832  83.8000187   0.0434359  53.4529037  82.5640642   0.6607755
  56.7983222  69.7390487  11.8297308  57.5392935  70.3397640  11.7501771
  57.0301145  68.9968125  11.2715351  51.9424560  74.9246854  10.1075538
  51.8278075  74.0232111  10.4082637  51.0869078  75.1710551   9.7560355
  59.0216398  82.8664595  11.7063039  58.5780252  82.0800973  11.3883943
  59.6833611  83.0543745  11.0406930  53.7803519  84.3960396   6.2323717
  54.3310944  84.2677460   5.4600711  52.9414995  84.6955285   5.8818610
  61.1197636  83.1467394   9.7344440  61.1016111  83.9676276   9.2424709
  62.0417556  83.0221470   9.9594581  57.5770690  80.6611524  10.5767948
  58.1099027  79.8999812  10.3467256  57.0484771  80.3685176  11.3192103
  60.7440385  65.7671590   6.1061590  60.4004654  66.6573232   6.0300701
  61.1119347  65.5773248   5.2431175  48.8126235  78.0905120  -1.0749808
  49.6501457  78.5002129  -1.2916100  48.9904503  77.1504563  -1.1049614
  60.7090667  75.7580201  -5.3865975  60.1937291  76.5284806  -5.1477587
  60.4367976  75.0845337  -4.7632913  58.2937779  70.6029902  -0.3280736
  57.4379375  70.2136752  -0.5075098  58.7064730  70.6821863  -1.1880951
  59.8236925  68.1376245   4.0710823  59.3201721  68.1006380   3.2578629
  60.1167532  69.0468988   4.1307480  56.0679811  68.2214975   3.0777005
  56.9332808  68.0257783   2.7182895  56.1357320  67.9925327   4.0046362
  65.6824942  78.5112556  -3.4512801  64.9054384  78.1723715  -3.8957639
  66.3616423  78.5165179  -4.1257836  60.4976971  73.6307293  -3.5606194
  60.1927106  73.9453442  -2.7096050  61.4507413  73.7088713  -3.5178861
  58.9423403  79.7897516  -1.9113240  58.4144764  79.0550276  -2.2240002
  58.4410905  80.5672193  -2.1573271  63.9216249  77.9846537   3.2053807
  63.2639923  78.6745798   3.2933935  64.7256648  78.3742969   3.5487793
  53.6742130  70.4517183   0.4493372  54.2485882  70.2292364  -0.2833435
  54.2613113  70.5205877   1.2021973  62.7321707  76.3390910   1.2557748
  63.2453589  76.9720901   1.7579458  63.3822931  75.7392105   0.8901108
  54.0011717  72.4821644  -5.5310743  53.1649029  72.8196330  -5.2101468
  53.8616487  72.3470624  -6.4683606  55.9764798  67.3258432  -0.8231559
  55.3229210  67.0107449  -1.4474944  55.9345272  66.7034172  -0.0971736
  57.0876003  77.6077727  -8.9078267  56.1803064  77.3766980  -8.7087118
  57.5847035  76.8115346  -8.7204285  59.9944082  86.3175234  -5.9881580
  59.3205780  86.6206931  -5.3796623  60.3809904  87.1204314  -6.3376123
  59.2102538  73.8140365   3.5016089  58.2925100  74.0355312   3.3437777
  59.6262682  73.8886676   2.6427796  59.9937586  75.2131781  -1.3681231
  60.7409405  75.7253178  -1.6774109  60.2629175  74.8915834  -0.5076837
  58.2664236  77.7090322  -4.3854276  57.3575455  77.4249354  -4.2881807
  58.2959320  78.1289400  -5.2450970  63.4983504  81.3196911  -0.6163109
  63.0445831  80.4787821  -0.5597918  62.8677470  81.9558309  -0.2788329
  62.4416423  72.2488897   0.6137559  61.7039180  71.7366283   0.9447801
  62.6943197  71.8089279  -0.1979165  61.9416443  83.1573408   0.3186709
  62.2339417  83.7178465  -0.4000925  62.4515063  83.4501969   1.0739868
  62.5428050  65.0265149   1.2079328  62.8486927  64.1662513   0.9205243
  63.2680655  65.6182769   1.0078322  48.8352407  75.4295836  -0.4039074
  48.6376806  74.8365196  -1.1288008  48.2799070  75.1248046   0.3136865
  56.8149130  75.3218942   1.7155519  56.8697740  74.3692779   1.6397995
  56.0040332  75.4778381   2.1996817  57.9640324  79.2499065  -7.0466198
  57.5259754  78.5334924  -7.5060561  58.7050765  79.4775180  -7.6081107
  54.7541490  73.9396002  -0.5254102  53.9409356  74.2390172  -0.1188910
  55.2500484  73.5451691   0.1920380  56.9050068  83.9353759   1.4080162
  56.8626247  84.1614605   0.4788694  57.8212767  83.7017133   1.5565964
  60.3515702  74.4037826   8.3060792  60.7065089  74.6309300   9.1655257
  60.9987833  74.7356203   7.6838047  66.0813439  77.5256262  -0.9889879
  65.9431337  77.7157858  -1.9168690  65.7249658  78.2875645  -0.5321828
  54.2455565  71.5114357   5.0907133  54.8854944  71.3703117   4.3930096
  53.4133095  71.2248871   4.7145735  66.1082818  79.5932789   4.0221392
  66.5419325  79.5008078   4.8704446  66.8214399  79.5690290   3.3841408
  55.0215869  80.8116788   1.2042125  55.8156467  80.3167108   1.0024700
  54.3107561  80.2834651   0.8409831  59.8410713  83.1934883   5.5554493
  59.8947736  83.7625820   6.3232209  58.9725495  83.3636768   5.1908530
  51.3298632  74.9559870  -2.7198122  50.3996220  74.8944325  -2.5028160
  51.4256104  74.4335822  -3.5161481  51.2484181  71.4814682  -0.1319880
  51.5090999  72.3960016  -0.2410720  52.0701354  71.0139125   0.0176732
  52.7209107  72.8952440   7.0378944  53.3932160  72.6869802   6.3891593
  51.8938893  72.6974526   6.5984176  66.9698368  79.6356490   6.5554278
  67.1634258  80.5402300   6.8013553  66.8698986  79.1763909   7.3892863
  58.6234679  69.5214381   9.0544605  57.9762594  70.2204330   8.9609081
  59.3935694  69.9550524   9.4220853  62.0313477  79.7863233  12.1295158
  61.8798983  79.5573784  11.2125242  62.0218156  80.7433834  12.1426503
  58.7998813  77.3595145   7.1141425  59.7290873  77.5106305   6.9410392
  58.3789843  77.4479166   6.2590071  57.5987145  81.3845810   4.8839962
  57.4598230  81.0164594   5.7565900  56.8101741  81.8993449   4.7123920
  58.1935297  86.4854906  -3.7734501  58.3687052  86.0142950  -2.9588879
  57.5068085  87.1120673  -3.5453240  59.1492360  80.7627413   2.2728800
  58.8142192  80.7228183   3.1686450  58.6496306  80.0972128   1.7999210
  53.1236604  76.1695043   7.7981381  52.9856402  75.4375281   8.3992920
  54.0341527  76.0803943   7.5165569  62.0851552  78.1083447  -7.4534140
  61.4680722  77.3830275  -7.5501088  61.6168040  78.8692807  -7.7967066
  55.7518905  75.8815002   7.2865061  56.4618523  75.2408194   7.2451679
  55.7088213  76.1327897   8.2091242  63.7405683  82.8182355  10.2071640
  63.6818229  82.1341575   9.5402223  64.1425202  83.5601345   9.7552266
  54.4647838  72.8680220   9.1060700  53.9285196  72.4170958   9.7582297
  53.8764547  73.0026129   8.3631165  52.7596382  89.6344269   3.0005359
  52.9992980  90.2662793   3.6784378  51.9165578  89.2832309   3.2870718
  53.8750097  72.3268871  -8.3312836  52.9979564  72.2057672  -8.6950589
  54.3507851  71.5354950  -8.5833947  63.7423090  80.7821939   8.4385620
  62.8549869  80.4447861   8.5612019  64.3121642  80.0504970   8.6754385
  45.3952238  77.1146031   1.7628671  46.0823277  76.8007761   1.1749686
  45.2400366  78.0187396   1.4895923  50.1986960  72.0036227   6.1913695
  50.1145148  71.3961897   5.4564105  49.3769666  72.4945246   6.1923191
  57.2724244  85.4423392   5.4046863  57.1994415  86.2478363   5.9166167
  56.8301637  85.6415357   4.5794884  57.0614023  84.6795162  -1.0850316
  56.2781545  85.2216842  -0.9912091  57.7606769  85.1969141  -0.6856074
  60.3710674  70.4889791   1.5583890  60.8679373  69.7359753   1.2384960
  59.5997655  70.5254108   0.9927099  68.2240431  76.1930157   3.2002181
  68.2130307  77.0754872   2.8296114  67.3557810  75.8401707   3.0056718
  59.7322927  85.3410226   7.5605022  60.4450900  85.9757690   7.4880923
  59.2412956  85.4374092   6.7445023  61.4540454  79.2461478  -0.8677687
  60.5196733  79.3662941  -1.0372982  61.6317123  78.3433945  -1.1317677
  56.9545642  72.6307174   1.2855574  56.5843430  72.0778214   1.9736480
  57.4504735  72.0265307   0.7330575  64.8413006  75.0878798  -0.3327653
  65.3073458  75.9206789  -0.4067350  65.2920506  74.6223779   0.3717606
  54.7834841  83.0904669   8.3810592  55.4844300  83.7241152   8.5339987
  54.3129956  83.4319401   7.6206232  62.9089237  81.4322619  -3.3341501
  63.1849081  81.3179213  -2.4247626  62.0393735  81.0340104  -3.3729327
  62.8129668  67.4559385   3.7063249  61.8992748  67.6863611   3.8745456
  63.2422770  67.5397829   4.5577281  62.5836127  75.6449276   6.2063143
  61.9307577  75.8925184   5.5515596  62.9616507  74.8313415   5.8725620
  59.5443301  85.6808970   0.3091313  59.7265695  84.8630626   0.7719065
  60.3676287  85.8976662  -0.1283797  59.8785466  84.6077155  -2.4293638
  60.4073233  84.0969609  -3.0423476  60.1413686  84.2919685  -1.5648105
  58.6323700  76.3869088  12.6929180  57.9564337  76.2863217  13.3631555
  59.4551334  76.2308301  13.1565177  50.3802559  82.6241024   5.3141695
  50.9655996  81.8784712   5.4469599  50.1827397  82.9344981   6.1978359
  53.2341214  85.6592271   0.3304137  52.5651589  86.1438399  -0.1531822
  53.0954084  85.9061492   1.2447516  44.9720214  75.1946624   4.0346138
  45.0104313  74.6610215   4.8283256  44.4660507  74.6681830   3.4157115
  57.3746483  87.6936015   6.9286796  57.9264791  87.8567636   7.6935881
  57.7152676  88.2840453   6.2566821  52.3510976  70.0411165   7.5308681
  52.4152303  70.9025996   7.1186078  52.2878096  69.4285166   6.7981039
  51.8263249  72.1134297  11.1781715  52.4535287  71.7311375  11.7919239
  50.9691167  71.8948499  11.5437407  62.2257357  82.5197273  12.7835450
  62.7697261  83.1327231  12.2890405  61.6444202  83.0776851  13.3002463
  48.6028791  73.9210726  -2.8899930  48.8982232  73.0121405  -2.9432877
  47.7016827  73.8998466  -3.2118928  60.5114870  85.6417991   3.9150478
  60.3866010  84.8407730   3.4061423  61.1693961  86.1364184   3.4264448
  52.1323038  71.9966723   3.0927618  51.4109624  72.6102691   2.9535092
  52.9216294  72.5324488   3.0144264  62.5749778  83.4427011   5.5430028
  61.6280114  83.3232362   5.4708355  62.9232552  82.5549509   5.6256290
  54.9349352  69.3321150   9.3668270  55.4583754  69.5783446  10.1294579
  54.7161685  70.1641184   8.9471407  50.3316633  71.6024824  -2.7660605
  50.0029339  70.7222203  -2.9485499  50.6856004  71.5472493  -1.8784216
  59.5796212  83.2379727   1.7434380  59.4321174  82.3096434   1.9241950
  60.4049705  83.2599818   1.2591456  53.4458456  71.8897794  -2.3985128
  53.7854529  72.4183715  -3.1206519  53.8930577  72.2278200  -1.6226561
  63.1830334  84.0608286   2.8299253  64.1076881  83.8551147   2.6923704
  63.0145637  83.8124687   3.7388595  56.1401897  70.2734845   7.0517941
  55.7998717  69.4742658   7.4538620  55.4340903  70.5736555   6.4794774
  56.7918369  67.3584157   5.5045264  57.6144438  66.8844635   5.3824154
  57.0356432  68.1374641   6.0043950  55.4326603  70.3872415  -4.1991835
  56.1534966  70.7653668  -4.7028118  54.8091907  71.1061292  -4.0956857
  59.5757726  71.0917564  -3.2633502  59.7921340  71.9742202  -3.5644674
  59.0951793  70.7003778  -3.9927860  54.3156947  74.0503278   3.3137242
  54.1701528  74.3643581   4.2061524  53.8382151  74.6688178   2.7608141
  56.1753330  71.0405826   3.3618132  56.1614899  70.1446919   3.0250430
  56.8925758  71.0476489   3.9956418  58.0279461  71.4743166   5.4071259
  57.7697239  72.3960237   5.4055590  57.4964501  71.0773600   6.0971723
  62.9725650  84.5793953  -1.8138655  63.1462527  84.0140375  -2.5664803
  63.4654541  85.3794848  -1.9959166  48.7902610  76.5908622   6.2524903
  48.2456078  77.3668430   6.3845178  49.6681959  76.9379427   6.0944025
  55.5790226  69.9220206  -1.3694298  55.7006137  68.9936852  -1.1703411
  55.2892269  69.9358892  -2.2815983  58.4481417  67.6075116   1.7672422
  58.4703113  67.6714449   0.8124401  58.8649476  66.7679625   1.9612928
  68.8265041  77.3430376  -0.1948356  69.2696187  76.5937701  -0.5929232
  67.9491551  77.3340512  -0.5774624  63.9600822  83.8960717  -4.7141757
  64.6551727  84.5167410  -4.4954443  64.3023972  83.0456069  -4.4389379
  49.5768631  75.7178518   9.1455060  48.8350368  75.8661154   9.7319691
  49.2561376  75.9786784   8.2821810  65.8592245  81.3460423  -3.1854426
  66.3843569  81.6847696  -3.9105106  65.7714598  80.4107438  -3.3691292
  57.5212294  85.2594497   8.9435450  57.8299421  85.0143643   9.8158150
  58.3187776  85.4641135   8.4554320  57.5432906  87.4132406   1.1740827
  57.1037896  86.9208785   1.8673683  58.2941023  86.8705374   0.9332902
  50.0225245  83.6043947   1.1765455  50.8483265  83.3047719   0.7964098
  49.6719297  82.8351570   1.6255243  54.9906778  82.9570415   3.2463128
  54.3686788  82.2941120   2.9465356  55.6611645  82.9831547   2.5636776
  48.2233850  81.5230274   2.1354388  47.3865758  81.0952448   1.9538390
  48.1957496  81.7162717   3.0725180  55.0631306  71.4352203  12.8395634
  55.1119461  72.3114326  12.4573404  55.6053820  70.8929596  12.2667278
  65.5486151  81.9793327  12.1196772  64.7581695  81.9617465  11.5801271
  65.3119506  82.5181620  12.8745808  65.6684027  78.8285793   9.4329500
  65.7182031  78.6635800  10.3745023  65.5597950  77.9613052   9.0427381
  54.5520285  81.5074339  -3.2778411  54.7008406  82.1909803  -3.9311738
  55.3586729  81.4879429  -2.7628955  62.9587789  74.8116721  10.7488807
  63.8597652  74.6723186  10.4572805  63.0335763  74.9771176  11.6886984
  57.2930594  72.1883576   9.5941993  56.4233904  72.4817142   9.3224582
  57.5290075  72.7724021  10.3149257  67.1702223  81.2482734   9.6771522
  66.8787032  81.6112715  10.5134983  66.5574355  80.5349743   9.4984854
  68.3697906  78.8135614   2.1974092  69.2044797  79.2525418   2.3611652
  68.5057034  78.3374267   1.3782338  65.4189412  76.3715349   8.1451580
  65.8943533  76.5642995   7.3370431  64.4954977  76.4274535   7.8994963
  52.3072918  77.5339516  -2.2717342  52.0618960  76.6301846  -2.0737132
  52.4768833  77.5356667  -3.2137864  59.9969628  68.4063193   7.1107414
  60.5151572  69.1424220   6.7853902  59.6424761  68.7127186   7.9454173
  51.5768566  73.2667874  -4.7731181  50.8837811  73.3412229  -5.4291145
  51.3320318  72.5028217  -4.2509664  60.2482222  64.8263475   2.6308310
  60.5283976  64.1586664   3.2568737  61.0332829  65.0192571   2.1182974
  58.0515691  84.0022469  -5.8066664  57.4789658  84.6212656  -6.2596192
  58.6248484  84.5521831  -5.2726742  64.1191081  73.2481109   6.3779885
  65.0708503  73.3479207   6.3992109  63.9494531  72.4559378   6.8877970
  62.1405460  70.3336692   6.5639286  61.5455392  70.6141705   5.8685775
  61.8555157  70.8230593   7.3356027  61.2712951  84.2859619  -4.6758081
  62.2043624  84.2205181  -4.4725206  61.1836163  85.1215886  -5.1343549
  63.9000967  83.6025490  -7.7154134  63.8214599  83.2685353  -6.8218376
  64.7210634  84.0947257  -7.7162661  66.5979158  76.4687229   5.4922185
  66.5655478  75.5303230   5.6781869  67.2079782  76.5471266   4.7588010
  58.4362489  75.3383282  -8.4650611  59.3821594  75.2089490  -8.3962193
  58.0576734  74.5997944  -7.9881183  66.7473647  73.2598272   5.5380468
  66.2312696  72.4756729   5.3510397  67.6313595  72.9316989   5.7026988
  64.4084374  67.0039288   1.4976281  64.2109195  66.6954376   2.3819613
  65.0184079  67.7300927   1.6274211  72.4155708  77.5303236   4.6328222
  73.1459097  77.2688524   5.1935925  71.8062654  76.7931958   4.6730290
  70.4971005  75.6711098   5.2302673  69.7704169  75.5367063   4.6219164
  70.0818292  75.9787927   6.0359391  58.3201182  79.3901028  12.9950046
  59.2404191  79.5679627  13.1890092  58.2850765  78.4457073  12.8429745
  56.6205406  73.2633258  -8.5295726  55.7136862  72.9666371  -8.4533012
  56.8981387  72.9663076  -9.3961440  47.5383347  74.5839622   1.9203321
  47.2186131  73.7304930   1.6277695  46.9916775  74.7988200   2.6761288
  51.3163254  77.3002063   5.6372827  51.5349264  78.2319170   5.6560861
  51.7289028  76.9410037   6.4227631  58.2367472  67.8070148  -2.3751485
  57.4268200  67.4617233  -1.9996239  58.9251889  67.4977692  -1.7863873
  60.1658020  66.8848195  -0.7527188  60.7189059  67.3043648  -0.0937165
  60.4028107  65.9583943  -0.7104232  56.1891120  72.8735268  15.0275576
  56.0887847  73.8229625  14.9587667  55.9712662  72.5453507  14.1551646
  55.3904191  70.1220193  -8.3883747  56.2523355  70.4475092  -8.1287929
  55.5754535  69.3351689  -8.9010681  47.4071607  78.2042533   3.8896442
  46.7135078  77.7896486   3.3766397  48.1544598  78.2463070   3.2929861
  63.5436827  68.9948720  -1.2448524  62.9635497  69.6533524  -1.6270471
  63.2772760  68.1726065  -1.6561106  61.9940394  68.3953778   0.9572797
  62.4940172  68.5070312   0.1487115  62.6376002  68.0914830   1.5973605
  56.0522390  76.3032407  13.8440638  55.5689471  77.1032767  14.0504527
  56.1383329  76.3140352  12.8908082  49.3208349  78.1360787   1.7662457
  49.2979037  78.2348474   0.8144340  49.6308986  78.9825938   2.0879623
  51.9795727  80.1936942   5.8809071  52.9338981  80.1620884   5.8139003
  51.7808251  79.7327566   6.6959297  52.5695109  78.7638058   8.4479869
  53.3887998  79.2582137   8.4714706  52.8431917  77.8470026   8.4197437
  62.3261706  71.1548810  -2.1892175  61.4387561  71.4398461  -2.4071981
  62.7415695  70.9942574  -3.0364899  65.6776242  71.1795331   1.5262164
  66.4536632  71.6691784   1.7986781  64.9524376  71.6053385   1.9834033
  68.1148800  71.8922950   2.5836104  68.7093291  71.6518686   1.8729413
  68.1875384  71.1730081   3.2109641  50.3345956  85.7356561   2.8979269
  50.2000424  84.9756962   2.3317267  49.9178018  86.4597461   2.4308058
  61.4704919  80.9193485  -8.0944155  62.1740769  81.1243487  -7.4786500
  60.7467568  81.4870247  -7.8295072  62.3002729  76.6703346  -1.9741885
  62.2437931  77.1271898  -2.8134253  62.8531072  75.9094031  -2.1519043
  66.1107535  72.4593078  -1.1491766  65.8544469  72.0589714  -0.3183558
  65.4860403  73.1736872  -1.2741627  70.4219873  75.1989151   1.3579526
  69.8619431  75.2682341   2.1311088  69.8163376  75.0230136   0.6379022
  53.4915082  86.6325878   3.1097712  53.3747466  87.5771311   3.0076402
  52.6707528  86.3299440   3.4983511  63.3791616  81.3576014  -6.0445695
  64.2137220  80.9257213  -6.2268221  63.2175959  81.1858028  -5.1168801
  63.0337509  77.8608127  -4.6789356  62.9786312  77.6952399  -5.6200912
  62.4083564  78.5684160  -4.5227166  47.8230024  73.0976192   9.1472066
  48.4688887  72.5875146   9.6359291  47.6147175  73.8344873   9.7215491
  60.3483416  80.1657039  14.6464207  61.2174575  80.3397692  14.2850842
  59.8690167  80.9851456  14.5239936  56.3433634  67.3616236  -5.1004038
  56.3312304  68.3058076  -4.9435767  57.2357056  67.1786382  -5.3944576
  54.5169596  87.2854140   6.3253640  55.4196843  87.3177751   6.6420135
  54.2906966  86.3554591   6.3399976  56.2723198  86.0385127   2.9863719
  55.3218829  86.0386988   2.8728091  56.5755684  85.2917861   2.4699754
  60.1585753  63.9559013  -0.8458101  59.3918149  63.4017500  -0.7001419
  60.5696458  64.0280882   0.0156051  52.1627515  70.2443809  13.2447080
  53.0258976  69.8880614  13.4550405  51.5892925  69.9057704  13.9322485
  72.0075891  91.8745665   4.0509481  72.6454301  91.7552413   3.3472821
  71.8896734  92.8226509   4.1097434  68.8165598  91.8273093   3.9871006
  68.4784109  91.7114158   3.0991541  69.6855366  91.4264258   3.9672012
  64.6752413  93.6808570  -0.0232103  64.1117279  93.5898507  -0.7915815
  64.5604808  92.8608474   0.4570390  69.2985381  92.9807945   9.9457212
  69.2874022  92.5860743   9.0737715  69.4606020  92.2474018  10.5390983
  62.2216845  95.1759761   2.8152117  63.0138137  94.8350586   2.3998417
  62.4613496  95.2854736   3.7354271  66.0192642  95.7645057   8.8936396
  65.7282508  96.6690688   8.7783062  66.6549626  95.8061585   9.6080465
  66.9448849  93.1421905   5.4837755  67.5412421  92.9177928   4.7694718
  67.0023820  92.4006651   6.0863203  71.5617160  89.5997119   1.1262689
  72.3480249  89.1816542   0.7753106  71.8255864  90.5043211   1.2944338
  76.9625587  89.5372352   2.0295668  77.6950759  88.9671569   2.2633497
  76.2064943  89.1493953   2.4702173  68.5801707  91.9599594  -0.7740990
  68.2159914  91.4330215  -0.0628068  69.4368823  91.5698063  -0.9474504
  74.4851007  83.2493926   6.4890277  74.1534332  84.1189337   6.2651491
  73.8896621  82.9330210   7.1684307  70.9782527  95.4506472   5.8886189
  70.6783250  96.3531511   5.7801996  70.6333586  95.1838656   6.7407342
  64.4295008  91.9020269   1.9222894  63.5045505  91.7696483   2.1300585
  64.6779422  92.6814489   2.4192836  74.3779671  87.9689013   3.5683627
  73.4696548  87.9004421   3.2742388  74.3267267  88.4460958   4.3965452
  61.7903819  91.5453543   2.7566683  61.9196201  91.7988022   3.6706094
  61.1101271  92.1381251   2.4371338  68.4520537  89.3878658  11.5118524
  67.6753871  89.9472578  11.5021388  69.0911100  89.8735441  12.0333394
  76.2441317  86.1705451   5.3461500  75.6015697  86.4637984   4.7001295
  75.7396246  86.0558371   6.1514697  66.7066909  92.1964112  11.0736491
  67.4481593  92.7349156  10.7971314  66.0003894  92.8230400  11.2308043
  72.1822248  94.3393252   9.6708652  72.5905605  93.8975663   8.9263285
  71.4599510  93.7645880   9.9242845  68.5353319  89.2765859   7.0442209
  69.3814514  89.7005272   7.1876858  68.4751956  88.6199483   7.7380772
  72.5051063  94.8994443   3.4260941  71.8759926  95.0640157   2.7237009
  72.1176725  95.3136052   4.1971905  71.6852764  86.9370227   8.7023383
  71.4413696  87.6912288   8.1657659  71.9612694  87.3155575   9.5370630
  73.6391227  93.4808840   7.3800648  73.8508122  94.1240599   6.7035030
  73.5920975  92.6471156   6.9122579  71.2417456  86.0926660   4.2837221
  70.3801935  86.3907914   4.5753958  71.2679890  86.3097059   3.3518253
  68.0579025  94.6368851   0.6911026  68.5217371  94.9156554  -0.0984351
  67.7935823  93.7352295   0.5084117  64.9503106  94.1840332   3.6290790
  65.5204463  94.6127601   2.9908274  65.5411218  93.9022917   4.3274975
  66.9947911  90.7592003  -2.4999409  67.6971954  91.2113047  -2.0325482
  66.6628540  90.1175822  -1.8719515  65.4428273  89.3503760  11.8751801
  64.8126933  90.0320041  12.1087198  65.3364360  89.2386841  10.9304939
  60.7373245  89.0175556   2.8017725  59.9472299  89.2733084   2.3257836
  61.2284492  89.8323894   2.9069766  74.7537055  96.3580795   5.5523006
  75.5754498  95.9560982   5.2705687  74.7499457  96.2549029   6.5039122
  62.6887990  89.3820135  -0.2398798  61.8919154  89.4938829   0.2784697
  62.4613583  89.7206787  -1.1057908  68.5193658  95.9064838   7.7083716
  68.5838091  96.3685245   8.5441888  67.8104582  95.2762203   7.8366026
  59.0210948  89.2706046   5.2332716  59.2718986  90.1553056   5.4990292
  59.5570496  89.0910648   4.4607808  64.7209015  83.6524526  14.2377052
  64.3275961  83.0990724  14.9124696  65.5375156  83.9635104  14.6283569
  61.6871073  95.0908384  -1.8509378  62.1995594  95.8851634  -1.7003814
  62.3393786  94.3934674  -1.9175777  67.6376976  85.0682405  11.8297308
  68.3786690  85.6689558  11.7501771  67.8694899  84.3260042  11.2715351
  62.7818314  90.2538772  10.1075538  62.6671829  89.3524029  10.4082637
  61.9262832  90.5002469   9.7560355  69.8610152  98.1956512  11.7063039
  69.4174006  97.4092891  11.3883943  70.5227366  98.3835663  11.0406930
  64.6197273  99.7252314   6.2323717  65.1704698  99.5969377   5.4600711
  63.7808749 100.0247203   5.8818610  71.9591390  98.4759312   9.7344440
  71.9409865  99.2968193   9.2424709  72.8811310  98.3513387   9.9594581
  68.4164444  95.9903442  10.5767948  68.9492781  95.2291730  10.3467256
  67.8878525  95.6977093  11.3192103  71.5834139  81.0963508   6.1061590
  71.2398409  81.9865149   6.0300701  71.9513102  80.9065165   5.2431175
  59.6519990  93.4197038  -1.0749808  60.4895212  93.8294046  -1.2916100
  59.8298258  92.4796480  -1.1049614  69.1331533  85.9321819  -0.3280736
  68.2773129  85.5428670  -0.5075098  69.5458485  86.0113780  -1.1880951
  70.6630680  83.4668163   4.0710823  70.1595475  83.4298298   3.2578629
  70.9561287  84.3760905   4.1307480  66.9073566  83.5506892   3.0777005
  67.7726562  83.3549701   2.7182895  66.9751074  83.3217244   4.0046362
  74.7610003  93.3138455   3.2053807  74.1033677  94.0037716   3.2933935
  75.5650402  93.7034887   3.5487793  64.5135885  85.7809100   0.4493372
  65.0879637  85.5584282  -0.2833435  65.1006867  85.8497795   1.2021973
  73.5715462  91.6682827   1.2557748  74.0847344  92.3012819   1.7579458
  74.2216686  91.0684023   0.8901108  66.8158552  82.6550349  -0.8231559
  66.1622965  82.3399366  -1.4474944  66.7739026  82.0326090  -0.0971736
  70.0496293  89.1432283   3.5016089  69.1318854  89.3647230   3.3437777
  70.4656436  89.2178593   2.6427796  73.2810178  87.5780815   0.6137559
  72.5432934  87.0658201   0.9447801  73.5336951  87.1381196  -0.1979165
  73.3821805  80.3557067   1.2079328  73.6880682  79.4954430   0.9205243
  74.1074410  80.9474687   1.0078322  59.6746161  90.7587753  -0.4039074
  59.4770561  90.1657114  -1.1288008  59.1192825  90.4539964   0.3136865
  67.6542885  90.6510860   1.7155519  67.7091494  89.6984696   1.6397995
  66.8434087  90.8070299   2.1996817  65.5935245  89.2687920  -0.5254102
  64.7803110  89.5682090  -0.1188910  66.0894239  88.8743608   0.1920380
  71.1909456  89.7329744   8.3060792  71.5458844  89.9601217   9.1655257
  71.8381587  90.0648121   7.6838047  65.0849319  86.8406275   5.0907133
  65.7248699  86.6995034   4.3930096  64.2526850  86.5540789   4.7145735
  65.8609623  96.1408706   1.2042125  66.6550222  95.6459026   1.0024700
  65.1501316  95.6126569   0.8409831  70.6804468  98.5226801   5.5554493
  70.7341490  99.0917737   6.3232209  69.8119249  98.6928686   5.1908530
  62.1692387  90.2851787  -2.7198122  61.2389975  90.2236243  -2.5028160
  62.2649859  89.7627740  -3.5161481  62.0877936  86.8106600  -0.1319880
  62.3484753  87.7251933  -0.2410720  62.9095108  86.3431043   0.0176732
  63.5602861  88.2244357   7.0378944  64.2325915  88.0161719   6.3891593
  62.7332648  88.0266443   6.5984176  77.8092122  94.9648408   6.5554278
  78.0028012  95.8694218   6.8013553  77.7092741  94.5055827   7.3892863
  69.4628433  84.8506298   9.0544605  68.8156348  85.5496248   8.9609081
  70.2329449  85.2842442   9.4220853  72.8707231  95.1155150  12.1295158
  72.7192737  94.8865702  11.2125242  72.8611911  96.0725752  12.1426503
  69.6392567  92.6887063   7.1141425  70.5684627  92.8398223   6.9410392
  69.2183597  92.7771084   6.2590071  68.4380899  96.7137728   4.8839962
  68.2991985  96.3456512   5.7565900  67.6495495  97.2285367   4.7123920
  69.9886114  96.0919330   2.2728800  69.6535947  96.0520100   3.1686450
  69.4890060  95.4264046   1.7999210  63.9630358  91.4986960   7.7981381
  63.8250156  90.7667199   8.3992920  64.8735282  91.4095860   7.5165569
  66.5912659  91.2106920   7.2865061  67.3012278  90.5700112   7.2451679
  66.5481967  91.4619814   8.2091242  74.5799438  98.1474273  10.2071640
  74.5211984  97.4633493   9.5402223  74.9818956  98.8893263   9.7552266
  65.3041593  88.1972137   9.1060700  64.7678950  87.7462876   9.7582297
  64.7158301  88.3318046   8.3631165  74.5816845  96.1113857   8.4385620
  73.6943624  95.7739779   8.5612019  75.1515396  95.3796888   8.6754385
  56.2345992  92.4437949   1.7628671  56.9217032  92.1299679   1.1749686
  56.0794121  93.3479313   1.4895923  61.0380714  87.3328145   6.1913695
  60.9538903  86.7253815   5.4564105  60.2163421  87.8237163   6.1923191
  68.1117998 100.7715309   5.4046863  68.0388170 101.5770281   5.9166167
  67.6695391 100.9707275   4.5794884  71.2104428  85.8181709   1.5583890
  71.7073128  85.0651671   1.2384960  70.4391410  85.8546025   0.9927099
  79.0634185  91.5222074   3.2002181  79.0524062  92.4046790   2.8296114
  78.1951565  91.1693625   3.0056718  70.5716682 100.6702143   7.5605022
  71.2844654 101.3049608   7.4880923  70.0806711 100.7666009   6.7445023
  67.7939397  87.9599092   1.2855574  67.4237184  87.4070132   1.9736480
  68.2898489  87.3557225   0.7330575  65.6228595  98.4196587   8.3810592
  66.3238055  99.0533070   8.5339987  65.1523710  98.7611318   7.6206232
  73.6523423  82.7851302   3.7063249  72.7386503  83.0155529   3.8745456
  74.0816524  82.8689746   4.5577281  73.4229881  90.9741194   6.2063143
  72.7701332  91.2217102   5.5515596  73.8010261  90.1605332   5.8725620
  69.4717454  91.7161005  12.6929180  68.7958091  91.6155135  13.3631555
  70.2945088  91.5600219  13.1565177  61.2196313  97.9532942   5.3141695
  61.8049750  97.2076630   5.4469599  61.0221152  98.2636898   6.1978359
  55.8113968  90.5238542   4.0346138  55.8498068  89.9902133   4.8283256
  55.3054261  89.9973747   3.4157115  68.2140237 103.0227933   6.9286796
  68.7658545 103.1859554   7.6935881  68.5546431 103.6132370   6.2566821
  63.1904730  85.3703082   7.5308681  63.2546057  86.2317913   7.1186078
  63.1271851  84.7577084   6.7981039  62.6657003  87.4426215  11.1781715
  63.2929042  87.0603292  11.7919239  61.8084922  87.2240417  11.5437407
  73.0651112  97.8489190  12.7835450  73.6091016  98.4619148  12.2890405
  72.4837956  98.4068769  13.3002463  59.4422546  89.2502644  -2.8899930
  59.7375987  88.3413323  -2.9432877  58.5410582  89.2290384  -3.2118928
  62.9716793  87.3258641   3.0927618  62.2503379  87.9394608   2.9535092
  63.7610049  87.8616406   3.0144264  73.4143533  98.7718928   5.5430028
  72.4673868  98.6524279   5.4708355  73.7626306  97.8841426   5.6256290
  65.7743106  84.6613067   9.3668270  66.2977508  84.9075364  10.1294579
  65.5555440  85.4933102   8.9471407  61.1710387  86.9316742  -2.7660605
  60.8423094  86.0514121  -2.9485499  61.5249758  86.8764410  -1.8784216
  64.2852211  87.2189712  -2.3985128  64.6248283  87.7475633  -3.1206519
  64.7324331  87.5570118  -1.6226561  66.9795651  85.6026762   7.0517941
  66.6392472  84.8034575   7.4538620  66.2734658  85.9028473   6.4794774
  67.6312123  82.6876075   5.5045264  68.4538192  82.2136553   5.3824154
  67.8750187  83.4666558   6.0043950  66.2720358  85.7164333  -4.1991835
  66.9928720  86.0945586  -4.7028118  65.6485662  86.4353210  -4.0956857
  70.4151481  86.4209482  -3.2633502  70.6315095  87.3034120  -3.5644674
  69.9345548  86.0295696  -3.9927860  65.1550702  89.3795195   3.3137242
  65.0095283  89.6935498   4.2061524  64.6775906  89.9980096   2.7608141
  67.0147085  86.3697743   3.3618132  67.0008654  85.4738837   3.0250430
  67.7319513  86.3768407   3.9956418  68.8673216  86.8035084   5.4071259
  68.6090993  87.7252154   5.4055590  68.3358256  86.4065518   6.0971723
  59.6296364  91.9200540   6.2524903  59.0849832  92.6960348   6.3845178
  60.5075714  92.2671344   6.0944025  66.4183981  85.2512124  -1.3694298
  66.5399892  84.3228770  -1.1703411  66.1286023  85.2650810  -2.2815983
  69.2875171  82.9367034   1.7672422  69.3096868  83.0006367   0.8124401
  69.7043230  82.0971543   1.9612928  60.4162386  91.0470436   9.1455060
  59.6744122  91.1953071   9.7319691  60.0955130  91.3078702   8.2821810
  68.3606049 100.5886414   8.9435450  68.6693175 100.3435561   9.8158150
  69.1581531 100.7933053   8.4554320  60.8619000  98.9335865   1.1765455
  61.6877020  98.6339637   0.7964098  60.5113052  98.1643487   1.6255243
  65.8300533  98.2862333   3.2463128  65.2080542  97.6233038   2.9465356
  66.5005400  98.3123465   2.5636776  59.0627605  96.8522191   2.1354388
  58.2259513  96.4244366   1.9538390  59.0351250  97.0454635   3.0725180
  65.9025060  86.7644121  12.8395634  65.9513216  87.6406244  12.4573404
  66.4447574  86.2221514  12.2667278  76.3879906  97.3085244  12.1196772
  75.5975450  97.2909383  11.5801271  76.1513261  97.8473538  12.8745808
  76.5077781  94.1577711   9.4329500  76.5575786  93.9927718  10.3745023
  76.3991704  93.2904970   9.0427381  73.7981543  90.1408639  10.7488807
  74.6991406  90.0015104  10.4572805  73.8729518  90.3063093  11.6886984
  68.1324349  87.5175493   9.5941993  67.2627658  87.8109059   9.3224582
  68.3683829  88.1015938  10.3149257  78.0095978  96.5774652   9.6771522
  77.7180786  96.9404633  10.5134983  77.3968109  95.8641660   9.4984854
  76.2583166  91.7007267   8.1451580  76.7337288  91.8934913   7.3370431
  75.3348731  91.7566453   7.8994963  63.1466673  92.8631434  -2.2717342
  62.9012715  91.9593764  -2.0737132  63.3162587  92.8648584  -3.2137864
  70.8363383  83.7355110   7.1107414  71.3545326  84.4716137   6.7853902
  70.4818515  84.0419104   7.9454173  62.4162320  88.5959792  -4.7731181
  61.7231565  88.6704147  -5.4291145  62.1714072  87.8320135  -4.2509664
  71.0875977  80.1555393   2.6308310  71.3677731  79.4878582   3.2568737
  71.8726584  80.3484488   2.1182974  74.9584835  88.5773027   6.3779885
  75.9102258  88.6771125   6.3992109  74.7888286  87.7851295   6.8877970
  72.9799215  85.6628610   6.5639286  72.3849147  85.9433623   5.8685775
  72.6948911  86.1522511   7.3356027  77.4372913  91.7979147   5.4922185
  77.4049233  90.8595147   5.6781869  78.0473537  91.8763183   4.7588010
  77.5867401  88.5890190   5.5380468  77.0706450  87.8048647   5.3510397
  78.4707350  88.2608907   5.7026988  75.2478128  82.3331206   1.4976281
  75.0502949  82.0246294   2.3819613  75.8577834  83.0592844   1.6274211
  83.2549463  92.8595153   4.6328222  83.9852851  92.5980442   5.1935925
  82.6456408  92.1223875   4.6730290  81.3364760  91.0003016   5.2302673
  80.6097923  90.8658981   4.6219164  80.9212047  91.3079845   6.0359391
  69.1594936  94.7192946  12.9950046  70.0797946  94.8971545  13.1890092
  69.1244519  93.7748991  12.8429745  58.3777101  89.9131539   1.9203321
  58.0579886  89.0596848   1.6277695  57.8310529  90.1280117   2.6761288
  62.1557009  92.6293980   5.6372827  62.3743019  93.5611088   5.6560861
  62.5682783  92.2701955   6.4227631  69.0761227  83.1362066  -2.3751485
  68.2661955  82.7909151  -1.9996239  69.7645644  82.8269609  -1.7863873
  71.0051775  82.2140112  -0.7527188  71.5582814  82.6335566  -0.0937165
  71.2421861  81.2875861  -0.7104232  67.0284874  88.2027186  15.0275576
  66.9281601  89.1521543  14.9587667  66.8106416  87.8745425  14.1551646
  58.2465361  93.5334451   3.8896442  57.5528833  93.1188404   3.3766397
  58.9938352  93.5754987   3.2929861  74.3830582  84.3240638  -1.2448524
  73.8029251  84.9825442  -1.6270471  74.1166515  83.5017982  -1.6561106
  72.8334148  83.7245695   0.9572797  73.3333927  83.8362230   0.1487115
  73.4769756  83.4206748   1.5973605  66.8916144  91.6324325  13.8440638
  66.4083226  92.4324685  14.0504527  66.9777083  91.6432270  12.8908082
  60.1602104  93.4652705   1.7662457  60.1372792  93.5640392   0.8144340
  60.4702740  94.3117855   2.0879623  62.8189482  95.5228860   5.8809071
  63.7732735  95.4912802   5.8139003  62.6202005  95.0619483   6.6959297
  63.4088864  94.0929976   8.4479869  64.2281753  94.5874054   8.4714706
  63.6825672  93.1761944   8.4197437  73.1655460  86.4840728  -2.1892175
  72.2781315  86.7690379  -2.4071981  73.5809449  86.3234491  -3.0364899
  76.5169996  86.5087249   1.5262164  77.2930386  86.9983701   1.7986781
  75.7918130  86.9345303   1.9834033  78.9542555  87.2214868   2.5836104
  79.5487046  86.9810604   1.8729413  79.0269138  86.5021999   3.2109641
  61.1739710 101.0648479   2.8979269  61.0394178 100.3048880   2.3317267
  60.7571773 101.7889379   2.4308058  64.3308836 101.9617796   3.1097712
  64.2141220 102.9063229   3.0076402  63.5101283 101.6591358   3.4983511
  58.6623778  88.4268110   9.1472066  59.3082642  87.9167064   9.6359291
  58.4540929  89.1636791   9.7215491  71.1877170  95.4948957  14.6464207
  72.0568330  95.6689609  14.2850842  70.7083922  96.3143374  14.5239936
  67.1827389  82.6908154  -5.1004038  67.1706058  83.6349994  -4.9435767
  68.0750810  82.5078300  -5.3944576  65.3563350 102.6146058   6.3253640
  66.2590597 102.6469668   6.6420135  65.1300721 101.6846509   6.3399976
  70.9979508  79.2850931  -0.8458101  70.2311904  78.7309417  -0.7001419
  71.4090213  79.3572800   0.0156051  63.0021269  85.5735727  13.2447080
  63.8652731  85.2172531  13.4550405  62.4286680  85.2349621  13.9322485
  79.2914291 104.7170576  11.5118524  78.5147625 105.2764496  11.5021388
  79.9304854 105.2027359  12.0333394  76.2822027 104.6795677  11.8751801
  75.6520688 105.3611958  12.1087198  76.1758115 104.5678759  10.9304939
  75.5602770  98.9816443  14.2377052  75.1669715  98.4282642  14.9124696
  76.3768910  99.2927022  14.6283569  78.4770731 100.3974322  11.8297308
  79.2180444 100.9981475  11.7501771  78.7088654  99.6551960  11.2715351
  73.6212069 105.5830690  10.1075538  73.5065584 104.6815947  10.4082637
  72.7656587 105.8294386   9.7560355  80.3022188 100.1798216   9.0544605
  79.6550103 100.8788166   8.9609081  81.0723203 100.6134360   9.4220853
  76.1435347 103.5264055   9.1060700  75.6072704 103.0754794   9.7582297
  75.5552056 103.6609964   8.3631165  71.8774469 102.6620063   6.1913695
  71.7932657 102.0545732   5.4564105  71.0557175 103.1529081   6.1923191
  80.3111209 107.0452923  12.6929180  79.6351846 106.9447052  13.3631555
  81.1338843 106.8892137  13.1565177  74.0298485 100.6995000   7.5308681
  74.0939811 101.5609831   7.1186078  73.9665605 100.0869002   6.7981039
  73.5050758 102.7718133  11.1781715  74.1322796 102.3895210  11.7919239
  72.6478676 102.5532335  11.5437407  76.6136861  99.9904985   9.3668270
  77.1371263 100.2367281  10.1294579  76.3949194 100.8225020   8.9471407
  71.2556140 106.3762354   9.1455060  70.5137876 106.5244989   9.7319691
  70.9348885 106.6370619   8.2821810  76.7418815 102.0936039  12.8395634
  76.7906970 102.9698161  12.4573404  77.2841329 101.5513432  12.2667278
  78.9718103 102.8467411   9.5941993  78.1021413 103.1400977   9.3224582
  79.2077584 103.4307856  10.3149257  77.8678629 103.5319104  15.0275576
  77.7675356 104.4813461  14.9587667  77.6500171 103.2037343  14.1551646
  77.7309899 106.9616243  13.8440638  77.2476980 107.7616603  14.0504527
  77.8170838 106.9724187  12.8908082  69.5017533 103.7560027   9.1472066
  70.1476396 103.2458981   9.6359291  69.2934684 104.4928709   9.7215491
  73.8415024 100.9027644  13.2447080  74.7046485 100.5464449  13.4550405
  73.2680434 100.5641539  13.9322485  59.0216399  59.8726717  -1.5691655
  58.5780253  59.0863096  -1.8870750  59.6833612  60.0605868  -2.2347764
  61.1197637  60.1529517  -3.5410253  61.1016112  60.9738398  -4.0329984
  62.0417557  60.0283592  -3.3160112  57.5770691  57.6673647  -2.6986745
  58.1099028  56.9061935  -2.9287437  57.0484772  57.3747298  -1.9562590
  66.9698369  56.6418613  -6.7200416  67.1634259  57.5464423  -6.4741141
  66.8698987  56.1826032  -5.8861831  62.0313478  56.7925355  -1.1459535
  61.8798984  56.5635907  -2.0629451  62.0218157  57.7495957  -1.1328190
  63.7405684  59.8244478  -3.0683053  63.6818231  59.1403698  -3.7352470
  64.1425203  60.5663468  -3.5202427  63.7423092  57.7884062  -4.8369074
  62.8549870  57.4509984  -4.7142675  64.3121643  57.0567093  -4.6000308
  59.7322929  62.3472348  -5.7149672  60.4450901  62.9819813  -5.7873770
  59.2412957  62.4436214  -6.5309670  58.6323701  53.3931210  -0.5825513
  57.9564338  53.2925339   0.0876862  59.4551335  53.2370424  -0.1189516
  57.3746484  64.6998138  -6.3467898  57.9264792  64.8629759  -5.5818812
  57.7152678  65.2902575  -7.0187873  62.2257358  59.5259395  -0.4919243
  62.7697262  60.1389353  -0.9864288  61.6444203  60.0838974   0.0247770
  57.5212295  62.2656619  -4.3319243  57.8299422  62.0205766  -3.4596544
  58.3187777  62.4703258  -4.8200373  65.5486153  58.9855449  -1.1557922
  64.7581696  58.9679588  -1.6953422  65.3119507  59.5243743  -0.4008885
  65.6684028  55.8347916  -3.8425193  65.7182033  55.6697923  -2.9009670
  65.5597951  54.9675175  -4.2327313  62.9587790  51.8178844  -2.5265887
  63.8597653  51.6785308  -2.8181889  63.0335765  51.9833298  -1.5867709
  67.1702225  58.2544857  -3.5983172  66.8787033  58.6174838  -2.7619711
  66.5574356  57.5411865  -3.7769840  58.3201183  56.3963151  -0.2804647
  59.2404192  56.5741750  -0.0864601  58.2850766  55.4519196  -0.4324948
  56.0522391  53.3094530   0.5685944  55.5689473  54.1094890   0.7749833
  56.1383330  53.3202475  -0.3846612  60.3483417  57.1719162   1.3709513
  61.2174577  57.3459814   1.0096148  59.8690168  57.9913579   1.2485243
  72.0075893  68.8807788  -9.2245212  72.6454303  68.7614535  -9.9281872
  71.8896736  69.8288632  -9.1657260  68.8165599  68.8335216  -9.2883687
  68.4784111  68.7176281 -10.1763152  69.6855367  68.4326381  -9.3082681
  69.2985382  69.9870068  -3.3297482  69.2874023  69.5922866  -4.2016978
  69.4606021  69.2536140  -2.7363710  62.2216847  72.1821884 -10.4602576
  63.0138139  71.8412709 -10.8756277  62.4613497  72.2916859  -9.5400423
  66.0192643  72.7707180  -4.3818298  65.7282509  73.6752810  -4.4971631
  66.6549628  72.8123707  -3.6674228  66.9448850  70.1484028  -7.7916938
  67.5412422  69.9240050  -8.5059975  67.0023822  69.4068774  -7.1891490
  71.5617161  66.6059242 -12.1492004  72.3480250  66.1878665 -12.5001587
  71.8255866  67.5105334 -11.9810356  76.9625588  66.5434475 -11.2459025
  77.6950760  65.9733692 -11.0121196  76.2064944  66.1556075 -10.8052520
  68.5801708  68.9661716 -14.0495683  68.2159915  68.4392337 -13.3382762
  69.4368824  68.5760185 -14.2229198  74.4851009  60.2556049  -6.7864417
  74.1534333  61.1251460  -7.0103202  73.8896622  59.9392333  -6.1070386
  70.9782528  72.4568595  -7.3868504  70.6783251  73.3593634  -7.4952697
  70.6333588  72.1900778  -6.5347351  64.4295010  68.9082392 -11.3531800
  63.5045506  68.7758606 -11.1454108  64.6779423  69.6876611 -10.8561857
  74.3779672  64.9751135  -9.7071067  73.4696549  64.9066544 -10.0012306
  74.3267268  65.4523080  -8.8789241  61.7903821  68.5515665 -10.5188011
  61.9196202  68.8050144  -9.6048599  61.1101272  69.1443373 -10.8383356
  68.4520538  66.3940781  -1.7636170  67.6753872  66.9534701  -1.7733305
  69.0911101  66.8797564  -1.2421299  76.2441318  63.1767574  -7.9293193
  75.6015699  63.4700107  -8.5753398  75.7396247  63.0620494  -7.1239996
  66.7066910  69.2026234  -2.2018203  67.4481594  69.7411278  -2.4783379
  66.0003896  69.8292523  -2.0446651  72.1822250  71.3455375  -3.6046041
  72.5905606  70.9037785  -4.3491409  71.4599511  70.7708002  -3.3511848
  68.5353320  66.2827981  -6.2312484  69.3814515  66.7067395  -6.0877835
  68.4751957  65.6261606  -5.5373921  72.5051064  71.9056565  -9.8493752
  71.8759927  72.0702279 -10.5517684  72.1176726  72.3198175  -9.0782788
  71.6852765  63.9432350  -4.5731310  71.4413697  64.6974410  -5.1097035
  71.9612696  64.3217697  -3.7384063  73.6391228  70.4870962  -5.8954045
  73.8508123  71.1302722  -6.5719664  73.5920976  69.6533279  -6.3632115
  71.2417457  63.0988783  -8.9917473  70.3801936  63.3970036  -8.7000735
  71.2679892  63.3159182  -9.9236440  68.0579026  71.6430973 -12.5843667
  68.5217372  71.9218676 -13.3739045  67.7935824  70.7414418 -12.7670576
  64.9503107  71.1902455  -9.6463904  65.5204464  71.6189723 -10.2846419
  65.5411219  70.9085040  -8.9479718  65.4428274  66.3565882  -1.4002893
  64.8126934  67.0382163  -1.1667496  65.3364362  66.2448964  -2.3449754
  74.7537056  73.3642918  -7.7231688  75.5754500  72.9623105  -8.0049006
  74.7499459  73.2611152  -6.7715572  68.5193659  72.9126961  -5.5670977
  68.5838092  73.3747368  -4.7312805  67.8104583  72.2824326  -5.4388667
  59.0210949  66.2768169  -8.0421978  59.2718988  67.1615179  -7.7764402
  59.5570498  66.0972770  -8.8146886  64.7209017  60.6586648   0.9622359
  64.3275962  60.1052847   1.6370003  65.5375157  60.9697227   1.3528876
  67.6376978  62.0744527  -1.4457385  68.3786691  62.6751680  -1.5252922
  67.8694900  61.3322165  -2.0039342  62.7818316  67.2600895  -3.1679155
  62.6671831  66.3586152  -2.8672056  61.9262833  67.5064591  -3.5194339
  69.8610153  75.2018635  -1.5691655  69.4174008  74.4155013  -1.8870750
  70.5227367  75.3897785  -2.2347764  64.6197275  76.7314436  -7.0430976
  65.1704700  76.6031500  -7.8153982  63.7808750  77.0309325  -7.3936083
  71.9591391  75.4821435  -3.5410253  71.9409867  76.3030316  -4.0329984
  72.8811311  75.3575510  -3.3160112  68.4164446  72.9965564  -2.6986745
  68.9492782  72.2353852  -2.9287437  67.8878527  72.7039216  -1.9562590
  71.5834141  58.1025630  -7.1693103  71.2398410  58.9927272  -7.2453993
  71.9513103  57.9127288  -8.0323518  70.6630681  60.4730285  -9.2043870
  70.1595476  60.4360421 -10.0176065  70.9561288  61.3823028  -9.1447213
  74.7610004  70.3200577 -10.0700887  74.1033679  71.0099839  -9.9820758
  75.5650403  70.7097009  -9.7266900  73.5715463  68.6744950 -12.0196945
  74.0847345  69.3074942 -11.5175235  74.2216687  68.0746145 -12.3853585
  70.0496294  66.1494405  -9.7738604  69.1318855  66.3709352  -9.9316916
  70.4656438  66.2240716 -10.6326897  73.2810179  64.5842937 -12.6617135
  72.5432936  64.0720324 -12.3306892  73.5336952  64.1443319 -13.4733858
  67.6542886  67.6572982 -11.5599174  67.7091496  66.7046819 -11.6356698
  66.8434088  67.8132422 -11.0757876  71.1909458  66.7391867  -4.9693902
  71.5458845  66.9663340  -4.1099436  71.8381589  67.0710243  -5.5916646
  65.0849321  63.8468398  -8.1847561  65.7248700  63.7057157  -8.8824597
  64.2526851  63.5602911  -8.5608959  65.8609624  73.1470828 -12.0712568
  66.6550223  72.6521148 -12.2729993  65.1501317  72.6188691 -12.4344863
  70.6804469  75.5288924  -7.7200201  70.7341491  76.0979860  -6.9522485
  69.8119250  75.6990809  -8.0846163  63.5602862  65.2306480  -6.2375749
  64.2325916  65.0223842  -6.8863100  62.7332649  65.0328566  -6.6770517
  77.8092124  71.9710530  -6.7200416  78.0028014  72.8756341  -6.4741141
  77.7092742  71.5117949  -5.8861831  69.4628434  61.8568421  -4.2210088
  68.8156349  62.5558370  -4.3145612  70.2329450  62.2904565  -3.8533840
  72.8707232  72.1217273  -1.1459535  72.7192739  71.8927825  -2.0629451
  72.8611912  73.0787874  -1.1328190  69.6392569  69.6949186  -6.1613269
  70.5684629  69.8460345  -6.3344301  69.2183599  69.7833207  -7.0164622
  68.4380900  73.7199850  -8.3914731  68.2991986  73.3518635  -7.5188793
  67.6495497  74.2347490  -8.5630773  69.9886116  73.0981453 -11.0025893
  69.6535948  73.0582223 -10.1068243  69.4890061  72.4326169 -11.4755483
  63.9630360  68.5049083  -5.4773312  63.8250158  67.7729322  -4.8761773
  64.8735283  68.4157983  -5.7589124  66.5912660  68.2169042  -5.9889633
  67.3012279  67.5762234  -6.0303014  66.5481968  68.4681937  -5.0663452
  74.5799439  75.1536396  -3.0683053  74.5211985  74.4695616  -3.7352470
  74.9818957  75.8955386  -3.5202427  65.3041594  65.2034260  -4.1693993
  64.7678951  64.7524999  -3.5172397  64.7158303  65.3380169  -4.9123529
  74.5816846  73.1175979  -4.8369074  73.6943625  72.7801901  -4.7142675
  75.1515397  72.3859011  -4.6000308  61.0380715  64.3390268  -7.0840999
  60.9538904  63.7315937  -7.8190589  60.2163422  64.8299286  -7.0831502
  68.1118000  77.7777432  -7.8707830  68.0388171  78.5832403  -7.3588526
  67.6695393  77.9769398  -8.6959809  79.0634187  68.5284197 -10.0752512
  79.0524063  69.4108912 -10.4458579  78.1951566  68.1755748 -10.2697975
  70.5716683  77.6764266  -5.7149672  71.2844655  78.3111731  -5.7873770
  70.0806712  77.7728132  -6.5309670  65.6228597  75.4258709  -4.8944101
  66.3238056  76.0595192  -4.7414707  65.1523712  75.7673441  -5.6548462
  73.6523424  59.7913425  -9.5691445  72.7386504  60.0217652  -9.4009238
  74.0816526  59.8751869  -8.7177412  73.4229883  67.9803317  -7.0691551
  72.7701333  68.2279224  -7.7239098  73.8010263  67.1667455  -7.4029073
  69.4717456  68.7223128  -0.5825513  68.7958093  68.6217257   0.0876862
  70.2945090  68.5662342  -0.1189516  61.2196315  74.9595064  -7.9612998
  61.8049752  74.2138752  -7.8285094  61.0221153  75.2699021  -7.0776334
  68.2140239  80.0290055  -6.3467898  68.7658547  80.1921677  -5.5818812
  68.5546432  80.6194493  -7.0187873  63.1904732  62.3765205  -5.7446013
  63.2546058  63.2380036  -6.1568615  63.1271852  61.7639207  -6.4773654
  62.6657004  64.4488338  -2.0972979  63.2929043  64.0665415  -1.4835454
  61.8084923  64.2302540  -1.7317286  73.0651113  74.8551313  -0.4919243
  73.6091017  75.4681271  -0.9864288  72.4837958  75.4130891   0.0247770
  73.4143534  75.7781051  -7.7324665  72.4673870  75.6586402  -7.8046339
  73.7626307  74.8903549  -7.6498404  65.7743108  61.6675190  -3.9086423
  66.2977509  61.9137486  -3.1460114  65.5555441  62.4995225  -4.3283286
  66.9795653  62.6088885  -6.2236753  66.6392473  61.8096698  -5.8216073
  66.2734659  62.9090596  -6.7959920  67.6312124  59.6938197  -7.7709430
  68.4538194  59.2198676  -7.8930539  67.8750188  60.4728681  -7.2710744
  65.1550703  66.3857318  -9.9617451  65.0095284  66.6997621  -9.0693170
  64.6775907  67.0042218 -10.5146553  67.0147086  63.3759866  -9.9136562
  67.0008655  62.4800959 -10.2504264  67.7319514  63.3830530  -9.2798276
  68.8673217  63.8097206  -7.8683434  68.6090995  64.7314277  -7.8699104
  68.3358257  63.4127641  -7.1782970  59.6296365  68.9262662  -7.0229790
  59.0849833  69.7022470  -6.8909516  60.5075715  69.2733467  -7.1810669
  60.4162387  68.0532559  -4.1299633  59.6744123  68.2015194  -3.5435003
  60.0955131  68.3140824  -4.9932884  68.3606050  77.5948537  -4.3319243
  68.6693176  77.3497684  -3.4596544  69.1581532  77.7995175  -4.8200373
  60.8619001  75.9397987 -12.0989239  61.6877021  75.6401759 -12.4790595
  60.5113053  75.1705610 -11.6499450  65.8300534  75.2924456 -10.0291565
  65.2080543  74.6295161 -10.3289337  66.5005401  75.3185587 -10.7117917
  59.0627606  73.8584314 -11.1400305  58.2259514  73.4306488 -11.3216304
  59.0351251  74.0516757 -10.2029514  65.9025062  63.7706244  -0.4359059
  65.9513217  64.6468366  -0.8181289  66.4447576  63.2283637  -1.0087416
  76.3879907  74.3147367  -1.1557922  75.5975451  74.2971506  -1.6953422
  76.1513262  74.8535661  -0.4008885  76.5077782  71.1639833  -3.8425193
  76.5575787  70.9989841  -2.9009670  76.3991706  70.2967092  -4.2327313
  73.7981545  67.1470761  -2.5265887  74.6991407  67.0077226  -2.8181889
  73.8729519  67.3125216  -1.5867709  68.1324350  64.5237616  -3.6812700
  67.2627659  64.8171182  -3.9530112  68.3683830  65.1078061  -2.9605437
  78.0095979  73.5836775  -3.5983172  77.7180787  73.9466755  -2.7619711
  77.3968110  72.8703783  -3.7769840  76.2583167  68.7069389  -5.1303114
  76.7337289  68.8997036  -5.9384262  75.3348733  68.7628575  -5.3759730
  70.8363384  60.7417233  -6.1647280  71.3545328  61.4778260  -6.4900791
  70.4818517  61.0481226  -5.3300521  74.9584836  65.5835149  -6.8974808
  75.9102259  65.6833247  -6.8762584  74.7888287  64.7913418  -6.3876724
  72.9799216  62.6690733  -6.7115407  72.3849148  62.9495745  -7.4068919
  72.6948913  63.1584634  -5.9398666  77.4372914  68.8041269  -7.7832509
  77.4049234  67.8657270  -7.5972825  78.0473538  68.8825306  -8.5166684
  77.5867403  65.5952313  -7.7374225  77.0706451  64.8110769  -7.9244296
  78.4707351  65.2671029  -7.5727706  75.2478130  59.3393328 -11.7778413
  75.0502951  59.0308416 -10.8935081  75.8577835  60.0654967 -11.6480483
  83.2549464  69.8657276  -8.6426472  83.9852852  69.6042564  -8.0818768
  82.6456409  69.1285998  -8.6024404  81.3364761  68.0065139  -8.0452021
  80.6097925  67.8721104  -8.6535529  80.9212048  68.3141967  -7.2395302
  69.1594938  71.7255068  -0.2804647  70.0797947  71.9033667  -0.0864601
  69.1244521  70.7811114  -0.4324948  62.1557010  69.6356103  -7.6381866
  62.3743020  70.5673211  -7.6193833  62.5682784  69.2764077  -6.8527062
  67.0284875  65.2089309   1.7520883  66.9281602  66.1583666   1.6832974
  66.8106417  64.8807548   0.8796953  58.2465363  70.5396573  -9.3858251
  57.5528834  70.1250526  -9.8988297  58.9938354  70.5817110  -9.9824832
  66.8916145  68.6386448   0.5685944  66.4083227  69.4386808   0.7749833
  66.9777084  68.6494392  -0.3846612  62.8189483  72.5290982  -7.3945622
  63.7732736  72.4974925  -7.4615690  62.6202007  72.0681606  -6.5795396
  63.4088865  71.0992098  -4.8274824  64.2281754  71.5936177  -4.8039987
  63.6825673  70.1824066  -4.8557257  76.5169997  63.5149372 -11.7492530
  77.2930388  64.0045824 -11.4767913  75.7918132  63.9407426 -11.2920660
  78.9542556  64.2276991 -10.6918589  79.5487047  63.9872727 -11.4025281
  79.0269140  63.5084121 -10.0645053  61.1739712  78.0710602 -10.3775424
  61.0394180  77.3111003 -10.9437426  60.7571774  78.7951502 -10.8446635
  64.3308838  78.9679919 -10.1656981  64.2141222  79.9125351 -10.2678291
  63.5101284  78.6653480  -9.7771182  58.6623779  65.4330232  -4.1282627
  59.3082643  64.9229186  -3.6395402  58.4540930  66.1698914  -3.5539202
  71.1877171  72.5011080   1.3709513  72.0568331  72.6751732   1.0096148
  70.7083923  73.3205496   1.2485243  65.3563352  79.6208181  -6.9501053
  66.2590598  79.6531791  -6.6334558  65.1300722  78.6908632  -6.9354717
  63.0021270  62.5797849  -0.0307613  63.8652732  62.2234654   0.1795712
  62.4286681  62.2411744   0.6567791  79.2914292  81.7232698  -1.7636170
  78.5147626  82.2826619  -1.7733305  79.9304855  82.2089481  -1.2421299
  76.2822028  81.6857800  -1.4002893  75.6520689  82.3674081  -1.1667496
  76.1758116  81.5740882  -2.3449754  75.5602771  75.9878566   0.9622359
  75.1669717  75.4344764   1.6370003  76.3768911  76.2989144   1.3528876
  78.4770732  77.4036445  -1.4457385  79.2180445  78.0043598  -1.5252922
  78.7088655  76.6614083  -2.0039342  73.6212070  82.5892812  -3.1679155
  73.5065585  81.6878069  -2.8672056  72.7656588  82.8356509  -3.5194339
  80.3022189  77.1860338  -4.2210088  79.6550104  77.8850288  -4.3145612
  81.0723204  77.6196482  -3.8533840  76.1435349  80.5326178  -4.1693993
  75.6072706  80.0816916  -3.5172397  75.5552057  80.6672087  -4.9123529
  71.8774470  79.6682185  -7.0840999  71.7932659  79.0607855  -7.8190589
  71.0557176  80.1591204  -7.0831502  80.3111210  84.0515045  -0.5825513
  79.6351847  83.9509175   0.0876862  81.1338844  83.8954259  -0.1189516
  74.0298486  77.7057123  -5.7446013  74.0939813  78.5671954  -6.1568615
  73.9665606  77.0931124  -6.4773654  73.5050759  79.7780255  -2.0972979
  74.1322798  79.3957333  -1.4835454  72.6478678  79.5594457  -1.7317286
  76.6136862  76.9967107  -3.9086423  77.1371264  77.2429404  -3.1460114
  76.3949195  77.8287142  -4.3283286  71.2556142  83.3824476  -4.1299633
  70.5137878  83.5307112  -3.5435003  70.9348886  83.6432742  -4.9932884
  76.7418816  79.0998161  -0.4359059  76.7906972  79.9760284  -0.8181289
  77.2841330  78.5575554  -1.0087416  78.9718104  79.8529534  -3.6812700
  78.1021414  80.1463100  -3.9530112  79.2077585  80.4369979  -2.9605437
  77.8678630  80.5381226   1.7520883  77.7675357  81.4875583   1.6832974
  77.6500172  80.2099465   0.8796953  77.7309900  83.9678365   0.5685944
  77.2476982  84.7678725   0.7749833  77.8170839  83.9786310  -0.3846612
  69.5017534  80.7622150  -4.1282627  70.1476397  80.2521104  -3.6395402
  69.2934685  81.4990831  -3.5539202  73.8415025  77.9089767  -0.0307613
  74.7046486  77.5526572   0.1795712  73.2680435  77.5703662   0.6567791
  80.3111211  61.0577168 -13.8580207  79.6351848  60.9571297 -13.1877832
  81.1338845  60.9016382 -13.3944210  77.7309901  60.9740488 -12.7068749
  77.2476983  61.7740848 -12.5004860  77.8170840  60.9848433 -13.6601305
   3.0786268 117.8798707  55.6854875   3.6730759 117.6394443  54.9748183
   3.1512852 117.1605838  56.3128411   6.9686762 100.3665505  41.7272054
   6.2150471  99.7972903  41.5716059   7.1034304 100.3328169  42.6742689
   1.0450908 100.5194141  38.8374198   0.9068807 100.7095737  37.9095387
   0.6887127 101.2813524  39.2942249   1.0720288 102.5870668  43.8485469
   1.5056794 102.4945958  44.6968523   1.7851868 102.5628169  43.2105485
   1.9335837 102.6294369  46.3818355   2.1271727 103.5340180  46.6277630
   1.8336455 102.1701788  47.2156940   3.1877900  99.1868036  43.0266258
   3.1767777 100.0692751  42.6560191   2.3195280  98.8339587  42.8320795
   3.7902510 100.3368255  39.6315721   4.2333656  99.5875580  39.2334845
   2.9129021 100.3278391  39.2489453   0.8229715 104.3398302  36.6409651
   1.3481039 104.6785575  35.9158971   0.7352067 103.4045317  36.4572785
   0.6321496 101.8223672  49.2593577   0.6819501 101.6573680  50.2009100
   0.5235419 100.9550931  48.8691458   2.1339693 104.2420614  49.5035599
   1.8424501 104.6050594  50.3399060   1.5211824 103.5287622  49.3248931
   3.3335375 101.8073493  42.0238169   4.1682266 102.2463297  42.1875729
   3.4694504 101.3312147  41.2046415   1.5616628  99.4625108  45.3186262
   1.5292948  98.5241109  45.5045946   2.1717251  99.5409145  44.5852087
   1.7111116  96.2536151  45.3644545   1.1950165  95.4694608  45.1774474
   2.5951065  95.9254868  45.5291065   7.3793178 100.5241115  44.4592299
   8.1096566 100.2626403  45.0200002   6.7700123  99.7869837  44.4994367
   5.4608475  98.6648977  45.0566750   4.7341638  98.5304942  44.4483241
   5.0455762  98.9725806  45.8623468   3.0786270  94.8860830  42.4100181
   3.6730760  94.6456566  41.6993490   3.1512853  94.1667960  43.0373718
   1.0745004  95.4530957  38.6772311   0.8181939  95.0527593  39.5080519
   0.4497872  96.1674751  38.5522450   5.3857342  98.1927031  41.1843603
   4.8256900  98.2620220  41.9575165   4.7800846  98.0168015  40.4643099
   6.9713361 114.8683544  43.8773558   7.6091771 114.7490292  43.1736898
   6.8534204 115.8164388  43.9361511   3.7803067 114.8210973  43.8135083
   3.4421579 114.7052037  42.9255618   4.6492835 114.4202138  43.7936089
   4.2622850 115.9745824  49.7721289   4.2511491 115.5798623  48.9001792
   4.4243490 115.2411897  50.3655060   1.9086318 116.1359785  45.3101832
   2.5049890 115.9115807  44.5958795   1.9661290 115.3944530  45.9127280
   6.5254629 112.5934998  40.9526766   7.3117718 112.1754421  40.6017183
   6.7893334 113.4981090  41.1208415  11.9263056 112.5310232  41.8559745
  12.6588228 111.9609448  42.0897574  11.1702412 112.1431832  42.2966250
   3.5439176 114.9537473  39.0523087   3.1797383 114.4268094  39.7636009
   4.4006292 114.5635942  38.8789573   9.4488477 106.2431806  46.3154354
   9.1171802 107.1127217  46.0915569   8.8534090 105.9268090  46.9948384
   5.9419996 118.4444352  45.7150266   5.6420719 119.3469390  45.6066073
   5.5971056 118.1776535  46.5671419   9.3417140 110.9626892  43.3947704
   8.4334017 110.8942300  43.1006465   9.2904736 111.4398837  44.2229529
   3.4158006 112.3816537  51.3382601   2.6391340 112.9410458  51.3285465
   4.0548569 112.8673320  51.8597471  11.2078786 109.1643330  45.1725577
  10.5653167 109.4575863  44.5265372  10.7033715 109.0496251  45.9778774
   8.8618950 112.9106503  35.8611437   9.7736806 113.1433890  35.6859134
   8.3528597 113.4943548  35.2986515   1.6704378 115.1901991  50.9000568
   2.4119063 115.7287035  50.6235391   0.9641364 115.8168279  51.0572120
   7.1459718 117.3331131  49.4972729   7.5543074 116.8913542  48.7527362
   6.4236979 116.7583759  49.7506922   3.4990788 112.2703738  46.8706286
   4.3451983 112.6943152  47.0140935   3.4389425 111.6137362  47.5644849
   7.4688532 117.8932322  43.2525018   6.8397395 118.0578036  42.5501086
   7.0814195 118.3073931  44.0235982  11.3477764 118.8286760  40.6069382
  10.6628802 119.2085661  40.0566415  11.4321614 119.4382086  41.3401330
   6.6490233 109.9308106  48.5287460   6.4051165 110.6850167  47.9921736
   6.9250164 110.3093454  49.3634707   8.6028696 116.4746719  47.2064726
   8.8145591 117.1178479  46.5299107   8.5558444 115.6409035  46.7386656
   6.2054925 109.0864539  44.1101298   5.3439404 109.3845793  44.4018035
   6.2317360 109.3034938  43.1782330   3.0216494 117.6306730  40.5175103
   3.4854840 117.9094433  39.7279726   2.7573292 116.7290174  40.3348194
   9.7174524 119.3518674  45.3787083  10.5391968 118.9498861  45.0969764
   9.7136927 119.2486908  46.3303199  17.8080517 115.6957423  41.7272054
  17.0544225 115.1264821  41.5716059  17.9428058 115.6620087  42.6742689
   2.6014446 108.0620284  51.6561385   3.3424159 108.6627437  51.5765848
   2.8332368 107.3197922  51.0979428   6.5471609 104.0901387  45.9325667
   6.2035878 104.9803028  45.8564778   6.9150571 103.9003044  45.0695252
   4.0969002 108.9259699  39.4983341   3.2410599 108.5366549  39.3188979
   4.5095954 109.0051659  38.6383126   5.6268149 106.4606042  43.8974900
   5.1232945 106.4236177  43.0842706   5.9198756 107.3698785  43.9571557
   1.8711035 106.5444772  42.9041082   2.7364032 106.3487580  42.5446972
   1.9388544 106.3155123  43.8310439  11.4856165 116.8342353  36.3751276
  10.7085608 116.4953512  35.9306438  12.1647646 116.8394976  35.7006241
   6.3008194 111.9537090  36.2657883   5.9958330 112.2683239  37.1168027
   7.2538637 112.0318510  36.3085216   9.7247472 116.3076334  43.0317884
   9.0671147 116.9975595  43.1198012  10.5287872 116.6972766  43.3751870
   8.5352931 114.6620706  41.0821825   9.0484813 115.2950698  41.5843535
   9.1854155 114.0621902  40.7165185   1.7796022 105.6488228  39.0032518
   1.1260434 105.3337246  38.3789133   1.7376496 105.0263969  39.7292341
   5.0133762 112.1370162  43.3280166   4.0956323 112.3585109  43.1701854
   5.4293906 112.2116473  42.4691873   5.7968810 113.5361578  38.4582846
   6.5440629 114.0482975  38.1489968   6.0660399 113.2145630  39.3187240
   9.3014727 119.6426708  39.2100968   8.8477054 118.8017618  39.2666159
   8.6708694 120.2788106  39.5475748   8.2447647 110.5718694  40.4401636
   7.5070404 110.0596080  40.7711878   8.4974420 110.1319076  39.6284912
   8.3459274 103.3494946  41.0343405   8.6518151 102.4892309  40.7469320
   9.0711879 103.9412566  40.8342399   2.6180354 113.6448739  41.5419596
   2.6728964 112.6922575  41.4662072   1.8071556 113.8008178  42.0260894
   6.1546926 112.7267623  48.1324869   6.5096313 112.9539096  48.9919334
   6.8019057 113.0586000  47.5102124  11.8844662 115.8486059  38.8374198
  11.7462561 116.0387655  37.9095387  11.5280881 116.6105442  39.2942249
  11.9114042 117.9162586  43.8485469  12.3450549 117.8237875  44.6968523
  12.6245623 117.8920087  43.2105485  12.7729592 117.9586287  46.3818355
  12.9665482 118.8632097  46.6277630  12.6730210 117.4993706  47.2156940
   4.4265902 107.8444177  48.8808682   3.7793817 108.5434127  48.7873158
   5.1966918 108.2780321  49.2484930   7.8344700 118.1093030  51.9559235
   7.6830207 117.8803581  51.0389319   7.8249380 119.0663631  51.9690580
   4.6030037 115.6824942  46.9405502   5.5322097 115.8336102  46.7674469
   4.1821067 115.7708963  46.0854148   1.5550128 114.2044799  47.1129138
   2.2649747 113.5637991  47.0715756   1.5119436 114.4557694  48.0355319
   9.5454314 119.1051736  48.2649697   8.6581093 118.7677658  48.3876096
  10.1152865 118.3734767  48.5018462   6.1741897 108.8119588  41.3847967
   6.6710597 108.0589550  41.0649037   5.4028879 108.8483905  40.8191176
  14.0271655 114.5159953  43.0266258  14.0161531 115.3984669  42.6560191
  13.1589034 114.1631504  42.8320795   7.2571678 117.5691275  38.9586390
   6.3227957 117.6892738  38.7891095   7.4348347 116.6663742  38.6946400
   2.7576866 110.9536971  41.1119651   2.3874654 110.4008011  41.8000557
   3.2535959 110.3495104  40.5594652  10.6444229 113.4108594  39.4936424
  11.1104682 114.2436586  39.4196727  11.0951730 112.9453576  40.1981683
   8.7120461 119.7552416  36.4922576   8.9880304 119.6409010  37.4016451
   7.8424959 119.3569901  36.4534750   8.6160892 105.7789181  43.5327326
   7.7023972 106.0093408  43.7009533   9.0453994 105.8627625  44.3841358
   8.3867351 113.9679073  46.0327220   7.7338801 114.2154981  45.3779673
   8.7647731 113.1543212  45.6989697   4.4354924 114.7098884  52.5193257
   3.7595561 114.6093014  53.1895632   5.2582558 114.5538098  52.9829254
   0.7380576 107.6550946  49.1932347   1.2614977 107.9013243  49.9558656
   0.5192909 108.4870981  48.7735484   1.9433121 108.5964641  46.8782018
   1.6029941 107.7972455  47.2802697   1.2372127 108.8966352  46.3058851
   2.5949592 105.6813954  45.3309341   3.4175662 105.2074432  45.2088231
   2.8387656 106.4604438  45.8308027   5.3788950 109.4147361  36.5630575
   5.5952564 110.2971999  36.2619403   4.8983017 109.0233575  35.8336217
   1.9784554 109.3635623  43.1882209   1.9646123 108.4676716  42.8514507
   2.6956982 109.3706286  43.8220495   3.8310685 109.7972963  45.2335336
   3.5728463 110.7190033  45.2319667   3.2995725 109.4003397  45.9235800
   1.3821450 108.2450003  38.4569779   1.5037361 107.3166649  38.6560666
   1.0923492 108.2588689  37.5448094   4.2512640 105.9304913  41.5936499
   4.2734337 105.9944246  40.6388478   4.6680699 105.0909422  41.7877005
  14.6296265 115.6660173  39.6315721  15.0727411 114.9167498  39.2334845
  13.7522775 115.6570309  39.2489453  11.6623469 119.6690220  36.6409651
  12.1874793 120.0077493  35.9158971  11.5745822 118.7337235  36.4572785
   0.8662530 109.7582000  52.6659711   0.9150685 110.6344123  52.2837481
   1.4085044 109.2159393  52.0931355  11.3517375 120.3023123  51.9460849
  10.5612919 120.2847262  51.4065348  11.1150730 120.8411417  52.7009885
  11.4715250 117.1515590  49.2593577  11.5213255 116.9865597  50.2009100
  11.3629174 116.2842849  48.8691458   8.7619013 113.1346518  50.5752884
   9.6628875 112.9952983  50.2836882   8.8366987 113.3000973  51.5151061
   3.0961818 110.5113373  49.4206070   2.2265127 110.8046939  49.1488659
   3.3321298 111.0953818  50.1413334  12.9733447 119.5712531  49.5035599
  12.6818255 119.9342512  50.3399060  12.3605578 118.8579540  49.3248931
  14.1729129 117.1365411  42.0238169  15.0076021 117.5755215  42.1875729
  14.3088258 116.6604064  41.2046415  11.2220635 114.6945146  47.9715657
  11.6974757 114.8872792  47.1634508  10.2986201 114.7504332  47.7259040
   5.8000852 106.7292990  46.9371491   6.3182796 107.4654016  46.6117979
   5.4455985 107.0356983  47.7718250   6.0513446 103.1493272  42.4572387
   6.3315200 102.4816461  43.0832814   6.8364053 103.3422368  41.9447051
   9.9222304 111.5710906  46.2043962  10.8739727 111.6709004  46.2256186
   9.7525755 110.7789175  46.7142047   7.9436684 108.6566489  46.3903363
   7.3486616 108.9371502  45.6949852   7.6586381 109.1460390  47.1620104
  12.4010382 114.7917026  45.3186262  12.3686702 113.8533026  45.5045946
  13.0111006 114.8701062  44.5852087  12.5504871 111.5828069  45.3644545
  12.0343919 110.7986526  45.1774474  13.4344819 111.2546786  45.5291065
  10.2115598 105.3269085  41.3240358  10.0140419 105.0184173  42.2083690
  10.8215303 106.0530724  41.4538288  18.2186932 115.8533033  44.4592299
  18.9490320 115.5918321  45.0200002  17.6093877 115.1161755  44.4994367
  16.3002229 113.9940895  45.0566750  15.5735393 113.8596860  44.4483241
  15.8849516 114.3017724  45.8623468   4.1232406 117.7130825  52.8214123
   5.0435415 117.8909424  53.0154169   4.0881989 116.7686870  52.6693822
   4.0398696 106.1299945  37.4512592   3.2299424 105.7847030  37.8267839
   4.7283113 105.8207489  38.0400204   5.9689244 105.2077992  39.0736889
   6.5220283 105.6273445  39.7326912   6.2059331 104.2813740  39.1159845
   1.9922343 111.1965065  54.8539653   1.8919070 112.1459422  54.7851744
   1.7743885 110.8683304  53.9815723   9.3468051 107.3178517  38.5815553
   8.7666720 107.9763321  38.1993606   9.0803984 106.4955861  38.1702971
   7.7971618 106.7183574  40.7836874   8.2971396 106.8300109  39.9751192
   8.4407226 106.4144627  41.4237682   1.8553613 114.6262204  53.6704715
   1.3720695 115.4262564  53.8768604   1.9414553 114.6370149  52.7172159
   8.1292929 109.4778607  37.6371902   7.2418784 109.7628258  37.4192096
   8.5446918 109.3172371  36.7899178  11.4807465 109.5025128  41.3526241
  12.2567856 109.9921581  41.6250858  10.7555600 109.9283182  41.8098110
  13.9180024 110.2152747  42.4100181  14.5124515 109.9748483  41.6993490
  13.9906608 109.4959878  43.0373718   8.1033953 114.9933143  37.8522192
   8.0469154 115.4501695  37.0129824   8.6562295 114.2323828  37.6745035
  11.9138759 110.7822875  38.6772311  11.6575693 110.3819511  39.5080519
  11.2891627 111.4966669  38.5522450  16.2251097 113.5218948  41.1843603
  15.6650655 113.5912138  41.9575165  15.6194600 113.3459933  40.4643099
   8.8368732 116.1837924  35.1474721   8.7817536 116.0182196  34.2063165
   8.2114788 116.8913957  35.3036911   6.1514640 118.4886836  54.4728284
   7.0205799 118.6627488  54.1114919   5.6721391 119.3081253  54.3504013
   2.1464858 105.6846033  34.7260039   2.1343528 106.6287873  34.8828310
   3.0388280 105.5016179  34.4319501   5.9616977 102.2788810  38.9805976
   5.1949373 101.7247297  39.1262658   6.3727682 102.3510679  39.8420128
  20.2882231 121.5723723  46.3154354  19.9565556 122.4419134  46.0915569
  19.6927845 121.2560007  46.9948384  22.0472541 124.4935248  45.1725577
  21.4046921 124.7867781  44.5265372  21.5427469 124.3788168  45.9778774
  17.3865363 119.4193304  45.9325667  17.0429632 120.3094946  45.8564778
  17.7544326 119.2294962  45.0695252  16.4661903 121.7897960  43.8974900
  15.9626699 121.7528095  43.0842706  16.7592510 122.6990702  43.9571557
  12.6189776 120.9780146  39.0032518  11.9654188 120.6629163  38.3789133
  12.5770250 120.3555887  39.7292341  19.1853029 118.6786864  41.0343405
  19.4911905 117.8184227  40.7469320  19.9105634 119.2704484  40.8342399
  19.4554647 121.1081099  43.5327326  18.5417726 121.3385326  43.7009533
  19.8847748 121.1919543  44.3841358  13.4343347 121.0105872  45.3309341
  14.2569416 120.5366350  45.2088231  13.6781410 121.7896355  45.8308027
  15.0906395 121.2596831  41.5936499  15.1128092 121.3236164  40.6388478
  15.5074454 120.4201340  41.7877005  16.6394606 122.0584907  46.9371491
  17.1576550 122.7945934  46.6117979  16.2849739 122.3648900  47.7718250
  16.8907201 118.4785190  42.4572387  17.1708954 117.8108379  43.0832814
  17.6757807 118.6714285  41.9447051  21.0509352 120.6561002  41.3240358
  20.8534173 120.3476091  42.2083690  21.6609058 121.3822641  41.4538288
  14.8792450 121.4591862  37.4512592  14.0693179 121.1138947  37.8267839
  15.5676867 121.1499406  38.0400204  16.8082999 120.5369909  39.0736889
  17.3614037 120.9565363  39.7326912  17.0453085 119.6105657  39.1159845
  20.1861806 122.6470434  38.5815553  19.6060475 123.3055238  38.1993606
  19.9197738 121.8247779  38.1702971  18.6365372 122.0475492  40.7836874
  19.1365150 122.1592027  39.9751192  19.2800980 121.7436545  41.4237682
  24.7573779 125.5444665  42.4100181  25.3518269 125.3040401  41.6993490
  24.8300362 124.8251796  43.0373718  16.8010732 117.6080728  38.9805976
  16.0343128 117.0539214  39.1262658  17.2121437 117.6802596  39.8420128
   6.9686764  77.3727628  28.4517361   6.2150472  76.8035026  28.2961365
   7.1034305  77.3390292  29.3987996   1.0450909  77.5256264  25.5619504
   0.9068808  77.7157860  24.6340694   0.6887128  78.2875647  26.0187555
   1.0720289  79.5932791  30.5730776   1.5056796  79.5008080  31.4213830
   1.7851870  79.5690292  29.9350792   1.9335838  79.6356492  33.1063661
   2.1271729  80.5402302  33.3522936   1.8336457  79.1763911  33.9402246
   3.1877902  76.1930158  29.7511565   3.1767778  77.0754874  29.3805498
   2.3195281  75.8401709  29.5566102   3.7902512  77.3430378  26.3561028
   4.2333658  76.5937703  25.9580151   2.9129022  77.3340514  25.9734760
   0.8229716  81.3460425  23.3654957   1.3481040  81.6847697  22.6404277
   0.7352069  80.4107440  23.1818092   0.6321497  78.8285795  35.9838884
   0.6819502  78.6635802  36.9254407   0.5235420  77.9613054  35.5936764
   2.1339694  81.2482736  36.2280905   1.8424502  81.6112717  37.0644366
   1.5211825  80.5349745  36.0494237   3.3335376  78.8135616  28.7483475
   4.1682268  79.2525420  28.9121036   3.4694505  78.3374269  27.9291721
   1.5616629  76.4687231  32.0431568   1.5292949  75.5303231  32.2291252
   2.1717253  76.5471267  31.3097393   1.7111117  73.2598274  32.0889852
   1.1950166  72.4756731  31.9019781   2.5951066  72.9316991  32.2536371
   7.3793179  77.5303237  31.1837605   8.1096567  77.2688526  31.7445309
   6.7700124  76.7931959  31.2239673   5.4608476  75.6711100  31.7812056
   4.7341639  75.5367065  31.1728548   5.0455763  75.9787929  32.5868775
   3.0786271  71.8922952  29.1345488   3.6730762  71.6518688  28.4238796
   3.1512855  71.1730083  29.7619024   1.0745006  72.4593080  25.4017618
   0.8181940  72.0589716  26.2325826   0.4497874  73.1736874  25.2767757
   5.3857344  75.1989153  27.9088909   4.8256902  75.2682342  28.6820471
   4.7800847  75.0230138  27.1888406   6.9713362  91.8745667  30.6018865
   7.6091772  91.7552414  29.8982205   6.8534205  92.8226511  30.6606817
   3.7803068  91.8273095  30.5380390   3.4421580  91.7114160  29.6500925
   4.6492836  91.4264260  30.5181396   4.2622851  92.9807947  36.4966595
   4.2511492  92.5860745  35.6247099   4.4243491  92.2474020  37.0900367
   0.9830112  95.7645059  35.4445779   0.6919978  96.6690690  35.3292446
   1.6187097  95.8061586  36.1589849   1.9086319  93.1421907  32.0347139
   2.5049892  92.9177930  31.3204102   1.9661291  92.4006653  32.6372587
   6.5254631  89.5997121  27.6772073   7.3117720  89.1816544  27.3262490
   6.7893335  90.5043213  27.8453721  11.9263058  89.5372354  28.5805052
  12.6588230  88.9671571  28.8142881  11.1702413  89.1493955  29.0211557
   3.5439177  91.9599596  25.7768394   3.1797385  91.4330217  26.4881315
   4.4006293  91.5698065  25.6034879   9.4488478  83.2493928  33.0399660
   9.1171803  84.1189339  32.8160875   8.8534091  82.9330212  33.7193691
   5.9419998  95.4506474  32.4395573   5.6420721  96.3531513  32.3311380
   5.5971057  95.1838657  33.2916726   9.3417141  87.9689014  30.1193010
   8.4334019  87.9004423  29.8251771   9.2904737  88.4460959  30.9474836
   3.4158007  89.3878660  38.0627907   2.6391341  89.9472580  38.0530772
   4.0548570  89.8735443  38.5842778  11.2078788  86.1705453  31.8970884
  10.5653168  86.4637986  31.2510679  10.7033716  86.0558373  32.7024081
   8.8618951  89.9168626  22.5856743   9.7736807  90.1496013  22.4104441
   8.3528598  90.5005670  22.0231822   1.6704379  92.1964113  37.6245874
   2.4119064  92.7349157  37.3480698   0.9641365  92.8230402  37.7817426
   7.1459719  94.3393254  36.2218036   7.5543075  93.8975664  35.4772668
   6.4236981  93.7645881  36.4752229   3.4990789  89.2765861  33.5951593
   4.3451984  89.7005274  33.7386242   3.4389427  88.6199485  34.2890156
   7.4688534  94.8994444  29.9770325   6.8397396  95.0640159  29.2746393
   7.0814196  95.3136054  30.7481289  11.3477766  95.8348882  27.3314689
  10.6628804  96.2147784  26.7811722  11.4321615  96.4444209  28.0646636
   6.6490234  86.9370229  35.2532767   6.4051166  87.6912289  34.7167042
   6.9250165  87.3155577  36.0880014   8.6028697  93.4808841  33.9310032
   8.8145592  94.1240601  33.2544413   8.5558445  92.6471158  33.4631962
   6.2054926  86.0926662  30.8346604   5.3439405  86.3907916  31.1263342
   6.2317361  86.3097061  29.9027637   3.0216496  94.6368853  27.2420410
   3.4854841  94.9156556  26.4525032   2.7573294  93.7352297  27.0593501
   9.7174525  96.3580797  32.1032389  10.5391969  95.9560984  31.8215071
   9.7136928  96.2549031  33.0548505   3.4831129  95.9064840  34.2593100
   3.5475561  96.3685247  35.0951272   2.7742052  95.2762205  34.3875410
  17.8080518  92.7019545  28.4517361  17.0544227  92.1326943  28.2961365
  17.9428059  92.6682210  29.3987996   2.6014447  85.0682406  38.3806692
   3.3424160  85.6689560  38.3011155   2.8332370  84.3260044  37.8224735
   4.8247623  98.1956514  38.2572422   4.3811477  97.4092893  37.9393327
   5.4864836  98.3835665  37.5916313   6.9228861  98.4759314  36.2853824
   6.9047336  99.2968195  35.7934093   7.8448781  98.3513389  36.5103965
   3.3801915  95.9903443  37.1277332   3.9130252  95.2291732  36.8976640
   2.8515996  95.6977095  37.8701487   6.5471610  81.0963509  32.6570974
   6.2035879  81.9865151  32.5810084   6.9150572  80.9065167  31.7940559
   4.0969004  85.9321821  26.2228647   3.2410600  85.5428672  26.0434286
   4.5095955  86.0113782  25.3628433   5.6268150  83.4668165  30.6220207
   5.1232946  83.4298300  29.8088012   5.9198757  84.3760907  30.6816864
   1.8711036  83.5506894  29.6286389   2.7364033  83.3549703  29.2692278
   1.9388545  83.3217246  30.5555746  11.4856167  93.8404475  23.0996582
  10.7085609  93.5015635  22.6551744  12.1647648  93.8457098  22.4251547
   6.3008196  88.9599213  22.9903190   5.9958331  89.2745362  23.8413333
   7.2538638  89.0380632  23.0330523   9.7247474  93.3138456  29.7563190
   9.0671148  94.0037718  29.8443319  10.5287873  93.7034888  30.0997177
   8.5352932  91.6682829  27.8067132   9.0484814  92.3012821  28.3088842
   9.1854156  91.0684025  27.4410492   1.7796023  82.6550351  25.7277825
   1.1260435  82.3399368  25.1034440   1.7376497  82.0326092  26.4537648
   5.0133763  89.1432285  30.0525473   4.0956325  89.3647232  29.8947161
   5.4293907  89.2178595  29.1937180   5.7968811  90.5423700  25.1828153
   6.5440630  91.0545098  24.8735275   6.0660401  90.2207753  26.0432546
   9.3014729  96.6488831  25.9346275   8.8477056  95.8079740  25.9911465
   8.6708695  97.2850229  26.2721055   8.2447648  87.5780817  27.1646942
   7.5070405  87.0658203  27.4957185   8.4974422  87.1381198  26.3530219
   7.7447668  98.4865327  26.8696093   8.0370642  99.0470384  26.1508459
   8.2546288  98.7793888  27.6249252   8.3459275  80.3557069  27.7588711
   8.6518152  79.4954432  27.4714627   9.0711880  80.9474689  27.5587705
   2.6180355  90.6510862  28.2664903   2.6728965  89.6984698  28.1907379
   1.8071557  90.8070301  28.7506201   6.1546927  89.7329746  34.8570175
   6.5096315  89.9601219  35.7164641   6.8019058  90.0648123  34.2347431
  11.8844664  92.8548182  25.5619504  11.7462562  93.0449778  24.6340694
  11.5280883  93.6167565  26.0187555  11.9114043  94.9224709  30.5730776
  12.3450550  94.8299998  31.4213830  12.6245624  94.8982209  29.9350792
   5.6441938  98.5226803  32.1063876   5.6978961  99.0917739  32.8741592
   4.7756720  98.6928688  31.7417914  12.7729593  94.9648409  33.1063661
  12.9665483  95.8694220  33.3522936  12.6730211  94.5055828  33.9402246
   4.4265904  84.8506300  35.6053989   3.7793819  85.5496250  35.5118465
   5.1966919  85.2842444  35.9730237   7.8344702  95.1155152  38.6804542
   7.6830208  94.8865704  37.7634626   7.8249381  96.0725754  38.6935887
   4.6030038  92.6887065  33.6650808   5.5322098  92.8398225  33.4919776
   4.1821068  92.7771086  32.8099455   3.4018370  96.7137729  31.4349346
   3.2629455  96.3456514  32.3075284   2.6132966  97.2285369  31.2633304
   4.9523585  96.0919332  28.8238184   4.6173418  96.0520102  29.7195834
   4.4527531  95.4264048  28.3508594   1.5550130  91.2106921  33.8374445
   2.2649748  90.5700114  33.7961063   1.5119438  91.4619816  34.7600625
   9.5436908  98.1474275  36.7581024   9.4849454  97.4633495  36.0911607
   9.9456427  98.8893265  36.3061650   9.5454316  96.1113859  34.9895003
   8.6581094  95.7739780  35.1121402  10.1152867  95.3796890  35.2263769
   3.0755469 100.7715311  31.9556247   3.0025640 101.5770282  32.4675551
   2.6332862 100.9707277  31.1304268   6.1741899  85.8181710  28.1093274
   6.6710598  85.0651673  27.7894344   5.4028880  85.8546027  27.5436483
  14.0271656  91.5222076  29.7511565  14.0161532  92.4046791  29.3805498
  13.1589035  91.1693627  29.5566102   5.5354152 100.6702145  34.1114405
   6.2482125 101.3049610  34.0390307   5.0444181 100.7666011  33.2954407
   7.2571679  94.5753398  25.6831697   6.3227958  94.6954860  25.5136401
   7.4348348  93.6725864  25.4191707   2.7576867  87.9599093  27.8364958
   2.3874655  87.4070134  28.5245864   3.2535960  87.3557227  27.2839958
  10.6444231  90.4170717  26.2181731  11.1104683  91.2498709  26.1442034
  11.0951731  89.9515699  26.9226990   8.7120462  96.7614538  23.2167883
   8.9880306  96.6471133  24.1261757   7.8424961  96.3632023  23.1780056
   8.6160893  82.7851304  30.2572632   7.7023973  83.0155531  30.4254839
   9.0453995  82.8689748  31.1086665   8.3867352  90.9741196  32.7572526
   7.7338802  91.2217103  32.1024979   8.7647732  90.1605334  32.4235004
   4.4354925  91.7161007  39.2438564   3.7595562  91.6155136  39.9140939
   5.2582559  91.5600221  39.7074561   3.1777708 103.0227934  33.4796179
   3.7296016 103.1859556  34.2445265   3.5183901 103.6132372  32.8076204
   8.0288582  97.8489192  39.3344834   8.5728486  98.4619150  38.8399789
   7.4475427  98.4068770  39.8511847   6.3146095 100.9709910  30.4659862
   6.1897235 100.1699650  29.9570807   6.9725186 101.4656103  29.9773832
   8.3781003  98.7718930  32.0939412   7.4311339  98.6524281  32.0217738
   8.7263777  97.8841428  32.1765673   0.7380577  84.6613069  35.9177654
   1.2614979  84.9075366  36.6803963   0.5192910  85.4933104  35.4980791
   5.3827437  98.5671646  28.2943764   5.2352399  97.6388354  28.4751334
   6.2080930  98.5891737  27.8100839   8.9861559  99.3900205  29.3808637
   9.9108106  99.1843066  29.2433088   8.8176862  99.1416606  30.2897978
   1.9433122  85.6026764  33.6027324   1.6029942  84.8034577  34.0048004
   1.2372128  85.9028475  33.0304157   2.5949594  82.6876076  32.0554647
   3.4175663  82.2136555  31.9333538   2.8387657  83.4666560  32.5553333
   5.3788951  86.4209484  23.2875881   5.5952565  87.3034122  22.9864709
   4.8983018  86.0295697  22.5581523   1.9784555  86.3697745  29.9127515
   1.9646124  85.4738838  29.5759813   2.6956983  86.3768409  30.5465801
   3.8310686  86.8035085  31.9580643   3.5728464  87.7252156  31.9564973
   3.2995726  86.4065520  32.6481107   8.7756875  99.9085872  24.7370728
   8.9493752  99.3432295  23.9844581   9.2685766 100.7086767  24.5550218
   1.3821451  85.2512125  25.1815085   1.5037362  84.3228772  25.3805973
   1.0923494  85.2650811  24.2693401   4.2512642  82.9367036  28.3181805
   4.2734339  83.0006369  27.3633785   4.6680701  82.0971544  28.5122311
  14.6296266  92.6722295  26.3561028  15.0727412  91.9229621  25.9580151
  13.7522776  92.6632432  25.9734760  11.6623470  96.6752342  23.3654957
  12.1874795  97.0139615  22.6404277  11.5745823  95.7399358  23.1818092
   3.3243519 100.5886416  35.4944834   3.6330646 100.3435563  36.3667533
   4.1219001 100.7933055  35.0063704   0.8662531  86.7644123  39.3905018
   0.9150686  87.6406246  39.0082788   1.4085045  86.2221516  38.8176661
  11.3517377  97.3085246  38.6706155  10.5612920  97.2909385  38.1310655
  11.1150731  97.8473540  39.4255192  11.4715252  94.1577712  35.9838884
  11.5213256  93.9927720  36.9254407  11.3629175  93.2904971  35.5936764
   8.7619014  90.1408640  37.2998190   9.6628877  90.0015105  37.0082188
   8.8366988  90.3063095  38.2396368   3.0961819  87.5175495  36.1451377
   2.2265129  87.8109061  35.8733965   3.3321300  88.1015940  36.8658640
  12.9733448  96.5774654  36.2280905  12.6818257  96.9404634  37.0644366
  12.3605580  95.8641662  36.0494237  14.1729131  94.1427534  28.7483475
  15.0076022  94.5817338  28.9121036  14.3088259  93.6666187  27.9291721
  11.2220637  91.7007269  34.6960963  11.6974758  91.8934915  33.8879815
  10.2986202  91.7566454  34.4504347   5.8000853  83.7355112  33.6616797
   6.3182797  84.4716139  33.3363286   5.4455986  84.0419105  34.4963556
   6.0513447  80.1555395  29.1817694   6.3315201  79.4878584  29.8078120
   6.8364054  80.3484490  28.6692358   9.9222306  88.5773029  32.9289269
  10.8739729  88.6771126  32.9501493   9.7525756  87.7851297  33.4387353
   7.9436685  85.6628612  33.1148670   7.3486617  85.9433625  32.4195158
   7.6586382  86.1522513  33.8865411  12.4010383  91.7979148  32.0431568
  12.3686704  90.8595149  32.2291252  13.0111007  91.8763185  31.3097393
  12.5504872  88.5890192  32.0889852  12.0343921  87.8048648  31.9019781
  13.4344820  88.2608908  32.2536371  10.2115599  82.3331207  28.0485664
  10.0140420  82.0246296  28.9328996  10.8215304  83.0592846  28.1783594
  18.2186933  92.8595155  31.1837605  18.9490322  92.5980443  31.7445309
  17.6093879  92.1223877  31.2239673  16.3002230  91.0003018  31.7812056
  15.5735394  90.8658983  31.1728548  15.8849517  91.3079846  32.5868775
   4.1232407  94.7192947  39.5459430   5.0435416  94.8971546  39.7399476
   4.0881990  93.7748993  39.3939129   4.0398697  83.1362067  24.1757899
   3.2299425  82.7909152  24.5513145   4.7283114  82.8269611  24.7645511
   5.9689245  82.2140114  25.7982196   6.5220284  82.6335568  26.4572219
   6.2059332  81.2875862  25.8405152   1.9922345  88.2027188  41.5784960
   1.8919072  89.1521545  41.5097051   1.7743887  87.8745427  40.7061030
   9.3468053  84.3240639  25.3060860   8.7666722  84.9825443  24.9238912
   9.0803985  83.5017984  24.8948277   7.7971619  83.7245697  27.5082180
   8.2971397  83.8362232  26.6996499   8.4407227  83.4206750  28.1482989
   1.8553615  91.6324327  40.3950021   1.3720696  92.4324687  40.6013910
   1.9414554  91.6432272  39.4417465   8.1292931  86.4840730  24.3617208
   7.2418786  86.7690380  24.1437403   8.5446920  86.3234493  23.5144485
  11.4807467  86.5087251  28.0771547  12.2567857  86.9983703  28.3496164
  10.7555601  86.9345305  28.5343417  13.9180025  87.2214870  29.1345488
  14.5124516  86.9810606  28.4238796  13.9906609  86.5022001  29.7619024
   8.1033954  91.9995266  24.5767498   8.0469156  92.4563817  23.7375131
   8.6562297  91.2385950  24.3990341  11.9138760  87.7884998  25.4017618
  11.6575694  87.3881633  26.2325826  11.2891628  88.5028791  25.2767757
  16.2251098  90.5281071  27.9088909  15.6650656  90.5974260  28.6820471
  15.6194601  90.3522055  27.1888406   8.8368734  93.1900047  21.8720028
   8.7817537  93.0244318  20.9308472   8.2114789  93.8976080  22.0282217
   6.1514641  95.4948959  41.1973590   7.0205800  95.6689611  40.8360225
   5.6721392  96.3143376  41.0749320   2.1464859  82.6908156  21.4505346
   2.1343529  83.6349996  21.6073617   3.0388281  82.5078301  21.1564807
   5.9616979  79.2850933  25.7051283   5.1949374  78.7309419  25.8507965
   6.3727683  79.3572801  26.5665434  17.8107117 107.2037585  30.6018865
  18.4485526 107.0844332  29.8982205  17.6927959 108.1518429  30.6606817
  14.6196823 107.1565013  30.5380390  14.2815334 107.0406078  29.6500925
  15.4886591 106.7556178  30.5181396  15.1016606 108.3099865  36.4966595
  15.0905247 107.9152663  35.6247099  15.2637245 107.5765937  37.0900367
  11.8223867 111.0936976  35.4445779  11.5313733 111.9982607  35.3292446
  12.4580851 111.1353504  36.1589849  12.7480074 108.4713825  32.0347139
  13.3443646 108.2469847  31.3204102  12.8055045 107.7298570  32.6372587
  17.3648385 104.9289039  27.6772073  18.1511474 104.5108462  27.3262490
  17.6287089 105.8335131  27.8453721  22.7656812 104.8664272  28.5805052
  23.4981984 104.2963489  28.8142881  22.0096168 104.4785872  29.0211557
  14.3832932 107.2891513  25.7768394  14.0191139 106.7622134  26.4881315
  15.2400048 106.8989982  25.6034879  20.2882232  98.5785846  33.0399660
  19.9565557  99.4481257  32.8160875  19.6927846  98.2622130  33.7193691
  16.7813752 110.7798392  32.4395573  16.4814475 111.6823431  32.3311380
  16.4364812 110.5130575  33.2916726  10.2326233 107.2312189  28.4732277
   9.3076730 107.0988403  28.6809969  10.4810647 108.0106408  28.9702220
  20.1810896 103.2980932  30.1193010  19.2727773 103.2296340  29.8251771
  20.1298492 103.7752877  30.9474836  14.2551762 104.7170578  38.0627907
  13.4785096 105.2764498  38.0530772  14.8942325 105.2027361  38.5842778
  22.0472542 101.4997370  31.8970884  21.4046922 101.7929904  31.2510679
  21.5427471 101.3850291  32.7024081  19.7012706 105.2460544  22.5856743
  20.6130562 105.4787930  22.4104441  19.1922353 105.8297588  22.0231822
  12.5098134 107.5256031  37.6245874  13.2512818 108.0641075  37.3480698
  11.8035119 108.1522320  37.7817426  17.9853474 109.6685171  36.2218036
  18.3936830 109.2267582  35.4772668  17.2630735 109.0937799  36.4752229
  14.3384544 104.6057778  33.5951593  15.1845739 105.0297192  33.7386242
  14.2783181 103.9491403  34.2890156  18.3082288 110.2286362  29.9770325
  17.6791151 110.3932076  29.2746393  17.9207950 110.6427972  30.7481289
  22.1871520 111.1640800  27.3314689  21.5022558 111.5439701  26.7811722
  22.2715369 111.7736127  28.0646636  17.4883989 102.2662147  35.2532767
  17.2444921 103.0204207  34.7167042  17.7643919 102.6447494  36.0880014
  19.4422452 108.8100759  33.9310032  19.6539347 109.4532519  33.2544413
  19.3952200 107.9763076  33.4631962  17.0448681 101.4218580  30.8346604
  16.1833160 101.7199833  31.1263342  17.0711115 101.6388979  29.9027637
  13.8610250 109.9660770  27.2420410  14.3248596 110.2448473  26.4525032
  13.5967048 109.0644215  27.0593501  10.7534331 109.5132252  30.1800173
  11.3235688 109.9419520  29.5417658  11.3442443 109.2314836  30.8784359
  11.2459498 104.6795679  38.4261184  10.6158158 105.3611960  38.6596581
  11.1395586 104.5678761  37.4814323  20.5568280 111.6872714  32.1032389
  21.3785723 111.2852902  31.8215071  20.5530682 111.5840949  33.0548505
  14.3224883 111.2356758  34.2593100  14.3869316 111.6977165  35.0951272
  13.6135807 110.6054123  34.3875410   4.8242173 104.5997966  31.7842099
   5.0750211 105.4844976  32.0499675   5.3601721 104.4202567  31.0117191
  28.6474273 108.0311463  28.4517361  27.8937981 107.4618861  28.2961365
  28.7821814 107.9974127  29.3987996  10.5240240  98.9816445  40.7886436
  10.1307186  98.4282644  41.4634080  11.3406381  99.2927024  41.1792953
  13.4408201 100.3974324  38.3806692  14.1817915 100.9981477  38.3011155
  13.6726124  99.6551962  37.8224735   8.5849539 105.5830691  36.6584922
   8.4703054 104.6815949  36.9592021   7.7294057 105.8294388  36.3069738
  15.6641377 113.5248432  38.2572422  15.2205231 112.7384810  37.9393327
  16.3258591 113.7127582  37.5916313  10.4228498 115.0544233  32.7833101
  10.9735923 114.9261297  32.0110095   9.5839974 115.3539122  32.4327994
  17.7622615 113.8051232  36.2853824  17.7441091 114.6260113  35.7934093
  18.6842535 113.6805307  36.5103965  14.2195669 111.3195361  37.1277332
  14.7524006 110.5583649  36.8976640  13.6909750 111.0269013  37.8701487
  17.3865364  96.4255427  32.6570974  17.0429634  97.3157069  32.5810084
  17.7544327  96.2357085  31.7940559  14.9362758 101.2613739  26.2228647
  14.0804354 100.8720589  26.0434286  15.3489710 101.3405700  25.3628433
  16.4661905  98.7960082  30.6220207  15.9626700  98.7590217  29.8088012
  16.7592512  99.7052825  30.6816864  12.7104791  98.8798812  29.6286389
  13.5757787  98.6841621  29.2692278  12.7782299  98.6509164  30.5555746
  22.3249921 109.1696393  23.0996582  21.5479364 108.8307552  22.6551744
  23.0041402 109.1749016  22.4251547  17.1401950 104.2891130  22.9903190
  16.8352086 104.6037279  23.8413333  18.0932392 104.3672550  23.0330523
  20.5641228 108.6430374  29.7563190  19.9064902 109.3329635  29.8443319
  21.3681627 109.0326806  30.0997177  10.3167110 101.1101020  27.0002756
  10.8910862 100.8876201  26.2675949  10.9038092 101.1789714  27.7531357
  19.3746687 106.9974747  27.8067132  19.8878569 107.6304739  28.3088842
  20.0247911 106.3975942  27.4410492  12.6189777  97.9842269  25.7277825
  11.9654190  97.6691286  25.1034440  12.5770251  97.3618009  26.4537648
  15.8527518 104.4724202  30.0525473  14.9350079 104.6939149  29.8947161
  16.2687661 104.5470513  29.1937180  16.6362565 105.8715618  25.1828153
  17.3834384 106.3837015  24.8735275  16.9054155 105.5499671  26.0432546
  20.1408483 111.9780748  25.9346275  19.6870810 111.1371658  25.9911465
  19.5102450 112.6142147  26.2721055  19.0841403 102.9072734  27.1646942
  18.3464159 102.3950120  27.4957185  19.3368176 102.4673116  26.3530219
  18.5841422 113.8157245  26.8696093  18.8764397 114.3762302  26.1508459
  19.0940043 114.1085806  27.6249252  19.1853030  95.6848986  27.7588711
  19.4911907  94.8246350  27.4714627  19.9105635  96.2766606  27.5587705
  13.4574110 105.9802779  28.2664903  13.5122719 105.0276616  28.1907379
  12.6465312 106.1362218  28.7506201  11.3966470 104.5979839  26.0255281
  10.5834335 104.8974010  26.4320474  11.8925464 104.2035528  26.7429764
  16.9940681 105.0621664  34.8570175  17.3490069 105.2893137  35.7164641
  17.6412813 105.3940040  34.2347431  22.7238418 108.1840099  25.5619504
  22.5856317 108.3741695  24.6340694  22.3674637 108.9459482  26.0187555
  10.8880544 102.1698195  31.6416516  11.5279924 102.0286954  30.9439480
  10.0558075 101.8832708  31.2655118  22.7507798 110.2516626  30.5730776
  23.1844305 110.1591916  31.4213830  23.4639379 110.2274127  29.9350792
  16.4835693 113.8518721  32.1063876  16.5372715 114.4209657  32.8741592
  15.6150474 114.0220606  31.7417914   9.3634086 103.5536277  33.5888328
  10.0357140 103.3453639  32.9400977   8.5363873 103.3558363  33.1493560
  23.6123347 110.2940327  33.1063661  23.8059237 111.1986138  33.3522936
  23.5123966 109.8347746  33.9402246  15.2659658 100.1798218  35.6053989
  14.6187573 100.8788167  35.5118465  16.0360674 100.6134362  35.9730237
  18.6738456 110.4447070  38.6804542  18.5223962 110.2157622  37.7634626
  18.6643136 111.4017671  38.6935887  15.4423792 108.0178983  33.6650808
  16.3715852 108.1690142  33.4919776  15.0214822 108.1063003  32.8099455
  14.2412124 112.0429647  31.4349346  14.1023210 111.6748431  32.3075284
  13.4526720 112.5577286  31.2633304  15.7917339 111.4211250  28.8238184
  15.4567172 111.3812020  29.7195834  15.2921285 110.7555966  28.3508594
   9.7661583 106.8278880  34.3490765   9.6281381 106.0959119  34.9502304
  10.6766507 106.7387780  34.0674953  12.3943884 106.5398839  33.8374445
  13.1043503 105.8992031  33.7961063  12.3513192 106.7911734  34.7600625
  20.3830663 113.4766192  36.7581024  20.3243209 112.7925413  36.0911607
  20.7850181 114.2185182  36.3061650  11.1072818 103.5264057  35.6570084
  10.5710175 103.0754795  36.3091680  10.5189526 103.6609966  34.9140548
  20.3848070 111.4405776  34.9895003  19.4974849 111.1031698  35.1121402
  20.9546621 110.7088808  35.2263769   6.8411939 102.6620065  32.7423078
   6.7570128 102.0545734  32.0073488   6.0194646 103.1529083  32.7432575
  13.9149223 116.1007229  31.9556247  13.8419395 116.9062200  32.4675551
  13.4726616 116.2999194  31.1304268  17.0135653 101.1473628  28.1093274
  17.5104353 100.3943590  27.7894344  16.2422635 101.1837945  27.5436483
  24.8665411 106.8513994  29.7511565  24.8555287 107.7338709  29.3805498
  23.9982790 106.4985545  29.5566102  16.3747907 115.9994063  34.1114405
  17.0875879 116.6341528  34.0390307  15.8837936 116.0957929  33.2954407
  18.0965434 109.9045315  25.6831697  17.1621713 110.0246778  25.5136401
  18.2742102 109.0017782  25.4191707  13.5970622 103.2891011  27.8364958
  13.2268409 102.7362052  28.5245864  14.0929714 102.6849145  27.2839958
  21.4837985 105.7462635  26.2181731  21.9498437 106.5790626  26.1442034
  21.9345486 105.2807616  26.9226990  11.4259820 113.7488506  34.9319976
  12.1269280 114.3824989  35.0849370  10.9554935 114.0903238  34.1715615
  19.5514216 112.0906456  23.2167883  19.8274060 111.9763051  24.1261757
  18.6818715 111.6923941  23.1780056  19.4554648  98.1143222  30.2572632
  18.5417728  98.3447448  30.4254839  19.8847749  98.1981666  31.1086665
  19.2261106 106.3033114  32.7572526  18.5732557 106.5509021  32.1024979
  19.6041486 105.4897252  32.4235004  15.2748679 107.0452925  39.2438564
  14.5989316 106.9447054  39.9140939  16.0976313 106.8892138  39.7074561
  14.0171462 118.3519852  33.4796179  14.5689770 118.5151474  34.2445265
  14.3577656 118.9424290  32.8076204   8.9935956 100.6995002  34.0818064
   9.0577282 101.5609833  33.6695462   8.9303076 100.0869004  33.3490423
   8.4688228 102.7718134  37.7291098   9.0960267 102.3895212  38.3428623
   7.6116147 102.5532336  38.0946791  18.8682337 113.1781110  39.3344834
  19.4122241 113.7911068  38.8399789  18.2869181 113.7360688  39.8511847
  17.1539850 116.3001828  30.4659862  17.0290989 115.4991567  29.9570807
  17.8118941 116.7948021  29.9773832   8.7748018 102.6550560  29.6437002
   8.0534604 103.2686528  29.5044475   9.5641274 103.1908325  29.5653648
  19.2174758 114.1010848  32.0939412  18.2705094 113.9816199  32.0217738
  19.5657531 113.2133346  32.1765673  11.5774331  99.9904987  35.9177654
  12.1008733 100.2367283  36.6803963  11.3586665 100.8225021  35.4980791
  16.2221191 113.8963564  28.2943764  16.0746154 112.9680271  28.4751334
  17.0474685 113.9183655  27.8100839  19.8255313 114.7192123  29.3808637
  20.7501861 114.5134984  29.2433088  19.6570616 114.4708524  30.2897978
  12.7826876 100.9318682  33.6027324  12.4423697 100.1326495  34.0048004
  12.0765883 101.2320393  33.0304157  13.4343348  98.0167994  32.0554647
  14.2569418  97.5428472  31.9333538  13.6781412  98.7958478  32.5553333
  16.2182706 101.7501402  23.2875881  16.4346320 102.6326039  22.9864709
  15.7376773 101.3587615  22.5581523  10.9581927 104.7087115  29.8646626
  10.8126508 105.0227418  30.7570907  10.4807131 105.3272015  29.3117524
  12.8178310 101.6989663  29.9127515  12.8039879 100.8030756  29.5759813
  13.5350738 101.7060327  30.5465801  14.6704441 102.1327003  31.9580643
  14.4122218 103.0544074  31.9564973  14.1389481 101.7357438  32.6481107
  19.6150629 115.2377790  24.7370728  19.7887507 114.6724213  23.9844581
  20.1079521 116.0378685  24.5550218   5.4327589 107.2492459  32.8034287
   4.8881057 108.0252267  32.9354561   6.3106939 107.5963264  32.6453408
  12.2215206 100.5804043  25.1815085  12.3431117  99.6520689  25.3805973
  11.9317248 100.5942729  24.2693401  15.0906396  98.2658954  28.3181805
  15.1128093  98.3298287  27.3633785  15.5074455  97.4263462  28.5122311
  25.4690020 108.0014213  26.3561028  25.9121167 107.2521538  25.9580151
  24.5916531 107.9924349  25.9734760   6.2193611 106.3762355  35.6964444
   5.4775347 106.5244991  36.2829074   5.8986355 106.6370621  34.8331193
  22.5017225 112.0044260  23.3654957  23.0268549 112.3431533  22.6404277
  22.4139577 111.0691275  23.1818092  14.1637274 115.9178334  35.4944834
  14.4724400 115.6727480  36.3667533  14.9612756 116.1224972  35.0063704
  11.7056285 102.0936040  39.3905018  11.7544441 102.9698163  39.0082788
  12.2478800 101.5513434  38.8176661  22.1911131 112.6377164  38.6706155
  21.4006675 112.6201303  38.1310655  21.9544486 113.1765457  39.4255192
  22.3109006 109.4869630  35.9838884  22.3607011 109.3219638  36.9254407
  22.2022929 108.6196889  35.5936764  19.6012768 105.4700558  37.2998190
  20.5022631 105.3307023  37.0082188  19.6760743 105.6355013  38.2396368
  13.9355574 102.8467413  36.1451377  13.0658883 103.1400979  35.8733965
  14.1715054 103.4307858  36.8658640  23.8127203 111.9066572  36.2280905
  23.5212011 112.2696552  37.0644366  23.1999334 111.1933580  36.0494237
  25.0122885 109.4719451  28.7483475  25.8469777 109.9109255  28.9121036
  25.1482014 108.9958105  27.9291721  22.0614391 107.0299186  34.6960963
  22.5368513 107.2226833  33.8879815  21.1379956 107.0858372  34.4504347
  16.6394608  99.0647030  33.6616797  17.1576551  99.8008057  33.3363286
  16.2849740  99.3711023  34.4963556  16.8907202  95.4847312  29.1817694
  17.1708956  94.8170501  29.8078120  17.6757809  95.6776408  28.6692358
  20.7616060 103.9064946  32.9289269  21.7133483 104.0063044  32.9501493
  20.5919511 103.1143215  33.4387353  18.7830440 100.9920530  33.1148670
  18.1880372 101.2725542  32.4195158  18.4980136 101.4814430  33.8865411
  23.2404138 107.1271066  32.0431568  23.2080458 106.1887067  32.2291252
  23.8504762 107.2055103  31.3097393  23.3898626 103.9182109  32.0889852
  22.8737675 103.1340566  31.9019781  24.2738575 103.5900826  32.2536371
  21.0509353  97.6623125  28.0485664  20.8534174  97.3538213  28.9328996
  21.6609059  98.3884764  28.1783594  29.0580688 108.1887073  31.1837605
  29.7884076 107.9272361  31.7445309  28.4487633 107.4515795  31.2239673
  27.1395985 106.3294935  31.7812056  26.4129148 106.1950900  31.1728548
  26.7243272 106.6371764  32.5868775  14.9626161 110.0484865  39.5459430
  15.8829171 110.2263464  39.7399476  14.9275744 109.1040910  39.3939129
   7.9588234 107.9585900  32.1882211   8.1774244 108.8903008  32.2070244
   8.3714008 107.5993874  32.9737015  14.8792452  98.4653985  24.1757899
  14.0693180  98.1201070  24.5513145  15.5676869  98.1561529  24.7645511
  16.8083000  97.5432032  25.7982196  17.3614039  97.9627485  26.4572219
  17.0453086  96.6167780  25.8405152  12.8316099 103.5319106  41.5784960
  12.7312826 104.4813462  41.5097051  12.6137641 103.2037344  40.7061030
  20.1861807  99.6532557  25.3060860  19.6060476 100.3117361  24.9238912
  19.9197740  98.8309902  24.8948277  18.6365373  99.0537615  27.5082180
  19.1365152  99.1654149  26.6996499  19.2800981  98.7498668  28.1482989
  12.6947369 106.9616244  40.3950021  12.2114451 107.7616604  40.6013910
  12.7808308 106.9724189  39.4417465   8.6220707 110.8520779  32.4318455
   9.5763960 110.8204721  32.3648387   8.4233230 110.3911403  33.2468681
   9.2120089 109.4221895  34.9989253  10.0312978 109.9165974  35.0224090
   9.4856897 108.5053863  34.9706820  18.9686685 101.8132647  24.3617208
  18.0812540 102.0982298  24.1437403  19.3840674 101.6526411  23.5144485
  22.3201221 101.8379168  28.0771547  23.0961611 102.3275621  28.3496164
  21.5949355 102.2637223  28.5343417  24.7573780 102.5506788  29.1345488
  25.3518271 102.3102524  28.4238796  24.8300363 101.8313918  29.7619024
  18.9427709 107.3287183  24.5767498  18.8862910 107.7855735  23.7375131
  19.4956051 106.5677868  24.3990341  22.7532515 103.1176915  25.4017618
  22.4969449 102.7173551  26.2325826  22.1285383 103.8320709  25.2767757
  27.0644853 105.8572988  27.9088909  26.5044411 105.9266178  28.6820471
  26.4588356 105.6813973  27.1888406  19.6762488 108.5191965  21.8720028
  19.6211292 108.3536236  20.9308472  19.0508543 109.2267998  22.0282217
   4.4655003 103.7560029  35.6981450   5.1113867 103.2458983  36.1868675
   4.2572154 104.4928711  36.2724875  16.9908395 110.8240876  41.1973590
  17.8599555 110.9981529  40.8360225  16.5115147 111.6435293  41.0749320
  12.9858614  98.0200074  21.4505346  12.9737283  98.9641914  21.6073617
  13.8782035  97.8370219  21.1564807  11.1594575 117.9437977  32.8763024
  12.0621822 117.9761588  33.1929519  10.9331946 117.0138428  32.8909360
  16.8010733  94.6142850  25.7051283  16.0343129  94.0601337  25.8507965
  17.2121438  94.6864719  26.5665434   8.8052494 100.9027646  39.7956464
   9.6683956 100.5464451  40.0059789   8.2317905 100.5641541  40.4831868
  28.6500871 122.5329502  30.6018865  29.2879281 122.4136250  29.8982205
  28.5321714 123.4810346  30.6606817  25.4590577 122.4856931  30.5380390
  25.1209089 122.3697995  29.6500925  26.3280345 122.0848096  30.5181396
  25.9410360 123.6391782  36.4966595  25.9299001 123.2444581  35.6247099
  26.1031000 122.9057855  37.0900367  23.5873828 123.8005743  32.0347139
  24.1837401 123.5761765  31.3204102  23.6448800 123.0590488  32.6372587
  28.2042139 120.2580956  27.6772073  28.9905229 119.8400379  27.3262490
  28.4680844 121.1627048  27.8453721  33.6050567 120.1956189  28.5805052
  34.3375739 119.6255406  28.8142881  32.8489922 119.8077790  29.0211557
  25.2226686 122.6183431  25.7768394  24.8584894 122.0914052  26.4881315
  26.0793802 122.2281900  25.6034879  31.1275987 113.9077764  33.0399660
  30.7959312 114.7773175  32.8160875  30.5321600 113.5914048  33.7193691
  27.6207506 126.1090310  32.4395573  27.3208230 127.0115348  32.3311380
  27.2758566 125.8422493  33.2916726  21.0719988 122.5604106  28.4732277
  20.1470484 122.4280321  28.6809969  21.3204401 123.3398326  28.9702220
  31.0204650 118.6272850  30.1193010  30.1121528 118.5588258  29.8251771
  30.9692246 119.1044795  30.9474836  25.0945516 120.0462495  38.0627907
  24.3178850 120.6056415  38.0530772  25.7336079 120.5319278  38.5842778
  32.8866297 116.8289288  31.8970884  32.2440677 117.1221821  31.2510679
  32.3821225 116.7142208  32.7024081  30.5406460 120.5752461  22.5856743
  31.4524316 120.8079848  22.4104441  30.0316107 121.1589506  22.0231822
  23.3491888 122.8547949  37.6245874  24.0906573 123.3932993  37.3480698
  22.6428874 123.4814237  37.7817426  28.8247228 124.9977089  36.2218036
  29.2330584 124.5559500  35.4772668  28.1024490 124.4229717  36.4752229
  25.1778298 119.9349696  33.5951593  26.0239493 120.3589109  33.7386242
  25.1176936 119.2783320  34.2890156  29.1476043 125.5578280  29.9770325
  28.5184905 125.7223994  29.2746393  28.7601705 125.9719889  30.7481289
  33.0265275 126.4932718  27.3314689  32.3416313 126.8731619  26.7811722
  33.1109124 127.1028044  28.0646636  28.3277743 117.5954064  35.2532767
  28.0838675 118.3496125  34.7167042  28.6037674 117.9739412  36.0880014
  30.2816206 124.1392677  33.9310032  30.4933101 124.7824437  33.2544413
  30.2345954 123.3054993  33.4631962  27.8842435 116.7510497  30.8346604
  27.0226914 117.0491751  31.1263342  27.9104870 116.9680896  29.9027637
  24.7004005 125.2952688  27.2420410  25.1642350 125.5740391  26.4525032
  24.4360803 124.3936132  27.0593501  22.0853252 120.0087597  38.4261184
  21.4551913 120.6903878  38.6596581  21.9789340 119.8970678  37.4814323
  31.3962034 127.0164632  32.1032389  32.2179478 126.6144819  31.8215071
  31.3924437 126.9132866  33.0548505  15.6635928 119.9289883  31.7842099
  15.9143966 120.8136893  32.0499675  16.1995476 119.7494485  31.0117191
  39.4868027 123.3603381  28.4517361  38.7331736 122.7910779  28.2961365
  39.6215568 123.3266045  29.3987996  21.3633995 114.3108363  40.7886436
  20.9700940 113.7574561  41.4634080  22.1800135 114.6218941  41.1792953
  24.2801956 115.7266242  38.3806692  25.0211669 116.3273395  38.3011155
  24.5119879 114.9843880  37.8224735  19.4243294 120.9122609  36.6584922
  19.3096809 120.0107866  36.9592021  18.5687812 121.1586306  36.3069738
  28.2259119 111.7547345  32.6570974  27.8823388 112.6448986  32.5810084
  28.5938081 111.5649002  31.7940559  25.7756513 116.5905657  26.2228647
  24.9198109 116.2012507  26.0434286  26.1883464 116.6697617  25.3628433
  27.3055659 114.1252000  30.6220207  26.8020455 114.0882135  29.8088012
  27.5986266 115.0344743  30.6816864  23.5498545 114.2090730  29.6286389
  24.4151542 114.0133538  29.2692278  23.6176054 113.9801081  30.5555746
  33.1643676 124.4988311  23.0996582  32.3873118 124.1599470  22.6551744
  33.8435157 124.5040934  22.4251547  27.9795705 119.6183048  22.9903190
  27.6745840 119.9329197  23.8413333  28.9326147 119.6964468  23.0330523
  31.4034983 123.9722292  29.7563190  30.7458657 124.6621553  29.8443319
  32.2075382 124.3618724  30.0997177  21.1560864 116.4392938  27.0002756
  21.7304616 116.2168119  26.2675949  21.7431847 116.5081632  27.7531357
  30.2140441 122.3266664  27.8067132  30.7272323 122.9596656  28.3088842
  30.8641665 121.7267860  27.4410492  23.4583532 113.3134186  25.7277825
  22.8047944 112.9983204  25.1034440  23.4164006 112.6909927  26.4537648
  26.6921272 119.8016120  30.0525473  25.7743834 120.0231067  29.8947161
  27.1081416 119.8762430  29.1937180  27.4756320 121.2007536  25.1828153
  28.2228139 121.7128933  24.8735275  27.7447910 120.8791588  26.0432546
  30.9802238 127.3072666  25.9346275  30.5264565 126.4663576  25.9911465
  30.3496204 127.9434064  26.2721055  29.9235157 118.2364652  27.1646942
  29.1857914 117.7242038  27.4957185  30.1761931 117.7965034  26.3530219
  30.0246784 111.0140904  27.7588711  30.3305661 110.1538267  27.4714627
  30.7499389 111.6058524  27.5587705  24.2967864 121.3094697  28.2664903
  24.3516474 120.3568533  28.1907379  23.4859066 121.4654136  28.7506201
  22.2360224 119.9271757  26.0255281  21.4228090 120.2265927  26.4320474
  22.7319218 119.5327446  26.7429764  27.8334436 120.3913581  34.8570175
  28.1883824 120.6185054  35.7164641  28.4806567 120.7231958  34.2347431
  33.5632173 123.5132017  25.5619504  33.4250071 123.7033613  24.6340694
  33.2068392 124.2751400  26.0187555  21.7274299 117.4990112  31.6416516
  22.3673678 117.3578871  30.9439480  20.8951829 117.2124626  31.2655118
  33.5901552 125.5808544  30.5730776  34.0238059 125.4883833  31.4213830
  34.3033133 125.5566045  29.9350792  20.2027841 118.8828194  33.5888328
  20.8750894 118.6745557  32.9400977  19.3757627 118.6850280  33.1493560
  34.4517102 125.6232245  33.1063661  34.6452992 126.5278055  33.3522936
  34.3517720 125.1639664  33.9402246  26.1053413 115.5090135  35.6053989
  25.4581328 116.2080085  35.5118465  26.8754428 115.9426279  35.9730237
  29.5132211 125.7738988  38.6804542  29.3617717 125.5449539  37.7634626
  29.5036890 126.7309589  38.6935887  26.2817547 123.3470900  33.6650808
  27.2109607 123.4982060  33.4919776  25.8608577 123.4354921  32.8099455
  20.6055338 122.1570797  34.3490765  20.4675136 121.4251036  34.9502304
  21.5160261 122.0679698  34.0674953  23.2337639 121.8690757  33.8374445
  23.9437257 121.2283949  33.7961063  23.1906947 122.1203652  34.7600625
  21.9466573 118.8555975  35.6570084  21.4103930 118.4046713  36.3091680
  21.3583281 118.9901883  34.9140548  31.2241824 126.7697694  34.9895003
  30.3368603 126.4323616  35.1121402  31.7940376 126.0380725  35.2263769
  17.6805694 117.9911982  32.7423078  17.5963882 117.3837652  32.0073488
  16.8588400 118.4821001  32.7432575  27.8529408 116.4765546  28.1093274
  28.3498107 115.7235508  27.7894344  27.0816389 116.5129862  27.5436483
  35.7059165 122.1805911  29.7511565  35.6949041 123.0630627  29.3805498
  34.8376544 121.8277462  29.5566102  28.9359188 125.2337233  25.6831697
  28.0015467 125.3538696  25.5136401  29.1135857 124.3309700  25.4191707
  24.4364376 118.6182929  27.8364958  24.0662164 118.0653969  28.5245864
  24.9323469 118.0141062  27.2839958  32.3231740 121.0754552  26.2181731
  32.7892192 121.9082544  26.1442034  32.7739240 120.6099534  26.9226990
  30.3907971 127.4198374  23.2167883  30.6667815 127.3054968  24.1261757
  29.5212469 127.0215858  23.1780056  30.2948402 113.4435139  30.2572632
  29.3811482 113.6739366  30.4254839  30.7241504 113.5273583  31.1086665
  30.0654861 121.6325031  32.7572526  29.4126311 121.8800939  32.1024979
  30.4435241 120.8189169  32.4235004  26.1142434 122.3744842  39.2438564
  25.4383071 122.2738972  39.9140939  26.9370068 122.2184056  39.7074561
  19.8329710 116.0286920  34.0818064  19.8971037 116.8901751  33.6695462
  19.7696830 115.4160921  33.3490423  19.3081983 118.1010052  37.7291098
  19.9354021 117.7187129  38.3428623  18.4509901 117.8824254  38.0946791
  19.6141772 117.9842478  29.6437002  18.8928358 118.5978446  29.5044475
  20.4035028 118.5200243  29.5653648  22.4168086 115.3196904  35.9177654
  22.9402488 115.5659201  36.6803963  22.1980419 116.1516939  35.4980791
  23.6220631 116.2610599  33.6027324  23.2817451 115.4618412  34.0048004
  22.9159637 116.5612310  33.0304157  24.2737103 113.3459912  32.0554647
  25.0963172 112.8720390  31.9333538  24.5175166 114.1250396  32.5553333
  27.0576460 117.0793319  23.2875881  27.2740074 117.9617957  22.9864709
  26.5770527 116.6879533  22.5581523  21.7975681 120.0379033  29.8646626
  21.6520262 120.3519336  30.7570907  21.3200885 120.6563933  29.3117524
  23.6572064 117.0281580  29.9127515  23.6433633 116.1322674  29.5759813
  24.3744492 117.0352244  30.5465801  25.5098195 117.4618921  31.9580643
  25.2515973 118.3835991  31.9564973  24.9783235 117.0649355  32.6481107
  23.0608960 115.9095961  25.1815085  23.1824871 114.9812607  25.3805973
  22.7711003 115.9234647  24.2693401  25.9300151 113.5950871  28.3181805
  25.9521847 113.6590204  27.3633785  26.3468210 112.7555380  28.5122311
  36.3083775 123.3306131  26.3561028  36.7514921 122.5813456  25.9580151
  35.4310285 123.3216267  25.9734760  17.0587365 121.7054273  35.6964444
  16.3169102 121.8536909  36.2829074  16.7380110 121.9662539  34.8331193
  33.3410979 127.3336178  23.3654957  33.8662304 127.6723451  22.6404277
  33.2533332 126.3983193  23.1818092  22.5450040 117.4227958  39.3905018
  22.5938195 118.2990081  39.0082788  23.0872554 116.8805351  38.8176661
  33.0304885 127.9669081  38.6706155  32.2400429 127.9493220  38.1310655
  32.7938240 128.5057375  39.4255192  33.1502761 124.8161548  35.9838884
  33.2000765 124.6511555  36.9254407  33.0416684 123.9488807  35.5936764
  30.4406523 120.7992476  37.2998190  31.3416386 120.6598941  37.0082188
  30.5154497 120.9646931  38.2396368  24.7749328 118.1759331  36.1451377
  23.9052638 118.4692897  35.8733965  25.0108809 118.7599776  36.8658640
  34.6520957 127.2358489  36.2280905  34.3605766 127.5988470  37.0644366
  34.0393089 126.5225498  36.0494237  35.8516640 124.8011369  28.7483475
  36.6863531 125.2401173  28.9121036  35.9875768 124.3250022  27.9291721
  32.9008146 122.3591104  34.6960963  33.3762267 122.5518750  33.8879815
  31.9773711 122.4150290  34.4504347  27.4788362 114.3938947  33.6616797
  27.9970306 115.1299974  33.3363286  27.1243495 114.7002941  34.4963556
  27.7300956 110.8139230  29.1817694  28.0102710 110.1462419  29.8078120
  28.5151563 111.0068326  28.6692358  31.6009815 119.2356864  32.9289269
  32.5527237 119.3354962  32.9501493  31.4313265 118.4435133  33.4387353
  29.6224194 116.3212447  33.1148670  29.0274126 116.6017460  32.4195158
  29.3373891 116.8106348  33.8865411  34.0797892 122.4562984  32.0431568
  34.0474212 121.5178984  32.2291252  34.6898516 122.5347020  31.3097393
  34.2292381 119.2474027  32.0889852  33.7131430 118.4632484  31.9019781
  35.1132329 118.9192744  32.2536371  31.8903108 112.9915043  28.0485664
  31.6927929 112.6830131  28.9328996  32.5002813 113.7176682  28.1783594
  39.8974442 123.5178991  31.1837605  40.6277831 123.2564279  31.7445309
  39.2881388 122.7807712  31.2239673  37.9789739 121.6586853  31.7812056
  37.2522903 121.5242818  31.1728548  37.5637026 121.9663682  32.5868775
  25.8019916 125.3776783  39.5459430  26.7222925 125.5555382  39.7399476
  25.7669499 124.4332828  39.3939129  25.7186206 113.7945903  24.1757899
  24.9086934 113.4492988  24.5513145  26.4070623 113.4853446  24.7645511
  27.6476754 112.8723950  25.7982196  28.2007793 113.2919403  26.4572219
  27.8846841 111.9459698  25.8405152  23.6709854 118.8611023  41.5784960
  23.5706581 119.8105380  41.5097051  23.4531396 118.5329262  40.7061030
  31.0255562 114.9824475  25.3060860  30.4454231 115.6409279  24.9238912
  30.7591494 114.1601819  24.8948277  29.4759128 114.3829532  27.5082180
  29.9758906 114.4946067  26.6996499  30.1194736 114.0790585  28.1482989
  23.5341124 122.2908162  40.3950021  23.0508205 123.0908522  40.6013910
  23.6202063 122.3016107  39.4417465  29.8080440 117.1424565  24.3617208
  28.9206295 117.4274216  24.1437403  30.2234429 116.9818328  23.5144485
  33.1594976 117.1671086  28.0771547  33.9355366 117.6567539  28.3496164
  32.4343110 117.5929140  28.5343417  35.5967534 117.8798705  29.1345488
  36.1912025 117.6394441  28.4238796  35.6694118 117.1605836  29.7619024
  29.7821463 122.6579101  24.5767498  29.7256665 123.1147652  23.7375131
  30.3349806 121.8969786  24.3990341  33.5926269 118.4468833  25.4017618
  33.3363203 118.0465469  26.2325826  32.9679137 119.1612627  25.2767757
  37.9038607 121.1864906  27.9088909  37.3438165 121.2558095  28.6820471
  37.2982110 121.0105891  27.1888406  30.5156243 123.8483882  21.8720028
  30.4605046 123.6828154  20.9308472  29.8902298 124.5559915  22.0282217
  15.3048758 119.0851947  35.6981450  15.9507621 118.5750901  36.1868675
  15.0965909 119.8220628  36.2724875  27.8302150 126.1532794  41.1973590
  28.6993309 126.3273446  40.8360225  27.3508901 126.9727211  41.0749320
  23.8252368 113.3491991  21.4505346  23.8131038 114.2933831  21.6073617
  24.7175790 113.1662137  21.1564807  27.6404487 109.9434768  25.7051283
  26.8736883 109.3893255  25.8507965  28.0515192 110.0156637  26.5665434
  19.6446249 116.2319564  39.7956464  20.5077710 115.8756369  40.0059789
  19.0711659 115.8933459  40.4831868  41.9669741 129.2369681  33.0399660
  41.6353066 130.1065092  32.8160875  41.3715355 128.9205965  33.7193691
  43.7260051 132.1581206  31.8970884  43.0834431 132.4513739  31.2510679
  43.2214980 132.0434126  32.7024081  39.0652873 127.0839262  32.6570974
  38.7217143 127.9740904  32.5810084  39.4331836 126.8940920  31.7940559
  38.1449414 129.4543918  30.6220207  37.6414209 129.4174053  29.8088012
  38.4380021 130.3636660  30.6816864  34.2977286 128.6426104  25.7277825
  33.6441699 128.3275121  25.1034440  34.2557760 128.0201845  26.4537648
  40.8640539 126.3432822  27.7588711  41.1699416 125.4830185  27.4714627
  41.5893144 126.9350442  27.5587705  41.1342157 128.7727057  30.2572632
  40.2205237 129.0031284  30.4254839  41.5635258 128.8565501  31.1086665
  35.1130857 128.6751830  32.0554647  35.9356927 128.2012308  31.9333538
  35.3568921 129.4542313  32.5553333  36.7693905 128.9242789  28.3181805
  36.7915602 128.9882122  27.3633785  37.1861964 128.0847298  28.5122311
  38.3182117 129.7230865  33.6616797  38.8364060 130.4591892  33.3363286
  37.9637249 130.0294858  34.4963556  38.5694711 126.1431148  29.1817694
  38.8496465 125.4754337  29.8078120  39.3545318 126.3360243  28.6692358
  42.7296862 128.3206960  28.0485664  42.5321683 128.0122049  28.9328996
  43.3396568 129.0468599  28.1783594  36.5579961 129.1237820  24.1757899
  35.7480689 128.7784905  24.5513145  37.2464378 128.8145364  24.7645511
  38.4870509 128.2015867  25.7982196  39.0401548 128.6211321  26.4572219
  38.7240595 127.2751615  25.8405152  41.8649316 130.3116392  25.3060860
  41.2847985 130.9701196  24.9238912  41.5985249 129.4893737  24.8948277
  40.3152882 129.7121450  27.5082180  40.8152661 129.8237985  26.6996499
  40.9588490 129.4082503  28.1482989  46.4361289 133.2090623  29.1345488
  47.0305780 132.9686359  28.4238796  46.5087872 132.4897754  29.7619024
  38.4798242 125.2726686  25.7051283  37.7130638 124.7185172  25.8507965
  38.8908947 125.3448554  26.5665434   1.9335840  56.6418614  19.8308968
   2.1271730  57.5464425  20.0768243   1.8336458  56.1826033  20.6647553
   0.6321498  55.8347917  22.7084190   0.6819503  55.6697925  23.6499713
   0.5235422  54.9675176  22.3182071   2.1339695  58.2544859  22.9526212
   1.8424503  58.6174839  23.7889673   1.5211826  57.5411867  22.7739544
   6.9713363  68.8807790  17.3264172   7.6091773  68.7614537  16.6227512
   6.8534206  69.8288634  17.3852124   3.7803070  68.8335218  17.2625696
   3.4421581  68.7176282  16.3746231   4.6492838  68.4326383  17.2426702
   4.2622853  69.9870069  23.2211902   4.2511493  69.5922868  22.3492406
   4.4243492  69.2536142  23.8145673   0.9830114  72.7707181  22.1691086
   0.6919980  73.6752812  22.0537752   1.6187098  72.8123709  22.8835155
   1.9086321  70.1484030  18.7592445   2.5049893  69.9240052  18.0449408
   1.9661292  69.4068775  19.3617893   6.5254632  66.6059243  14.4017380
   7.3117721  66.1878667  14.0507797   6.7893336  67.5105336  14.5699028
  11.9263059  66.5434477  15.3050358  12.6588231  65.9733694  15.5388188
  11.1702415  66.1556077  15.7456864   3.5439179  68.9661718  12.5013701
   3.1797386  68.4392339  13.2126622   4.4006295  68.5760187  12.3280186
   9.4488479  60.2556051  19.7644967   9.1171804  61.1251462  19.5406182
   8.8534093  59.9392335  20.4438997   5.9419999  72.4568597  19.1640880
   5.6420722  73.3593636  19.0556687   5.5971058  72.1900780  20.0162032
   9.3417143  64.9751137  16.8438317   8.4334020  64.9066545  16.5497078
   9.2904738  65.4523082  17.6720142   3.4158008  66.3940783  24.7873214
   2.6391342  66.9534703  24.7776079   4.0548571  66.8797566  25.3088084
  11.2078789  63.1767575  18.6216191  10.5653169  63.4700109  17.9755985
  10.7033717  63.0620496  19.4269387   1.6704381  69.2026236  24.3491181
   2.4119065  69.7411280  24.0726005   0.9641366  69.8292525  24.5062733
   7.1459720  71.3455376  22.9463343   7.5543076  70.9037787  22.2017975
   6.4236982  70.7708004  23.1997536   3.4990790  66.2827983  20.3196900
   4.3451986  66.7067397  20.4631549   3.4389428  65.6261607  21.0135463
   7.4688535  71.9056567  16.7015632   6.8397397  72.0702281  15.9991699
   7.0814197  72.3198177  17.4726596  11.3477767  72.8411005  14.0559995
  10.6628805  73.2209906  13.5057029  11.4321616  73.4506332  14.7891943
   6.6490236  63.9432352  21.9778073   6.4051168  64.6974412  21.4412349
   6.9250166  64.3217699  22.8125320   8.6028698  70.4870964  20.6555339
   8.8145594  71.1302724  19.9789720   8.5558447  69.6533280  20.1877269
   6.2054927  63.0988785  17.5591911   5.3439406  63.3970038  17.8508649
   6.2317362  63.3159183  16.6272944   3.0216497  71.6430975  13.9665717
   3.4854842  71.9218678  13.1770339   2.7573295  70.7414420  13.7838807
   9.7174526  73.3642919  18.8277696  10.5391970  72.9623107  18.5460378
   9.7136929  73.2611153  19.7793812   3.4831130  72.9126963  20.9838407
   3.5475562  73.3747370  21.8196578   2.7742054  72.2824328  21.1120716
  17.8080519  69.7081668  15.1762668  17.0544228  69.1389066  15.0206672
  17.9428061  69.6744332  16.1233302   2.6014448  62.0744529  25.1051999
   3.3424161  62.6751682  25.0256461   2.8332371  61.3322167  24.5470041
   4.8247624  75.2018637  24.9817729   4.3811478  74.4155015  24.6638634
   5.4864837  75.3897787  24.3161620   6.9228862  75.4821437  23.0099130
   6.9047337  76.3030318  22.5179399   7.8448782  75.3575512  23.2349271
   3.3801916  72.9965566  23.8522639   3.9130253  72.2353854  23.6221947
   2.8515997  72.7039218  24.5946793   6.5471611  58.1025632  19.3816280
   6.2035880  58.9927274  19.3055391   6.9150574  57.9127290  18.5185865
   5.6268151  60.4730287  17.3465514   5.1232947  60.4360422  16.5333319
   5.9198758  61.3823030  17.4062170  11.4856168  70.8466598   9.8241889
  10.7085611  70.5077757   9.3797051  12.1647649  70.8519221   9.1496854
   9.7247475  70.3200579  16.4808497   9.0671149  71.0099840  16.5688626
  10.5287874  70.7097011  16.8242483   8.5352934  68.6744952  14.5312439
   9.0484815  69.3074944  15.0334148   9.1854158  68.0746147  14.1655799
   5.0133764  66.1494407  16.7770779   4.0956326  66.3709354  16.6192467
   5.4293908  66.2240718  15.9182487   5.7968812  67.5485823  11.9073460
   6.5440631  68.0607220  11.5980582   6.0660402  67.2269876  12.7677853
   9.3014730  73.6550953  12.6591581   8.8477057  72.8141863  12.7156772
   8.6708697  74.2912352  12.9966362   8.2447649  64.5842939  13.8892249
   7.5070406  64.0720325  14.2202491   8.4974423  64.1443321  13.0775526
   7.7447669  75.4927450  13.5941400   8.0370643  76.0532507  12.8753765
   8.2546290  75.7856011  14.3494559   2.6180356  67.6572984  14.9910209
   2.6728966  66.7046821  14.9152686   1.8071558  67.8132423  15.4751508
   6.1546928  66.7391868  21.5815482   6.5096316  66.9663342  22.4409948
   6.8019059  67.0710245  20.9592737  11.8844665  69.8610304  12.2864811
  11.7462564  70.0511900  11.3586000  11.5280884  70.6229687  12.7432862
  11.9114045  71.9286831  17.2976082  12.3450551  71.8362120  18.1459137
  12.6245625  71.9044332  16.6596098   5.6441940  75.5288925  18.8309183
   5.6978962  76.0979862  19.5986899   4.7756721  75.6990810  18.4663220
  12.7729594  71.9710532  19.8308968  12.9665484  72.8756343  20.0768243
  12.6730212  71.5117951  20.6647553   4.4265905  61.8568423  22.3299295
   3.7793820  62.5558372  22.2363772   5.1966920  62.2904567  22.6975543
   7.8344703  72.1217275  25.4049848   7.6830209  71.8927826  24.4879932
   7.8249382  73.0787876  25.4181193   4.6030039  69.6949187  20.3896115
   5.5322099  69.8460347  20.2165082   4.1821069  69.7833208  19.5344761
   3.4018371  73.7199852  18.1594653   3.2629457  73.3518636  19.0320591
   2.6132967  74.2347491  17.9878610   4.9523586  73.0981455  15.5483490
   4.6173419  73.0582225  16.4441140   4.4527532  72.4326171  15.0753901
   1.5550131  68.2169044  20.5619751   2.2649749  67.5762236  20.5206370
   1.5119439  68.4681939  21.4845932   9.5436909  75.1536397  23.4826330
   9.4849456  74.4695617  22.8156913   9.9456428  75.8955387  23.0306956
   9.5454317  73.1175981  21.7140310   8.6581096  72.7801903  21.8366709
  10.1152868  72.3859012  21.9509075   3.0755470  77.7777434  18.6801553
   3.0025642  78.5832405  19.1920858   2.6332863  77.9769399  17.8549575
  14.0271657  68.5284199  16.4756872  14.0161534  69.4108914  16.1050805
  13.1589037  68.1755749  16.2811409   5.5354154  77.6764268  20.8359712
   6.2482126  78.3111732  20.7635613   5.0444182  77.7728134  20.0199714
   7.2571681  71.5815520  12.4077004   6.3227959  71.7016983  12.2381708
   7.4348349  70.6787987  12.1437013  10.6444232  67.4232840  12.9427038
  11.1104684  68.2560831  12.8687340  11.0951732  66.9577821  13.6472296
   8.7120463  73.7676661   9.9413190   8.9880307  73.6533255  10.8507064
   7.8424962  73.3694146   9.9025363   8.6160895  59.7913427  16.9817939
   7.7023974  60.0217653  17.1500146   9.0453996  59.8751871  17.8331971
   8.3867353  67.9803319  19.4817833   7.7338803  68.2279226  18.8270286
   8.7647733  67.1667457  19.1480310   4.4354926  68.7223130  25.9683870
   3.7595563  68.6217259  26.6386245   5.2582560  68.5662343  26.4319867
   3.1777709  80.0290057  20.2041486   3.7296017  80.1921679  20.9690571
   3.5183903  80.6194495  19.5321511   8.0288583  74.8551315  26.0590141
   8.5728487  75.4681273  25.5645095   7.4475428  75.4130893  26.5757154
   6.3146096  77.9772033  17.1905168   6.1897236  77.1761772  16.6816114
   6.9725187  78.4718226  16.7019138   8.3781005  75.7781053  18.8184718
   7.4311340  75.6586404  18.7463045   8.7263778  74.8903551  18.9010980
   0.7380578  61.6675192  22.6422960   1.2614980  61.9137488  23.4049270
   0.5192911  62.4995226  22.2226098   5.3827438  75.5733769  15.0189071
   5.2352400  74.6450476  15.1996641   6.2080932  75.5953860  14.5346146
   8.9861560  76.3962328  16.1053943   9.9108107  76.1905189  15.9678394
   8.8176863  76.1478729  17.0143285   1.9433123  62.6088887  20.3272631
   1.6029944  61.8096700  20.7293311   1.2372129  62.9090598  19.7549464
   2.5949595  59.6938199  18.7799954   3.4175664  59.2198677  18.6578844
   2.8387659  60.4728683  19.2798640   1.9784557  63.3759868  16.6372822
   1.9646125  62.4800961  16.3005120   2.6956985  63.3830531  17.2711108
   3.8310687  63.8097208  18.6825949   3.5728465  64.7314279  18.6810280
   3.2995728  63.4127642  19.3726414   8.7756876  76.9147995  11.4616035
   8.9493754  76.3494418  10.7089887   9.2685767  77.7148890  11.2795525
  14.6296267  69.6784418  13.0806335  15.0727413  68.9291743  12.6825458
  13.7522778  69.6694554  12.6980067  11.6623472  73.6814465  10.0900264
  12.1874796  74.0201738   9.3649584  11.5745824  72.7461480   9.9063398
   3.3243520  77.5948539  22.2190140   3.6330647  77.3497685  23.0912840
   4.1219002  77.7995177  21.7309011   0.8662532  63.7706245  26.1150325
   0.9150688  64.6468368  25.7328094   1.4085046  63.2283638  25.5421968
  11.3517378  74.3147369  25.3951462  10.5612921  74.2971507  24.8555961
  11.1150732  74.8535662  26.1500498  11.4715253  71.1639835  22.7084190
  11.5213258  70.9989842  23.6499713  11.3629176  70.2967094  22.3182071
   8.7619015  67.1470763  24.0243497   9.6628878  67.0077228  23.7327495
   8.8366990  67.3125218  24.9641675   3.0961821  64.5237618  22.8696683
   2.2265130  64.8171184  22.5979272   3.3321301  65.1078063  23.5903947
  12.9733450  73.5836777  22.9526212  12.6818258  73.9466757  23.7889673
  12.3605581  72.8703785  22.7739544  14.1729132  71.1489656  15.4728782
  15.0076023  71.5879460  15.6366342  14.3088261  70.6728310  14.6537028
  11.2220638  68.7069391  21.4206270  11.6974759  68.8997037  20.6125121
  10.2986203  68.7628577  21.1749654   5.8000854  60.7417235  20.3862104
   6.3182798  61.4778262  20.0608592   5.4455987  61.0481228  21.2208863
   9.9222307  65.5835151  19.6534575  10.8739730  65.6833249  19.6746800
   9.7525757  64.7913420  20.1632660   7.9436686  62.6690734  19.8393976
   7.3486618  62.9495747  19.1440465   7.6586383  63.1584635  20.6110718
  12.4010385  68.8041271  18.7676875  12.3686705  67.8657272  18.9536559
  13.0111008  68.8825308  18.0342700  12.5504873  65.5952314  18.8135158
  12.0343922  64.8110771  18.6265087  13.4344822  65.2671031  18.9781678
  10.2115600  59.3393330  14.7730971  10.0140421  59.0308418  15.6574303
  10.8215306  60.0654969  14.9028901  18.2186935  69.8657278  17.9082912
  18.9490323  69.6042566  18.4690615  17.6093880  69.1286000  17.9484980
  16.3002232  68.0065140  18.5057363  15.5735395  67.8721105  17.8973855
  15.8849519  68.3141969  19.3114081   4.1232408  71.7255070  26.2704736
   5.0435418  71.9033669  26.4644783   4.0881991  70.7811115  26.1184435
   1.9922346  65.2089310  28.3030266   1.8919073  66.1583667  28.2342357
   1.7743888  64.8807549  27.4306336   1.8553616  68.6386449  27.1195328
   1.3720698  69.4386809  27.3259217   1.9414555  68.6494394  26.1662772
  11.4807468  63.5149373  14.8016854  12.2567858  64.0045826  15.0741471
  10.7555602  63.9407428  15.2588724  13.9180027  64.2276993  15.8590795
  14.5124517  63.9872729  15.1484103  13.9906610  63.5084123  16.4864331
   8.1033956  69.0057388  11.3012805   8.0469157  69.4625940  10.4620437
   8.6562298  68.2448073  11.1235648  11.9138761  64.7947120  12.1262925
  11.6575696  64.3943756  12.9571132  11.2891629  65.5090914  12.0013064
  16.2251099  67.5343193  14.6334216  15.6650657  67.6036383  15.4065778
  15.6194603  67.3584178  13.9133712   6.1514642  72.5011081  27.9218897
   7.0205802  72.6751734  27.5605532   5.6721394  73.3205498  27.7994626
  17.8107118  84.2099707  17.3264172  18.4485528  84.0906455  16.6227512
  17.6927961  85.1580551  17.3852124  14.6196824  84.1627135  17.2625696
  14.2815336  84.0468200  16.3746231  15.4886592  83.7618301  17.2426702
  15.1016607  85.3161987  23.2211902  15.0905248  84.9214785  22.3492406
  15.2637247  84.5828060  23.8145673  11.8223868  88.0999099  22.1691086
  11.5313734  89.0044730  22.0537752  12.4580853  88.1415627  22.8835155
  12.7480075  85.4775947  18.7592445  13.3443647  85.2531970  18.0449408
  12.8055047  84.7360693  19.3617893  17.3648386  81.9351161  14.4017380
  18.1511475  81.5170584  14.0507797  17.6287091  82.8397253  14.5699028
  22.7656813  81.8726394  15.3050358  23.4981985  81.3025611  15.5388188
  22.0096169  81.4847995  15.7456864  14.3832933  84.2953636  12.5013701
  14.0191140  83.7684257  13.2126622  15.2400049  83.9052105  12.3280186
  20.2882234  75.5847968  19.7644967  19.9565559  76.4543379  19.5406182
  19.6927847  75.2684252  20.4438997  16.7813753  87.7860514  19.1640880
  16.4814476  88.6885553  19.0556687  16.4364813  87.5192698  20.0162032
  10.2326235  84.2374311  15.1977584   9.3076731  84.1050525  15.4055276
  10.4810648  85.0168531  15.6947526  20.1810897  80.3043055  16.8438317
  19.2727774  80.2358463  16.5497078  20.1298493  80.7815000  17.6720142
  14.2551763  81.7232700  24.7873214  13.4785097  82.2826620  24.7776079
  14.8942326  82.2089483  25.3088084  22.0472543  78.5059493  18.6216191
  21.4046924  78.7992026  17.9755985  21.5427472  78.3912413  19.4269387
  19.7012707  82.2522666   9.3102050  20.6130563  82.4850053   9.1349748
  19.1922354  82.8359710   8.7477129  12.5098135  84.5318154  24.3491181
  13.2512820  85.0703198  24.0726005  11.8035121  85.1584442  24.5062733
  17.9853475  86.6747294  22.9463343  18.3936831  86.2329705  22.2017975
  17.2630736  86.0999922  23.1997536  14.3384545  81.6119901  20.3196900
  15.1845740  82.0359314  20.4631549  14.2783182  80.9553525  21.0135463
  18.3082289  87.2348485  16.7015632  17.6791152  87.3994199  15.9991699
  17.9207952  87.6490094  17.4726596  22.1871521  88.1702923  14.0559995
  21.5022559  88.5501824  13.5057029  22.2715371  88.7798249  14.7891943
  17.4883990  79.2724269  21.9778073  17.2444922  80.0266330  21.4412349
  17.7643921  79.6509617  22.8125320  19.4422453  85.8162882  20.6555339
  19.6539348  86.4594641  19.9789720  19.3952201  84.9825198  20.1877269
  17.0448682  78.4280702  17.5591911  16.1833161  78.7261956  17.8508649
  17.0711117  78.6451101  16.6272944  13.8610251  86.9722893  13.9665717
  14.3248597  87.2510596  13.1770339  13.5967049  86.0706337  13.7838807
  10.7534332  86.5194374  16.9045480  11.3235689  86.9481643  16.2662964
  11.3442444  86.2376959  17.6029666  11.2459499  81.6857802  25.1506491
  10.6158159  82.3674083  25.3841888  11.1395587  81.5740883  24.2059629
  20.5568281  88.6934837  18.8277696  21.3785725  88.2915024  18.5460378
  20.5530684  88.5903071  19.7793812  14.3224884  88.2418880  20.9838407
  14.3869317  88.7039288  21.8196578  13.6135808  87.6116245  21.1120716
   4.8242174  81.6060088  18.5087406   5.0750213  82.4907098  18.7744982
   5.3601723  81.4264690  17.7362498  28.6474274  85.0373585  15.1762668
  27.8937982  84.4680984  15.0206672  28.7821815  85.0036250  16.1233302
  10.5240242  75.9878568  27.5131742  10.1307187  75.4344766  28.1879386
  11.3406382  76.2989146  27.9038260  13.4408203  77.4036447  25.1051999
  14.1817916  78.0043600  25.0256461  13.6726125  76.6614085  24.5470041
   8.5849541  82.5892814  23.3830228   8.4703056  81.6878071  23.6837327
   7.7294058  82.8356511  23.0315045  15.6641378  90.5310554  24.9817729
  15.2205233  89.7446933  24.6638634  16.3258592  90.7189705  24.3161620
  10.4228500  92.0606356  19.5078408  10.9735925  91.9323419  18.7355401
   9.5839975  92.3601245  19.1573300  17.7622616  90.8113354  23.0099130
  17.7441092  91.6322235  22.5179399  18.6842536  90.6867429  23.2349271
  14.2195671  88.3257484  23.8522639  14.7524007  87.5645772  23.6221947
  13.6909752  88.0331136  24.5946793  17.3865366  73.4317550  19.3816280
  17.0429635  74.3219191  19.3055391  17.7544328  73.2419207  18.5185865
  14.9362759  78.2675862  12.9473954  14.0804356  77.8782712  12.7679593
  15.3489711  78.3467822  12.0873739  16.4661906  75.8022205  17.3465514
  15.9626702  75.7652340  16.5333319  16.7592513  76.7114948  17.4062170
  12.7104792  75.8860935  16.3531695  13.5757789  75.6903743  15.9937585
  12.7782301  75.6571286  17.2801052  22.3249922  86.1758515   9.8241889
  21.5479365  85.8369675   9.3797051  23.0041403  86.1811139   9.1496854
  17.1401951  81.2953253   9.7148497  16.8352087  81.6099402  10.5658640
  18.0932394  81.3734673   9.7575830  20.5641229  85.6492497  16.4808497
  19.9064904  86.3391758  16.5688626  21.3681629  86.0388929  16.8242483
  10.3167111  78.1163142  13.7248062  10.8910863  77.8938324  12.9921255
  10.9038093  78.1851837  14.4776664  19.3746688  84.0036869  14.5312439
  19.8878570  84.6366861  15.0334148  20.0247912  83.4038065  14.1655799
  12.6189779  74.9904391  12.4523132  11.9654191  74.6753409  11.8279746
  12.5770253  74.3680132  13.1782955  15.8527519  81.4786325  16.7770779
  14.9350080  81.7001272  16.6192467  16.2687663  81.5532635  15.9182487
  16.6362567  82.8777741  11.9073460  17.3834386  83.3899138  11.5980582
  16.9054156  82.5561793  12.7677853  20.1408484  88.9842871  12.6591581
  19.6870811  88.1433781  12.7156772  19.5102451  89.6204269  12.9966362
  19.0841404  79.9134857  13.8892249  18.3464161  79.4012243  14.2202491
  19.3368177  79.4735238  13.0775526  18.5841424  90.8219368  13.5941400
  18.8764398  91.3824425  12.8753765  19.0940044  91.1147929  14.3494559
  19.1853031  72.6911109  14.4834018  19.4911908  71.8308472  14.1959933
  19.9105636  73.2828729  14.2833012  13.4574111  82.9864902  14.9910209
  13.5122721  82.0338738  14.9152686  12.6465313  83.1424341  15.4751508
  11.3966471  81.6041962  12.7500588  10.5834336  81.9036132  13.1565780
  11.8925465  81.2097650  13.4675070  16.9940683  82.0683786  21.5815482
  17.3490070  82.2955259  22.4409948  17.6412814  82.4002163  20.9592737
  22.7238419  85.1902222  12.2864811  22.5856318  85.3803818  11.3586000
  22.3674638  85.9521605  12.7432862  10.8880546  79.1760317  18.3661823
  11.5279925  79.0349076  17.6684786  10.0558076  78.8894831  17.9900425
  22.7507799  87.2578749  17.2976082  23.1844306  87.1654038  18.1459137
  23.4639380  87.2336249  16.6596098  16.4835694  90.8580843  18.8309183
  16.5372716  91.4271779  19.5986899  15.6150475  91.0282728  18.4663220
   9.3634087  80.5598399  20.3133634  10.0357141  80.3515761  19.6646283
   8.5363874  80.3620485  19.8738867  23.6123349  87.3002450  19.8308968
  23.8059239  88.2048260  20.0768243  23.5123967  86.8409869  20.6647553
  15.2659659  77.1860340  22.3299295  14.6187574  77.8850290  22.2363772
  16.0360675  77.6196484  22.6975543  18.6738457  87.4509192  25.4049848
  18.5223964  87.2219744  24.4879932  18.6643137  88.4079794  25.4181193
  15.4423794  85.0241105  20.3896115  16.3715854  85.1752265  20.2165082
  15.0214824  85.1125126  19.5344761  14.2412126  89.0491770  18.1594653
  14.1023211  88.6810554  19.0320591  13.4526722  89.5639409  17.9878610
  15.7917341  88.4273372  15.5483490  15.4567173  88.3874142  16.4441140
  15.2921286  87.7618088  15.0753901   9.7661585  83.8341002  21.0736071
   9.6281383  83.1021241  21.6747611  10.6766508  83.7449902  20.7920259
  12.3943885  83.5460962  20.5619751  13.1043504  82.9054154  20.5206370
  12.3513193  83.7973856  21.4845932  20.3830664  90.4828315  23.4826330
  20.3243210  89.7987535  22.8156913  20.7850182  91.2247305  23.0306956
  11.1072819  80.5326180  22.3815391  10.5710176  80.0816918  23.0336987
  10.5189528  80.6672088  21.6385855  20.3848071  88.4467899  21.7140310
  19.4974850  88.1093821  21.8366709  20.9546622  87.7150930  21.9509075
   6.8411941  79.6682187  19.4668385   6.7570129  79.0607857  18.7318795
   6.0194647  80.1591206  19.4677881  13.9149225  93.1069351  18.6801553
  13.8419396  93.9124323  19.1920858  13.4726618  93.3061317  17.8549575
  17.0135654  78.1535751  14.8338580  17.5104354  77.4005713  14.5139650
  16.2422636  78.1900067  14.2681789  24.8665412  83.8576116  16.4756872
  24.8555288  84.7400832  16.1050805  23.9982791  83.5047667  16.2811409
  16.3747908  93.0056185  20.8359712  17.0875880  93.6403650  20.7635613
  15.8837937  93.1020051  20.0199714  18.0965435  86.9107438  12.4077004
  17.1621714  87.0308900  12.2381708  18.2742104  86.0079905  12.1437013
  13.5970623  80.2953134  14.5610265  13.2268411  79.7424174  15.2491170
  14.0929716  79.6911267  14.0085265  21.4837986  82.7524757  12.9427038
  21.9498439  83.5852749  12.8687340  21.9345487  82.2869739  13.6472296
  11.4259822  90.7550629  21.6565283  12.1269281  91.3887112  21.8094677
  10.9554937  91.0965360  20.8960922  19.5514218  89.0968579   9.9413190
  19.8274061  88.9825173  10.8507064  18.6818716  88.6986063   9.9025363
  19.4554649  75.1205344  16.9817939  18.5417729  75.3509571  17.1500146
  19.8847751  75.2043788  17.8331971  19.2261108  83.3095236  19.4817833
  18.5732558  83.5571144  18.8270286  19.6041488  82.4959374  19.1480310
  15.2748681  84.0515047  25.9683870  14.5989318  83.9509177  26.6386245
  16.0976315  83.8954261  26.4319867  14.0171464  95.3581975  20.2041486
  14.5689772  95.5213596  20.9690571  14.3577657  95.9486413  19.5321511
   8.9935957  77.7057125  20.8063371   9.0577283  78.5671955  20.3940769
   8.9303077  77.0931126  20.0735729   8.4688229  79.7780257  24.4536405
   9.0960268  79.3957334  25.0673929   7.6116148  79.5594459  24.8192098
  18.8682338  90.1843232  26.0590141  19.4122242  90.7973191  25.5645095
  18.2869183  90.7422811  26.5757154  17.1539851  93.3063950  17.1905168
  17.0290990  92.5053690  16.6816114  17.8118942  93.8010144  16.7019138
   8.7748019  79.6612683  16.3682309   8.0534605  80.2748650  16.2289782
   9.5641275  80.1970448  16.2898954  19.2174759  91.1072970  18.8184718
  18.2705095  90.9878322  18.7463045  19.5657532  90.2195468  18.9010980
  11.5774333  76.9967109  22.6422960  12.1008734  77.2429406  23.4049270
  11.3586666  77.8287144  22.2226098  16.2221193  90.9025687  15.0189071
  16.0746155  89.9742394  15.1996641  17.0474686  90.9245777  14.5346146
  19.8255314  91.7254245  16.1053943  20.7501862  91.5197107  15.9678394
  19.6570618  91.4770646  17.0143285  12.7826878  77.9380804  20.3272631
  12.4423698  77.1388617  20.7293311  12.0765884  78.2382515  19.7549464
  13.4343349  75.0230117  18.7799954  14.2569419  74.5490595  18.6578844
  13.6781413  75.8020601  19.2798640  16.2182707  78.7563524  10.0121188
  16.4346321  79.6388162   9.7110016  15.7376774  78.3649738   9.2826830
  10.9581928  81.7149237  16.5891932  10.8126509  82.0289540  17.4816214
  10.4807132  82.3334138  16.0362831  12.8178311  78.7051785  16.6372822
  12.8039880  77.8092879  16.3005120  13.5350739  78.7122449  17.2711108
  14.6704442  79.1389126  18.6825949  14.4122220  80.0606196  18.6810280
  14.1389482  78.7419560  19.3726414  19.6150631  92.2439913  11.4616035
  19.7887508  91.6786335  10.7089887  20.1079522  93.0440808  11.2795525
   5.4327590  84.2554582  19.5279594   4.8881058  85.0314390  19.6599868
   6.3106940  84.6025386  19.3698715  12.2215207  77.5866166  11.9060392
  12.3431118  76.6582812  12.1051280  11.9317249  77.6004852  10.9938708
  15.0906397  75.2721076  15.0427112  15.1128094  75.3360409  14.0879092
  15.5074456  74.4325585  15.2367618  25.4690022  85.0076336  13.0806335
  25.9121168  84.2583661  12.6825458  24.5916532  84.9986472  12.6980067
   6.2193612  83.3824478  22.4209750   5.4775348  83.5307113  23.0074381
   5.8986357  83.6432744  21.5576500  22.5017226  89.0106383  10.0900264
  23.0268550  89.3493655   9.3649584  22.4139579  88.0753398   9.9063398
  14.1637275  92.9240456  22.2190140  14.4724401  92.6789603  23.0912840
  14.9612757  93.1287095  21.7309011  11.7056287  79.0998163  26.1150325
  11.7544442  79.9760286  25.7328094  12.2478801  78.5575556  25.5421968
  22.1911132  89.6439286  25.3951462  21.4006676  89.6263425  24.8555961
  21.9544487  90.1827580  26.1500498  22.3109007  86.4931753  22.7084190
  22.3607012  86.3281760  23.6499713  22.2022931  85.6259012  22.3182071
  19.6012770  82.4762681  24.0243497  20.5022632  82.3369146  23.7327495
  19.6760744  82.6417136  24.9641675  13.9355575  79.8529535  22.8696683
  13.0658884  80.1463102  22.5979272  14.1715055  80.4369980  23.5903947
  23.8127204  88.9128694  22.9526212  23.5212012  89.2758675  23.7889673
  23.1999335  88.1995702  22.7739544  25.0122886  86.4781574  15.4728782
  25.8469778  86.9171378  15.6366342  25.1482015  86.0020227  14.6537028
  22.0614392  84.0361309  21.4206270  22.5368514  84.2288955  20.6125121
  21.1379958  84.0920495  21.1749654  16.6394609  76.0709152  20.3862104
  17.1576553  76.8070179  20.0608592  16.2849742  76.3773146  21.2208863
  16.8907203  72.4909435  15.9063000  17.1708957  71.8232624  16.5323427
  17.6757810  72.6838531  15.3937664  20.7616061  80.9127069  19.6534575
  21.7133484  81.0125167  19.6746800  20.5919512  80.1205337  20.1632660
  18.7830441  77.9982652  19.8393976  18.1880373  78.2787665  19.1440465
  18.4980138  78.4876553  20.6110718  23.2404139  84.1333189  18.7676875
  23.2080459  83.1949189  18.9536559  23.8504763  84.2117225  18.0342700
  23.3898628  80.9244232  18.8135158  22.8737676  80.1402689  18.6265087
  24.2738576  80.5962949  18.9781678  21.0509355  74.6685248  14.7730971
  20.8534176  74.3600336  15.6574303  21.6609060  75.3946887  14.9028901
  29.0580689  85.1949195  17.9082912  29.7884077  84.9334484  18.4690615
  28.4487634  84.4577917  17.9484980  27.1395986  83.3357058  18.5057363
  26.4129150  83.2013023  17.8973855  26.7243273  83.6433887  19.3114081
  14.9626163  87.0546988  26.2704736  15.8829172  87.2325587  26.4644783
  14.9275746  86.1103033  26.1184435   7.9588235  84.9648022  18.9127517
   8.1774245  85.8965130  18.9315551   8.3714009  84.6055997  19.6982321
  14.8792453  75.4716108  10.9003206  14.0693181  75.1263193  11.2758452
  15.5676870  75.1623651  11.4890817  16.8083001  74.5494154  12.5227502
  17.3614040  74.9689608  13.1817525  17.0453088  73.6229903  12.5650458
  12.8316100  80.5381228  28.3030266  12.7312827  81.4875585  28.2342357
  12.6137642  80.2099467  27.4306336  20.1861808  76.6594680  12.0306167
  19.6060477  77.3179484  11.6484219  19.9197741  75.8372024  11.6193584
  18.6365375  76.0599737  14.2327487  19.1365153  76.1716272  13.4241806
  19.2800983  75.7560790  14.8728295  12.6947370  83.9678367  27.1195328
  12.2114452  84.7678727  27.3259217  12.7808310  83.9786312  26.1662772
   8.6220708  87.8582902  19.1563762   9.5763962  87.8266844  19.0893693
   8.4233232  87.3973525  19.9713988   9.2120090  86.4284018  21.7234559
  10.0312979  86.9228096  21.7469397   9.4856898  85.5115986  21.6952127
  18.9686686  78.8194770  11.0862515  18.0812541  79.1044421  10.8682710
  19.3840675  78.6588533  10.2389792  22.3201222  78.8441291  14.8016854
  23.0961613  79.3337743  15.0741471  21.5949357  79.2699345  15.2588724
  24.7573781  79.5568910  15.8590795  25.3518272  79.3164646  15.1484103
  24.8300365  78.8376041  16.4864331  18.9427710  84.3349306  11.3012805
  18.8862911  84.7917857  10.4620437  19.4956053  83.5739991  11.1235648
  22.7532516  80.1239038  12.1262925  22.4969450  79.7235673  12.9571132
  22.1285384  80.8382832  12.0013064  27.0644854  82.8635111  14.6334216
  26.5044412  82.9328300  15.4065778  26.4588357  82.6876096  13.9133712
  19.6762489  85.5254087   8.5965334  19.6211293  85.3598359   7.6553778
  19.0508545  86.2330120   8.7527524   4.4655004  80.7622152  22.4226756
   5.1113868  80.2521106  22.9113982   4.2572155  81.4990833  22.9970182
  16.9908397  87.8302999  27.9218897  17.8599556  88.0043651  27.5605532
  16.5115148  88.6497416  27.7994626  12.9858615  75.0262196   8.1750653
  12.9737285  75.9704036   8.3318923  13.8782037  74.8432342   7.8810114
  11.1594577  94.9500100  19.6008331  12.0621823  94.9823710  19.9174826
  10.9331947  94.0200551  19.6154666  16.8010734  71.6204973  12.4296589
  16.0343130  71.0663460  12.5753272  17.2121439  71.6926842  13.2910741
   8.8052495  77.9089769  26.5201771   9.6683957  77.5526574  26.7305095
   8.2317906  77.5703663  27.2077175  28.6500872  99.5391625  17.3264172
  29.2879282  99.4198372  16.6227512  28.5321715 100.4872469  17.3852124
  25.4590579  99.4919053  17.2625696  25.1209090  99.3760118  16.3746231
  26.3280347  99.0910218  17.2426702  25.9410362 100.6453905  23.2211902
  25.9299002 100.2506703  22.3492406  26.1031001  99.9119977  23.8145673
  22.6617623 103.4291017  22.1691086  22.3707489 104.3336647  22.0537752
  23.2974607 103.4707544  22.8835155  23.5873830 100.8067865  18.7592445
  24.1837402 100.5823888  18.0449408  23.6448801 100.0652611  19.3617893
  28.2042141  97.2643079  14.4017380  28.9905230  96.8462502  14.0507797
  28.4680845  98.1689171  14.5699028  33.6050568  97.2018312  15.3050358
  34.3375740  96.6317529  15.5388188  32.8489924  96.8139913  15.7456864
  25.2226688  99.6245554  12.5013701  24.8584895  99.0976175  13.2126622
  26.0793804  99.2344023  12.3280186  31.1275988  90.9139886  19.7644967
  30.7959313  91.7835297  19.5406182  30.5321602  90.5976170  20.4438997
  27.6207508 103.1152432  19.1640880  27.3208231 104.0177471  19.0556687
  27.2758567 102.8484615  20.0162032  21.0719989  99.5666229  15.1977584
  20.1470486  99.4342443  15.4055276  21.3204402 100.3460448  15.6947526
  31.0204652  95.6334972  16.8438317  30.1121529  95.5650381  16.5497078
  30.9692247  96.1106917  17.6720142  25.0945517  97.0524618  24.7873214
  24.3178851  97.6118538  24.7776079  25.7336080  97.5381401  25.3088084
  32.8866298  93.8351411  18.6216191  32.2440678  94.1283944  17.9755985
  32.3821226  93.7204331  19.4269387  30.5406462  97.5814584   9.3102050
  31.4524318  97.8141971   9.1349748  30.0316109  98.1651628   8.7477129
  23.3491890  99.8610071  24.3491181  24.0906574 100.3995115  24.0726005
  22.6428875 100.4876360  24.5062733  28.8247229 102.0039212  22.9463343
  29.2330585 101.5621622  22.2017975  28.1024491 101.4291839  23.1997536
  25.1778299  96.9411819  20.3196900  26.0239495  97.3651232  20.4631549
  25.1176937  96.2845443  21.0135463  29.1476044 102.5640402  16.7015632
  28.5184906 102.7286117  15.9991699  28.7601706 102.9782012  17.4726596
  33.0265276 103.4994840  14.0559995  32.3416314 103.8793742  13.5057029
  33.1109125 104.1090167  14.7891943  28.3277745  94.6016187  21.9778073
  28.0838677  95.3558247  21.4412349  28.6037675  94.9801534  22.8125320
  30.2816207 101.1454799  20.6555339  30.4933103 101.7886559  19.9789720
  30.2345956 100.3117116  20.1877269  27.8842436  93.7572620  17.5591911
  27.0226915  94.0553873  17.8508649  27.9104871  93.9743019  16.6272944
  24.7004006 102.3014810  13.9665717  25.1642351 102.5802513  13.1770339
  24.4360804 101.3998255  13.7838807  21.5928087 101.8486292  16.9045480
  22.1629444 102.2773560  16.2662964  22.1836199 101.5668877  17.6029666
  22.0853253  97.0149719  25.1506491  21.4551914  97.6966000  25.3841888
  21.9789341  96.9032801  24.2059629  31.3962035 104.0226755  18.8277696
  32.2179479 103.6206942  18.5460378  31.3924438 103.9194989  19.7793812
  25.1618639 103.5710798  20.9838407  25.2263071 104.0331205  21.8196578
  24.4529563 102.9408163  21.1120716  15.6635929  96.9352006  18.5087406
  15.9143967  97.8199016  18.7744982  16.1995477  96.7556607  17.7362498
  39.4868028 100.3665503  15.1762668  38.7331737  99.7972901  15.0206672
  39.6215570 100.3328168  16.1233302  21.3633996  91.3170485  27.5131742
  20.9700942  90.7636684  28.1879386  22.1800136  91.6281064  27.9038260
  24.2801957  92.7328364  25.1051999  25.0211670  93.3335518  25.0256461
  24.5119880  91.9906002  24.5470041  19.4243295  97.9184732  23.3830228
  19.3096810  97.0169989  23.6837327  18.5687813  98.1648428  23.0315045
  26.5035133 105.8602472  24.9817729  26.0598987 105.0738851  24.6638634
  27.1652346 106.0481622  24.3161620  21.2622254 107.3898274  19.5078408
  21.8129679 107.2615337  18.7355401  20.4233730 107.6893163  19.1573300
  28.6016371 106.1405272  23.0099130  28.5834846 106.9614153  22.5179399
  29.5236291 106.0159347  23.2349271  25.0589425 103.6549401  23.8522639
  25.5917762 102.8937690  23.6221947  24.5303506 103.3623053  24.5946793
  28.2259120  88.7609467  19.3816280  27.8823389  89.6511109  19.3055391
  28.5938083  88.5711125  18.5185865  25.7756514  93.5967779  12.9473954
  24.9198110  93.2074630  12.7679593  26.1883466  93.6759740  12.0873739
  27.3055660  91.1314122  17.3465514  26.8020456  91.0944258  16.5333319
  27.5986267  92.0406865  17.4062170  23.5498546  91.2152852  16.3531695
  24.4151543  91.0195661  15.9937585  23.6176055  90.9863204  17.2801052
  33.1643677 101.5050433   9.8241889  32.3873120 101.1661593   9.3797051
  33.8435158 101.5103056   9.1496854  27.9795706  96.6245171   9.7148497
  27.6745842  96.9391320  10.5658640  28.9326148  96.7026590   9.7575830
  31.4034984 100.9784414  16.4808497  30.7458658 101.6683676  16.5688626
  32.2075383 101.3680846  16.8242483  21.1560865  93.4455060  13.7248062
  21.7304617  93.2230242  12.9921255  21.7431848  93.5143755  14.4776664
  30.2140443  99.3328787  14.5312439  30.7272324  99.9658779  15.0334148
  30.8641666  98.7329983  14.1655799  23.4583533  90.3196309  12.4523132
  22.8047945  90.0045326  11.8279746  23.4164007  89.6972050  13.1782955
  26.6921273  96.8078243  16.7770779  25.7743835  97.0293190  16.6192467
  27.1081417  96.8824553  15.9182487  27.4756321  98.2069658  11.9073460
  28.2228140  98.7191055  11.5980582  27.7447911  97.8853711  12.7677853
  30.9802239 104.3134788  12.6591581  30.5264566 103.4725698  12.7156772
  30.3496206 104.9496187  12.9966362  29.9235158  95.2426775  13.8892249
  29.1857915  94.7304161  14.2202491  30.1761932  94.8027156  13.0775526
  29.4235178 106.1511285  13.5941400  29.7158152 106.7116342  12.8753765
  29.9333799 106.4439846  14.3494559  30.0246786  88.0203027  14.4834018
  30.3305663  87.1600390  14.1959933  30.7499391  88.6120647  14.2833012
  24.2967865  98.3156820  14.9910209  24.3516475  97.3630656  14.9152686
  23.4859067  98.4716259  15.4751508  22.2360225  96.9333879  12.7500588
  21.4228091  97.2328050  13.1565780  22.7319220  96.5389568  13.4675070
  27.8334437  97.3975704  21.5815482  28.1883825  97.6247177  22.4409948
  28.4806568  97.7294081  20.9592737  33.5632174 100.5194140  12.2864811
  33.4250073 100.7095736  11.3586000  33.2068393 101.2813523  12.7432862
  21.7274300  94.5052235  18.3661823  22.3673679  94.3640994  17.6684786
  20.8951831  94.2186748  17.9900425  33.5901554 102.5870667  17.2976082
  34.0238060 102.4945956  18.1459137  34.3033134 102.5628167  16.6596098
  27.3229448 106.1872761  18.8309183  27.3766471 106.7563697  19.5986899
  26.4544230 106.3574646  18.4663220  20.2027842  95.8890317  20.3133634
  20.8750895  95.6807679  19.6646283  19.3757628  95.6912403  19.8738867
  34.4517103 102.6294367  19.8308968  34.6452993 103.5340178  20.0768243
  34.3517721 102.1701786  20.6647553  26.1053414  92.5152258  22.3299295
  25.4581329  93.2142208  22.2363772  26.8754429  92.9488402  22.6975543
  29.5132212 102.7801110  25.4049848  29.3617718 102.5511662  24.4879932
  29.5036891 103.7371712  25.4181193  26.2817548 100.3533023  20.3896115
  27.2109608 100.5044182  20.2165082  25.8608578 100.4417044  19.5344761
  25.0805880 104.3783687  18.1594653  24.9416966 104.0102472  19.0320591
  24.2920476 104.8931327  17.9878610  26.6311095 103.7565290  15.5483490
  26.2960928 103.7166060  16.4441140  26.1315041 103.0910006  15.0753901
  20.6055339  99.1632920  21.0736071  20.4675137  98.4313159  21.6747611
  21.5160263  99.0741820  20.7920259  23.2337640  98.8752879  20.5619751
  23.9437258  98.2346072  20.5206370  23.1906948  99.1265774  21.4845932
  31.2224418 105.8120233  23.4826330  31.1636965 105.1279453  22.8156913
  31.6243937 106.5539223  23.0306956  21.9466574  95.8618097  22.3815391
  21.4103931  95.4108836  23.0336987  21.3583282  95.9964006  21.6385855
  31.2241826 103.7759817  21.7140310  30.3368605 103.4385738  21.8366709
  31.7940377 103.0442848  21.9509075  17.6805695  94.9974105  19.4668385
  17.5963884  94.3899774  18.7318795  16.8588401  95.4883123  19.4677881
  24.7542979 108.4361269  18.6801553  24.6813151 109.2416240  19.1920858
  24.3120372 108.6353235  17.8549575  27.8529409  93.4827668  14.8338580
  28.3498108  92.7297631  14.5139650  27.0816390  93.5191985  14.2681789
  35.7059166  99.1868034  16.4756872  35.6949043 100.0692749  16.1050805
  34.8376546  98.8339585  16.2811409  27.2141663 108.3348103  20.8359712
  27.9269635 108.9695568  20.7635613  26.7231691 108.4311969  20.0199714
  28.9359190 102.2399356  12.4077004  28.0015468 102.3600818  12.2381708
  29.1135858 101.3371822  12.1437013  24.4364378  95.6245051  14.5610265
  24.0662165  95.0716092  15.2491170  24.9323470  95.0203185  14.0085265
  32.3231741  98.0816675  12.9427038  32.7892193  98.9144667  12.8687340
  32.7739241  97.6161657  13.6472296  22.2653576 106.0842546  21.6565283
  22.9663036 106.7179029  21.8094677  21.7948691 106.4257278  20.8960922
  30.3907972 104.4260496   9.9413190  30.6667816 104.3117091  10.8507064
  29.5212471 104.0277981   9.9025363  30.2948404  90.4497262  16.9817939
  29.3811483  90.6801489  17.1500146  30.7241505  90.5335706  17.8331971
  30.0654862  98.6387154  19.4817833  29.4126312  98.8863061  18.8270286
  30.4435242  97.8251292  19.1480310  26.1142435  99.3806965  25.9683870
  25.4383072  99.2801094  26.6386245  26.9370069  99.2246179  26.4319867
  24.8565218 110.6873892  20.2041486  25.4083526 110.8505514  20.9690571
  25.1971412 111.2778330  19.5321511  19.8329711  93.0349042  20.8063371
  19.8971038  93.8963873  20.3940769  19.7696832  92.4223044  20.0735729
  19.3081984  95.1072175  24.4536405  19.9354023  94.7249252  25.0673929
  18.4509903  94.8886377  24.8192098  29.7076092 105.5135150  26.0590141
  30.2515996 106.1265108  25.5645095  29.1262937 106.0714728  26.5757154
  27.9933605 108.6355868  17.1905168  27.8684745 107.8345608  16.6816114
  28.6512696 109.1302061  16.7019138  19.6141774  94.9904600  16.3682309
  18.8928359  95.6040568  16.2289782  20.4035029  95.5262365  16.2898954
  30.0568514 106.4364888  18.8184718  29.1098849 106.3170239  18.7463045
  30.4051287 105.5487386  18.9010980  22.4168087  92.3259027  22.6422960
  22.9402489  92.5721323  23.4049270  22.1980420  93.1579062  22.2226098
  27.0614947 106.2317604  15.0189071  26.9139909 105.3034312  15.1996641
  27.8868441 106.2537695  14.5346146  30.6649069 107.0546163  16.1053943
  31.5895616 106.8489024  15.9678394  30.4964372 106.8062564  17.0143285
  23.6220632  93.2672722  20.3272631  23.2817452  92.4680535  20.7293311
  22.9159638  93.5674433  19.7549464  24.2737104  90.3522034  18.7799954
  25.0963173  89.8782513  18.6578844  24.5175167  91.1312518  19.2798640
  27.0576461  94.0855442  10.0121188  27.2740076  94.9680080   9.7110016
  26.5770528  93.6941655   9.2826830  21.7975683  97.0441155  16.5891932
  21.6520263  97.3581458  17.4816214  21.3200886  97.6626055  16.0362831
  23.6572066  94.0343703  16.6372822  23.6433634  93.1384796  16.3005120
  24.3744494  94.0414367  17.2711108  25.5098196  94.4681043  18.6825949
  25.2515974  95.3898114  18.6810280  24.9783237  94.0711478  19.3726414
  30.4544385 107.5731830  11.4616035  30.6281263 107.0078253  10.7089887
  30.9473276 108.3732725  11.2795525  16.2721345  99.5846499  19.5279594
  15.7274813 100.3606307  19.6599868  17.1500695  99.9317304  19.3698715
  23.0608962  92.9158083  11.9060392  23.1824873  91.9874730  12.1051280
  22.7711004  92.9296769  10.9938708  25.9300152  90.6012994  15.0427112
  25.9521849  90.6652327  14.0879092  26.3468211  89.7617502  15.2367618
  36.3083776 100.3368253  13.0806335  36.7514922  99.5875579  12.6825458
  35.4310287 100.3278390  12.6980067  17.0587367  98.7116396  22.4209750
  16.3169103  98.8599031  23.0074381  16.7380111  98.9724661  21.5576500
  33.3410981 104.3398300  10.0900264  33.8662305 104.6785573   9.3649584
  33.2533333 103.4045316   9.9063398  25.0031029 108.2532374  22.2190140
  25.3118156 108.0081521  23.0912840  25.8006511 108.4579012  21.7309011
  22.5450041  94.4290081  26.1150325  22.5938197  95.3052204  25.7328094
  23.0872555  93.8867474  25.5421968  33.0304887 104.9731204  25.3951462
  32.2400430 104.9555343  24.8555961  32.7938241 105.5119498  26.1500498
  33.1502762 101.8223670  22.7084190  33.2000767 101.6573678  23.6499713
  33.0416685 100.9550929  22.3182071  30.4406524  97.8054598  24.0243497
  31.3416387  97.6661063  23.7327495  30.5154499  97.9709053  24.9641675
  24.7749330  95.1821453  22.8696683  23.9052639  95.4755019  22.5979272
  25.0108810  95.7661898  23.5903947  34.6520959 104.2420612  22.9526212
  34.3605767 104.6050592  23.7889673  34.0393090 103.5287620  22.7739544
  35.8516641 101.8073492  15.4728782  36.6863532 102.2463296  15.6366342
  35.9875770 101.3312145  14.6537028  32.9008147  99.3653226  21.4206270
  33.3762268  99.5580873  20.6125121  31.9773712  99.4212412  21.1749654
  27.4788363  91.4001070  20.3862104  27.9970307  92.1362097  20.0608592
  27.1243496  91.7065063  21.2208863  27.7300958  87.8201353  15.9063000
  28.0102711  87.1524542  16.5323427  28.5151564  88.0130448  15.3937664
  31.6009816  96.2418987  19.6534575  32.5527239  96.3417084  19.6746800
  31.4313266  95.4497255  20.1632660  29.6224195  93.3274570  19.8393976
  29.0274127  93.6079583  19.1440465  29.3373892  93.8168471  20.6110718
  34.0797894  99.4625106  18.7676875  34.0474214  98.5241107  18.9536559
  34.6898517  99.5409143  18.0342700  34.2292382  96.2536150  18.8135158
  33.7131431  95.4694606  18.6265087  35.1132331  95.9254866  18.9781678
  31.8903109  89.9977165  14.7730971  31.6927930  89.6892253  15.6574303
  32.5002815  90.7238804  14.9028901  39.8974444 100.5241113  17.9082912
  40.6277832 100.2626401  18.4690615  39.2881389  99.7869835  17.9484980
  37.9789741  98.6648976  18.5057363  37.2522904  98.5304941  17.8973855
  37.5637028  98.9725804  19.3114081  25.8019917 102.3838905  26.2704736
  26.7222927 102.5617504  26.4644783  25.7669500 101.4394951  26.1184435
  18.7981990 100.2939940  18.9127517  19.0167999 101.2257048  18.9315551
  19.2107763  99.9347914  19.6982321  25.7186207  90.8008025  10.9003206
  24.9086936  90.4555110  11.2758452  26.4070624  90.4915569  11.4890817
  27.6476756  89.8786072  12.5227502  28.2007794  90.2981526  13.1817525
  27.8846842  88.9521820  12.5650458  23.6709855  95.8673146  28.3030266
  23.5706582  96.8167503  28.2342357  23.4531397  95.5391385  27.4306336
  31.0255563  91.9886597  12.0306167  30.4454232  92.6471401  11.6484219
  30.7591495  91.1663942  11.6193584  29.4759129  91.3891655  14.2327487
  29.9758907  91.5008190  13.4241806  30.1194737  91.0852708  14.8728295
  23.5341125  99.2970285  27.1195328  23.0508207 100.0970645  27.3259217
  23.6202064  99.3078230  26.1662772  19.4614462 103.1874819  19.1563762
  20.4157716 103.1558762  19.0893693  19.2626986 102.7265443  19.9713988
  20.0513845 101.7575935  21.7234559  20.8706734 102.2520014  21.7469397
  20.3250652 100.8407904  21.6952127  29.8080441  94.1486688  11.0862515
  28.9206296  94.4336338  10.8682710  30.2234430  93.9880451  10.2389792
  33.1594977  94.1733209  14.8016854  33.9355367  94.6629661  15.0741471
  32.4343111  94.5991263  15.2588724  35.5967536  94.8860828  15.8590795
  36.1912026  94.6456564  15.1484103  35.6694119  94.1667958  16.4864331
  29.7821465  99.6641224  11.3012805  29.7256666 100.1209775  10.4620437
  30.3349807  98.9031908  11.1235648  33.5926270  95.4530955  12.1262925
  33.3363205  95.0527591  12.9571132  32.9679138  96.1674749  12.0013064
  37.9038608  98.1927029  14.6334216  37.3438166  98.2620218  15.4065778
  37.2982112  98.0168013  13.9133712  30.5156244 100.8546005   8.5965334
  30.4605048 100.6890276   7.6553778  29.8902299 101.5622038   8.7527524
  15.3048759  96.0914069  22.4226756  15.9507622  95.5813023  22.9113982
  15.0965910  96.8282751  22.9970182  27.8302151 103.1594917  27.9218897
  28.6993311 103.3335569  27.5605532  27.3508902 103.9789334  27.7994626
  23.8252369  90.3554114   8.1750653  23.8131039  91.2995954   8.3318923
  24.7175791  90.1724259   7.8810114  21.9988331 110.2792018  19.6008331
  22.9015578 110.3115628  19.9174826  21.7725701 109.3492469  19.6154666
  27.6404489  86.9496891  12.4296589  26.8736885  86.3955377  12.5753272
  28.0515194  87.0218759  13.2910741  19.6446250  93.2381686  26.5201771
  20.5077711  92.8818491  26.7305095  19.0711660  92.8995581  27.2077175
  39.4894627 114.8683543  17.3264172  40.1273037 114.7490290  16.6227512
  39.3715470 115.8164387  17.3852124  36.2984333 114.8210971  17.2625696
  35.9602845 114.7052035  16.3746231  37.1674101 114.4202136  17.2426702
  36.7804116 115.9745823  23.2211902  36.7692757 115.5798621  22.3492406
  36.9424755 115.2411895  23.8145673  33.5011377 118.7582934  22.1691086
  33.2101243 119.6628565  22.0537752  34.1368362 118.7999462  22.8835155
  34.4267584 116.1359783  18.7592445  35.0231156 115.9115805  18.0449408
  34.4842556 115.3944528  19.3617893  39.0435895 112.5934997  14.4017380
  39.8298984 112.1754420  14.0507797  39.3074600 113.4981089  14.5699028
  44.4444322 112.5310230  15.3050358  45.1769494 111.9609447  15.5388188
  43.6883678 112.1431830  15.7456864  36.0620442 114.9537471  12.5013701
  35.6978649 114.4268092  13.2126622  36.9187558 114.5635940  12.3280186
  41.9669743 106.2431804  19.7644967  41.6353067 107.1127215  19.5406182
  41.3715356 105.9268088  20.4438997  38.4601262 118.4444350  19.1640880
  38.1601985 119.3469389  19.0556687  38.1152322 118.1776533  20.0162032
  31.9113744 114.8958147  15.1977584  30.9864240 114.7634361  15.4055276
  32.1598157 115.6752366  15.6947526  41.8598406 110.9626890  16.8438317
  40.9515283 110.8942298  16.5497078  41.8086002 111.4398835  17.6720142
  35.9339272 112.3816536  24.7873214  35.1572606 112.9410456  24.7776079
  36.5729835 112.8673319  25.3088084  43.7260052 109.1643328  18.6216191
  43.0834433 109.4575862  17.9755985  43.2214981 109.0496249  19.4269387
  41.3800216 112.9106502   9.3102050  42.2918072 113.1433888   9.1349748
  40.8709863 113.4943546   8.7477129  34.1885644 115.1901989  24.3491181
  34.9300328 115.7287033  24.0726005  33.4822630 115.8168278  24.5062733
  39.6640984 117.3331129  22.9463343  40.0724340 116.8913540  22.2017975
  38.9418245 116.7583757  23.1997536  36.0172054 112.2703736  20.3196900
  36.8633249 112.6943150  20.4631549  35.9570691 111.6137361  21.0135463
  39.9869798 117.8932320  16.7015632  39.3578661 118.0578034  15.9991699
  39.5995460 118.3073930  17.4726596  43.8659030 118.8286758  14.0559995
  43.1810068 119.2085659  13.5057029  43.9502880 119.4382085  14.7891943
  39.1671499 109.9308105  21.9778073  38.9232431 110.6850165  21.4412349
  39.4431430 110.3093452  22.8125320  41.1209962 116.4746717  20.6555339
  41.3326857 117.1178477  19.9789720  41.0739710 115.6409033  20.1877269
  38.7236191 109.0864538  17.5591911  37.8620670 109.3845791  17.8508649
  38.7498626 109.3034936  16.6272944  35.5397760 117.6306728  13.9665717
  36.0036106 117.9094431  13.1770339  35.2754558 116.7290173  13.7838807
  32.4321841 117.1778210  16.9045480  33.0023198 117.6065478  16.2662964
  33.0229953 116.8960794  17.6029666  32.9247008 112.3441637  25.1506491
  32.2945668 113.0257918  25.3841888  32.8183096 112.2324719  24.2059629
  42.2355790 119.3518672  18.8277696  43.0573234 118.9498860  18.5460378
  42.2318193 119.2486907  19.7793812  36.0012393 118.9002716  20.9838407
  36.0656826 119.3623123  21.8196578  35.2923317 118.2700081  21.1120716
  26.5029683 112.2643924  18.5087406  26.7537722 113.1490934  18.7744982
  27.0389232 112.0848525  17.7362498  50.3261783 115.6957421  15.1762668
  49.5725491 115.1264819  15.0206672  50.4609324 115.6620085  16.1233302
  32.2027751 106.6462403  27.5131742  31.8094696 106.0928602  28.1879386
  33.0193891 106.9572981  27.9038260  35.1195712 108.0620282  25.1051999
  35.8605425 108.6627435  25.0256461  35.3513634 107.3197920  24.5470041
  30.2637050 113.2476649  23.3830228  30.1490565 112.3461907  23.6837327
  29.4081567 113.4940346  23.0315045  37.3428887 121.1894390  24.9817729
  36.8992742 120.4030768  24.6638634  38.0046101 121.3773540  24.3161620
  32.1016009 122.7190191  19.5078408  32.6523434 122.5907255  18.7355401
  31.2627484 123.0185080  19.1573300  39.4410125 121.4697190  23.0099130
  39.4228601 122.2906071  22.5179399  40.3630045 121.3451265  23.2349271
  35.8983180 118.9841319  23.8522639  36.4311516 118.2229607  23.6221947
  35.3697261 118.6914971  24.5946793  39.0652875 104.0901385  19.3816280
  38.7217144 104.9803027  19.3055391  39.4331837 103.9003043  18.5185865
  36.6150268 108.9259697  12.9473954  35.7591865 108.5366547  12.7679593
  37.0277220 109.0051658  12.0873739  38.1449415 106.4606040  17.3465514
  37.6414211 106.4236175  16.5333319  38.4380022 107.3698783  17.4062170
  34.3892301 106.5444770  16.3531695  35.2545298 106.3487579  15.9937585
  34.4569810 106.3155122  17.2801052  44.0037431 116.8342351   9.8241889
  43.2266874 116.4953510   9.3797051  44.6828912 116.8394974   9.1496854
  38.8189460 111.9537088   9.7148497  38.5139596 112.2683237  10.5658640
  39.7719903 112.0318508   9.7575830  42.2428738 116.3076332  16.4808497
  41.5852413 116.9975593  16.5688626  43.0469138 116.6972764  16.8242483
  31.9954620 108.7746978  13.7248062  32.5698372 108.5522159  12.9921255
  32.5825602 108.8435672  14.4776664  41.0534197 114.6620705  14.5312439
  41.5666079 115.2950697  15.0334148  41.7035421 114.0621900  14.1655799
  34.2977288 105.6488227  12.4523132  33.6441700 105.3337244  11.8279746
  34.2557762 105.0263967  13.1782955  37.5315028 112.1370160  16.7770779
  36.6137589 112.3585107  16.6192467  37.9475172 112.2116471  15.9182487
  38.3150076 113.5361576  11.9073460  39.0621895 114.0482973  11.5980582
  38.5841665 113.2145629  12.7677853  41.8195993 119.6426706  12.6591581
  41.3658320 118.8017616  12.7156772  41.1889960 120.2788105  12.9966362
  40.7628913 110.5718692  13.8892249  40.0251670 110.0596078  14.2202491
  41.0155686 110.1319074  13.0775526  40.2628933 121.4803203  13.5941400
  40.5551907 122.0408260  12.8753765  40.7727553 121.7731764  14.3494559
  40.8640540 103.3494944  14.4834018  41.1699417 102.4892308  14.1959933
  41.5893145 103.9412564  14.2833012  35.1361620 113.6448737  14.9910209
  35.1910230 112.6922574  14.9152686  34.3252822 113.8008176  15.4751508
  33.0753980 112.2625797  12.7500588  32.2621845 112.5619968  13.1565780
  33.5712974 111.8681486  13.4675070  38.6728192 112.7267621  21.5815482
  39.0277579 112.9539095  22.4409948  39.3200323 113.0585998  20.9592737
  44.4025928 115.8486057  12.2864811  44.2643827 116.0387653  11.3586000
  44.0462147 116.6105440  12.7432862  32.5668055 109.8344153  18.3661823
  33.2067434 109.6932912  17.6684786  31.7345585 109.5478666  17.9900425
  44.4295308 117.9162584  17.2976082  44.8631815 117.8237873  18.1459137
  45.1426889 117.8920085  16.6596098  38.1623203 121.5164678  18.8309183
  38.2160225 122.0855615  19.5986899  37.2937984 121.6866564  18.4663220
  31.0421596 111.2182235  20.3133634  31.7144650 111.0099597  19.6646283
  30.2151383 111.0204321  19.8738867  45.2910858 117.9586285  19.8308968
  45.4846748 118.8632096  20.0768243  45.1911476 117.4993704  20.6647553
  36.9447168 107.8444176  22.3299295  36.2975083 108.5434125  22.2363772
  37.7148184 108.2780320  22.6975543  40.3525966 118.1093028  25.4049848
  40.2011473 117.8803579  24.4879932  40.3430646 119.0663629  25.4181193
  37.1211303 115.6824941  20.3896115  38.0503363 115.8336100  20.2165082
  36.7002333 115.7708961  19.5344761  35.9199635 119.7075605  18.1594653
  35.7810720 119.3394389  19.0320591  35.1314231 120.2223244  17.9878610
  37.4704850 119.0857208  15.5483490  37.1354682 119.0457978  16.4441140
  36.9708795 118.4201924  15.0753901  31.4449094 114.4924838  21.0736071
  31.3068892 113.7605076  21.6747611  32.3554017 114.4033738  20.7920259
  34.0731394 114.2044797  20.5619751  34.7831013 113.5637989  20.5206370
  34.0300702 114.4557692  21.4845932  42.0618173 121.1412150  23.4826330
  42.0030719 120.4571370  22.8156913  42.4637691 121.8831140  23.0306956
  32.7860328 111.1910015  22.3815391  32.2497685 110.7400753  23.0336987
  32.1977037 111.3255924  21.6385855  42.0635580 119.1051734  21.7140310
  41.1762359 118.7677656  21.8366709  42.6334131 118.3734766  21.9509075
  28.5199449 110.3266023  19.4668385  28.4357638 109.7191692  18.7318795
  27.6982156 110.8175041  19.4677881  35.5936734 123.7653187  18.6801553
  35.5206905 124.5708158  19.1920858  35.1514127 123.9645152  17.8549575
  38.6923163 108.8119586  14.8338580  39.1891863 108.0589548  14.5139650
  37.9210145 108.8483903  14.2681789  46.5452921 114.5159952  16.4756872
  46.5342797 115.3984667  16.1050805  45.6770300 114.1631502  16.2811409
  38.0535417 123.6640021  20.8359712  38.7663389 124.2987485  20.7635613
  37.5625446 123.7603887  20.0199714  39.7752944 117.5691273  12.4077004
  38.8409223 117.6892736  12.2381708  39.9529613 116.6663740  12.1437013
  35.2758132 110.9536969  14.5610265  34.9055920 110.4008009  15.2491170
  35.7717225 110.3495103  14.0085265  43.1625495 113.4108593  12.9427038
  43.6285948 114.2436584  12.8687340  43.6132996 112.9453574  13.6472296
  33.1047331 121.4134464  21.6565283  33.8056790 122.0470947  21.8094677
  32.6342446 121.7549196  20.8960922  41.2301727 119.7552414   9.9413190
  41.5061570 119.6409008  10.8507064  40.3606225 119.3569899   9.9025363
  41.1342158 105.7789180  16.9817939  40.2205238 106.0093406  17.1500146
  41.5635260 105.8627624  17.8331971  40.9048617 113.9679072  19.4817833
  40.2520067 114.2154979  18.8270286  41.2828997 113.1543210  19.1480310
  36.9536190 114.7098883  25.9683870  36.2776827 114.6093012  26.6386245
  37.7763824 114.5538096  26.4319867  35.6958973 126.0165810  20.2041486
  36.2477281 126.1797432  20.9690571  36.0365166 126.6070248  19.5321511
  30.6723466 108.3640960  20.8063371  30.7364792 109.2255791  20.3940769
  30.6090586 107.7514962  20.0735729  30.1475738 110.4364092  24.4536405
  30.7747777 110.0541170  25.0673929  29.2903657 110.2178294  24.8192098
  40.5469847 120.8427068  26.0590141  41.0909751 121.4557026  25.5645095
  39.9656692 121.4006646  26.5757154  38.8327360 123.9647786  17.1905168
  38.7078499 123.1637525  16.6816114  39.4906451 124.4593979  16.7019138
  30.4535528 110.3196518  16.3682309  29.7322114 110.9332486  16.2289782
  31.2428784 110.8554283  16.2898954  40.8962268 121.7656806  18.8184718
  39.9492604 121.6462157  18.7463045  41.2445041 120.8779304  18.9010980
  33.2561842 107.6550945  22.6422960  33.7796243 107.9013241  23.4049270
  33.0374175 108.4870979  22.2226098  37.9008702 121.5609522  15.0189071
  37.7533664 120.6326229  15.1996641  38.7262195 121.5829613  14.5346146
  41.5042823 122.3838081  16.1053943  42.4289371 122.1780942  15.9678394
  41.3358127 122.1354482  17.0143285  34.4614387 108.5964640  20.3272631
  34.1211207 107.7972453  20.7293311  33.7553393 108.8966351  19.7549464
  35.1130858 105.6813952  18.7799954  35.9356928 105.2074430  18.6578844
  35.3568922 106.4604436  19.2798640  37.8970216 109.4147360  10.0121188
  38.1133830 110.2971997   9.7110016  37.4164283 109.0233573   9.2826830
  32.6369437 112.3733073  16.5891932  32.4914018 112.6873376  17.4816214
  32.1594641 112.9917973  16.0362831  34.4965820 109.3635621  16.6372822
  34.4827389 108.4676714  16.3005120  35.2138248 109.3706285  17.2711108
  36.3491951 109.7972961  18.6825949  36.0909729 110.7190032  18.6810280
  35.8176991 109.4003395  19.3726414  41.2938140 122.9023748  11.4616035
  41.4675017 122.3370171  10.7089887  41.7867031 123.7024643  11.2795525
  27.1115099 114.9138417  19.5279594  26.5668567 115.6898225  19.6599868
  27.9894449 115.2609222  19.3698715  33.9002716 108.2450001  11.9060392
  34.0218627 107.3166647  12.1051280  33.6104758 108.2588687  10.9938708
  36.7693906 105.9304911  15.0427112  36.7915603 105.9944245  14.0879092
  37.1861965 105.0909420  15.2367618  47.1477531 115.6660171  13.0806335
  47.5908677 114.9167496  12.6825458  46.2704041 115.6570307  12.6980067
  27.8981121 114.0408313  22.4209750  27.1562857 114.1890949  23.0074381
  27.5773866 114.3016579  21.5576500  44.1804735 119.6690218  10.0900264
  44.7056059 120.0077491   9.3649584  44.0927088 118.7337233   9.9063398
  35.8424784 123.5824292  22.2190140  36.1511910 123.3373438  23.0912840
  36.6400266 123.7870930  21.7309011  33.3843796 109.7581998  26.1150325
  33.4331951 110.6344121  25.7328094  33.9266310 109.2159391  25.5421968
  43.8698641 120.3023122  25.3951462  43.0794185 120.2847261  24.8555961
  43.6331996 120.8411415  26.1500498  43.9896516 117.1515588  22.7084190
  44.0394521 116.9865595  23.6499713  43.8810440 116.2842847  22.3182071
  41.2800279 113.1346516  24.0243497  42.1810141 112.9952981  23.7327495
  41.3548253 113.3000971  24.9641675  35.6143084 110.5113371  22.8696683
  34.7446393 110.8046937  22.5979272  35.8502564 111.0953816  23.5903947
  45.4914713 119.5712530  22.9526212  45.1999521 119.9342510  23.7889673
  44.8786844 118.8579538  22.7739544  46.6910395 117.1365409  15.4728782
  47.5257287 117.5755213  15.6366342  46.8269524 116.6604063  14.6537028
  43.7401901 114.6945144  21.4206270  44.2156023 114.8872790  20.6125121
  42.8167467 114.7504330  21.1749654  38.3182118 106.7292988  20.3862104
  38.8364062 107.4654015  20.0608592  37.9637251 107.0356981  21.2208863
  38.5694712 103.1493270  15.9063000  38.8496466 102.4816459  16.5323427
  39.3545319 103.3422366  15.3937664  42.4403570 111.5710904  19.6534575
  43.3920993 111.6709002  19.6746800  42.2707021 110.7789173  20.1632660
  40.4617950 108.6566487  19.8393976  39.8667882 108.9371500  19.1440465
  40.1767647 109.1460388  20.6110718  44.9191648 114.7917024  18.7676875
  44.8867968 113.8533025  18.9536559  45.5292272 114.8701061  18.0342700
  45.0686137 111.5828067  18.8135158  44.5525185 110.7986524  18.6265087
  45.9526085 111.2546784  18.9781678  42.7296864 105.3269083  14.7730971
  42.5321685 105.0184171  15.6574303  43.3396569 106.0530722  14.9028901
  50.7368198 115.8533031  17.9082912  51.4671586 115.5918319  18.4690615
  50.1275143 115.1161753  17.9484980  48.8183495 113.9940893  18.5057363
  48.0916659 113.8596858  17.8973855  48.4030782 114.3017722  19.3114081
  36.6413672 117.7130823  26.2704736  37.5616681 117.8909422  26.4644783
  36.6063255 116.7686868  26.1184435  29.6375744 115.6231858  18.9127517
  29.8561754 116.5548966  18.9315551  30.0501518 115.2639832  19.6982321
  36.5579962 106.1299943  10.9003206  35.7480690 105.7847028  11.2758452
  37.2464379 105.8207487  11.4890817  38.4870510 105.2077990  12.5227502
  39.0401549 105.6273443  13.1817525  38.7240597 104.2813738  12.5650458
  34.5103609 111.1965063  28.3030266  34.4100336 112.1459420  28.2342357
  34.2925151 110.8683302  27.4306336  41.8649317 107.3178515  12.0306167
  41.2847986 107.9763319  11.6484219  41.5985250 106.4955860  11.6193584
  40.3152884 106.7183573  14.2327487  40.8152662 106.8300107  13.4241806
  40.9588492 106.4144626  14.8728295  34.3734879 114.6262202  27.1195328
  33.8901961 115.4262562  27.3259217  34.4595818 114.6370147  26.1662772
  30.3008217 118.5166737  19.1563762  31.2551470 118.4850679  19.0893693
  30.1020741 118.0557361  19.9713988  30.8907599 117.0867853  21.7234559
  31.7100488 117.5811932  21.7469397  31.1644407 116.1699821  21.6952127
  40.6474195 109.4778605  11.0862515  39.7600050 109.7628256  10.8682710
  41.0628184 109.3172369  10.2389792  43.9988731 109.5025126  14.8016854
  44.7749122 109.9921579  15.0741471  43.2736866 109.9283181  15.2588724
  46.4361290 110.2152746  15.8590795  47.0305781 109.9748482  15.1484103
  46.5087874 109.4959876  16.4864331  40.6215219 114.9933141  11.3012805
  40.5650420 115.4501693  10.4620437  41.1743561 114.2323826  11.1235648
  44.4320025 110.7822873  12.1262925  44.1756959 110.3819509  12.9571132
  43.8072893 111.4966667  12.0013064  48.7432363 113.5218946  14.6334216
  48.1831921 113.5912136  15.4065778  48.1375866 113.3459931  13.9133712
  41.3549998 116.1837923   8.5965334  41.2998802 116.0182194   7.6553778
  40.7296054 116.8913955   8.7527524  26.1442513 111.4205987  22.4226756
  26.7901377 110.9104941  22.9113982  25.9359664 112.1574669  22.9970182
  38.6695906 118.4886834  27.9218897  39.5387065 118.6627487  27.5605532
  38.1902657 119.3081251  27.7994626  34.6646124 105.6846032   8.1750653
  34.6524794 106.6287871   8.3318923  35.5569546 105.5016177   7.8810114
  32.8382086 125.6083935  19.6008331  33.7409332 125.6407546  19.9174826
  32.6119456 124.6784386  19.6154666  38.4798243 102.2788808  12.4296589
  37.7130639 101.7247295  12.5753272  38.8908948 102.3510677  13.2910741
  30.4840004 108.5673604  26.5201771  31.3471466 108.2110409  26.7305095
  29.9105415 108.2287499  27.2077175  50.3288381 130.1975460  17.3264172
  50.9666791 130.0782208  16.6227512  50.2109224 131.1456304  17.3852124
  47.1378088 130.1502888  17.2625696  46.7996599 130.0343953  16.3746231
  48.0067856 129.7494054  17.2426702  47.6197871 131.3037740  23.2211902
  47.6086511 130.9090538  22.3492406  47.7818510 130.5703813  23.8145673
  45.2661339 131.4651701  18.7592445  45.8624911 131.2407723  18.0449408
  45.3236310 130.7236446  19.3617893  49.8829650 127.9226914  14.4017380
  50.6692739 127.5046337  14.0507797  50.1468354 128.8273006  14.5699028
  55.2838077 127.8602147  15.3050358  56.0163249 127.2901364  15.5388188
  54.5277433 127.4723748  15.7456864  46.9014197 130.2829389  12.5013701
  46.5372404 129.7560010  13.2126622  47.7581312 129.8927858  12.3280186
  52.8063497 121.5723722  19.7644967  52.4746822 122.4419132  19.5406182
  52.2109111 121.2560006  20.4438997  49.2995017 133.7736268  19.1640880
  48.9995740 134.6761306  19.0556687  48.9546076 133.5068451  20.0162032
  42.7507498 130.2250064  15.1977584  41.8257995 130.0926278  15.4055276
  42.9991911 131.0044284  15.6947526  52.6992161 126.2918808  16.8438317
  51.7909038 126.2234216  16.5497078  52.6479756 126.7690753  17.6720142
  46.7733026 127.7108453  24.7873214  45.9966360 128.2702373  24.7776079
  47.4123589 128.1965236  25.3088084  54.5653807 124.4935246  18.6216191
  53.9228187 124.7867779  17.9755985  54.0608735 124.3788166  19.4269387
  45.0279399 130.5193907  24.3491181  45.7694083 131.0578951  24.0726005
  44.3216384 131.1460195  24.5062733  50.5034738 132.6623047  22.9463343
  50.9118094 132.2205458  22.2017975  49.7812000 132.0875675  23.1997536
  46.8565808 127.5995654  20.3196900  47.7027004 128.0235067  20.4631549
  46.7964446 126.9429278  21.0135463  50.8263553 133.2224238  16.7015632
  50.1972415 133.3869952  15.9991699  50.4389215 133.6365847  17.4726596
  50.0065254 125.2600022  21.9778073  49.7626186 126.0142083  21.4412349
  50.2825184 125.6385370  22.8125320  51.9603716 131.8038635  20.6555339
  52.1720612 132.4470394  19.9789720  51.9133465 130.9700951  20.1877269
  49.5629945 124.4156455  17.5591911  48.7014424 124.7137709  17.8508649
  49.5892380 124.6326854  16.6272944  46.3791515 132.9598646  13.9665717
  46.8429860 133.2386349  13.1770339  46.1148313 132.0582090  13.7838807
  43.7640762 127.6733555  25.1506491  43.1339423 128.3549836  25.3841888
  43.6576850 127.5616636  24.2059629  53.0749544 134.6810590  18.8277696
  53.8966988 134.2790777  18.5460378  53.0711947 134.5778824  19.7793812
  37.3423438 127.5935841  18.5087406  37.5931476 128.4782851  18.7744982
  37.8782986 127.4140443  17.7362498  43.0421505 121.9754321  27.5131742
  42.6488451 121.4220519  28.1879386  43.8587645 122.2864899  27.9038260
  45.9589466 123.3912200  25.1051999  46.6999179 123.9919353  25.0256461
  46.1907389 122.6489838  24.5470041  41.1030804 128.5768567  23.3830228
  40.9884319 127.6753824  23.6837327  40.2475322 128.8232264  23.0315045
  49.9046629 119.4193303  19.3816280  49.5610898 120.3094944  19.3055391
  50.2725592 119.2294960  18.5185865  47.4544023 124.2551615  12.9473954
  46.5985619 123.8658465  12.7679593  47.8670975 124.3343575  12.0873739
  48.9843169 121.7897958  17.3465514  48.4807965 121.7528093  16.5333319
  49.2773776 122.6990701  17.4062170  45.2286055 121.8736688  16.3531695
  46.0939052 121.6779496  15.9937585  45.2963564 121.6447039  17.2801052
  53.0822493 131.6368250  16.4808497  52.4246167 132.3267511  16.5688626
  53.8862892 132.0264682  16.8242483  42.8348374 124.1038895  13.7248062
  43.4092126 123.8814077  12.9921255  43.4219357 124.1727590  14.4776664
  51.8927952 129.9912622  14.5312439  52.4059833 130.6242614  15.0334148
  52.5429175 129.3913818  14.1655799  45.1371042 120.9780144  12.4523132
  44.4835454 120.6629162  11.8279746  45.0951516 120.3555885  13.1782955
  48.3708782 127.4662078  16.7770779  47.4531344 127.6877025  16.6192467
  48.7868926 127.5408388  15.9182487  51.6022667 125.9010610  13.8892249
  50.8645424 125.3887996  14.2202491  51.8549441 125.4610991  13.0775526
  51.7034295 118.6786862  14.4834018  52.0093171 117.8184225  14.1959933
  52.4286899 119.2704482  14.2833012  45.9755374 128.9740655  14.9910209
  46.0303984 128.0214491  14.9152686  45.1646576 129.1300094  15.4751508
  43.9147734 127.5917715  12.7500588  43.1015600 127.8911885  13.1565780
  44.4106729 127.1973403  13.4675070  49.5121946 128.0559539  21.5815482
  49.8671334 128.2831012  22.4409948  50.1594077 128.3877916  20.9592737
  43.4061809 125.1636070  18.3661823  44.0461188 125.0224829  17.6684786
  42.5739340 124.8770584  17.9900425  41.8815351 126.5474152  20.3133634
  42.5538404 126.3391515  19.6646283  41.0545137 126.3496238  19.8738867
  56.1304612 133.2878203  19.8308968  56.3240502 134.1924013  20.0768243
  56.0305230 132.8285622  20.6647553  47.7840923 123.1736093  22.3299295
  47.1368838 123.8726043  22.2363772  48.5541938 123.6072237  22.6975543
  51.1919721 133.4384945  25.4049848  51.0405227 133.2095497  24.4879932
  51.1824400 134.3955547  25.4181193  47.9605057 131.0116858  20.3896115
  48.8897117 131.1628018  20.2165082  47.5396087 131.1000879  19.5344761
  42.2842848 129.8216755  21.0736071  42.1462646 129.0896994  21.6747611
  43.1947772 129.7325655  20.7920259  44.9125149 129.5336715  20.5619751
  45.6224767 128.8929907  20.5206370  44.8694457 129.7849610  21.4845932
  43.6254083 126.5201933  22.3815391  43.0891440 126.0692671  23.0336987
  43.0370791 126.6547841  21.6385855  52.9029335 134.4343652  21.7140310
  52.0156113 134.0969574  21.8366709  53.4727886 133.7026683  21.9509075
  39.3593204 125.6557940  19.4668385  39.2751393 125.0483610  18.7318795
  38.5375910 126.1466959  19.4677881  49.5316918 124.1411504  14.8338580
  50.0285617 123.3881466  14.5139650  48.7603899 124.1775820  14.2681789
  57.3846675 129.8451869  16.4756872  57.3736552 130.7276585  16.1050805
  56.5164055 129.4923420  16.2811409  46.1151887 126.2828887  14.5610265
  45.7449674 125.7299927  15.2491170  46.6110979 125.6787020  14.0085265
  51.9735913 121.1081097  16.9817939  51.0598992 121.3385324  17.1500146
  52.4029014 121.1919541  17.8331971  51.7442371 129.2970989  19.4817833
  51.0913821 129.5446897  18.8270286  52.1222751 128.4835127  19.1480310
  47.7929944 130.0390800  25.9683870  47.1170581 129.9384930  26.6386245
  48.6157578 129.8830014  26.4319867  41.5117220 123.6932878  20.8063371
  41.5758547 124.5547708  20.3940769  41.4484341 123.0806879  20.0735729
  40.9869493 125.7656010  24.4536405  41.6141532 125.3833087  25.0673929
  40.1297412 125.5470212  24.8192098  41.2929283 125.6488436  16.3682309
  40.5715868 126.2624403  16.2289782  42.0822538 126.1846201  16.2898954
  44.0955596 122.9842862  22.6422960  44.6189998 123.2305159  23.4049270
  43.8767929 123.8162897  22.2226098  45.3008141 123.9256557  20.3272631
  44.9604961 123.1264370  20.7293311  44.5947147 124.2258268  19.7549464
  45.9524613 121.0105870  18.7799954  46.7750682 120.5366348  18.6578844
  46.1962676 121.7896354  19.2798640  48.7363970 124.7439277  10.0121188
  48.9527585 125.6263915   9.7110016  48.2558037 124.3525491   9.2826830
  43.4763192 127.7024990  16.5891932  43.3307772 128.0165294  17.4816214
  42.9988395 128.3209891  16.0362831  45.3359575 124.6927538  16.6372822
  45.3221143 123.7968632  16.3005120  46.0532003 124.6998202  17.2711108
  47.1885705 125.1264879  18.6825949  46.9303483 126.0481949  18.6810280
  46.6570746 124.7295313  19.3726414  44.7396471 123.5741919  11.9060392
  44.8612382 122.6458565  12.1051280  44.4498513 123.5880605  10.9938708
  47.6087661 121.2596829  15.0427112  47.6309358 121.3236162  14.0879092
  48.0255720 120.4201338  15.2367618  38.7374876 129.3700231  22.4209750
  37.9956612 129.5182866  23.0074381  38.4167620 129.6308497  21.5576500
  44.2237550 125.0873916  26.1150325  44.2725706 125.9636039  25.7328094
  44.7660064 124.5451309  25.5421968  54.7092396 135.6315039  25.3951462
  53.9187939 135.6139178  24.8555961  54.4725750 136.1703333  26.1500498
  54.8290271 132.4807506  22.7084190  54.8788276 132.3157513  23.6499713
  54.7204194 131.6134765  22.3182071  52.1194033 128.4638434  24.0243497
  53.0203896 128.3244899  23.7327495  52.1942008 128.6292889  24.9641675
  46.4536838 125.8405288  22.8696683  45.5840148 126.1338855  22.5979272
  46.6896319 126.4245733  23.5903947  56.3308468 134.9004447  22.9526212
  56.0393276 135.2634428  23.7889673  55.7180599 134.1871456  22.7739544
  54.5795656 130.0237062  21.4206270  55.0549777 130.2164708  20.6125121
  53.6561221 130.0796248  21.1749654  49.1575872 122.0584905  20.3862104
  49.6757816 122.7945932  20.0608592  48.8031005 122.3648899  21.2208863
  49.4088466 118.4785188  15.9063000  49.6890220 117.8108377  16.5323427
  50.1939073 118.6714284  15.3937664  53.2797325 126.9002822  19.6534575
  54.2314748 127.0000920  19.6746800  53.1100775 126.1081090  20.1632660
  51.3011704 123.9858405  19.8393976  50.7061636 124.2663418  19.1440465
  51.0161401 124.4752306  20.6110718  55.7585403 130.1208942  18.7676875
  55.7261723 129.1824942  18.9536559  56.3686026 130.1992978  18.0342700
  55.9079891 126.9119985  18.8135158  55.3918940 126.1278442  18.6265087
  56.7919840 126.5838702  18.9781678  53.5690618 120.6561001  14.7730971
  53.3715439 120.3476089  15.6574303  54.1790324 121.3822640  14.9028901
  61.5761952 131.1824948  17.9082912  62.3065341 130.9210237  18.4690615
  60.9668898 130.4453670  17.9484980  59.6577250 129.3232811  18.5057363
  58.9310413 129.1888776  17.8973855  59.2424536 129.6309640  19.3114081
  47.4807426 133.0422741  26.2704736  48.4010435 133.2201340  26.4644783
  47.4457009 132.0978786  26.1184435  47.3973716 121.4591861  10.9003206
  46.5874445 121.1138946  11.2758452  48.0858133 121.1499404  11.4890817
  49.3264265 120.5369908  12.5227502  49.8795303 120.9565361  13.1817525
  49.5634351 119.6105656  12.5650458  45.3497364 126.5256981  28.3030266
  45.2494091 127.4751338  28.2342357  45.1318906 126.1975220  27.4306336
  52.7043072 122.6470433  12.0306167  52.1241741 123.3055237  11.6484219
  52.4379004 121.8247777  11.6193584  51.1546638 122.0475490  14.2327487
  51.6546416 122.1592025  13.4241806  51.7982246 121.7436543  14.8728295
  45.2128634 129.9554120  27.1195328  44.7295716 130.7554480  27.3259217
  45.2989573 129.9662065  26.1662772  51.4867950 124.8070523  11.0862515
  50.5993805 125.0920174  10.8682710  51.9021939 124.6464286  10.2389792
  54.8382486 124.8317044  14.8016854  55.6142876 125.3213496  15.0741471
  54.1130620 125.2575098  15.2588724  57.2755045 125.5444663  15.8590795
  57.8699535 125.3040399  15.1484103  57.3481628 124.8251794  16.4864331
  36.9836268 126.7497905  22.4226756  37.6295131 126.2396859  22.9113982
  36.7753419 127.4866586  22.9970182  49.5089660 133.8178752  27.9218897
  50.3780820 133.9919404  27.5605532  49.0296411 134.6373169  27.7994626
  45.5039878 121.0137949   8.1750653  45.4918548 121.9579789   8.3318923
  46.3963300 120.8308095   7.8810114  49.3191998 117.6080726  12.4296589
  48.5524394 117.0539213  12.5753272  49.7302703 117.6802595  13.2910741
  41.3233759 123.8965522  26.5201771  42.1865220 123.5402327  26.7305095
  40.7499169 123.5579417  27.2077175  15.6641380  67.5372677  11.7063036
  15.2205234  66.7509055  11.3883940  16.3258593  67.7251827  11.0406926
  17.7622618  67.8175477   9.7344437  17.7441093  68.6384358   9.2424706
  18.6842538  67.6929552   9.9594578  14.2195672  65.3319606  10.5767945
  14.7524009  64.5707894  10.3467253  13.6909753  65.0393258  11.3192100
  23.6123350  64.3064572   6.5554275  23.8059240  65.2110383   6.8013549
  23.5123968  63.8471991   7.3892860  18.6738459  64.4571315  12.1295155
  18.5223965  64.2281867  11.2125239  18.6643138  65.4141916  12.1426500
  20.3830665  67.4890438  10.2071637  20.3243211  66.8049658   9.5402220
  20.7850184  68.2309428   9.7552263  20.3848073  65.4530022   8.4385617
  19.4974851  65.1155943   8.5612016  20.9546624  64.7213053   8.6754382
  16.3747909  70.0118308   7.5605019  17.0875882  70.6465773   7.4880920
  15.8837938  70.1082174   6.7445020  15.2748682  61.0577170  12.6929177
  14.5989319  60.9571299  13.3631552  16.0976316  60.9016384  13.1565174
  14.0171465  72.3644097   6.9286793  14.5689773  72.5275719   7.6935878
  14.3577658  72.9548535   6.2566818  18.8682339  67.1905355  12.7835447
  19.4122243  67.8035313  12.2890402  18.2869184  67.7484933  13.3002460
  14.1637276  69.9302579   8.9435447  14.4724403  69.6851726   9.8158147
  14.9612758  70.1349217   8.4554317  22.1911134  66.6501409  12.1196768
  21.4006677  66.6325548  11.5801268  21.9544488  67.1889703  12.8745805
  22.3109009  63.4993875   9.4329497  22.3607013  63.3343883  10.3745020
  22.2022932  62.6321134   9.0427378  19.6012771  59.4824803  10.7488804
  20.5022634  59.3431268  10.4572801  19.6760745  59.6479258  11.6886981
  23.8127205  65.9190817   9.6771519  23.5212014  66.2820797  10.5134979
  23.1999337  65.2057825   9.4984851  14.9626164  64.0609110  12.9950043
  15.8829173  64.2387709  13.1890089  14.9275747  63.1165156  12.8429742
  12.6947372  60.9740490  13.8440635  12.2114453  61.7740850  14.0504524
  12.7808311  60.9848434  12.8908079  16.9908398  64.8365122  14.6464204
  17.8599557  65.0105774  14.2850839  16.5115149  65.6559538  14.5239933
  28.6500874  76.5453748   4.0509478  29.2879283  76.4260495   3.3472818
  28.5321716  77.4934592   4.1097430  25.4590580  76.4981176   3.9871003
  25.1209091  76.3822240   3.0991538  26.3280348  76.0972341   3.9672009
  25.9410363  77.6516027   9.9457208  25.9299004  77.2568826   9.0737712
  26.1031002  76.9182100  10.5390980  22.6617624  80.4353139   8.8936392
  22.3707490  81.3398770   8.7783059  23.2974608  80.4769667   9.6080462
  23.5873831  77.8129988   5.4837752  24.1837403  77.5886010   4.7694715
  23.6448802  77.0714733   6.0863200  28.2042142  74.2705201   1.1262686
  28.9905231  73.8524625   0.7753103  28.4680846  75.1751294   1.2944335
  33.6050569  74.2080435   2.0295665  34.3375741  73.6379651   2.2633494
  32.8489925  73.8202035   2.4702170  25.2226689  76.6307676  -0.7740993
  24.8584896  76.1038297  -0.0628071  26.0793805  76.2406145  -0.9474507
  31.1275989  67.9202009   6.4890273  30.7959314  68.7897420   6.2651488
  30.5321603  67.6038293   7.1684304  27.6207509  80.1214555   5.8886186
  27.3208232  81.0239594   5.7801993  27.2758569  79.8546738   6.7407339
  21.0719990  76.5728352   1.9222891  20.1470487  76.4404566   2.1300582
  21.3204404  77.3522571   2.4192833  31.0204653  72.6397095   3.5683623
  30.1121530  72.5712503   3.2742384  30.9692249  73.1169040   4.3965449
  25.0945519  74.0586741  11.5118521  24.3178853  74.6180661  11.5021385
  25.7336082  74.5443524  12.0333391  32.8866299  70.8413533   5.3461497
  32.2440679  71.1346066   4.7001292  32.3821228  70.7266454   6.1514694
  23.3491891  76.8672194  11.0736488  24.0906575  77.4057238  10.7971311
  22.6428876  77.4938483  11.2308040  28.8247231  79.0101334   9.6708649
  29.2330587  78.5683745   8.9263282  28.1024492  78.4353962   9.9242842
  25.1778301  73.9473941   7.0442206  26.0239496  74.3713355   7.1876855
  25.1176938  73.2907565   7.7380769  29.1476045  79.5702525   3.4260938
  28.5184908  79.7348239   2.7237006  28.7601707  79.9844135   4.1971902
  33.0265277  80.5056963   0.7805302  32.3416315  80.8855864   0.2302335
  33.1109126  81.1152289   1.5137250  28.3277746  71.6078309   8.7023380
  28.0838678  72.3620370   8.1657656  28.6037676  71.9863657   9.5370627
  30.2816209  78.1516922   7.3800645  30.4933104  78.7948682   6.7035026
  30.2345957  77.3179238   6.9122575  27.8842438  70.7634742   4.2837218
  27.0226917  71.0615996   4.5753955  27.9104872  70.9805141   3.3518250
  24.7004007  79.3076933   0.6911023  25.1642353  79.5864636  -0.0984354
  24.4360805  78.4060378   0.5084114  21.5928088  78.8548415   3.6290786
  22.1629445  79.2835683   2.9908271  22.1836200  78.5730999   4.3274972
  22.0853255  74.0211842  11.8751798  21.4551915  74.7028123  12.1087195
  21.9789343  73.9094924  10.9304936  31.3962037  81.0288877   5.5523003
  32.2179480  80.6269065   5.2705684  31.3924439  80.9257111   6.5039119
  25.1618640  80.5772921   7.7083713  25.2263073  81.0393328   8.5441885
  24.4529564  79.9470285   7.8366023  15.6635930  73.9414129   5.2332713
  15.9143968  74.8261138   5.4990289  16.1995478  73.7618730   4.4607805
  39.4868030  77.3727626   1.9007974  38.7331738  76.8035024   1.7451979
  39.6215571  77.3390290   2.8478609  21.3633997  68.3232608  14.2377049
  20.9700943  67.7698806  14.9124693  22.1800138  68.6343186  14.6283566
  24.2801958  69.7390487  11.8297305  25.0211672  70.3397640  11.7501768
  24.5119881  68.9968125  11.2715348  19.4243296  74.9246854  10.1075535
  19.3096811  74.0232111  10.4082634  18.5687814  75.1710551   9.7560352
  26.5035134  82.8664595  11.7063036  26.0598988  82.0800973  11.3883940
  27.1652348  83.0543745  11.0406926  21.2622255  84.3960396   6.2323714
  21.8129680  84.2677460   5.4600708  20.4233731  84.6955285   5.8818607
  28.6016372  83.1467394   9.7344437  28.5834848  83.9676276   9.2424706
  29.5236292  83.0221470   9.9594578  25.0589426  80.6611524  10.5767945
  25.5917763  79.8999812  10.3467253  24.5303507  80.3685176  11.3192100
  28.2259121  65.7671590   6.1061587  27.8823391  66.6573232   6.0300698
  28.5938084  65.5773248   5.2431172  27.3055662  68.1376245   4.0710820
  26.8020457  68.1006380   3.2578626  27.5986269  69.0468988   4.1307477
  33.1643678  78.5112556  -3.4512804  32.3873121  78.1723715  -3.8957642
  33.8435159  78.5165179  -4.1257839  31.4034985  77.9846537   3.2053804
  30.7458659  78.6745798   3.2933932  32.2075384  78.3742969   3.5487790
  30.2140444  76.3390910   1.2557745  30.7272326  76.9720901   1.7579455
  30.8641668  75.7392105   0.8901105  26.6921275  73.8140365   3.5016086
  25.7743836  74.0355312   3.3437774  27.1081418  73.8886676   2.6427793
  27.4756322  75.2131781  -1.3681234  28.2228141  75.7253178  -1.6774112
  27.7447912  74.8915834  -0.5076840  30.9802240  81.3196911  -0.6163112
  30.5264567  80.4787821  -0.5597922  30.3496207  81.9558309  -0.2788332
  29.9235160  72.2488897   0.6137555  29.1857916  71.7366283   0.9447798
  30.1761933  71.8089279  -0.1979168  29.4235179  83.1573408   0.3186706
  29.7158154  83.7178465  -0.4000928  29.9333800  83.4501969   1.0739865
  24.2967867  75.3218942   1.7155516  24.3516476  74.3692779   1.6397992
  23.4859069  75.4778381   2.1996814  27.8334438  74.4037826   8.3060789
  28.1883826  74.6309300   9.1655254  28.4806570  74.7356203   7.6838044
  33.5632175  77.5256262  -0.9889882  33.4250074  77.7157858  -1.9168693
  33.2068394  78.2875645  -0.5321831  21.7274301  71.5114357   5.0907130
  22.3673681  71.3703117   4.3930093  20.8951832  71.2248871   4.7145732
  33.5901555  79.5932789   4.0221389  34.0238062  79.5008078   4.8704443
  34.3033136  79.5690290   3.3841405  27.3229450  83.1934883   5.5554490
  27.3766472  83.7625820   6.3232206  26.4544231  83.3636768   5.1908527
  20.2027843  72.8952440   7.0378941  20.8750897  72.6869802   6.3891590
  19.3757630  72.6974526   6.5984173  34.4517104  79.6356490   6.5554275
  34.6452994  80.5402300   6.8013549  34.3517723  79.1763909   7.3892860
  26.1053415  69.5214381   9.0544602  25.4581330  70.2204330   8.9609078
  26.8754431  69.9550524   9.4220850  29.5132213  79.7863233  12.1295155
  29.3617719  79.5573784  11.2125239  29.5036893  80.7433834  12.1426500
  26.2817549  77.3595145   7.1141422  27.2109609  77.5106305   6.9410389
  25.8608580  77.4479166   6.2590068  25.0805881  81.3845810   4.8839959
  24.9416967  81.0164594   5.7565897  24.2920478  81.8993449   4.7123917
  26.6311096  80.7627413   2.2728797  26.2960929  80.7228183   3.1686447
  26.1315042  80.0972128   1.7999207  20.6055340  76.1695043   7.7981378
  20.4675138  75.4375281   8.3992917  21.5160264  76.0803943   7.5165566
  23.2337641  75.8815002   7.2865058  23.9437260  75.2408194   7.2451676
  23.1906949  76.1327897   8.2091239  31.2224420  82.8182355  10.2071637
  31.1636966  82.1341575   9.5402220  31.6243938  83.5601345   9.7552263
  21.9466575  72.8680220   9.1060697  21.4103932  72.4170958   9.7582294
  21.3583283  73.0026129   8.3631162  31.2241827  80.7821939   8.4385617
  30.3368606  80.4447861   8.5612016  31.7940378  80.0504970   8.6754382
  17.6805696  72.0036227   6.1913692  17.5963885  71.3961897   5.4564102
  16.8588403  72.4945246   6.1923188  24.7542980  85.4423392   5.4046860
  24.6813152  86.2478363   5.9166164  24.3120373  85.6415357   4.5794881
  35.7059168  76.1930157   3.2002178  35.6949044  77.0754872   2.8296111
  34.8376547  75.8401707   3.0056715  27.2141664  85.3410226   7.5605019
  27.9269636  85.9757690   7.4880920  26.7231693  85.4374092   6.7445020
  28.9359191  79.2461478  -0.8677690  28.0015470  79.3662941  -1.0372985
  29.1135859  78.3433945  -1.1317680  32.3231742  75.0878798  -0.3327656
  32.7892194  75.9206789  -0.4067353  32.7739243  74.6223779   0.3717603
  22.2653577  83.0904669   8.3810589  22.9663037  83.7241152   8.5339984
  21.7948692  83.4319401   7.6206229  30.3907973  81.4322619  -3.3341504
  30.6667817  81.3179213  -2.4247630  29.5212472  81.0340104  -3.3729331
  30.2948405  67.4559385   3.7063246  29.3811485  67.6863611   3.8745453
  30.7241506  67.5397829   4.5577278  30.0654863  75.6449276   6.2063140
  29.4126314  75.8925184   5.5515592  30.4435243  74.8313415   5.8725617
  26.1142436  76.3869088  12.6929177  25.4383073  76.2863217  13.3631552
  26.9370070  76.2308301  13.1565174  24.8565219  87.6936015   6.9286793
  25.4083527  87.8567636   7.6935878  25.1971413  88.2840453   6.2566818
  19.8329713  70.0411165   7.5308677  19.8971039  70.9025996   7.1186075
  19.7696833  69.4285166   6.7981036  19.3081985  72.1134297  11.1781712
  19.9354024  71.7311375  11.7919236  18.4509904  71.8948499  11.5437404
  29.7076094  82.5197273  12.7835447  30.2515998  83.1327231  12.2890402
  29.1262938  83.0776851  13.3002460  27.9933607  85.6417991   3.9150475
  27.8684746  84.8407730   3.4061420  28.6512698  86.1364184   3.4264445
  30.0568515  83.4427011   5.5430025  29.1098851  83.3232362   5.4708352
  30.4051288  82.5549509   5.6256286  22.4168088  69.3321150   9.3668267
  22.9402490  69.5783446  10.1294576  22.1980422  70.1641184   8.9471404
  27.0614948  83.2379727   1.7434377  26.9139911  82.3096434   1.9241947
  27.8868442  83.2599818   1.2591452  30.6649070  84.0608286   2.8299250
  31.5895618  83.8551147   2.6923701  30.4964373  83.8124687   3.7388591
  23.6220633  70.2734845   7.0517937  23.2817454  69.4742658   7.4538617
  22.9159640  70.5736555   6.4794771  24.2737105  67.3584157   5.5045260
  25.0963175  66.8844635   5.3824151  24.5175169  68.1374641   6.0043947
  21.7975684  74.0503278   3.3137239  21.6520265  74.3643581   4.2061521
  21.3200888  74.6688178   2.7608138  23.6572067  71.0405826   3.3618129
  23.6433636  70.1446919   3.0250427  24.3744495  71.0476489   3.9956415
  25.5098198  71.4743166   5.4071256  25.2515975  72.3960237   5.4055586
  24.9783238  71.0773600   6.0971720  30.4544386  84.5793953  -1.8138659
  30.6281264  84.0140375  -2.5664806  30.9473278  85.3794848  -1.9959169
  16.2721346  76.5908622   6.2524900  15.7274814  77.3668430   6.3845175
  17.1500696  76.9379427   6.0944022  36.3083778  77.3430376  -0.1948359
  36.7514924  76.5937701  -0.5929236  35.4310288  77.3340512  -0.5774627
  17.0587368  75.7178518   9.1455057  16.3169104  75.8661154   9.7319688
  16.7380112  75.9786784   8.2821807  33.3410982  81.3460423  -3.1854430
  33.8662306  81.6847696  -3.9105109  33.2533334  80.4107438  -3.3691295
  25.0031031  85.2594497   8.9435447  25.3118157  85.0143643   9.8158147
  25.8006513  85.4641135   8.4554317  22.5450042  71.4352203  12.8395631
  22.5938198  72.3114326  12.4573401  23.0872557  70.8929596  12.2667275
  33.0304888  81.9793327  12.1196768  32.2400432  81.9617465  11.5801268
  32.7938243  82.5181620  12.8745805  33.1502763  78.8285793   9.4329497
  33.2000768  78.6635800  10.3745020  33.0416686  77.9613052   9.0427378
  30.4406525  74.8116721  10.7488804  31.3416388  74.6723186  10.4572801
  30.5154500  74.9771176  11.6886981  24.7749331  72.1883576   9.5941990
  23.9052640  72.4817142   9.3224579  25.0108811  72.7724021  10.3149254
  34.6520960  81.2482734   9.6771519  34.3605768  81.6112715  10.5134979
  34.0393091  80.5349743   9.4984851  35.8516642  78.8135614   2.1974089
  36.6863534  79.2525418   2.3611649  35.9875771  78.3374267   1.3782335
  32.9008148  76.3715349   8.1451577  33.3762270  76.5642995   7.3370428
  31.9773713  76.4274535   7.8994960  27.4788365  68.4063193   7.1107410
  27.9970308  69.1424220   6.7853899  27.1243497  68.7127186   7.9454170
  31.6009817  73.2481109   6.3779882  32.5527240  73.3479207   6.3992106
  31.4313268  72.4559378   6.8877966  29.6224197  70.3336692   6.5639283
  29.0274129  70.6141705   5.8685772  29.3373893  70.8230593   7.3356024
  34.0797895  76.4687229   5.4922182  34.0474215  75.5303230   5.6781866
  34.6898519  76.5471266   4.7588007  34.2292383  73.2598272   5.5380465
  33.7131432  72.4756729   5.3510394  35.1132332  72.9316989   5.7026984
  31.8903110  67.0039288   1.4976278  31.6927931  66.6954376   2.3819610
  32.5002816  67.7300927   1.6274207  39.8974445  77.5303236   4.6328219
  40.6277833  77.2688524   5.1935922  39.2881390  76.7931958   4.6730287
  37.9789742  75.6711098   5.2302670  37.2522905  75.5367063   4.6219161
  37.5637029  75.9787927   6.0359388  25.8019918  79.3901028  12.9950043
  26.7222928  79.5679627  13.1890089  25.7669501  78.4457073  12.8429742
  18.7981991  77.3002063   5.6372824  19.0168001  78.2319170   5.6560858
  19.2107765  76.9410037   6.4227628  23.6709856  72.8735268  15.0275573
  23.5706583  73.8229625  14.9587664  23.4531398  72.5453507  14.1551643
  23.5341126  76.3032407  13.8440635  23.0508208  77.1032767  14.0504524
  23.6202065  76.3140352  12.8908079  19.4614464  80.1936942   5.8809068
  20.4157717  80.1620884   5.8139000  19.2626987  79.7327566   6.6959294
  20.0513846  78.7638058   8.4479866  20.8706735  79.2582137   8.4714703
  20.3250654  77.8470026   8.4197433  33.1594978  71.1795331   1.5262161
  33.9355368  71.6691784   1.7986778  32.4343112  71.6053385   1.9834030
  35.5967537  71.8922950   2.5836101  36.1912028  71.6518686   1.8729410
  35.6694121  71.1730081   3.2109638  29.7821466  76.6703346  -1.9741888
  29.7256667  77.1271898  -2.8134256  30.3349808  75.9094031  -2.1519046
  33.5926272  72.4593078  -1.1491769  33.3363206  72.0589714  -0.3183561
  32.9679140  73.1736872  -1.2741630  37.9038610  75.1989151   1.3579523
  37.3438168  75.2682341   2.1311085  37.2982113  75.0230136   0.6379019
  15.3048760  73.0976192   9.1472063  15.9507624  72.5875146   9.6359288
  15.0965911  73.8344873   9.7215488  27.8302152  80.1657039  14.6464204
  28.6993312  80.3397692  14.2850839  27.3508904  80.9851456  14.5239933
  21.9988333  87.2854140   6.3253637  22.9015579  87.3177751   6.6420132
  21.7725703  86.3554591   6.3399973  19.6446251  70.2443809  13.2447077
  20.5077713  69.8880614  13.4550402  19.0711662  69.9057704  13.9322482
  39.4894628  91.8745665   4.0509478  40.1273038  91.7552413   3.3472818
  39.3715471  92.8226509   4.1097430  36.2984334  91.8273093   3.9871003
  35.9602846  91.7114158   3.0991538  37.1674102  91.4264258   3.9672009
  36.7804117  92.9807945   9.9457208  36.7692758  92.5860743   9.0737712
  36.9424757  92.2474018  10.5390980  33.5011378  95.7645057   8.8936392
  33.2101244  96.6690688   8.7783059  34.1368363  95.8061585   9.6080462
  34.4267585  93.1421905   5.4837752  35.0231158  92.9177928   4.7694715
  34.4842557  92.4006651   6.0863200  39.0435896  89.5997119   1.1262686
  39.8298986  89.1816542   0.7753103  39.3074601  90.5043211   1.2944335
  44.4444324  89.5372352   2.0295665  45.1769496  88.9671569   2.2633494
  43.6883679  89.1493953   2.4702170  36.0620443  91.9599594  -0.7740993
  35.6978651  91.4330215  -0.0628071  36.9187559  91.5698063  -0.9474507
  41.9669744  83.2493926   6.4890273  41.6353069  84.1189337   6.2651488
  41.3715357  82.9330210   7.1684304  38.4601263  95.4506472   5.8886186
  38.1601987  96.3531511   5.7801993  38.1152323  95.1838656   6.7407339
  31.9113745  91.9020269   1.9222891  30.9864241  91.7696483   2.1300582
  32.1598158  92.6814489   2.4192833  41.8598407  87.9689013   3.5683623
  40.9515285  87.9004421   3.2742384  41.8086003  88.4460958   4.3965449
  35.9339273  89.3878658  11.5118521  35.1572607  89.9472578  11.5021385
  36.5729836  89.8735441  12.0333391  43.7260054  86.1705451   5.3461497
  43.0834434  86.4637984   4.7001292  43.2214982  86.0558371   6.1514694
  41.3800217  89.9168624  -3.9652643  42.2918073  90.1496011  -4.1404946
  40.8709864  90.5005668  -4.5277565  34.1885645  92.1964112  11.0736488
  34.9300330  92.7349156  10.7971311  33.4822631  92.8230400  11.2308040
  39.6640985  94.3393252   9.6708649  40.0724341  93.8975663   8.9263282
  38.9418247  93.7645880   9.9242842  36.0172055  89.2765859   7.0442206
  36.8633250  89.7005272   7.1876855  35.9570693  88.6199483   7.7380769
  39.9869800  94.8994443   3.4260938  39.3578662  95.0640157   2.7237006
  39.5995462  95.3136052   4.1971902  43.8659032  95.8348881   0.7805302
  43.1810070  96.2147782   0.2302335  43.9502881  96.4444207   1.5137250
  39.1671500  86.9370227   8.7023380  38.9232432  87.6912288   8.1657656
  39.4431431  87.3155575   9.5370627  41.1209963  93.4808840   7.3800645
  41.3326858  94.1240599   6.7035026  41.0739711  92.6471156   6.9122575
  38.7236192  86.0926660   4.2837218  37.8620671  86.3907914   4.5753955
  38.7498627  86.3097059   3.3518250  35.5397762  94.6368851   0.6911023
  36.0036107  94.9156554  -0.0984354  35.2754560  93.7352295   0.5084114
  32.4321843  94.1840332   3.6290786  33.0023200  94.6127601   2.9908271
  33.0229954  93.9022917   4.3274972  32.9247009  89.3503760  11.8751798
  32.2945670  90.0320041  12.1087195  32.8183097  89.2386841  10.9304936
  42.2355791  96.3580795   5.5523003  43.0573235  95.9560982   5.2705684
  42.2318194  96.2549029   6.5039119  36.0012395  95.9064838   7.7083713
  36.0656827  96.3685245   8.5441885  35.2923318  95.2762203   7.8366023
  26.5029685  89.2706046   5.2332713  26.7537723  90.1553056   5.4990289
  27.0389233  89.0910648   4.4607805  50.3261784  92.7019543   1.9007974
  49.5725493  92.1326941   1.7451979  50.4609325  92.6682208   2.8478609
  32.2027752  83.6524526  14.2377049  31.8094697  83.0990724  14.9124693
  33.0193892  83.9635104  14.6283566  35.1195713  85.0682405  11.8297305
  35.8605426  85.6689558  11.7501768  35.3513636  84.3260042  11.2715348
  30.2637051  90.2538772  10.1075535  30.1490566  89.3524029  10.4082634
  29.4081569  90.5002469   9.7560352  37.3428889  98.1956512  11.7063036
  36.8992743  97.4092891  11.3883940  38.0046102  98.3835663  11.0406926
  32.1016010  99.7252314   6.2323714  32.6523435  99.5969377   5.4600708
  31.2627486 100.0247203   5.8818607  39.4410127  98.4759312   9.7344437
  39.4228602  99.2968193   9.2424706  40.3630047  98.3513387   9.9594578
  35.8983181  95.9903442  10.5767945  36.4311518  95.2291730  10.3467253
  35.3697262  95.6977093  11.3192100  39.0652876  81.0963508   6.1061587
  38.7217145  81.9865149   6.0300698  39.4331838  80.9065165   5.2431172
  36.6150270  85.9321819  -0.3280739  35.7591866  85.5428670  -0.5075101
  37.0277221  86.0113780  -1.1880954  38.1449416  83.4668163   4.0710820
  37.6414212  83.4298298   3.2578626  38.4380023  84.3760905   4.1307477
  34.3892302  83.5506892   3.0777002  35.2545299  83.3549701   2.7182892
  34.4569811  83.3217244   4.0046359  44.0037433  93.8404473  -3.4512804
  43.2266875  93.5015633  -3.8957642  44.6828914  93.8457097  -4.1257839
  38.8189462  88.9599211  -3.5606197  38.5139597  89.2745360  -2.7096053
  39.7719904  89.0380631  -3.5178864  42.2428740  93.3138455   3.2053804
  41.5852414  94.0037716   3.2933932  43.0469139  93.7034887   3.5487790
  31.9954621  85.7809100   0.4493369  32.5698373  85.5584282  -0.2833438
  32.5825604  85.8497795   1.2021970  41.0534198  91.6682827   1.2557745
  41.5666080  92.3012819   1.7579455  41.7035422  91.0684023   0.8901105
  34.2977289  82.6550349  -0.8231562  33.6441701  82.3399366  -1.4474947
  34.2557763  82.0326090  -0.0971739  37.5315029  89.1432283   3.5016086
  36.6137591  89.3647230   3.3437774  37.9475173  89.2178593   2.6427793
  38.3150077  90.5423699  -1.3681234  39.0621896  91.0545096  -1.6774112
  38.5841667  90.2207751  -0.5076840  41.8195995  96.6488829  -0.6163112
  41.3658322  95.8079739  -0.5597922  41.1889961  97.2850227  -0.2788332
  40.7628914  87.5780815   0.6137555  40.0251671  87.0658201   0.9447798
  41.0155688  87.1381196  -0.1979168  40.2628934  98.4865325   0.3186706
  40.5551908  99.0470383  -0.4000928  40.7727554  98.7793886   1.0739865
  40.8640541  80.3557067   1.2079325  41.1699418  79.4954430   0.9205240
  41.5893146  80.9474687   1.0078319  35.1361621  90.6510860   1.7155516
  35.1910231  89.6984696   1.6397992  34.3252823  90.8070299   2.1996814
  33.0753981  89.2687920  -0.5254105  32.2621847  89.5682090  -0.1188913
  33.5712975  88.8743608   0.1920377  38.6728193  89.7329744   8.3060789
  39.0277581  89.9601217   9.1655254  39.3200324  90.0648121   7.6838044
  44.4025930  92.8548180  -0.9889882  44.2643828  93.0449776  -1.9168693
  44.0462149  93.6167563  -0.5321831  32.5668056  86.8406275   5.0907130
  33.2067435  86.6995034   4.3930093  31.7345586  86.5540789   4.7145732
  44.4295309  94.9224707   4.0221389  44.8631816  94.8299996   4.8704443
  45.1426890  94.8982207   3.3841405  38.1623204  98.5226801   5.5554490
  38.2160227  99.0917737   6.3232206  37.2937986  98.6928686   5.1908527
  31.0421598  88.2244357   7.0378941  31.7144651  88.0161719   6.3891590
  30.2151384  88.0266443   6.5984173  45.2910859  94.9648408   6.5554275
  45.4846749  95.8694218   6.8013549  45.1911477  94.5055827   7.3892860
  36.9447170  84.8506298   9.0544602  36.2975085  85.5496248   8.9609078
  37.7148185  85.2842442   9.4220850  40.3525968  95.1155150  12.1295155
  40.2011474  94.8865702  11.2125239  40.3430647  96.0725752  12.1426500
  37.1211304  92.6887063   7.1141422  38.0503364  92.8398223   6.9410389
  36.7002334  92.7771084   6.2590068  35.9199636  96.7137728   4.8839959
  35.7810721  96.3456512   5.7565897  35.1314232  97.2285367   4.7123917
  37.4704851  96.0919330   2.2728797  37.1354684  96.0520100   3.1686447
  36.9708797  95.4264046   1.7999207  31.4449095  91.4986960   7.7981378
  31.3068893  90.7667199   8.3992917  32.3554018  91.4095860   7.5165566
  34.0731396  91.2106920   7.2865058  34.7831014  90.5700112   7.2451676
  34.0300704  91.4619814   8.2091239  42.0618174  98.1474273  10.2071637
  42.0030720  97.4633493   9.5402220  42.4637693  98.8893263   9.7552263
  32.7860330  88.1972137   9.1060697  32.2497687  87.7462876   9.7582294
  32.1977038  88.3318046   8.3631162  42.0635581  96.1113857   8.4385617
  41.1762360  95.7739779   8.5612016  42.6334133  95.3796888   8.6754382
  28.5199451  87.3328145   6.1913692  28.4357639  86.7253815   5.4564102
  27.6982157  87.8237163   6.1923188  35.5936735 100.7715309   5.4046860
  35.5206906 101.5770281   5.9166164  35.1514128 100.9707275   4.5794881
  38.6923165  85.8181709   1.5583887  39.1891864  85.0651671   1.2384957
  37.9210146  85.8546025   0.9927096  46.5452922  91.5222074   3.2002178
  46.5342798  92.4046790   2.8296111  45.6770301  91.1693625   3.0056715
  38.0535418 100.6702143   7.5605019  38.7663391 101.3049608   7.4880920
  37.5625447 100.7666009   6.7445020  39.7752945  94.5753396  -0.8677690
  38.8409224  94.6954858  -1.0372985  39.9529614  93.6725863  -1.1317680
  35.2758133  87.9599092   1.2855571  34.9055921  87.4070132   1.9736477
  35.7717226  87.3557225   0.7330571  43.1625497  90.4170715  -0.3327656
  43.6285949  91.2498707  -0.4067353  43.6132997  89.9515697   0.3717603
  33.1047332  98.4196587   8.3810589  33.8056791  99.0533070   8.5339984
  32.6342447  98.7611318   7.6206229  41.2301728  96.7614536  -3.3341504
  41.5061572  96.6471131  -2.4247630  40.3606227  96.3632021  -3.3729331
  41.1342159  82.7851302   3.7063246  40.2205239  83.0155529   3.8745453
  41.5635261  82.8689746   4.5577278  40.9048618  90.9741194   6.2063140
  40.2520068  91.2217102   5.5515592  41.2828998  90.1605332   5.8725617
  36.9536191  91.7161005  12.6929177  36.2776828  91.6155135  13.3631552
  37.7763825  91.5600219  13.1565174  35.6958974 103.0227933   6.9286793
  36.2477282 103.1859554   7.6935878  36.0365167 103.6132370   6.2566818
  30.6723467  85.3703082   7.5308677  30.7364794  86.2317913   7.1186075
  30.6090587  84.7577084   6.7981036  30.1475740  87.4426215  11.1781712
  30.7747778  87.0603292  11.7919236  29.2903658  87.2240417  11.5437404
  40.5469848  97.8489190  12.7835447  41.0909752  98.4619148  12.2890402
  39.9656693  98.4068769  13.3002460  38.8327361 100.9709908   3.9150475
  38.7078501 100.1699648   3.4061420  39.4906452 101.4656102   3.4264445
  30.4535529  87.3258641   3.0927615  29.7322115  87.9394608   2.9535088
  31.2428785  87.8616406   3.0144261  40.8962269  98.7718928   5.5430025
  39.9492605  98.6524279   5.4708352  41.2445043  97.8841426   5.6256286
  33.2561843  84.6613067   9.3668267  33.7796245  84.9075364  10.1294576
  33.0374176  85.4933102   8.9471404  37.9008703  98.5671644   1.7434377
  37.7533665  97.6388352   1.9241947  38.7262196  98.5891735   1.2591452
  41.5042825  99.3900203   2.8299250  42.4289372  99.1843065   2.6923701
  41.3358128  99.1416604   3.7388591  34.4614388  85.6026762   7.0517937
  34.1211208  84.8034575   7.4538617  33.7553394  85.9028473   6.4794771
  35.1130860  82.6876075   5.5045260  35.9356929  82.2136553   5.3824151
  35.3568923  83.4666558   6.0043947  37.8970217  86.4209482  -3.2633506
  38.1133831  87.3034120  -3.5644677  37.4164284  86.0295696  -3.9927864
  32.6369438  89.3795195   3.3137239  32.4914019  89.6935498   4.2061521
  32.1594642  89.9980096   2.7608138  34.4965821  86.3697743   3.3618129
  34.4827390  85.4738837   3.0250427  35.2138249  86.3768407   3.9956415
  36.3491952  86.8035084   5.4071256  36.0909730  87.7252154   5.4055586
  35.8176992  86.4065518   6.0971720  41.2938141  99.9085871  -1.8138659
  41.4675018  99.3432293  -2.5664806  41.7867032 100.7086766  -1.9959169
  27.1115101  91.9200540   6.2524900  26.5668569  92.6960348   6.3845175
  27.9894450  92.2671344   6.0944022  33.9002717  85.2512124  -1.3694301
  34.0218628  84.3228770  -1.1703414  33.6104760  85.2650810  -2.2815986
  36.7693908  82.9367034   1.7672419  36.7915604  83.0006367   0.8124398
  37.1861967  82.0971543   1.9612925  47.1477532  92.6722294  -0.1948359
  47.5908678  91.9229619  -0.5929236  46.2704042  92.6632430  -0.5774627
  27.8981122  91.0470436   9.1455057  27.1562859  91.1953071   9.7319688
  27.5773867  91.3078702   8.2821807  44.1804736  96.6752341  -3.1854430
  44.7056061  97.0139613  -3.9105109  44.0927089  95.7399356  -3.3691295
  35.8424785 100.5886414   8.9435447  36.1511912 100.3435561   9.8158147
  36.6400267 100.7933053   8.4554317  33.3843797  86.7644121  12.8395631
  33.4331952  87.6406244  12.4573401  33.9266311  86.2221514  12.2667275
  43.8698642  97.3085244  12.1196768  43.0794186  97.2909383  11.5801268
  43.6331997  97.8473538  12.8745805  43.9896518  94.1577711   9.4329497
  44.0394522  93.9927718  10.3745020  43.8810441  93.2904970   9.0427378
  41.2800280  90.1408639  10.7488804  42.1810143  90.0015104  10.4572801
  41.3548254  90.3063093  11.6886981  35.6143085  87.5175493   9.5941990
  34.7446395  87.8109059   9.3224579  35.8502566  88.1015938  10.3149254
  45.4914714  96.5774652   9.6771519  45.1999523  96.9404633  10.5134979
  44.8786846  95.8641660   9.4984851  46.6910397  94.1427532   2.1974089
  47.5257288  94.5817336   2.3611649  46.8269525  93.6666185   1.3782335
  43.7401903  91.7007267   8.1451577  44.2156024  91.8934913   7.3370428
  42.8167468  91.7566453   7.8994960  38.3182119  83.7355110   7.1107410
  38.8364063  84.4716137   6.7853899  37.9637252  84.0419104   7.9454170
  38.5694713  80.1555393   2.6308307  38.8496467  79.4878582   3.2568734
  39.3545320  80.3484488   2.1182971  42.4403572  88.5773027   6.3779882
  43.3920995  88.6771125   6.3992106  42.2707022  87.7851295   6.8877966
  40.4617951  85.6628610   6.5639283  39.8667883  85.9433623   5.8685772
  40.1767648  86.1522511   7.3356024  44.9191649  91.7979147   5.4922182
  44.8867970  90.8595147   5.6781866  45.5292273  91.8763183   4.7588007
  45.0686138  88.5890190   5.5380465  44.5525187  87.8048647   5.3510394
  45.9526086  88.2608907   5.7026984  42.7296865  82.3331206   1.4976278
  42.5321686  82.0246294   2.3819610  43.3396570  83.0592844   1.6274207
  50.7368199  92.8595153   4.6328219  51.4671588  92.5980442   5.1935922
  50.1275145  92.1223875   4.6730287  48.8183496  91.0003016   5.2302670
  48.0916660  90.8658981   4.6219161  48.4030783  91.3079845   6.0359388
  36.6413673  94.7192946  12.9950043  37.5616682  94.8971545  13.1890089
  36.6063256  93.7748991  12.8429742  29.6375745  92.6293980   5.6372824
  29.8561755  93.5611088   5.6560858  30.0501519  92.2701955   6.4227628
  36.5579963  83.1362066  -2.3751488  35.7480691  82.7909151  -1.9996242
  37.2464380  82.8269609  -1.7863876  38.4870511  82.2140112  -0.7527191
  39.0401550  82.6335566  -0.0937168  38.7240598  81.2875861  -0.7104235
  34.5103611  88.2027186  15.0275573  34.4100338  89.1521543  14.9587664
  34.2925153  87.8745425  14.1551643  41.8649319  84.3240638  -1.2448527
  41.2847988  84.9825442  -1.6270474  41.5985251  83.5017982  -1.6561109
  40.3152885  83.7245695   0.9572794  40.8152663  83.8362230   0.1487112
  40.9588493  83.4206748   1.5973602  34.3734881  91.6324325  13.8440635
  33.8901962  92.4324685  14.0504524  34.4595820  91.6432270  12.8908079
  30.3008218  95.5228860   5.8809068  31.2551472  95.4912802   5.8139000
  30.1020742  95.0619483   6.6959294  30.8907600  94.0929976   8.4479866
  31.7100489  94.5874054   8.4714703  31.1644408  93.1761944   8.4197433
  40.6474197  86.4840728  -2.1892178  39.7600052  86.7690379  -2.4071984
  41.0628186  86.3234491  -3.0364902  43.9988733  86.5087249   1.5262161
  44.7749123  86.9983701   1.7986778  43.2736867  86.9345303   1.9834030
  46.4361291  87.2214868   2.5836101  47.0305782  86.9810604   1.8729410
  46.5087875  86.5021999   3.2109638  40.6215220  91.9995264  -1.9741888
  40.5650422  92.4563815  -2.8134256  41.1743563  91.2385949  -2.1519046
  44.4320026  87.7884996  -1.1491769  44.1756960  87.3881631  -0.3183561
  43.8072894  88.5028790  -1.2741630  48.7432364  90.5281069   1.3579523
  48.1831922  90.5974258   2.1311085  48.1375867  90.3522054   0.6379019
  41.3550000  93.1900045  -4.6789359  41.2998803  93.0244317  -5.6200915
  40.7296055  93.8976078  -4.5227169  26.1442515  88.4268110   9.1472063
  26.7901378  87.9167064   9.6359288  25.9359666  89.1636791   9.7215488
  38.6695907  95.4948957  14.6464204  39.5387066  95.6689609  14.2850839
  38.1902658  96.3143374  14.5239933  34.6646125  82.6908154  -5.1004041
  34.6524795  83.6349994  -4.9435770  35.5569547  82.5078300  -5.3944580
  32.8382087 102.6146058   6.3253637  33.7409334 102.6469668   6.6420132
  32.6119457 101.6846509   6.3399973  38.4798245  79.2850931  -0.8458104
  37.7130640  78.7309417  -0.7001422  38.8908949  79.3572800   0.0156048
  30.4840006  85.5735727  13.2447077  31.3471467  85.2172531  13.4550402
  29.9105416  85.2349621  13.9322482  50.3288382 107.2037583   4.0509478
  50.9666792 107.0844330   3.3472818  50.2109225 108.1518427   4.1097430
  47.1378089 107.1565011   3.9871003  46.7996600 107.0406076   3.0991538
  48.0067857 106.7556176   3.9672009  47.6197872 108.3099863   9.9457208
  47.6086513 107.9152661   9.0737712  47.7818511 107.5765935  10.5390980
  44.3405133 111.0936975   8.8936392  44.0494999 111.9982605   8.7783059
  44.9762117 111.1353502   9.6080462  45.2661340 108.4713823   5.4837752
  45.8624912 108.2469846   4.7694715  45.3236311 107.7298569   6.0863200
  49.8829651 104.9289037   1.1262686  50.6692740 104.5108460   0.7753103
  50.1468355 105.8335129   1.2944335  55.2838078 104.8664270   2.0295665
  56.0163250 104.2963487   2.2633494  54.5277434 104.4785870   2.4702170
  46.9014198 107.2891512  -0.7740993  46.5372405 106.7622132  -0.0628071
  47.7581314 106.8989981  -0.9474507  52.8063498  98.5785844   6.4890273
  52.4746823  99.4481255   6.2651488  52.2109112  98.2622128   7.1684304
  49.2995018 110.7798390   5.8886186  48.9995741 111.6823429   5.7801993
  48.9546078 110.5130573   6.7407339  42.7507499 107.2312187   1.9222891
  41.8257996 107.0988401   2.1300582  42.9991913 108.0106406   2.4192833
  52.6992162 103.2980930   3.5683623  51.7909039 103.2296339   3.2742384
  52.6479758 103.7752875   4.3965449  46.7733028 104.7170576  11.5118521
  45.9966362 105.2764496  11.5021385  47.4123591 105.2027359  12.0333391
  54.5653808 101.4997369   5.3461497  53.9228188 101.7929902   4.7001292
  54.0608737 101.3850289   6.1514694  45.0279400 107.5256029  11.0736488
  45.7694084 108.0641073  10.7971311  44.3216385 108.1522318  11.2308040
  50.5034740 109.6685170   9.6708649  50.9118096 109.2267580   8.9263282
  49.7812001 109.0937797   9.9242842  46.8565810 104.6057776   7.0442206
  47.7027005 105.0297190   7.1876855  46.7964447 103.9491401   7.7380769
  50.8263554 110.2286360   3.4260938  50.1972417 110.3932074   2.7237006
  50.4389216 110.6427970   4.1971902  50.0065255 102.2662145   8.7023380
  49.7626187 103.0204205   8.1657656  50.2825185 102.6447492   9.5370627
  51.9603718 108.8100757   7.3800645  52.1720613 109.4532517   6.7035026
  51.9133466 107.9763074   6.9122575  49.5629947 101.4218578   4.2837218
  48.7014426 101.7199831   4.5753955  49.5892381 101.6388977   3.3518250
  46.3791516 109.9660768   0.6911023  46.8429862 110.2448471  -0.0984354
  46.1148314 109.0644213   0.5084114  43.2715597 109.5132250   3.6290786
  43.8416954 109.9419518   2.9908271  43.8623709 109.2314835   4.3274972
  43.7640764 104.6795677  11.8751798  43.1339424 105.3611958  12.1087195
  43.6576852 104.5678759  10.9304936  53.0749546 111.6872713   5.5523003
  53.8966989 111.2852900   5.2705684  53.0711948 111.5840947   6.5039119
  46.8406149 111.2356756   7.7083713  46.9050582 111.6977163   8.5441885
  46.1317073 110.6054121   7.8366023  37.3423439 104.5997964   5.2332713
  37.5931477 105.4844974   5.4990289  37.8782987 104.4202565   4.4607805
  43.0421506  98.9816443  14.2377049  42.6488452  98.4282642  14.9124693
  43.8587647  99.2927022  14.6283566  45.9589467 100.3974322  11.8297305
  46.6999181 100.9981475  11.7501768  46.1907390  99.6551960  11.2715348
  41.1030805 105.5830690  10.1075535  40.9884320 104.6815947  10.4082634
  40.2475323 105.8294386   9.7560352  48.1822643 113.5248430  11.7063036
  47.7386497 112.7384808  11.3883940  48.8439857 113.7127580  11.0406926
  42.9409764 115.0544232   6.2323714  43.4917189 114.9261295   5.4600708
  42.1021240 115.3539121   5.8818607  50.2803881 113.8051230   9.7344437
  50.2622357 114.6260111   9.2424706  51.2023801 113.6805305   9.9594578
  46.7376935 111.3195359  10.5767945  47.2705272 110.5583648  10.3467253
  46.2091016 111.0269011  11.3192100  49.9046630  96.4255425   6.1061587
  49.5610900  97.3157067   6.0300698  50.2725593  96.2357083   5.2431172
  47.4544024 101.2613737  -0.3280739  46.5985620 100.8720588  -0.5075101
  47.8670976 101.3405698  -1.1880954  48.9843171  98.7960080   4.0710820
  48.4807966  98.7590216   3.2578626  49.2773778  99.7052823   4.1307477
  45.2286057  98.8798810   3.0777002  46.0939053  98.6841619   2.7182892
  45.2963565  98.6509162   4.0046359  53.0822494 108.6430372   3.2053804
  52.4246168 109.3329634   3.2933932  53.8862893 109.0326804   3.5487790
  42.8348376 101.1101018   0.4493369  43.4092128 100.8876200  -0.2833438
  43.4219358 101.1789713   1.2021970  51.8927953 106.9974745   1.2557745
  52.4059835 107.6304737   1.7579455  52.5429177 106.3975940   0.8901105
  45.1371043  97.9842267  -0.8231562  44.4835456  97.6691284  -1.4474947
  45.0951517  97.3618007  -0.0971739  48.3708784 104.4724201   3.5016086
  47.4531345 104.6939148   3.3437774  48.7868927 104.5470511   2.6427793
  51.6022669 102.9072732   0.6137555  50.8645425 102.3950119   0.9447798
  51.8549442 102.4673114  -0.1979168  51.7034296  95.6848984   1.2079325
  52.0093173  94.8246348   0.9205240  52.4286901  96.2766605   1.0078319
  45.9755376 105.9802778   1.7155516  46.0303985 105.0276614   1.6397992
  45.1646578 106.1362217   2.1996814  43.9147736 104.5979837  -0.5254105
  43.1015601 104.8974008  -0.1188913  44.4106730 104.2035526   0.1920377
  49.5121947 105.0621662   8.3060789  49.8671335 105.2893135   9.1655254
  50.1594079 105.3940039   7.6838044  43.4061810 102.1698193   5.0907130
  44.0461190 102.0286952   4.3930093  42.5739341 101.8832706   4.7145732
  49.0016959 113.8518719   5.5554490  49.0553981 114.4209655   6.3232206
  48.1331740 114.0220604   5.1908527  41.8815352 103.5536275   7.0378941
  42.5538406 103.3453637   6.3891590  41.0545139 103.3558361   6.5984173
  56.1304613 110.2940325   6.5554275  56.3240503 111.1986136   6.8013549
  56.0305232 109.8347744   7.3892860  47.7840924 100.1798216   9.0544602
  47.1368839 100.8788166   8.9609078  48.5541940 100.6134360   9.4220850
  51.1919722 110.4447068  12.1295155  51.0405228 110.2157620  11.2125239
  51.1824402 111.4017669  12.1426500  47.9605058 108.0178981   7.1141422
  48.8897118 108.1690140   6.9410389  47.5396088 108.1063002   6.2590068
  46.7593390 112.0429645   4.8839959  46.6204476 111.6748430   5.7565897
  45.9707986 112.5577285   4.7123917  48.3098605 111.4211248   2.2728797
  47.9748438 111.3812018   3.1686447  47.8102551 110.7555964   1.7999207
  42.2842849 106.8278878   7.7981378  42.1462647 106.0959117   8.3992917
  43.1947773 106.7387778   7.5165566  44.9125150 106.5398837   7.2865058
  45.6224769 105.8992029   7.2451676  44.8694458 106.7911732   8.2091239
  52.9011929 113.4766191  10.2071637  52.8424475 112.7925411   9.5402220
  53.3031447 114.2185181   9.7552263  43.6254084 103.5264055   9.1060697
  43.0891441 103.0754794   9.7582294  43.0370792 103.6609964   8.3631162
  52.9029336 111.4405775   8.4385617  52.0156115 111.1031696   8.5612016
  53.4727887 110.7088806   8.6754382  39.3593205 102.6620063   6.1913692
  39.2751394 102.0545732   5.4564102  38.5375912 103.1529081   6.1923188
  46.4330489 116.1007227   5.4046860  46.3600661 116.9062198   5.9166164
  45.9907882 116.2999193   4.5794881  49.5316919 101.1473626   1.5583887
  50.0285619 100.3943589   1.2384957  48.7603901 101.1837943   0.9927096
  57.3846677 106.8513992   3.2002178  57.3736553 107.7338707   2.8296111
  56.5164056 106.4985543   3.0056715  48.8929173 115.9994061   7.5605019
  49.6057145 116.6341526   7.4880920  48.4019202 116.0957927   6.7445020
  46.1151888 103.2891009   1.2855571  45.7449675 102.7362050   1.9736477
  46.6110980 102.6849143   0.7330571  43.9441086 113.7488504   8.3810589
  44.6450546 114.3824987   8.5339984  43.4736201 114.0903236   7.6206229
  51.9735914  98.1143220   3.7063246  51.0598994  98.3447447   3.8745453
  52.4029015  98.1981664   4.5577278  51.7442372 106.3033112   6.2063140
  51.0913823 106.5509019   5.5515592  52.1222752 105.4897250   5.8725617
  47.7929945 107.0452923  12.6929177  47.1170582 106.9447052  13.3631552
  48.6157579 106.8892137  13.1565174  46.5352728 118.3519850   6.9286793
  47.0871036 118.5151472   7.6935878  46.8758922 118.9424288   6.2566818
  41.5117222 100.6995000   7.5308677  41.5758548 101.5609831   7.1186075
  41.4484342 100.0869002   6.7981036  40.9869494 102.7718133  11.1781712
  41.6141533 102.3895210  11.7919236  40.1297413 102.5532335  11.5437404
  51.3863603 113.1781108  12.7835447  51.9303507 113.7911066  12.2890402
  50.8050447 113.7360686  13.3002460  41.2929284 102.6550558   3.0927615
  40.5715870 103.2686526   2.9535088  42.0822540 103.1908323   3.0144261
  51.7356024 114.1010846   5.5430025  50.7886359 113.9816197   5.4708352
  52.0838797 113.2133344   5.6256286  44.0955597  99.9904985   9.3668267
  44.6189999 100.2367281  10.1294576  43.8767931 100.8225020   8.9471404
  45.3008142 100.9318680   7.0517937  44.9604963 100.1326493   7.4538617
  44.5947149 101.2320391   6.4794771  45.9524614  98.0167992   5.5045260
  46.7750684  97.5428471   5.3824151  46.1962678  98.7958476   6.0043947
  48.7363972 101.7501400  -3.2633506  48.9527586 102.6326038  -3.5644677
  48.2558039 101.3587613  -3.9927864  43.4763193 104.7087113   3.3137239
  43.3307774 105.0227416   4.2061521  42.9988397 105.3272013   2.7608138
  45.3359576 101.6989661   3.3618129  45.3221145 100.8030754   3.0250427
  46.0532004 101.7060325   3.9956415  47.1885707 102.1327001   5.4071256
  46.9303484 103.0544072   5.4055586  46.6570747 101.7357436   6.0971720
  37.9508855 107.2492457   6.2524900  37.4062323 108.0252265   6.3845175
  38.8288205 107.5963262   6.0944022  44.7396472 100.5804041  -1.3694301
  44.8612383  99.6520687  -1.1703414  44.4498514 100.5942727  -2.2815986
  47.6087662  98.2658952   1.7672419  47.6309359  98.3298285   0.8124398
  48.0255721  97.4263460   1.9612925  38.7374877 106.3762354   9.1455057
  37.9956613 106.5244989   9.7319688  38.4167621 106.6370619   8.2821807
  46.6818540 115.9178332   8.9435447  46.9905666 115.6727479   9.8158147
  47.4794022 116.1224970   8.4554317  44.2237551 102.0936039  12.8395631
  44.2725707 102.9698161  12.4573401  44.7660066 101.5513432  12.2667275
  54.7092397 112.6377162  12.1196768  53.9187941 112.6201301  11.5801268
  54.4725752 113.1765456  12.8745805  54.8290272 109.4869628   9.4329497
  54.8788277 109.3219636  10.3745020  54.7204195 108.6196887   9.0427378
  52.1194034 105.4700556  10.7488804  53.0203897 105.3307021  10.4572801
  52.1942009 105.6355011  11.6886981  46.4536840 102.8467411   9.5941990
  45.5840149 103.1400977   9.3224579  46.6896320 103.4307856  10.3149254
  56.3308469 111.9066570   9.6771519  56.0393277 112.2696550  10.5134979
  55.7180600 111.1933578   9.4984851  54.5795657 107.0299184   8.1451577
  55.0549779 107.2226831   7.3370428  53.6561222 107.0858370   7.8994960
  49.1575874  99.0647028   7.1107410  49.6757817  99.8008055   6.7853899
  48.8031006  99.3711021   7.9454170  49.4088468  95.4847311   2.6308307
  49.6890222  94.8170500   3.2568734  50.1939075  95.6776406   2.1182971
  53.2797326 103.9064945   6.3779882  54.2314749 104.0063042   6.3992106
  53.1100777 103.1143213   6.8877966  51.3011706 100.9920528   6.5639283
  50.7061638 101.2725540   5.8685772  51.0161402 101.4814429   7.3356024
  55.7585404 107.1271064   5.4922182  55.7261724 106.1887065   5.6781866
  56.3686028 107.2055101   4.7588007  55.9079892 103.9182108   5.5380465
  55.3918941 103.1340564   5.3510394  56.7919841 103.5900824   5.7026984
  53.5690619  97.6623123   1.4976278  53.3715440  97.3538211   2.3819610
  54.1790325  98.3884762   1.6274207  61.5761954 108.1887071   4.6328219
  62.3065342 107.9272359   5.1935922  60.9668899 107.4515793   4.6730287
  59.6577251 106.3294934   5.2302670  58.9310414 106.1950899   4.6219161
  59.2424538 106.6371762   6.0359388  47.4807427 110.0484863  12.9950043
  48.4010437 110.2263462  13.1890089  47.4457010 109.1040909  12.8429742
  40.4769500 107.9585898   5.6372824  40.6955510 108.8903006   5.6560858
  40.8895274 107.5993872   6.4227628  47.3973718  98.4653983  -2.3751488
  46.5874446  98.1201068  -1.9996242  48.0858135  98.1561527  -1.7863876
  49.3264266  97.5432030  -0.7527191  49.8795305  97.9627484  -0.0937168
  49.5634352  96.6167778  -0.7104235  45.3497365 103.5319104  15.0275573
  45.2494092 104.4813461  14.9587664  45.1318907 103.2037343  14.1551643
  52.7043073  99.6532555  -1.2448527  52.1241742 100.3117359  -1.6270474
  52.4379006  98.8309900  -1.6561109  51.1546639  99.0537613   0.9572794
  51.6546418  99.1654148   0.1487112  51.7982247  98.7498666   1.5973602
  45.2128635 106.9616243  13.8440635  44.7295717 107.7616603  14.0504524
  45.2989574 106.9724187  12.8908079  41.1401973 110.8520777   5.8809068
  42.0945226 110.8204720   5.8139000  40.9414496 110.3911401   6.6959294
  41.7301355 109.4221893   8.4479866  42.5494244 109.9165972   8.4714703
  42.0038163 108.5053861   8.4197433  51.4867951 101.8132646  -2.1892178
  50.5993806 102.0982296  -2.4071984  51.9021940 101.6526409  -3.0364902
  54.8382487 101.8379167   1.5262161  55.6142877 102.3275619   1.7986778
  54.1130621 102.2637221   1.9834030  57.2755046 102.5506786   2.5836101
  57.8699537 102.3102522   1.8729410  57.3481629 101.8313916   3.2109638
  36.9836269 103.7560027   9.1472063  37.6295133 103.2458981   9.6359288
  36.7753420 104.4928709   9.7215488  49.5089661 110.8240875  14.6464204
  50.3780821 110.9981527  14.2850839  49.0296413 111.6435292  14.5239933
  45.5039880  98.0200072  -5.1004041  45.4918549  98.9641912  -4.9435770
  46.3963301  97.8370217  -5.3944580  43.6775841 117.9437976   6.3253637
  44.5803088 117.9761586   6.6420132  43.4513212 117.0138427   6.3399973
  49.3191999  94.6142848  -0.8458104  48.5524395  94.0601335  -0.7001422
  49.7302704  94.6864717   0.0156048  41.3233760 100.9027644  13.2447077
  42.1865222 100.5464449  13.4550402  40.7499171 100.5641539  13.9322482
  57.6126782 120.0462494  11.5118521  56.8360116 120.6056414  11.5021385
  58.2517345 120.5319277  12.0333391  54.6034518 120.0087595  11.8751798
  53.9733179 120.6903876  12.1087195  54.4970606 119.8970677  10.9304936
  53.8815261 114.3108361  14.2377049  53.4882206 113.7574559  14.9124693
  54.6981401 114.6218939  14.6283566  56.7983222 115.7266240  11.8297305
  57.5392935 116.3273393  11.7501768  57.0301145 114.9843878  11.2715348
  51.9424560 120.9122607  10.1075535  51.8278075 120.0107865  10.4082634
  51.0869078 121.1586304   9.7560352  58.6234679 115.5090134   9.0544602
  57.9762594 116.2080083   8.9609078  59.3935694 115.9426277   9.4220850
  54.4647838 118.8555973   9.1060697  53.9285196 118.4046711   9.7582294
  53.8764547 118.9901882   8.3631162  50.1986960 117.9911981   6.1913692
  50.1145148 117.3837650   5.4564102  49.3769666 118.4820999   6.1923188
  58.6323700 122.3744841  12.6929177  57.9564337 122.2738970  13.3631552
  59.4551334 122.2184054  13.1565174  52.3510976 116.0286918   7.5308677
  52.4152303 116.8901749   7.1186075  52.2878096 115.4160919   6.7981036
  51.8263249 118.1010050  11.1781712  52.4535287 117.7187128  11.7919236
  50.9691167 117.8824252  11.5437404  54.9349352 115.3196903   9.3668267
  55.4583754 115.5659199  10.1294576  54.7161685 116.1516937   8.9471404
  49.5768631 121.7054271   9.1455057  48.8350368 121.8536907   9.7319688
  49.2561376 121.9662537   8.2821807  55.0631306 117.4227956  12.8395631
  55.1119461 118.2990079  12.4573401  55.6053820 116.8805349  12.2667275
  57.2930594 118.1759329   9.5941990  56.4233904 118.4692895   9.3224579
  57.5290075 118.7599774  10.3149254  56.1891120 118.8611021  15.0275573
  56.0887847 119.8105378  14.9587664  55.9712662 118.5329260  14.1551643
  56.0522390 122.2908160  13.8440635  55.5689471 123.0908520  14.0504524
  56.1383329 122.3016105  12.8908079  47.8230024 119.0851945   9.1472063
  48.4688887 118.5750899   9.6359288  47.6147175 119.8220627   9.7215488
  52.1627515 116.2319562  13.2447077  53.0258976 115.8756367  13.4550402
  51.5892925 115.8933457  13.9322482  37.3428890  75.2018635  -1.5691658
  36.8992744  74.4155013  -1.8870753  38.0046103  75.3897785  -2.2347767
  39.4410128  75.4821435  -3.5410256  39.4228603  76.3030316  -4.0329987
  40.3630048  75.3575510  -3.3160115  35.8983182  72.9965564  -2.6986748
  36.4311519  72.2353852  -2.9287440  35.3697263  72.7039216  -1.9562594
  45.2910860  71.9710530  -6.7200419  45.4846750  72.8756341  -6.4741144
  45.1911478  71.5117949  -5.8861834  40.3525969  72.1217273  -1.1459538
  40.2011475  71.8927825  -2.0629455  40.3430648  73.0787874  -1.1328193
  42.0618175  75.1536396  -3.0683056  42.0030722  74.4695616  -3.7352473
  42.4637694  75.8955386  -3.5202430  42.0635583  73.1175979  -4.8369077
  41.1762362  72.7801901  -4.7142678  42.6334134  72.3859011  -4.6000311
  38.0535420  77.6764266  -5.7149675  38.7663392  78.3111731  -5.7873773
  37.5625448  77.7728132  -6.5309673  36.9536192  68.7223128  -0.5825517
  36.2776829  68.6217257   0.0876859  37.7763826  68.5662342  -0.1189519
  35.6958975  80.0290055  -6.3467901  36.2477283  80.1921677  -5.5818815
  36.0365169  80.6194493  -7.0187876  40.5469849  74.8551313  -0.4919246
  41.0909753  75.4681271  -0.9864291  39.9656694  75.4130891   0.0247767
  35.8424786  77.5948537  -4.3319246  36.1511913  77.3497684  -3.4596547
  36.6400268  77.7995175  -4.8200376  43.8698644  74.3147367  -1.1557925
  43.0794187  74.2971506  -1.6953425  43.6331998  74.8535661  -0.4008888
  43.9896519  71.1639833  -3.8425196  44.0394524  70.9989841  -2.9009674
  43.8810442  70.2967092  -4.2327316  41.2800281  67.1470761  -2.5265890
  42.1810144  67.0077226  -2.8181892  41.3548256  67.3125216  -1.5867712
  45.4914716  73.5836775  -3.5983175  45.1999524  73.9466755  -2.7619714
  44.8786847  72.8703783  -3.7769843  36.6413674  71.7255068  -0.2804651
  37.5616684  71.9033667  -0.0864604  36.6063257  70.7811114  -0.4324951
  34.3734882  68.6386448   0.5685941  33.8901964  69.4386808   0.7749830
  34.4595821  68.6494392  -0.3846615  38.6695908  72.5011080   1.3709510
  39.5387068  72.6751732   1.0096145  38.1902659  73.3205496   1.2485240
  50.3288384  84.2099706  -9.2245215  50.9666794  84.0906453  -9.9281875
  50.2109227  85.1580550  -9.1657263  47.1378090  84.1627134  -9.2883690
  46.7996602  84.0468198 -10.1763156  48.0067858  83.7618299  -9.3082684
  47.6197873  85.3161985  -3.3297485  47.6086514  84.9214784  -4.2016981
  47.7818513  84.5828058  -2.7363713  44.3405134  88.0999097  -4.3818301
  44.0495000  89.0044728  -4.4971635  44.9762119  88.1415625  -3.6674231
  45.2661341  85.4775946  -7.7916941  45.8624913  85.2531968  -8.5059978
  45.3236313  84.7360691  -7.1891493  49.8829652  81.9351159 -12.1492007
  50.6692741  81.5170583 -12.5001590  50.1468357  82.8397252 -11.9810359
  55.2838079  81.8726393 -11.2459029  56.0163251  81.3025609 -11.0121199
  54.5277435  81.4847993 -10.8052523  46.9014199  84.2953634 -14.0495686
  46.5372406  83.7684255 -13.3382765  47.7581315  83.9052103 -14.2229201
  52.8063500  75.5847967  -6.7864420  52.4746825  76.4543378  -7.0103205
  52.2109113  75.2684251  -6.1070390  49.2995019  87.7860513  -7.3868507
  48.9995742  88.6885552  -7.4952700  48.9546079  87.5192696  -6.5347354
  42.7507501  84.2374310 -11.3531803  41.8257997  84.1050524 -11.1454111
  42.9991914  85.0168529 -10.8561860  52.6992163  80.3043053  -9.7071070
  51.7909040  80.2358461 -10.0012309  52.6479759  80.7814998  -8.8789244
  46.7733029  81.7232698  -1.7636173  45.9966363  82.2826619  -1.7733308
  47.4123592  82.2089481  -1.2421302  54.5653809  78.5059491  -7.9293196
  53.9228190  78.7992024  -8.5753401  54.0608738  78.3912412  -7.1239999
  45.0279401  84.5318152  -2.2018206  45.7694086  85.0703196  -2.4783382
  44.3216387  85.1584441  -2.0446654  50.5034741  86.6747292  -3.6046044
  50.9118097  86.2329703  -4.3491412  49.7812002  86.0999920  -3.3511851
  46.8565811  81.6119899  -6.2312487  47.7027006  82.0359313  -6.0877838
  46.7964448  80.9553523  -5.5373924  50.8263555  87.2348483  -9.8493755
  50.1972418  87.3994197 -10.5517687  50.4389217  87.6490092  -9.0782791
  50.0065256  79.2724267  -4.5731314  49.7626188  80.0266328  -5.1097038
  50.2825187  79.6509615  -3.7384066  51.9603719  85.8162880  -5.8954048
  52.1720614  86.4594640  -6.5719667  51.9133467  84.9825196  -6.3632118
  49.5629948  78.4280700  -8.9917476  48.7014427  78.7261954  -8.7000738
  49.5892383  78.6451099  -9.9236443  46.3791517  86.9722891 -12.5843670
  46.8429863  87.2510594 -13.3739048  46.1148315  86.0706336 -12.7670579
  43.2715598  86.5194373  -9.6463907  43.8416955  86.9481641 -10.2846422
  43.8623710  86.2376957  -8.9479721  43.7640765  81.6857800  -1.4002896
  43.1339425  82.3674081  -1.1667499  43.6576853  81.5740882  -2.3449757
  53.0749547  88.6934835  -7.7231691  53.8966991  88.2915022  -8.0049009
  53.0711950  88.5903069  -6.7715575  46.8406150  88.2418879  -5.5670980
  46.9050583  88.7039286  -4.7312808  46.1317074  87.6116243  -5.4388670
  37.3423440  81.6060086  -8.0421981  37.5931479  82.4907096  -7.7764405
  37.8782989  81.4264688  -8.8146889  43.0421508  75.9878566   0.9622355
  42.6488453  75.4344764   1.6370000  43.8587648  76.2989144   1.3528873
  45.9589469  77.4036445  -1.4457388  46.6999182  78.0043598  -1.5252926
  46.1907391  76.6614083  -2.0039345  41.1030807  82.5892812  -3.1679158
  40.9884322  81.6878069  -2.8672059  40.2475324  82.8356509  -3.5194342
  48.1822644  90.5310553  -1.5691658  47.7386499  89.7446931  -1.8870753
  48.8439858  90.7189703  -2.2347767  42.9409766  92.0606354  -7.0430979
  43.4917191  91.9323417  -7.8153985  42.1021241  92.3601243  -7.3936086
  50.2803882  90.8113352  -3.5410256  50.2622358  91.6322233  -4.0329987
  51.2023802  90.6867428  -3.3160115  46.7376937  88.3257482  -2.6986748
  47.2705273  87.5645770  -2.9287440  46.2091018  88.0331134  -1.9562594
  49.9046632  73.4317548  -7.1693106  49.5610901  74.3219190  -7.2453996
  50.2725594  73.2419206  -8.0323521  48.9843172  75.8022203  -9.2043873
  48.4807968  75.7652338 -10.0176068  49.2773779  76.7114946  -9.1447216
  53.0822495  85.6492495 -10.0700890  52.4246170  86.3391756  -9.9820761
  53.8862895  86.0388927  -9.7266903  51.8927954  84.0036868 -12.0196948
  52.4059836  84.6366859 -11.5175238  52.5429178  83.4038063 -12.3853588
  48.3708785  81.4786323  -9.7738607  47.4531346  81.7001270  -9.9316919
  48.7868929  81.5532634 -10.6326900  51.6022670  79.9134855 -12.6617138
  50.8645427  79.4012241 -12.3306895  51.8549443  79.4735237 -13.4733861
  45.9755377  82.9864900 -11.5599178  46.0303987  82.0338737 -11.6356701
  45.1646579  83.1424339 -11.0757879  49.5121949  82.0683784  -4.9693905
  49.8671336  82.2955257  -4.1099439  50.1594080  82.4002161  -5.5916649
  43.4061812  79.1760315  -8.1847564  44.0461191  79.0349075  -8.8824600
  42.5739342  78.8894829  -8.5608962  49.0016960  90.8580841  -7.7200204
  49.0553982  91.4271778  -6.9522488  48.1331741  91.0282726  -8.0846167
  41.8815353  80.5598398  -6.2375752  42.5538407  80.3515760  -6.8863103
  41.0545140  80.3620484  -6.6770520  56.1304615  87.3002448  -6.7200419
  56.3240505  88.2048258  -6.4741144  56.0305233  86.8409867  -5.8861834
  47.7840925  77.1860338  -4.2210092  47.1368840  77.8850288  -4.3145615
  48.5541941  77.6196482  -3.8533843  51.1919723  87.4509191  -1.1459538
  51.0405230  87.2219742  -2.0629455  51.1824403  88.4079792  -1.1328193
  47.9605060  85.0241103  -6.1613272  48.8897120  85.1752263  -6.3344304
  47.5396090  85.1125124  -7.0164625  46.7593392  89.0491768  -8.3914734
  46.6204477  88.6810552  -7.5188796  45.9707988  89.5639407  -8.5630776
  48.3098607  88.4273371 -11.0025896  47.9748439  88.3874140 -10.1068247
  47.8102552  87.7618086 -11.4755486  42.2842851  83.8341001  -5.4773315
  42.1462649  83.1021239  -4.8761776  43.1947774  83.7449901  -5.7589127
  44.9125151  83.5460960  -5.9889636  45.6224770  82.9054152  -6.0303017
  44.8694459  83.7973855  -5.0663455  52.9011930  90.4828313  -3.0683056
  52.8424476  89.7987533  -3.7352473  53.3031448  91.2247303  -3.5202430
  43.6254085  80.5326178  -4.1693996  43.0891442  80.0816916  -3.5172400
  43.0370794  80.6672087  -4.9123532  52.9029337  88.4467897  -4.8369077
  52.0156116  88.1093819  -4.7142678  53.4727888  87.7150928  -4.6000311
  39.3593206  79.6682185  -7.0841002  39.2751395  79.0607855  -7.8190592
  38.5375913  80.1591204  -7.0831505  46.4330491  93.1069349  -7.8707833
  46.3600662  93.9124321  -7.3588529  45.9907884  93.3061315  -8.6959812
  57.3846678  83.8576115 -10.0752515  57.3736554  84.7400830 -10.4458582
  56.5164057  83.5047665 -10.2697978  48.8929174  93.0056184  -5.7149675
  49.6057146  93.6403648  -5.7873773  48.4019203  93.1020050  -6.5309673
  43.9441088  90.7550627  -4.8944104  44.6450547  91.3887110  -4.7414710
  43.4736203  91.0965359  -5.6548465  51.9735915  75.1205342  -9.5691448
  51.0598995  75.3509569  -9.4009241  52.4029017  75.2043787  -8.7177415
  51.7442374  83.3095234  -7.0691554  51.0913824  83.5571142  -7.7239101
  52.1222754  82.4959373  -7.4029076  47.7929947  84.0515045  -0.5825517
  47.1170584  83.9509175   0.0876859  48.6157581  83.8954259  -0.1189519
  46.5352730  95.3581973  -6.3467901  47.0871038  95.5213594  -5.5818815
  46.8758923  95.9486411  -7.0187876  41.5117223  77.7057123  -5.7446016
  41.5758549  78.5671954  -6.1568618  41.4484343  77.0931124  -6.4773657
  40.9869495  79.7780255  -2.0972982  41.6141534  79.3957333  -1.4835457
  40.1297414  79.5594457  -1.7317289  51.3863604  90.1843230  -0.4919246
  51.9303508  90.7973189  -0.9864291  50.8050449  90.7422809   0.0247767
  51.7356025  91.1072969  -7.7324668  50.7886361  90.9878320  -7.8046342
  52.0838798  90.2195467  -7.6498407  44.0955599  76.9967107  -3.9086426
  44.6190000  77.2429404  -3.1460117  43.8767932  77.8287142  -4.3283289
  45.3008144  77.9380803  -6.2236756  44.9604964  77.1388616  -5.8216076
  44.5947150  78.2382513  -6.7959923  45.9524615  75.0230115  -7.7709433
  46.7750685  74.5490593  -7.8930543  46.1962679  75.8020599  -7.2710747
  43.4763194  81.7149236  -9.9617454  43.3307775  82.0289539  -9.0693173
  42.9988398  82.3334136 -10.5146556  45.3359577  78.7051784  -9.9136565
  45.3221146  77.8092877 -10.2504267  46.0532005  78.7122447  -9.2798279
  47.1885708  79.1389124  -7.8683437  46.9303486  80.0606194  -7.8699107
  46.6570748  78.7419558  -7.1782973  37.9508856  84.2554580  -7.0229793
  37.4062324  85.0314388  -6.8909519  38.8288206  84.6025385  -7.1810672
  38.7374878  83.3824476  -4.1299636  37.9956614  83.5307112  -3.5435006
  38.4167623  83.6432742  -4.9932887  46.6818541  92.9240455  -4.3319246
  46.9905667  92.6789601  -3.4596547  47.4794023  93.1287093  -4.8200376
  44.2237553  79.0998161  -0.4359062  44.2725708  79.9760284  -0.8181292
  44.7660067  78.5575554  -1.0087419  54.7092398  89.6439285  -1.1557925
  53.9187942  89.6263423  -1.6953425  54.4725753  90.1827578  -0.4008888
  54.8290273  86.4931751  -3.8425196  54.8788278  86.3281758  -2.9009674
  54.7204197  85.6259010  -4.2327316  52.1194036  82.4762679  -2.5265890
  53.0203898  82.3369144  -2.8181892  52.1942010  82.6417134  -1.5867712
  46.4536841  79.8529534  -3.6812703  45.5840150  80.1463100  -3.9530115
  46.6896321  80.4369979  -2.9605440  56.3308470  88.9128692  -3.5983175
  56.0393278  89.2758673  -2.7619714  55.7180601  88.1995701  -3.7769843
  54.5795658  84.0361307  -5.1303117  55.0549780  84.2288953  -5.9384265
  53.6561224  84.0920493  -5.3759733  49.1575875  76.0709151  -6.1647283
  49.6757819  76.8070178  -6.4900794  48.8031008  76.3773144  -5.3300524
  53.2797327  80.9127067  -6.8974811  54.2314750  81.0125165  -6.8762587
  53.1100778  80.1205336  -6.3876727  51.3011707  77.9982650  -6.7115410
  50.7061639  78.2787663  -7.4068922  51.0161404  78.4876551  -5.9398669
  55.7585405  84.1333187  -7.7832512  55.7261725  83.1949188  -7.5972828
  56.3686029  84.2117224  -8.5166687  55.9079894  80.9244230  -7.7374228
  55.3918942  80.1402687  -7.9244300  56.7919842  80.5962947  -7.5727709
  53.5690621  74.6685246 -11.7778416  53.3715442  74.3600334 -10.8935084
  54.1790326  75.3946885 -11.6480486  61.5761955  85.1949194  -8.6426475
  62.3065343  84.9334482  -8.0818771  60.9668900  84.4577916  -8.6024407
  59.6577252  83.3357056  -8.0452024  58.9310416  83.2013021  -8.6535532
  59.2424539  83.6433885  -7.2395306  47.4807429  87.0546986  -0.2804651
  48.4010438  87.2325585  -0.0864604  47.4457012  86.1103031  -0.4324951
  40.4769501  84.9648021  -7.6381869  40.6955511  85.8965128  -7.6193836
  40.8895275  84.6055995  -6.8527066  45.3497366  80.5381226   1.7520880
  45.2494093  81.4875583   1.6832971  45.1318908  80.2099465   0.8796950
  45.2128636  83.9678365   0.5685941  44.7295718  84.7678725   0.7749830
  45.2989576  83.9786310  -0.3846615  41.1401974  87.8582900  -7.3945625
  42.0945227  87.8266842  -7.4615693  40.9414498  87.3973524  -6.5795399
  41.7301356  86.4284016  -4.8274827  42.5494245  86.9228095  -4.8039990
  42.0038164  85.5115984  -4.8557260  54.8382488  78.8441289 -11.7492533
  55.6142879  79.3337742 -11.4767916  54.1130623  79.2699343 -11.2920663
  57.2755047  79.5568908 -10.6918592  57.8699538  79.3164644 -11.4025284
  57.3481631  78.8376039 -10.0645056  36.9836270  80.7622150  -4.1282630
  37.6295134  80.2521104  -3.6395405  36.7753421  81.4990831  -3.5539205
  49.5089663  87.8302997   1.3709510  50.3780822  88.0043650   1.0096145
  49.0296414  88.6497414   1.2485240  43.6775843  94.9500098  -6.9501056
  44.5803089  94.9823709  -6.6334561  43.4513213  94.0200549  -6.9354720
  41.3233761  77.9089767  -0.0307616  42.1865223  77.5526572   0.1795708
  40.7499172  77.5703662   0.6567788  57.6126783  97.0524616  -1.7636173
  56.8360117  97.6118536  -1.7733308  58.2517346  97.5381399  -1.2421302
  54.6034519  97.0149718  -1.4002896  53.9733180  97.6965999  -1.1667499
  54.4970607  96.9032799  -2.3449757  53.8815262  91.3170484   0.9622355
  53.4882208  90.7636682   1.6370000  54.6981402  91.6281062   1.3528873
  56.7983223  92.7328363  -1.4457388  57.5392936  93.3335516  -1.5252926
  57.0301146  91.9906000  -2.0039345  51.9424561  97.9184730  -3.1679158
  51.8278076  97.0169987  -2.8672059  51.0869079  98.1648427  -3.5194342
  58.6234680  92.5152256  -4.2210092  57.9762595  93.2142206  -4.3145615
  59.3935695  92.9488400  -3.8533843  54.4647840  95.8618095  -4.1693996
  53.9285197  95.4108834  -3.5172400  53.8764548  95.9964004  -4.9123532
  50.1986961  94.9974103  -7.0841002  50.1145150  94.3899773  -7.8190592
  49.3769667  95.4883121  -7.0831505  58.6323701  99.3806963  -0.5825517
  57.9564338  99.2801092   0.0876859  59.4551335  99.2246177  -0.1189519
  52.3510977  93.0349040  -5.7446016  52.4152304  93.8963871  -6.1568618
  52.2878098  92.4223042  -6.4773657  51.8263250  95.1072173  -2.0972982
  52.4535289  94.7249250  -1.4835457  50.9691169  94.8886375  -1.7317289
  54.9349353  92.3259025  -3.9086426  55.4583755  92.5721322  -3.1460117
  54.7161686  93.1579060  -4.3283289  49.5768633  98.7116394  -4.1299636
  48.8350369  98.8599029  -3.5435006  49.2561377  98.9724660  -4.9932887
  55.0631307  94.4290079  -0.4359062  55.1119463  95.3052202  -0.8181292
  55.6053821  93.8867472  -1.0087419  57.2930595  95.1821451  -3.6812703
  56.4233905  95.4755017  -3.9530115  57.5290076  95.7661896  -2.9605440
  56.1891121  95.8673144   1.7520880  56.0887848  96.8167501   1.6832971
  55.9712663  95.5391383   0.8796950  56.0522391  99.2970283   0.5685941
  55.5689473 100.0970643   0.7749830  56.1383330  99.3078228  -0.3846615
  47.8230025  96.0914067  -4.1282630  48.4688888  95.5813021  -3.6395405
  47.6147176  96.8282749  -3.5539205  52.1627516  93.2381685  -0.0307616
  53.0258977  92.8818489   0.1795708  51.5892926  92.8995579   0.6567788
  58.6323702  76.3869086 -13.8580210  57.9564339  76.2863215 -13.1877835
  59.4551336  76.2308300 -13.3944213  56.0522392  76.3032405 -12.7068752
  55.5689474  77.1032766 -12.5004863  56.1383331  76.3140350 -13.6601308
 138.0768316 138.0768316 138.0768316 109.4712190 109.4712190 109.4712190
