
24358  0.0000000e+00
  17.3626840  42.5275850  24.4966483  16.6647398  43.1680536  24.8470354
  17.3147190  42.4264622  23.4928679  18.2998204  42.8344774  24.7150350
  17.2244763  41.2377644  25.1521325  17.2924399  41.3176680  26.2370729
  15.8625507  40.5961895  25.0394773  15.6038058  40.4404974  23.9921427
  15.6660068  39.3001533  25.7909107  14.6703923  38.8566804  25.7772970
  16.3661706  38.5886836  25.3530931  15.9955871  39.4593072  26.8176270
  14.9176896  41.4451313  25.5086017  14.4154131  41.7882061  24.7658920
  18.3738124  40.3407192  24.7283721  18.3414698  39.7087836  23.6600614
  19.4587922  40.4327202  25.4534721  19.4587886  40.9840822  26.2997031
  20.6466126  39.7562027  25.0348353  20.3797126  38.7726092  24.6483016
  21.3147235  40.6362915  24.0031528  20.5618978  41.0557985  23.3357930
  21.7112947  41.5285873  24.4875503  22.1927500  39.9637413  22.9238558
  22.0520568  38.8515377  22.5115252  23.2453465  40.6733513  22.5840998
  23.8866162  40.3095961  21.8937707  23.3278060  41.6471672  22.8390121
  21.6824365  39.5034218  26.1562419  22.7674198  39.0228271  25.8863258
  21.3150644  39.6715713  27.3644447  20.3413558  39.8230672  27.5858974
  22.2200298  39.6645761  28.5214591  22.8162766  40.5616999  28.3548546
  21.3487864  39.8084664  29.7088528  20.5967021  40.5712509  29.5072842
  20.8544636  38.8388562  29.7688389  22.0614839  40.1577854  31.0241222
  22.6165581  39.3033004  31.4112258  22.8987622  40.8441639  30.8978438
  21.0895038  40.6681967  32.0701504  20.4687595  39.9609041  32.8641176
  20.8157563  41.9261789  31.9134164  20.4351497  42.4125910  32.7125669
  21.2702322  42.4007130  31.1463666  23.2528329  38.5213637  28.6408353
  24.3611932  38.7578988  29.0429139  22.8200388  37.2747469  28.3656049
  21.8293071  37.1248150  28.2388330  23.7828112  36.1553502  28.3159637
  24.3556905  36.1223769  29.2426968  23.0525303  34.8407650  28.0877852
  22.2572184  34.9239087  27.3470664  23.7246251  34.0979886  27.6580524
  22.5118041  34.1578531  29.2937613  22.1062565  35.0109243  29.8377275
  21.3963175  33.0751824  28.9971089  21.1704612  32.6090384  29.9561715
  20.5237174  33.5574150  28.5565138  21.7650533  32.3556328  28.2660961
  23.5242367  33.4756827  30.2430701  24.3606567  34.1080976  30.5406499
  23.0683374  33.3622789  31.2266374  23.7908387  32.4726868  29.9098682
  24.9347568  36.5403628  27.3108125  26.1105919  36.4316177  27.6811099
  24.6021867  36.9682646  26.0661411  23.6198139  36.9991183  25.8335590
  25.6121445  37.3880339  25.1198721  26.2204409  36.4922762  24.9946046
  25.0736475  37.6152945  23.7249994  24.1774440  38.2287335  23.8178182
  25.8233213  38.1235313  23.1185460  24.6978474  36.4319587  22.7957535
  24.3618321  36.8341136  21.8400002  25.6263614  35.8764935  22.6637220
  23.6258793  35.5595565  23.3014631  23.8610697  34.4119525  23.7456751
  22.4024081  36.0427451  23.3676481  21.6522789  35.4933143  23.7620258
  22.2128487  36.9783688  23.0378342  26.4970493  38.5421491  25.5541897
  27.6909995  38.5107327  25.2038980  25.9275031  39.4513369  26.4120364
  24.9856091  39.3684411  26.7670941  26.7589211  40.5696011  26.9916654
  27.3048735  41.0784769  26.1972570  25.8309889  41.6901922  27.5515342
  25.0941086  41.9600344  26.7950320  25.2578139  41.2207317  28.3510160
  26.5782428  42.8948736  27.9498506  26.6487956  44.0944910  27.0988965
  26.1110997  44.0869999  26.1622930  27.4417663  45.1323700  27.5366497
  27.4665380  45.9869480  26.8767333  28.1623626  45.1003170  28.8114715
  28.9505410  46.1558056  29.0605426  28.8028264  46.7391491  28.3125520
  27.9609084  44.0055466  29.6694422  28.4166837  43.9503956  30.6470037
  27.1388102  42.9300737  29.2254448  27.0485425  42.0696259  29.8718810
  27.7668715  40.0207472  27.9851413  28.9092374  40.5071402  28.1320429
  27.3813128  38.9661241  28.7088609  26.5263295  38.4404063  28.5960603
  28.4220219  38.2283020  29.4994760  28.9473367  38.9437652  30.1321316
  27.7409649  37.1706247  30.4255843  27.0787215  36.5077114  29.8687339
  28.5422873  36.5810037  30.8709240  27.0175910  37.7174830  31.6799951
  26.2628913  38.4575534  31.4138675  26.3282585  36.6708636  32.4810290
  25.7361388  37.1531749  33.2587647  25.7203555  36.1837459  31.7186189
  27.0424819  35.9603095  32.8970790  27.9778957  38.3740640  32.6199937
  28.7799430  37.7061200  32.9341125  28.2358718  39.3289995  32.1621275
  27.4700141  38.5396957  33.5701108  29.5152283  37.6217818  28.6377311
  30.7027960  38.0163836  28.7503481  29.2355418  36.6060567  27.7562451
  28.2825565  36.2789011  27.6863050  30.2227759  35.9147763  26.8807745
  30.8542395  35.3896117  27.5974035  29.5610428  34.8533249  25.9119558
  28.9729977  34.2745638  26.6242313  28.9213467  35.3493261  25.1819777
  30.4991817  33.8608861  25.1815987  31.2609506  33.5811043  25.9092903
  29.6910763  32.5042176  24.8240066  29.4814849  32.0449495  25.7900548
  28.7613964  32.8640223  24.3831635  30.3051758  31.9602966  24.1062808
  31.2311387  34.3514824  23.9324546  31.9778776  35.1046538  24.1838741
  31.7873144  33.4920073  23.5581923  30.5512929  34.6631932  23.1395173
  31.1079645  36.9060755  26.0851336  32.3651910  36.7566919  26.0325265
  30.5046749  37.9296589  25.4263425  29.4992971  37.9995298  25.4929161
  31.2326980  38.7941265  24.4358253  32.2523332  38.5291767  24.1561007
  30.2677703  39.0910482  23.2555389  29.5228553  39.7662926  23.6765504
  30.9046841  39.5334578  22.4895644  29.5268393  37.8461599  22.7083039
  30.1437521  37.0271707  22.3384714  28.8251901  37.4416208  23.4377885
  28.7348175  38.2181835  21.4988256  28.0342150  37.4167180  21.2644958
  28.0842233  39.0675688  21.7071033  29.5378208  38.6742163  20.3352499
  29.5696139  39.6829200  20.2951479  29.9047804  37.9457688  19.3014014
  29.8235154  36.6222811  19.2994213  29.4463706  36.1766291  20.1235938
  30.1348472  36.1210322  18.4797132  30.3621626  38.4786940  18.2521248
  30.2945805  39.4757795  18.1060040  30.6252384  37.8377128  17.5172544
  31.7683768  40.0608921  25.0419402  32.6529741  40.6596947  24.4177723
  31.2609315  40.4722166  26.2471032  30.4854178  39.9289608  26.5986013
  31.7871594  41.7169571  26.8984294  32.6753330  42.1083164  26.4023566
  30.8032537  42.9182100  26.9621611  29.8638248  42.5522947  27.3765087
  31.3027835  44.0755129  27.8530765  31.1938310  43.7326813  28.8820052
  32.2957587  44.3707514  27.5140381  30.7121944  44.9900532  27.9071498
  30.5054641  43.5080051  25.5192685  31.4513540  43.8753748  25.1212382
  30.0307751  42.7667618  24.8763609  29.7675967  44.2918634  25.6901908
  32.4448800  41.4062786  28.2806301  33.6540556  41.6257143  28.3959699
  31.6747642  40.9647226  29.2684507  30.7415009  40.6457281  29.0508223
  32.2035599  40.9383678  30.6361508  32.6432729  41.9197655  30.8139300
  31.1231852  40.7402515  31.6769719  30.7375360  39.7345448  31.5098524
  31.5379524  40.7714653  33.1897140  32.4954343  40.2754259  33.3486891
  31.6826582  41.7985106  33.5248876  30.8187866  40.2908659  33.8529825
  29.8595119  41.5418863  31.5591788  29.1398478  41.2833214  32.3359251
  30.1437998  42.5534821  31.8489170  29.4349241  41.3815928  30.5681539
  33.2733130  39.8582101  30.8433056  34.3957591  40.0763321  31.4408159
  32.9515886  38.6389804  30.3761649  32.0691943  38.4735370  29.9134445
  33.8571286  37.5070238  30.2878737  34.1602588  37.2179413  31.2941742
  33.1980920  36.2101293  29.7847652  32.4106956  35.9594798  30.4956007
  32.7503848  36.4531922  28.8211370  34.2310476  35.0400019  29.6548629
  35.1304483  35.3672123  29.1332126  34.8644018  34.6220469  30.9912944
  34.1470075  34.2585063  31.7270136  35.5455399  33.7875319  30.8247662
  35.4033518  35.4688692  31.4161825  33.5275578  33.8174558  28.9703345
  33.2754850  33.1106973  29.7609425  32.7139592  34.0631700  28.2878542
  34.2444348  33.3131886  28.3223367  35.1519465  37.8506613  29.5117688
  36.2892532  37.8884149  30.0284433  34.9202394  38.4094000  28.2475019
  33.9671612  38.3771849  27.9147696  35.9709835  38.6193395  27.3158336
  36.3805676  37.6191854  27.1743035  35.2598786  39.1520476  26.0078979
  34.3696356  38.5653496  25.7812858  34.9545908  40.1866627  26.1643267
  36.2330723  38.9740705  24.8579931  37.1207500  39.5952463  24.9774504
  36.4115667  37.9038954  24.7532845  35.5443597  39.4903827  23.5295010
  34.6335840  38.9203477  23.3460665  35.3953791  40.5678654  23.5998034
  36.4031076  39.2386818  22.2993445  35.9324217  39.7650790  21.4690065
  37.4431658  39.5107985  22.4791551  36.4309788  37.8035069  21.8838716
  35.5206871  37.4387431  21.6421819  37.0075321  37.6315117  21.0726357
  36.7300177  37.2223401  22.6538849  36.9774508  39.6262693  27.8902721
  38.1528974  39.3851495  27.7116013  36.5519404  40.6595230  28.6023879
  35.5507755  40.7638597  28.5194325  37.2314000  41.6159010  29.4246292
  38.0038524  42.1158552  28.8402748  36.2428570  42.7024937  29.8613119
  35.4571652  42.2061539  30.4309058  36.8651271  43.7716341  30.7153249
  36.4851809  43.5399914  31.7103529  37.9544616  43.7626743  30.7523251
  36.5491247  44.7834396  30.4613709  35.5353928  43.3070898  28.9000940
  34.6673775  42.9098177  28.7984943  38.0480719  41.0428047  30.5928636
  39.1973662  41.3732386  30.8518076  37.6051855  39.9298644  31.2299919
  36.8246174  39.4457340  30.8099556  38.2253480  39.3142605  32.4381685
  38.8879228  40.0494576  32.8948712  37.0538926  38.9088702  33.4730530
  36.3537097  38.3405685  32.8607821  37.3791456  38.2490897  34.2774200
  36.2903786  40.0732946  34.1771936  36.1256313  40.7452726  33.3349299
  34.8735428  39.7358918  34.6590805  34.9208927  39.1633654  35.5853987
  34.4516993  40.7163239  34.8802185  34.3695116  39.2368484  33.8314319
  37.1270108  40.7605791  35.2700329  38.0879283  41.1203337  34.9021769
  36.4219475  41.5393162  35.5608058  37.2152305  39.9683213  36.0134339
  39.1039777  38.0767655  32.0905352  40.1060915  37.8562832  32.7873039
  38.8438988  37.3429489  31.0278296  38.0206990  37.5732851  30.4898810
  39.4310832  36.0158587  30.7400179  39.2267323  35.4583383  31.6540813
  38.7023592  35.3117156  29.5988536  37.6269126  35.3296757  29.7754741
  38.8597178  35.8567572  28.6681175  39.1814089  33.9280677  29.3123055
  39.7772884  33.6787105  28.1217813  39.9309373  34.3904710  27.3241663
  40.1222563  32.3198414  27.9887676  40.6910181  32.0344734  27.2044373
  39.8256469  31.6399074  29.1956162  39.9902964  30.2924228  29.6204710
  40.3041697  29.5302820  28.9226007  39.5333886  29.9175167  30.9129214
  39.5501661  28.8944578  31.2585616  38.8900924  30.8923459  31.7565346
  38.4674716  30.5933642  32.7043772  38.9216113  32.2555518  31.3589692
  38.6930084  33.0111170  32.0960355  39.2906570  32.6590133  30.0434947
  40.9946442  36.0181642  30.6202579  41.7030334  35.0222993  30.8601713
  41.5823460  37.0850396  30.1267099  41.0084486  37.8838015  29.8970842
  43.0492592  37.3084807  29.9123669  43.4655714  36.4990187  30.5119967
  43.3031368  37.1896696  28.4219122  42.9370785  38.0883884  27.9255152
  44.3838549  37.1753597  28.2806683  42.7294874  35.8895659  27.8049064
  43.2049131  35.0572300  28.3238387  41.6506195  35.8196259  27.9436827
  43.0126238  35.7345080  26.3175988  44.0961599  35.6159711  26.3177109
  42.5834799  34.7948647  25.9697437  42.6476622  36.9491959  25.3886914
  41.6051388  37.2635412  25.4381037  43.2743168  37.7948165  25.6721115
  42.9356766  36.5021634  23.9883995  43.8594961  36.0944486  23.9676738
  42.2613239  35.8147931  23.6836529  42.8867960  37.2827291  23.3493161
  43.4568596  38.6727738  30.4775190  44.4378328  39.2419815  30.0716114
  42.7287340  39.1140699  31.5175271  41.9986343  38.4936094  31.8370199
  43.2249641  40.1354408  32.4237466  43.3120441  41.0744667  31.8771648
  42.1152925  40.4305029  33.4701204  41.1814547  40.7655096  33.0186653
  41.8633461  39.4725895  33.9251280  42.4580193  41.4325809  34.5306778
  43.0164003  41.1358023  35.7574987  43.1031799  42.2742367  36.4633512
  43.5805750  42.4029207  37.4235296  42.6925945  43.2667065  35.6665325
  42.6839495  44.2426443  35.9264731  42.1994162  42.7627659  34.4889617
  41.8549442  43.2996893  33.6174965  44.5444965  39.8449969  33.1295943
  45.0090408  38.6947060  33.1303787  45.3090429  40.8107615  33.6024523
  44.8304129  41.6866207  33.7570095  46.6960478  40.5748463  34.1051269
  47.3316622  40.2159405  33.2956314  47.3721743  41.9405127  34.4353366
  48.4343100  41.6957331  34.4420052  47.3287392  42.6362801  33.5974097
  47.0528412  42.6862335  35.7575488  46.6533470  41.8879652  36.3830686
  47.9699993  43.0203295  36.2426257  46.1206293  43.8378143  35.8530998
  45.6921434  44.4463348  34.9069834  45.7125092  44.1482210  37.0459700
  45.1853800  44.9977112  37.1894908  46.1095667  43.7258816  37.8730607
  46.8213987  39.5276618  35.2331042  47.8063107  38.8081598  35.2910519
  45.8082294  39.4526267  36.0968971  45.0312281  40.0498867  35.8526778
  45.6884289  38.4802842  37.2038031  46.6612673  38.0296874  37.4004149
  45.2540064  39.2669535  38.4857225  44.2271423  39.5414495  38.2442594
  45.1952982  38.5514760  39.3059325  46.0668755  40.4781723  38.8095117
  47.4243164  40.6549978  38.5021973  47.9814482  39.9247718  37.9340577
  48.0239344  41.8988895  38.7587500  49.0154076  42.1602297  38.4195137
  47.3762560  42.8934956  39.4972038  47.7982950  43.8638926  39.7131014
  46.0153580  42.6979542  39.8387480  45.5025816  43.4404707  40.4321527
  45.3675318  41.5010357  39.4535780  44.3955755  41.3432455  39.8972034
  44.8288584  37.2307587  36.8816543  44.3353415  36.6545010  37.8092194
  44.3877745  37.0173025  35.5706739  44.7238731  37.6968050  34.9032807
  43.3920336  36.0400891  35.1664066  42.4927664  35.9891796  35.7802725
  42.9364061  36.3491082  33.7197161  43.8307858  36.4931512  33.1135440
  42.3082209  35.5927396  33.2491946  42.3515415  37.2674704  33.7711406
  43.8708591  34.5662427  35.1705027  43.0735254  33.7396026  35.3381753
  45.1855755  34.2632794  35.0016284  45.8784437  34.9775863  34.8289990
  45.7384729  32.9038906  34.8961186  45.4138184  32.5925899  33.9032483
  47.2883797  32.7876520  34.7481990  47.5280905  33.2639241  33.7975144
  47.7334595  33.3896828  35.5403876  47.9309034  31.3877368  34.8228931
  48.3247948  30.8029580  35.9249759  48.2588720  31.3237214  36.8688297
  48.8077307  29.5346045  35.6899095  49.1507530  28.9663506  36.4511728
  48.7042379  29.1944242  34.2962050  48.8803053  28.0093408  33.5837245
  49.4046974  27.1715546  34.0190697  48.4586620  27.9586720  32.2407436
  48.3982420  27.0009232  31.7452931  47.9566193  29.0954423  31.6746950
  47.7613592  29.1193414  30.6127596  47.7653408  30.3134394  32.3760366
  47.3918533  31.1992526  31.8838501  48.0685997  30.3655601  33.8151503
  45.2245474  31.8862557  35.9212542  44.9128485  30.7319784  35.6102610
  45.2402544  32.2761703  37.2405148  45.8837318  33.4425712  37.8613710
  45.1798964  34.2638063  37.9965925  46.5792084  33.9442039  37.1884823
  46.4612579  32.9464078  39.1295934  46.4071703  33.7799668  39.8298478
  47.5136042  32.6726985  39.0537429  45.6295776  31.7468619  39.5291996
  44.8902798  32.1176791  40.2391481  46.2054491  30.9926796  40.0655556
  45.0182247  31.2897325  38.2140231  45.5056190  30.3879595  37.8433990
  43.5310411  30.9170485  38.3992958  43.1757879  29.9239111  39.0322638
  42.6772404  31.7586231  37.6785660  43.0614567  32.5143147  37.1295595
  41.2406492  31.6595078  37.7393818  40.9897089  30.9873271  38.5599303
  40.6272507  33.0390882  37.9621673  40.9789228  33.7763071  37.2404099
  39.5581222  32.8480315  37.8696179  40.9507418  33.6871886  39.2835522
  42.1192026  34.4302845  39.3895292  42.6104116  34.8066711  38.5044003
  42.5897789  34.8922873  40.6525421  43.5243368  35.4335785  40.6539345
  41.8757629  34.5563889  41.8104219  42.2582340  34.8773074  42.7680969
  40.6092501  33.9163184  41.6990042  39.9044490  33.7881279  42.5072336
  40.1908779  33.4073257  40.4346752  39.2958093  32.8037429  40.4038620
  40.6691647  30.8800888  36.5117478  39.4927263  30.5580664  36.4277482
  41.6020155  30.4894519  35.5883861  42.5588989  30.7903242  35.7064891
  41.3494253  29.6857953  34.4108272  40.4207468  29.9788117  33.9211416
  42.4360085  29.9298358  33.3235073  43.3807993  29.5261073  33.6874700
  42.1209764  29.3466616  32.4581957  42.4985695  31.3535213  32.8182149
  41.5306520  31.5739179  32.3680234  42.7822876  32.0722628  33.5869908
  43.4160328  31.5108752  31.5779805  44.2344856  30.6353259  31.1978722
  43.3271599  32.5597310  30.7554698  43.5067844  32.4845505  29.7644186
  42.7091360  33.2877851  31.0842323  41.2197256  28.1995678  34.7046089
  40.9334278  27.4751616  33.7687302  41.3455105  27.7754283  35.9407496
  41.5092182  28.4494090  36.6749501  41.2553930  26.4029360  36.4815903
  40.5610657  25.8415079  35.8564425  42.6910019  25.8078313  36.5043998
  43.3933544  26.4404130  37.0472097  42.6535749  24.9126768  37.1252084
  43.2970810  25.5048418  35.0434518  42.6308298  24.8627710  34.4672942
  43.2945776  26.4599967  34.5183063  44.6215773  24.8000598  35.0373745
  44.8036146  23.6692357  35.4634500  45.5545235  25.4468441  34.3620944
  46.4008760  24.9768066  34.0742493  45.3610086  26.3550568  33.9648509
  40.6043768  26.4110780  37.8973532  40.5250788  27.4612784  38.5420728
  40.1659060  25.2721691  38.3928919  39.9862051  24.0450668  37.7097321
  40.9547853  23.5475969  37.7595353  39.5573330  24.1765904  36.7163181
  38.9809418  23.2871079  38.5760140  39.0967369  22.2055173  38.5063529
  37.9735756  23.6418128  38.3580685  39.2914557  23.7190819  39.9945736
  40.2154016  23.2307649  40.3043652  38.4561872  23.6716914  40.6932735
  39.7381759  25.1649261  39.7547483  38.8487887  25.7811308  39.8866057
  40.8521461  25.6007552  40.7395172  42.0838356  25.6014347  40.4855967
  40.4530382  26.1206365  41.9093227  39.4653726  26.2573433  42.0703411
  41.3515949  26.6127014  42.9643869  41.8914557  27.4982476  42.6290321
  40.5182886  27.1487713  44.1780901  39.7870731  26.4461398  44.5777607
  41.3781357  27.4805331  45.3962851  40.7258320  28.0385256  46.0680294
  41.9522715  26.6255546  45.7533264  42.0768547  28.2863736  45.1715231
  39.7506380  28.4924269  43.8611126  39.0404105  28.2377768  43.0744600
  39.0671396  28.7303233  44.6761799  40.4087114  29.3418121  43.6778784
  42.3124218  25.5021548  43.4187603  41.8246603  24.3698263  43.5362196
  43.5598135  25.7452059  43.7354469  43.8903761  26.6955662  43.6479807
  44.4938087  24.7161770  44.2402077  44.7936630  24.0602279  43.4229422
  45.8124590  25.3698087  44.6730471  45.6394005  25.9446073  45.5828571
  46.4444351  24.5319343  44.9674368  46.6086102  26.2531257  43.7058973
  47.6740551  26.7664838  44.1175318  46.2506771  26.3802886  42.5096226
  43.8094950  23.8145971  45.2594995  43.7599754  22.6557970  45.0368404
  43.2740879  24.2406249  46.4014721  43.3660650  25.2315640  46.5737534
  42.4514627  23.3916903  47.3263359  42.9966307  22.7578378  48.0257130
  41.6381454  24.4537497  48.0442572  42.3337603  25.1770425  48.4697723
  40.9775829  25.0424075  47.4076748  41.1629391  23.9534760  48.8880587
  41.4815187  22.3873019  46.7028046  41.1021709  21.3490891  47.2247314
  40.8754158  22.7785754  45.5942631  41.1270857  23.6941576  45.2500629
  39.9664855  21.9572115  44.7462082  39.3543029  21.4146590  45.4666042
  39.0473008  22.8803229  43.9114857  39.6728539  23.5515046  43.3230162
  38.1151724  22.0501995  43.0807161  37.3968506  22.7304292  42.6231146
  38.5940456  21.6279507  42.1972609  37.6094747  21.2617874  43.6381912
  38.1263518  23.7312961  44.7768974  38.7572551  24.3893290  45.3744364
  37.4011660  24.3169975  44.2119503  37.5208807  23.1195426  45.4456711
  40.7125664  20.9487677  43.8247776  40.2517414  19.7837412  43.7939882
  41.8146563  21.3763714  43.1650639  42.0677710  22.3540425  43.1510973
  42.7114296  20.3861189  42.4987411  42.1169949  19.7440207  41.8487740
  43.6642599  21.2570167  41.6170216  44.3774986  21.7994189  42.2376633
  44.1861868  20.5549002  40.9668493  42.9404497  22.3110557  40.6539011
  42.3737621  21.6992497  39.9520040  42.3376131  23.0286837  41.2104082
  44.0524149  23.1293130  39.9386477  44.7791481  22.5134540  39.4088554
  43.5110188  23.6761308  39.1666460  44.8195410  24.0763569  40.8195686
  44.0717173  24.5503855  41.4553070  45.5401754  23.4652066  41.3629675
  45.6028700  25.0860763  40.0686407  46.0723972  25.5720353  40.8193064
  46.1859131  24.6033144  39.3999839  44.9970388  25.7469368  39.6035290
  43.4098053  19.3726039  43.4346628  43.8230801  18.3241415  42.9717207
  43.6702728  19.7964966  44.6476841  43.4761858  20.7518673  44.9116850
  44.1167593  18.8694799  45.6945133  44.7849178  18.1183445  45.2732563
  44.9493027  19.6781981  46.7360163  44.5282269  20.6527805  46.9829750
  45.0267792  18.9855146  47.5740385  46.3339090  20.0043344  46.1819315
  46.3123751  20.0797367  45.0947523  46.8626404  21.3732481  46.6435242
  46.2851191  22.1392775  46.1260557  46.9065475  21.3749075  47.7326441
  47.8156948  21.5973091  46.1643744  47.2839022  18.8791287  46.5948200
  46.9131565  17.9010201  46.2883186  48.2895041  19.0917289  46.2319565
  47.3230791  19.0013576  47.6772404  42.9673147  18.2126272  46.5435553
  43.2112503  17.2181356  47.2595692  41.6996574  18.7071228  46.3602448
  41.6184425  19.4468248  45.6773472  40.4169798  18.0618477  46.7056370
  39.6450138  18.7413239  46.3444233  40.3324413  16.7207634  45.9462357
  40.7401562  16.8976319  44.9509525  40.9958363  16.0118449  46.4416552
  38.9508963  16.1469805  45.7631302  37.8855562  16.7940593  45.7562542
  38.8552547  14.8325765  45.4339504  37.9286432  14.5071828  45.1981401
  39.6133327  14.1666424  45.4781294  40.3198338  18.0459881  48.2806063
  39.7679138  17.1006715  48.8321590  40.8583450  19.0742230  48.9583540
  41.1364031  19.8905110  48.4325600  40.9267330  19.1489160  50.4908991
  41.5847778  18.3625233  50.8605766  41.5602112  20.5219364  50.8449841
  42.5793076  20.4639530  50.4626274  40.9498501  21.2742448  50.3453970
  41.6028166  20.7946849  52.3809624  40.6163979  20.6954813  52.8339958
  42.3907757  19.7571146  53.2322216  42.5242376  20.1285911  54.2482424
  41.8297338  18.8278461  53.3311796  43.3937073  19.5906103  52.8391504
  42.0962667  22.1992826  52.7942514  41.6552353  23.0104256  52.2149086
  41.9092274  22.3937702  53.8503313  43.1712008  22.2488904  52.6206160
  39.4884753  18.9876628  51.1465120  38.6315656  19.8734832  50.9583664
  39.1432405  18.0203807  52.0254374  39.8990250  16.7358696  52.2133827
  40.6752300  17.0058084  52.9294443  40.4050732  16.3266981  51.3389683
  38.8607836  15.7180226  52.7306175  39.2210817  15.0216341  53.4878016
  38.5161042  15.2331877  51.8172503  37.7575016  16.5547347  53.3204222
  38.1638598  16.7980671  54.3021393  36.7810941  16.0796750  53.4155369
  37.7609849  17.8658080  52.5161886  37.0571876  17.8083837  51.6858435
  37.2653913  19.0615237  53.4082222  36.0929275  19.4000959  53.3280039
  38.2538986  19.6258605  54.1433954  39.1511679  19.1627121  54.1659880
  38.1296754  20.8054900  54.9372482  37.3210478  20.5605555  55.6258917
  39.3370318  21.2117910  55.7410669  39.8730636  22.0245123  55.2509165
  38.9774919  21.7264557  56.6321087  40.3126287  20.1182294  56.2850523
  41.3504839  20.3961182  56.9371843  40.0720358  18.8850141  56.0892010
  37.6872563  21.9654036  54.1193819  36.9555902  22.7544594  54.6187639
  38.0979133  22.0996571  52.8840208  38.6057043  21.3293433  52.4730873
  37.6548886  23.1490040  51.9193125  37.8049707  24.1582227  52.3027897
  38.4063816  23.0439353  50.5720997  39.4628906  22.9213381  50.8105516
  38.1907487  22.0902276  50.0903845  38.1755686  24.2733335  49.6417379
  38.8126850  25.4574490  50.0372458  39.3766665  25.4579282  50.9582901
  38.6780310  26.5787387  49.1984892  39.1430688  27.5231767  49.4396925
  37.9312730  26.3621306  48.0011892  37.8345680  27.4829412  47.1727657
  38.2394290  28.2387328  47.6045847  37.3179531  25.2090430  47.6010656
  36.7458749  25.1486301  46.6870213  37.4570465  24.1065240  48.4031582
  37.1220469  23.1050396  48.1768751  36.1565566  22.9979634  51.7222071
  35.4278064  23.9421439  52.1122789  35.6013966  21.8080235  51.4644146
  36.2400246  21.0599017  51.2351418  34.1355777  21.6441178  51.2812090
  33.7418079  22.4503827  50.6623554  33.8727212  20.3638792  50.4662609
  33.9775395  19.5232105  51.1521101  32.8112626  20.3411651  50.2194977
  34.8481417  20.1992893  49.2815018  35.8389544  19.1578543  49.2635393
  35.9776640  18.4624147  50.0781107  36.5242958  18.7914431  48.0498219
  37.1758366  17.9305899  48.0785418  36.3878775  19.5674169  46.8540525
  36.9669175  19.2460847  45.6468582  37.3355103  18.3742821  45.8071709
  35.4279017  20.6197429  46.9460487  35.1606274  21.1732912  46.0580492
  34.7421956  20.9785771  48.1235790  34.0035582  21.7642045  48.1836414
  33.3359933  21.6299558  52.5972891  32.0899105  21.7465854  52.4858427
  33.9189267  21.7466140  53.7684155  34.9288440  21.7464900  53.7555742
  33.3470821  21.9578862  55.1117992  32.3026538  21.6511393  55.0553513
  34.1541839  21.3550353  56.2832546  35.1240444  21.8518138  56.3093662
  33.7039757  21.5608072  57.2543764  34.3111610  19.8205948  56.1171007
  33.3279634  19.3917942  56.3108873  34.5720911  19.6447480  55.0735044
  35.2084589  19.0138125  57.0946836  36.0384846  19.6624446  57.3747396
  34.6481156  18.8364720  58.0126524  35.8331490  17.8096354  56.4457130
  36.1566925  18.1623411  55.4664183  36.6972709  17.4661231  57.0143890
  34.8680735  16.6477382  56.4193487  34.1589379  16.7886698  55.7141113
  35.3141499  15.7581580  56.2468290  34.3772840  16.5618241  57.2978973
  33.1128645  23.4600616  55.3405809  32.5104165  23.7991858  56.3609600
  33.4507775  24.3630791  54.4443035  33.9955449  23.9751768  53.6874294
  33.2517910  25.8853078  54.6192741  32.3678565  26.0808468  55.2263403
  34.4116640  26.5995073  55.3807211  34.6914244  25.9732723  56.2278748
  35.6810522  26.7233586  54.4644547  35.9826159  25.8335066  53.9118910
  35.3829122  27.3741937  53.6424923  36.5243483  27.1323180  55.0209665
  33.8324046  28.0199099  55.9381485  33.3745503  28.6066389  55.1417685
  33.1150675  27.7777624  56.7222977  34.9069214  28.9022732  56.5368795
  34.3961310  29.7366214  57.0175600  35.4577160  28.3440900  57.2939539
  35.5881596  29.3121266  55.7912016  32.8774238  26.5597057  53.3020926
  32.0737910  27.4770451  53.2411003  33.3230257  26.0049939  52.1873617
  34.0301895  25.2865839  52.1248341  32.8307176  26.2119532  50.7991028
  32.3488879  27.1891332  50.7663774  34.0136862  26.1715722  49.8147058
  34.7372293  25.4555321  50.2044106  33.5951686  25.7198453  48.4061241
  32.7788615  26.3415480  48.0383921  34.4448042  25.8582449  47.7374887
  33.3048940  24.6729422  48.3175993  34.6875429  27.5424957  49.7846127
  35.3504944  27.5705814  48.9198542  33.9313698  28.2834530  49.5252180
  35.4685545  28.0532861  50.9082603  35.9486461  28.9768124  50.5846739
  34.8823476  28.2177901  51.8123627  36.3293672  27.4174404  51.1151552
  31.7844558  25.1906967  50.4054117  31.9509912  23.9909863  50.6040859
  30.6253338  25.7248068  49.9692774  30.7213044  26.6914964  49.6928740
  29.4314790  24.9177694  49.6708488  29.5226574  23.9933252  50.2411032
  28.1808186  25.6350517  50.2207327  28.3479762  25.9923315  51.2368584
  28.0329633  26.5509367  49.6485519  26.8930626  24.7588062  50.3016710
  26.6707921  24.5927048  49.2475796  27.1054649  23.7949800  50.7643080
  25.7366824  25.4011488  51.0879660  25.9377050  25.0996995  52.1159792
  25.8201408  26.4872241  51.0482073  24.4227576  24.8797512  50.6264067
  24.2958641  25.1985288  49.5918179  24.3931389  23.7901783  50.6338072
  23.3065081  25.2703667  51.4584160  23.3231401  26.2594104  51.6624212
  22.4053311  25.2293801  51.0042095  23.2597971  24.7305679  52.3107862
  29.2945457  24.4971919  48.2407284  28.7133050  23.5115290  47.8976345
  29.9409437  25.2693915  47.3560286  30.1870155  26.1982512  47.6671076
  30.0389934  25.0897479  45.8417416  29.8759627  24.0458226  45.5738926
  28.9767432  25.8652258  45.1817131  29.0489960  26.9438457  45.3212166
  28.9381433  25.6292343  43.6872387  29.6407151  26.2803531  43.1671095
  29.0729403  24.5889330  43.3910847  28.0133843  25.8872390  43.1711435
  27.7050447  25.3713202  45.6564760  27.6037455  24.4514298  45.4012489
  31.4375520  25.4194379  45.3497553  31.8651319  26.5832496  45.3411865
  32.1742702  24.4352937  44.7677660  32.0156002  22.9732370  44.7414637
  31.0518980  22.7034807  44.3094826  32.1530414  22.5697279  45.7446527
  33.0853677  22.3594356  43.9065647  32.7598166  22.2499013  42.8720999
  33.5311460  21.4371920  44.2791891  34.1731882  23.4395480  43.8671589
  34.7127771  23.4978247  42.9218817  34.8557639  23.3524966  44.7125101
  33.4293556  24.7558427  44.1633224  34.1316533  25.3663611  44.7308969
  33.2680297  25.4510713  42.7765894  32.4777055  25.0512815  41.9224119
  34.0761995  26.4908648  42.5242805  34.6005511  26.9262600  43.2696629
  33.8015056  27.4006820  41.4428997  33.4751797  26.7525363  40.6295586
  32.6324606  28.3564854  41.8518782  31.8616962  27.7388549  42.3129129
  32.9581046  28.9961624  42.6721621  31.8077826  29.0401745  40.7154751
  30.7747793  29.2337418  41.0045004  32.1486378  30.0542140  40.5065727
  31.7266083  28.0693769  39.1787267  30.5334973  26.8697143  39.7663784
  30.9857130  26.2154222  40.5116987  29.6340513  27.3474336  40.1548147
  30.2245283  26.2098336  38.9557028  35.0297689  28.1019759  40.9814692
  35.8635783  28.5545397  41.8046093  35.1083732  28.3555460  39.6490836
  34.3373871  28.1138730  39.0430522  36.1721134  29.1511297  39.0333247
  36.4354730  29.9927497  39.6739650  37.3990011  28.2157660  38.8596606
  38.2798147  28.7625980  38.5231447  37.6166487  27.8325963  39.8566127
  37.1041512  27.0911384  37.9255605  36.5996051  26.0730028  38.4424567
  37.5156450  27.1405363  36.7461753  35.7609129  29.6838808  37.6918364
  34.8469448  29.2034626  37.0393586  36.4136362  30.7160616  37.1270585
  37.1413302  31.0884571  37.7202630  36.2282276  31.2357044  35.7483554
  35.1770878  31.4048004  35.5146599  36.9295621  32.6231194  35.5302215
  36.5718555  33.3476424  36.2618017  38.0143571  32.6288652  35.6365013
  36.6310453  33.3167553  34.2173743  37.0654225  32.6966691  33.4332108
  35.5453300  33.3246613  34.1211605  37.1567845  35.0763392  34.2220449
  38.9370394  34.9873924  34.4443917  39.4394517  34.2020226  33.8796973
  39.3788433  35.9629154  34.2412448  39.1753197  34.7072744  35.4704809
  36.5459514  30.1900482  34.6510434  35.9112477  30.3612471  33.5981250
  37.4374628  29.2177510  34.7958541  37.9514813  29.1413641  35.6619143
  37.4986577  28.1793976  33.8245296  37.6440096  28.6021280  32.8304100
  38.2851648  27.4927759  34.1376662  36.2191176  27.3807406  33.7928534
  35.6606245  27.1234989  32.6951075  35.5441141  27.0590711  34.9323583
  36.0596061  27.2468281  35.7803655  34.1885686  26.5073228  34.9778605
  34.0906978  25.5502892  34.4654036  33.7282109  26.1690211  36.4157295
  33.8156438  27.1050572  36.9673562  32.3139024  25.6605601  36.3835263
  32.1861887  25.2950144  37.4024296  31.5544176  26.4352489  36.2779546
  32.0683312  24.8244667  35.7287407  34.5034504  25.1311088  37.0279384
  35.1769495  25.4986405  37.6049328  33.1436944  27.4672270  34.2338204
  32.3470044  27.0759559  33.3990312  33.1738234  28.7266588  34.6064138
  33.8464403  28.9721680  35.3187466  32.1782184  29.7066450  34.1595626
  31.2285423  29.2195439  34.3807983  32.3215604  31.0603809  34.9158883
  33.3534956  31.3938475  34.8062921  31.4118457  32.0830417  34.2102599
  30.3748131  31.7548680  34.1398335  31.3746595  32.9504728  34.8692584
  31.9019508  32.4111557  33.2936144  31.9269872  30.8738899  36.4184308
  30.8390546  30.8151865  36.4509010  32.3218250  29.9245238  36.7802382
  32.5458050  31.8730569  37.4311280  32.1468639  32.8753471  37.2750425
  32.3422933  31.4310288  38.4064746  33.6116934  31.7126203  37.2691202
  32.3321176  29.8571205  32.5975752  31.3048506  29.8066521  31.9468284
  33.6052704  30.0366521  32.0549226  34.4300437  30.1154447  32.6325417
  33.6375523  30.0636053  30.5659628  32.9960322  30.8570766  30.1826167
  35.1742077  30.3041291  30.2364397  35.5993247  31.1224174  30.8176279
  35.6910419  29.4210625  30.6121731  35.4140162  30.4358673  28.7389779
  34.9294686  29.5784712  28.2718730  35.0006008  31.3952231  28.4278178
  36.9027328  30.3920317  28.4907556  37.2435093  31.2877846  29.0099859
  37.2438169  29.5024085  29.0202188  37.4264002  30.3070450  27.0510340
  36.9640255  31.1987329  26.6277122  38.4852123  30.5567980  27.1191382
  37.2658515  29.0412927  26.3211918  37.4431252  28.2552242  26.9301057
  36.3520169  29.0244818  25.8913970  37.9541373  28.9317536  25.5901909
  33.0690908  28.7702107  29.8825812  32.2263122  28.8725543  29.0229559
  33.4176803  27.6242113  30.4050064  33.9831328  27.6108956  31.2417793
  32.8463864  26.3126516  29.8807883  33.0509591  26.0744953  28.8369823
  33.3885813  25.2064061  30.7227850  34.4595885  25.1558852  30.5265927
  33.3449006  25.4877377  31.7749524  32.7161002  23.8564897  30.4743075
  31.6298008  23.8679552  30.5633116  32.8866100  23.6763716  29.4128966
  33.3526850  22.6499915  31.2348294  33.4556770  22.8927445  32.2924519
  32.6258779  21.8383265  31.2024307  34.6549559  22.2358990  30.5173659
  34.3360209  21.6636181  29.6462321  35.2032781  23.1324720  30.2282286
  35.4590344  21.3442540  31.4128709  36.1335063  20.8643007  30.8342242
  35.9115911  21.9367266  32.0942450  34.7520518  20.7111025  31.7584062
  31.2781477  26.3511610  29.8880076  30.7078266  25.9857798  28.8608766
  30.6246710  26.9818759  30.9133029  31.1507082  27.3731613  31.6816020
  29.1594863  27.0951152  31.0400176  28.7416697  26.1032033  30.8678389
  28.8147402  27.4632239  32.4346519  29.4722176  28.2555342  32.7925181
  27.7509165  27.6803541  32.5307512  28.9731479  26.2795973  33.3844709
  28.4756374  25.3937697  32.9896379  30.0603867  26.2197971  33.3351135
  28.4440017  26.4450574  34.8090386  28.9796019  27.3106527  35.1988840
  27.3641920  26.5741301  34.8828530  28.5690475  25.2244449  35.6653953
  28.8063955  24.3311596  35.2582002  28.2382917  25.0664330  36.9146299
  27.8534317  26.0033941  37.7327466  27.8159833  26.9898319  37.5191188
  27.5439525  25.6437492  38.6243606  28.4505510  23.9082861  37.4659204
  28.8298607  23.2013941  36.8523002  28.4121037  23.7549710  38.4634757
  28.6045599  28.0017614  29.9139261  27.6519275  27.7018690  29.1775560
  29.2270970  29.1123843  29.6820641  29.9793577  29.3878126  30.2971625
  28.7721634  30.1079559  28.6692476  27.7268386  30.2469254  28.9450836
  29.3574786  31.5011621  28.8875222  30.4440904  31.4216447  28.9200044
  29.1291976  32.1526766  28.0440044  29.0124130  32.2265148  30.1457691
  29.2109013  31.6313434  31.0371017  29.9441004  33.4467340  30.2378631
  30.9612274  33.0689669  30.1337385  29.7005558  34.1296291  29.4239545
  29.7796011  33.9181471  31.2067866  27.5500655  32.6338387  30.2631807
  26.8806863  31.7780757  30.1754522  27.3985600  33.0209923  31.2707853
  27.2606277  33.4066558  29.5510840  28.9640236  29.5749497  27.2730756
  28.0497193  29.5981026  26.3942838  30.1487899  28.9825416  26.9540215
  30.8889127  28.9932132  27.6411939  30.5221224  28.3770299  25.6424141
  30.3261733  29.1396022  24.8886323  31.9650173  28.1493402  25.5039287
  32.3118734  27.4383521  26.2537861  32.1218634  27.7901006  24.4868541
  32.8303981  29.4117570  25.5685568  32.4158406  30.0652480  24.8009682
  32.7572584  29.7196388  26.6116095  34.2350912  29.2212081  25.2965975
  34.9653459  30.2133560  25.0600696  34.7358036  28.1292129  25.5669069
  29.6735287  27.1969223  25.1806140  29.7780299  26.8418336  24.0362620
  28.8997102  26.6224456  26.0806465  29.1058087  26.7609429  27.0596480
  28.0272889  25.4880428  25.7628489  27.8992581  25.3784990  24.6859503
  28.5867095  24.1871476  26.3851476  28.5879111  24.2634201  27.4724770
  27.9419446  23.3418894  26.1444950  30.0018024  23.8189745  25.9722447
  30.2144647  23.2045841  24.9080038  30.9073257  24.1207814  26.8141341
  31.8934608  23.9979935  26.6336918  30.6637669  24.7264409  27.5848198
  26.6011643  25.7955933  26.2364054  25.7744908  24.8992872  26.3906622
  26.2285423  27.0832109  26.3721657  26.9139576  27.8250051  26.3648629
  24.8628688  27.5394201  26.4171648  24.8868585  28.6240244  26.5228105
  24.0276074  27.1345782  25.1074576  23.9845490  26.0456204  25.0869203
  22.9935050  27.4789310  25.0950170  24.6943069  27.5669789  23.8573456
  25.0567937  28.6973763  23.6487699  24.8900580  26.5817094  22.9987240
  25.4239202  26.8369794  22.1802330  24.4403267  25.6997085  23.1985021
  24.1615200  27.0929241  27.7521753  22.9191446  26.9556832  27.7854776
  24.8210669  26.9225001  28.8492274  25.8302212  26.9403934  28.8119769
  24.2256308  26.2893677  30.0650811  23.9230800  25.2956533  29.7347832
  25.3971958  26.1657381  31.0584688  26.1572075  25.5050874  30.6413078
  25.8641458  27.1371675  31.2208986  24.9906993  25.6069016  32.4391723
  24.8720074  24.1893244  32.6528502  24.8003721  23.4603882  31.8591738
  24.6458817  23.7451911  33.9617753  24.4251418  22.7048969  34.1500950
  24.5849490  24.6442533  35.0516391  24.3585253  24.1567707  36.3465738
  24.6262646  23.2462144  36.4908028  24.6434331  26.0022283  34.7931194
  24.5115829  26.7461181  35.5648994  24.8012304  26.5274882  33.5051799
  25.0440669  27.5685167  33.3512545  23.0388427  27.0425177  30.7617497
  22.0323014  26.3420010  31.0115361  23.1246996  28.3456326  31.0638452
  23.8688731  28.8346267  30.5871987  22.1495175  29.0598679  31.9348931
  21.9150710  28.3808923  32.7547312  22.7362132  30.3745222  32.3951769
  22.8169537  31.0614395  31.5527248  22.1025920  30.9138775  33.0992508
  24.1384006  30.2200222  33.1228280  24.1246819  29.9107027  34.4830513
  23.2296872  29.7305298  35.0600481  25.3520989  29.7264457  35.1820612
  25.3595519  29.6808887  36.2610745  26.5348864  29.9089956  34.5256281
  27.7442980  29.8434496  35.1069522  27.7324033  29.4123220  35.9646177
  26.5676546  30.2573538  33.1339622  27.4746370  30.2022648  32.5502229
  25.3463340  30.2809453  32.5032997  25.2930427  30.3947902  31.4306378
  20.7598567  29.2546153  31.3026285  20.6488180  29.5761847  30.1684666
  19.6764016  29.1368341  32.0322943  19.8555136  28.8077426  32.9702282
  18.3837807  29.7184324  31.7095375  18.1623566  29.5518947  30.6553364
  17.1815932  29.1142654  32.5915718  16.2391901  29.5738912  32.2937107
  17.0099759  28.1202412  32.1785760  17.1779072  29.0831709  34.0963650
  17.8601098  28.1589293  34.8514128  18.4079802  27.3715448  34.3551517
  17.6585495  28.3755779  36.1832952  18.1927621  27.9503608  36.9275451
  17.0385528  29.6113944  36.4157605  16.8562126  30.3867459  37.5349975
  17.2026813  30.0390673  38.4970212  16.0668314  31.5942860  37.4548340
  15.7886851  32.1667600  38.3273625  15.4666376  31.9027400  36.2465358
  14.7634470  32.7156663  36.1412978  15.8062649  31.1662173  35.0725412
  15.4562402  31.3678789  34.0709329  16.6712940  30.0474524  35.0831962
  18.4938431  31.2432218  32.0469856  17.5780046  31.9506168  31.5352678
  19.5156980  31.8225098  32.7177048  20.1829815  31.2249732  33.1843758
  19.4454312  33.2745600  33.1861353  19.1194129  33.7932873  32.2846127
  18.3232689  33.3313155  34.2989922  17.2960126  33.0608511  34.0546608
  18.5750461  32.7340341  35.1753259  18.1305969  34.7710061  34.8638511
  18.6918700  35.7623482  34.5394754  17.2859621  34.9087167  35.8579421
  17.1041024  35.8766770  36.0817266  16.7784309  34.1338420  36.2605333
  20.7973957  33.8266540  33.6981058  21.3779426  33.2415748  34.6024871
  21.3077807  34.8426270  33.0281210  20.7379818  35.1555490  32.2551346
  22.5890946  35.6392336  33.2827830  23.4690332  35.1813817  32.8309083
  22.3988080  36.9343567  32.5219440  21.6137910  37.5729012  32.9270458
  23.3120346  37.5244713  32.4452662  22.0830941  36.8141055  31.4856219
  22.9439378  35.8399463  34.7459292  24.1221404  35.7179713  35.2074170
  21.9214845  36.1473060  35.5593705  21.0301065  36.3799739  35.1453543
  21.9789553  36.2107420  37.0060825  22.6642084  37.0042682  37.3041534
  20.5482316  36.5050220  37.5085521  19.9231803  35.6660771  37.2026396
  20.5393028  36.3608551  38.5889387  19.8931897  37.8266048  37.1063900
  19.7279882  37.7875423  36.0296869  18.9406145  37.8092194  37.6359153
  20.7278776  39.0701771  37.4103498  21.5327287  39.1629124  38.3499002
  20.5228901  40.2257586  36.8072248  21.1162543  40.9871531  37.1043730
  19.8625553  40.3365707  36.0510683  22.5937104  34.9880576  37.7178526
  23.2786036  35.1968336  38.6916804  22.3097873  33.7908626  37.1844029
  21.6444802  33.6419821  36.4392161  22.7690935  32.5961685  37.8249288
  22.7111268  32.6179910  38.9131665  21.9546294  31.4457440  37.2793436
  22.0813251  31.5041590  36.1983085  22.4017835  30.5084968  37.6105857
  20.5037594  31.5125537  37.7722883  19.9884677  32.4663877  37.6592898
  19.8904169  30.8873224  37.1234441  20.3623986  30.9439945  39.1767955
  19.9461138  31.6618872  40.1234198  20.6623220  29.7467661  39.3719649
  24.2899823  32.4545932  37.5200129  25.0257301  31.9777369  38.3939338
  24.7299123  32.8763103  36.3125014  24.0893912  33.0959105  35.5630970
  26.1949515  32.9891157  36.0410213  26.5829730  32.0159054  36.3416958
  26.3614750  33.3882570  34.5998764  25.8817482  32.7341628  33.8717794
  26.1439919  34.4441795  34.4391322  28.0910969  33.1071782  34.2931533
  27.9633689  31.7920876  34.4909477  26.8419051  34.1043949  36.9392085
  27.9590678  33.9189625  37.3512387  26.1348963  35.2276945  37.2636247
  25.3448224  35.4432702  36.6725159  26.6003251  36.2916207  38.1755137
  27.6682115  36.4584637  38.0345082  25.8096242  37.6323581  38.0736136
  24.7468710  37.5023699  37.8692603  25.9935069  38.5953951  39.3117809
  25.6620932  38.2217360  40.2806187  27.0649838  38.7166047  39.4709921
  25.3445578  39.4478536  39.1110778  26.3791394  38.3641171  36.7783403
  27.2282243  38.9962411  37.0382905  26.8561292  37.6295280  36.1295271
  25.2101326  39.0696049  36.0631108  24.7892070  39.7799277  36.7747021
  25.6352782  39.6778631  35.2647543  24.5293665  38.2906866  35.7196760
  26.6746998  35.7225800  39.5770979  27.6711226  36.0393476  40.1936436
  25.8248067  34.7656679  40.0132036  25.0625014  34.5118594  39.4011831
  25.9933186  33.9927554  41.2658167  26.1636877  34.6915722  42.0847988
  24.8135543  33.1330824  41.7081642  23.8776040  33.6734557  41.5664148
  24.7332478  32.3510623  40.9531164  24.8863053  32.6240969  43.1542683
  23.9835167  32.0631909  43.3960438  25.7420874  31.9570160  43.2579088
  25.0147724  33.7265897  44.1958952  24.7480273  34.8874855  44.0532827
  25.3910708  33.4298539  45.4011583  25.4428124  34.0888405  46.1648083
  25.5953383  32.4687505  45.6349516  27.2326827  33.1104231  41.1789274
  27.9183102  32.8457379  42.1562386  27.5254083  32.3575211  40.0843477
  26.7876863  32.2040820  39.4117975  28.7346125  31.5176463  39.9947834
  28.6981726  30.8077145  40.8210850  28.7661195  30.7084107  38.6838531
  28.4801507  31.2973428  37.8123689  29.7948980  30.4075289  38.4859133
  27.8967142  29.4139814  38.6615586  27.1831250  29.1071868  39.7002125
  27.9495192  28.7638712  37.5698209  29.9692917  32.3474121  40.2131701
  30.7644129  32.0169616  41.0921764  30.0846267  33.4304690  39.4971800
  29.4007540  33.5852933  38.7702346  31.1672997  34.4387913  39.7074556
  32.1177888  33.9087057  39.6467638  30.8048129  35.5929255  38.8010025
  29.7514272  35.6192708  38.5220957  30.8936024  36.5147710  39.3758225
  31.5612745  35.6586361  37.5822759  32.9439282  35.8161187  37.5698614
  33.4394503  35.8468223  38.5289860  33.6332703  35.7889056  36.3292217
  34.7028971  35.9218049  36.3973284  32.9406691  35.6605196  35.1006031
  33.5518169  35.6348610  34.2105246  31.5704250  35.4895616  35.1162004
  31.0048342  35.1712513  34.2529583  30.8802104  35.5214477  36.3403749
  29.8207450  35.3189874  36.3946366  31.1790776  34.9028969  41.1968756
  32.2322321  34.8720241  41.8426943  30.0102305  35.3864193  41.8021822
  29.1672707  35.4386830  41.2482977  29.8742175  35.6226897  43.2166243
  30.4991412  36.5001583  43.3828163  28.3355188  35.7669187  43.5647249
  27.8554726  36.4283752  42.8435183  27.8254414  34.8096323  43.6720705
  28.2270241  36.4507818  44.9073124  27.8979373  35.9730196  45.9824467
  28.5046339  37.7210069  44.9011660  28.3321500  38.3395386  45.6807613
  29.0099883  38.1262064  44.1262245  30.5260849  34.5139170  44.0369320
  31.2355542  34.8558807  44.9972153  30.1219153  33.3009863  43.8567686
  29.4910312  33.0698609  43.1026649  30.7399821  32.1243382  44.4576073
  30.4872918  32.0507169  45.5153513  30.2382731  30.8188510  43.7821674
  30.6668258  30.6417036  42.7957249  30.7587194  29.6168137  44.6100569
  31.8376255  29.5733380  44.7589588  30.2961063  29.6135902  45.5970192
  30.4643106  28.7060380  44.0886021  28.8197184  30.7399058  43.7548494
  28.4755611  31.3927603  43.1408930  32.2679567  32.0966601  44.3292618
  32.8917623  32.0359731  45.3919363  32.8576374  32.0847034  43.0905628
  32.3193359  32.2289205  42.2482252  34.3457127  32.3405337  42.9698992
  34.7848010  31.3764095  43.2263660  34.8316765  32.4157715  41.5185547
  34.4914007  31.4962006  41.0424232  34.3206382  33.2367945  41.0156918
  36.2989354  32.4636698  41.3186550  36.7201710  33.3154011  41.8527126
  36.7957354  31.5792632  41.7175484  36.6289473  32.7894855  39.5361876
  36.3189483  34.5551252  39.3582821  35.9600782  34.7734594  38.3524799
  35.6389928  34.8526502  40.1565552  37.2390819  35.0895643  39.5945597
  34.9619508  33.4016919  43.9355659  36.0049534  33.1093621  44.4802332
  34.4078565  34.6100879  43.9756870  33.5091448  34.7334671  43.5316133
  34.9749732  35.6633329  44.8354816  36.0481691  35.6956124  44.6475744
  34.3750739  37.0076942  44.4265318  33.2903886  37.0868206  44.4993258
  34.7265053  37.7983308  45.0894690  34.7238135  37.4555016  43.0072212
  36.0656166  37.6350355  42.5263357  36.8599224  37.5155091  43.2482719
  36.2822771  37.9320598  41.1442089  37.3356748  37.9966331  40.9148836
  35.2753854  38.0909562  40.2078581  35.5918550  38.5100055  39.2641115
  33.9627409  37.9835463  40.6790209  33.0666375  38.1165624  40.0910521
  33.6954451  37.5505328  41.9929361  32.6733184  37.2843885  42.2183943
  34.8306394  35.3707719  46.3527060  35.7647300  35.4096723  47.0981932
  33.6602020  34.8626018  46.7720032  32.9294348  34.8765278  46.0749435
  33.3943152  34.5920706  48.1521320  33.6851525  35.5162358  48.6515617
  31.8616915  34.2464089  48.3491230  31.4634109  33.3503985  47.8730583
  31.4776921  34.2501092  49.7604227  32.0027328  33.3951926  50.1865101
  31.9520688  35.1011682  50.2490568  30.4141831  34.2082930  49.9955845
  31.0833406  35.2935338  47.8043795  31.1090255  35.2878165  46.8447399
  34.2434740  33.4249473  48.7019777  34.8454356  33.4199190  49.7681618
  34.3687892  32.3182940  47.8655672  33.9620018  32.3315859  46.9412041
  35.1874781  31.2027836  48.1222248  34.7975707  30.6195116  48.9564133
  35.2103734  30.2588844  46.9098520  35.4270411  30.8561945  46.0242033
  35.9746027  29.5182061  47.1453476  33.8782597  29.4339752  46.7053318
  32.8172970  29.7464538  47.1566296  33.9563704  28.3157730  45.9470320
  33.0492496  27.9482555  45.6977081  34.8039579  27.9325962  45.5535030
  36.6817713  31.5734410  48.4087706  37.2539806  31.0219479  49.2473412
  37.2230697  32.5328302  47.6823139  36.6622782  32.8479648  46.9036627
  38.5794950  33.1632900  47.9125500  39.3196845  32.3656940  47.9763317
  39.0265083  34.0165114  46.6871214  38.8140059  33.5116673  45.7447433
  38.4773183  34.9578500  46.7064714  40.8171701  34.4328308  46.7108440
  41.1089945  33.6481738  45.6696653  38.6049271  33.8781452  49.2313194
  39.3715167  33.5731649  50.1184702  37.6620126  34.8432922  49.3438864
  36.9371033  34.9077320  48.6435652  37.5593972  35.8524156  50.4234600
  38.5052490  36.3871813  50.5100250  36.3349962  36.7589545  50.0282907
  35.3771806  36.2486768  49.9267578  36.3090301  37.3217726  50.9613848
  36.6073871  37.6721764  48.7987566  37.8822684  37.9053974  48.2539845
  38.7418079  37.3762250  48.6381340  38.0841732  38.8964295  47.2476006
  39.0723848  39.0525460  46.8408108  36.9814968  39.6573162  46.6982603
  37.1422505  40.6355524  45.7396460  36.2720370  40.9886646  45.5405521
  35.6937575  39.3540716  47.2219992  34.8491478  39.9339247  46.8802357
  35.5381274  38.4428573  48.2503462  34.5590162  38.2032847  48.6381054
  37.3211670  35.0766301  51.7836761  37.6572037  35.5453062  52.8675795
  36.7143536  33.8892937  51.8842745  36.2180352  33.5121369  51.0895920
  36.5087676  33.1488967  53.1401682  36.4030695  33.8214540  53.9914036
  35.1281786  32.3818135  53.1622934  34.4829440  33.1202888  52.6864529
  35.1602650  31.0568023  52.3708725  35.4250884  30.2336884  53.0345392
  34.1484094  30.8494139  52.0226765  35.9109282  31.0667658  51.5806150
  34.5997024  32.1664429  54.6112823  34.9739766  31.2256908  55.0150251
  34.9950624  33.0054474  55.1838732  33.1350398  32.1544886  54.8135424
  32.8332567  31.7615080  55.7844162  32.7118659  33.1588054  54.7942495
  32.5879073  31.5628791  54.0795517  37.7078867  32.2291303  53.5045290
  37.9739237  32.0016432  54.7038507  38.4206533  31.7728257  52.4759436
  38.1329346  31.9258237  51.5199566  39.4799328  30.7569575  52.6141262
  39.3264222  30.2377629  53.5601568  39.3434882  29.7872901  51.4879560
  38.3248758  29.4107580  51.5815306  39.4160700  30.2348948  50.4967546
  40.3385925  28.5749149  51.6043043  40.2481318  27.6082754  52.6570797
  39.4918203  27.6837182  53.4243488  41.1977673  26.5439534  52.6683378
  41.1925077  25.7584333  53.4095192  42.1938992  26.4570332  51.6974831
  42.9462051  25.3723168  51.7001390  42.9262447  24.9986839  52.5842237
  42.3371267  27.4391913  50.6974077  43.1184483  27.3310518  49.9596834
  41.3522196  28.4545541  50.5671787  41.3699293  29.0751910  49.6834898
  40.9220171  31.3422394  52.6619482  41.8624973  30.6664252  53.1397533
  41.0605097  32.6688361  52.4515104  40.2655888  33.1732345  52.0857525
  42.2705317  33.4687829  52.5376129  43.0937099  32.9159427  52.9902124
  42.7943945  33.6248803  51.0932779  41.9705868  33.9141202  50.4407597
  43.6101580  34.3453741  51.0340071  43.3188629  32.3599458  50.4715204
  42.5716066  31.5111613  50.0656223  44.6094847  32.1849036  50.4207897
  45.0202799  31.2998748  50.1598835  45.2339029  32.8949952  50.7757139
  42.1232080  34.8549151  53.1418657  41.0171509  35.3041410  53.3758736
  43.2460928  35.4680943  53.5419464  44.0916872  34.9541998  53.3395004
  43.3221388  36.6795063  54.3264675  42.5436878  36.6856337  55.0894070
  44.6431017  36.7881513  55.0143671  45.4313040  36.7774963  54.2615557
  44.7734451  37.7460313  55.5179310  44.9655151  35.6990576  55.9558105
  44.3166924  35.7799125  56.8279314  44.8782444  34.6871138  55.5602741
  46.3832045  35.7777524  56.4926624  46.9551754  35.2951074  55.7001925
  46.7889833  36.7890501  56.4658928  46.6556597  35.1788211  57.8617573
  46.3514376  34.1321397  57.8595734  47.7056646  35.3439999  58.1032181
  46.0102129  35.8731151  58.9638472  45.0180054  36.0582471  58.9271021
  46.2456512  35.3077054  59.7669554  46.4483118  36.7557669  59.1854334
  43.1010866  37.8993678  53.4226179  43.4333324  37.8647876  52.1914148
  42.5583696  38.9774251  53.9688587  41.9250059  39.0608716  55.2686214
  42.7444553  38.9709878  55.9817314  41.2079430  38.2578969  55.4393435
  41.1900568  40.3895760  55.3065825  41.0387278  40.6874561  56.3441086
  40.2570486  40.2582979  54.7585297  42.1416807  41.3358498  54.4743156
  42.9962778  41.6373491  55.0800037  41.5950537  42.1923828  54.0797853
  42.6077795  40.3193760  53.3894348  41.9317579  40.3609705  52.5354052
  44.0805864  40.6102276  53.0479002  44.9765587  40.4034805  53.8673496
  44.3764877  40.9916162  51.8198586  43.5885382  41.2979412  51.2672281
  45.7063484  41.4150810  51.2747622  45.6287050  41.9153452  50.3094625
  46.3109684  42.0750952  51.8967915  46.6440439  40.2632189  50.9421349
  47.7422333  40.4978943  50.5065918  46.2885189  39.0053225  51.1676598
  45.3822184  38.7308359  51.5189075  47.0609951  37.9288816  50.5857229
  48.0810690  37.9034734  50.9690046  46.2923813  36.6611481  51.0467672
  45.9918976  36.8061352  52.0844507  45.3970766  36.5767384  50.4308081
  47.0360422  35.3405619  50.9110308  46.4122105  34.2472982  51.0884190
  48.2346725  35.3251052  50.6211042  47.0441675  38.0347443  49.0267706
  46.0760450  38.4987783  48.4508991  48.1772614  37.7479839  48.3963060
  48.9098549  37.3195791  48.9439154  48.4021091  37.9429245  47.0048332
  48.6953640  38.9588165  46.7401361  49.7483206  37.1508288  46.6115332
  49.5481443  36.0914588  46.7720556  49.9495792  37.3253870  45.5545902
  50.8673620  37.7021623  47.4925184  51.0848331  38.8690162  47.3883867
  51.4583731  37.0607281  48.4430170  47.2078180  37.4191666  46.1222553
  46.7662573  38.1394792  45.2656317  46.6504812  36.2050581  46.4154768
  47.1581793  35.5838180  47.0289946  45.5032825  35.6477332  45.7582855
  45.7634592  35.7134986  44.7018385  45.3909016  34.0757608  46.1332750
  46.3407946  33.6022329  45.8851242  45.2464199  33.8835835  47.6707172
  45.4722166  32.8355145  47.8673792  45.8766794  34.4780421  48.3321476
  44.2145252  34.0524864  47.9785538  44.2176533  33.3324432  45.4551697
  43.9125204  32.4553084  46.0258102  43.3678722  34.0101480  45.3733826
  44.6738386  32.7588534  43.9789152  45.3257895  31.8854070  43.9909840
  43.8280392  32.4022937  43.3910465  45.1807642  33.6264300  43.5564995
  44.1887760  36.4443421  45.8952904  43.4430838  36.5815949  44.9326706
  43.9192295  36.8691874  47.1391344  44.5801115  36.6130924  47.8586864
  42.7225828  37.6641083  47.4825811  41.8838167  37.1559763  47.0067883
  42.4455595  37.9889822  48.9444351  43.3221340  38.2730007  49.5267105
  41.5100622  39.1530085  49.2923641  41.2235641  39.1710877  50.3438807
  41.9969034  40.1252651  49.2161560  40.6046247  39.1646576  48.6856127
  41.7591953  36.7546177  49.5609093  41.3680267  36.9724751  50.5547094
  40.8449507  36.4082360  49.0789557  42.4475288  35.9252048  49.7232866
  42.8124523  39.0407968  46.7646646  41.8071651  39.6379209  46.3404751
  44.0363312  39.5958877  46.6898584  44.8193359  39.0318656  46.9879913
  44.2190266  40.8346796  45.9309149  43.3618402  41.4790964  46.1259985
  45.6333113  41.3845825  46.1805820  46.3594723  40.6836319  45.7689285
  45.8375406  42.2565508  45.5592394  46.1289787  41.7394447  47.6126194
  45.8848000  41.0239124  48.3977938  47.6590824  42.0423317  47.5573158
  48.0272913  42.2396469  48.5640907  48.1347847  41.1292124  47.1995211
  48.0409956  42.8193569  46.8951416  45.4112244  43.0622578  47.9994345
  44.3649387  42.8931379  48.2539892  45.8631086  43.6039019  48.8304138
  45.4073906  43.8827848  47.2819233  43.9950752  40.7561636  44.4364929
  43.4792662  41.6858864  43.8779783  44.3437958  39.6304393  43.8127327
  44.8225689  38.8983583  44.3176460  43.9327431  39.2080641  42.4627876
  44.2287970  39.9264026  41.6983032  44.6372700  37.9373717  42.0364809
  44.5302248  37.0963740  42.7215815  44.2878151  37.5580907  41.0762072
  46.1002445  38.2165360  41.7677259  46.1315536  39.2144394  41.3303375
  46.6284704  38.1594229  42.7194738  47.0436478  37.0635438  40.8701229
  47.2957611  35.7031608  42.0457697  46.4121389  35.0657320  42.0140791
  48.1357431  35.0951791  41.7097807  47.6915550  36.0332036  43.0062485
  42.4449921  39.1145134  42.3715496  41.9322395  39.7541547  41.4517832
  41.7222548  38.4868407  43.3176136  42.1797180  37.8524923  43.9566946
  40.2127886  38.4738159  43.3346319  40.0095463  38.2714844  42.2830343
  39.6982574  37.3931718  44.2400885  39.6144938  36.5214705  43.5910797
  40.3556395  37.2349691  45.0950289  38.7078023  37.6062918  44.6421766
  39.5975876  39.8308587  43.5552454  38.5822058  40.0760698  42.8915358
  40.1904774  40.7139969  44.2951107  40.8502388  40.3672314  44.9767017
  39.7071385  42.0914698  44.4092035  38.6987805  42.0677614  44.8224354
  40.5333900  42.8349400  45.5401373  41.5900612  42.6486731  45.3481627
  40.3703880  43.9027977  45.3945112  40.1783371  42.5074291  46.9906712
  40.2462101  41.4240408  47.0895100  40.9496307  42.9965734  47.5855970
  38.7720466  42.9983377  47.4606419  38.3661222  42.5801659  48.5931110
  38.1172681  43.8660908  46.8215656  39.7773337  42.8613901  43.1275988
  38.8761973  43.5109949  42.7359819  41.0098076  42.8481674  42.5458384
  41.7964697  42.3497105  42.9367447  41.2143517  43.5777187  41.2706518
  41.0957193  44.6273136  41.5396929  42.7129555  43.3876657  40.8787012
  43.3021498  44.0325022  41.5307283  43.0138779  42.3524284  41.0394287
  42.9162836  43.5896158  39.8270488  40.1967430  43.0925369  40.2382612
  39.4683695  43.8277817  39.5551753  40.1567602  41.6993427  40.0771236
  40.7658052  41.1046219  40.6206942  39.1755605  40.9872627  39.2865181
  39.2943811  41.2700129  38.2405543  39.4639778  39.4505882  39.2779827
  39.4563413  39.1440916  40.3239775  38.5897207  39.0092039  38.7994909
  40.7064962  38.9104080  38.6098599  41.6063023  39.4227409  38.9504051
  40.7705832  37.4503136  38.9484215  40.9393883  37.3115730  40.0162983
  39.8898745  36.8363309  38.7600589  41.6883469  37.0325041  38.5346007
  40.6034088  39.0063715  37.0671487  39.9952006  38.2725286  36.5383148
  40.3135443  39.9929929  36.7056799  41.6133022  38.8300443  36.6968465
  37.7130747  41.3683796  39.6152186  36.9552135  41.7481804  38.6710811
  37.2369504  41.3005352  40.8589602  37.8853917  41.0471773  41.5907001
  35.8375549  41.6584253  41.2764740  35.1074529  41.0401869  40.7541418
  35.6241798  41.4305687  42.7603197  36.2424350  40.6086111  43.1212187
  35.9697151  42.3682022  43.1957006  34.1955376  41.1586857  43.1159925
  33.5233450  41.8580723  42.6188850  33.9219713  40.1987314  42.6781082
  33.9173365  41.1983013  44.6241283  32.8792953  40.6156778  45.0616455
  34.8009586  41.8240213  45.3376675  35.5579567  43.1462097  40.9429026
  34.4320321  43.4647608  40.5851746  36.4883447  44.0746164  41.1127615
  37.4139810  43.7584829  41.3644600  36.2423921  45.5480576  40.9187317
  35.3403425  45.8270121  41.4633369  37.3816133  46.4013910  41.5737486
  38.3566117  45.9190273  41.6430855  37.4842548  47.3085165  40.9781885
  37.0030427  46.9585085  42.9962301  37.6835561  47.7343845  43.3469725
  36.0687637  47.5147057  42.9195786  37.1373487  45.9626579  44.1877651
  38.1145906  45.4805470  44.1619921  37.0651698  46.3910294  45.1874590
  35.9630752  44.9852180  44.1380548  35.0372410  45.4916763  43.8652325
  36.2051916  44.2980099  43.3273602  35.8918500  44.3293142  45.4586458
  35.5219388  43.4058332  45.2841520  36.8094015  44.2766714  45.8774853
  35.2909613  44.8996162  46.0363960  36.0898423  45.8163071  39.4153404
  35.1224875  46.4856195  39.0247059  36.8934441  45.1851082  38.5252357
  37.5429916  44.4673347  38.8133383  36.6512656  45.2553892  37.0620871
  36.4894032  46.3023043  36.8054318  37.9089475  44.7901630  36.2907553
  38.7828255  45.4085398  36.4958143  38.2852602  43.8576889  36.7114568
  37.7945709  44.6280670  34.7192454  36.9358826  44.0092278  34.4588542
  37.5663328  46.0393572  34.0895152  38.3388090  46.7099905  34.4658518
  37.5964618  45.9778357  33.0016685  36.6263986  46.5002823  34.3931103
  39.0974760  43.8931608  34.2461538  39.9249649  44.5911455  34.3734169
  39.2319107  43.0566025  34.9318600  39.0618181  43.5209322  33.2223034
  35.3891945  44.5640230  36.6288710  34.5874763  45.1751280  35.8915114
  35.0766921  43.4163332  37.1880627  35.6775165  43.0281019  37.9010749
  33.7397861  42.7127552  37.0208669  33.7336254  42.3893690  35.9799600
  33.7959790  41.4693213  37.9458427  34.5221162  40.7377052  37.5914931
  34.0476108  41.7116165  38.9783549  32.4817967  40.6761026  38.0458617
  31.6641617  40.6800175  39.2486882  32.0056295  41.3230991  40.0463390
  30.5231738  39.8829579  39.3603516  29.9498796  39.8185492  40.2733612
  30.1264048  39.0431452  38.3087921  29.3257260  38.3332849  38.4551430
  30.8983445  38.9819813  37.1246958  30.6275725  38.2842684  36.3460565
  32.0595193  39.8271990  36.9719696  32.5873494  39.7864842  36.0306191
  32.5783944  43.5950279  37.3662734  31.7128849  43.7393951  36.4697242
  32.4045968  44.1628838  38.5580111  33.0641174  43.8597012  39.2603016
  31.2890434  45.0331497  39.0381813  30.3517604  44.5035839  38.8674068
  31.5105033  45.4277802  40.4575014  32.4807930  45.8975029  40.6187296
  30.6841993  46.0934496  40.7069063  31.3059187  44.3111181  41.4962769
  31.9826627  43.4892511  41.2625074  31.6835999  44.7244120  42.9517031
  32.7001858  45.1176262  42.9466772  30.9878302  45.5006981  43.2701063
  31.5864944  43.8187885  43.5504627  29.9034309  43.7775040  41.5205240
  29.1943407  44.5553493  41.8038177  29.6764135  43.3542824  40.5420351
  29.7585940  42.9732752  42.2418690  31.2528896  46.3546324  38.1925941
  30.1863694  46.7930031  37.9167676  32.4223590  46.8113708  37.7545071
  33.2510471  46.2803841  37.9812813  32.5253201  47.8895712  36.7607236
  31.8594408  48.6585188  37.1524286  33.9746833  48.3701086  36.7210650
  34.1710043  48.8052130  37.7009892  34.5954037  47.5252724  36.4226460
  34.3141699  49.4482946  35.6601787  34.1054988  49.0924501  34.6512508
  33.6675954  50.3180838  35.7764173  35.7766414  49.7716713  35.7119203
  36.4530921  49.6490431  36.7383671  36.4342952  50.1691961  34.6179461
  37.4010634  50.4364061  34.7365165  35.9490299  50.3118563  33.7437248
  31.9670105  47.6283455  35.3409863  31.5057802  48.6173201  34.6646142
  31.8258619  46.3533688  34.9372101  32.2803879  45.6768608  35.5337334
  31.1603236  45.9061050  33.7551975  30.9953165  46.7966509  33.1487298
  31.9155526  44.8250389  33.0340624  31.7887878  43.9944839  33.7284732
  31.4609599  44.5937109  32.0707703  33.4850359  45.0675964  32.7289510
  34.0501308  45.5180740  33.5449386  33.9179754  44.1075802  32.4478292
  33.6862683  46.0017967  31.4693189  34.5978642  45.7155895  30.9447408
  32.8339887  45.8303976  30.8117914  33.8095021  47.4805498  31.8177080
  32.8787160  47.7608109  32.3108602  34.7032881  47.5443983  32.4383283
  34.1050124  48.2343054  30.6019449  34.9764252  47.7868557  30.3559160
  33.3255005  48.2675266  29.9605751  34.3054914  49.2117310  30.7586479
  29.7231817  45.4437542  34.1428304  28.9030313  45.5733919  33.2615328
  29.3987536  45.0589323  35.3571796  30.1300383  45.0083637  36.0519958
  27.9602695  44.8358297  35.7481456  27.3989296  44.2190218  35.0463295
  27.8723288  43.9545727  37.0546126  28.4680939  44.5174694  37.7731586
  26.3915491  43.9173365  37.4768639  25.7884765  43.4012032  36.7298627
  26.3185859  43.2639217  38.3462477  26.0234618  44.8745346  37.8461576
  28.4698081  42.4712515  37.0114779  29.5457125  42.5777960  36.8729711
  28.2454920  41.8679571  37.8911471  28.0008197  41.6743946  35.8211064
  28.3510995  40.6523085  35.9651423  26.9152260  41.6465950  35.7272243
  28.4212446  42.0405006  34.8844576  27.1875763  46.1350489  35.8332682
  25.9854150  46.2529850  35.6536865  27.9427099  47.1938801  36.1311913
  28.9177394  47.0732546  36.3654280  27.5595140  48.5954237  36.0863066
  26.7843938  48.6873007  36.8471336  28.6988139  49.5271492  36.5098238
  29.1718102  48.9873791  37.3302031  29.3519020  49.7408962  35.6637239
  28.2149076  50.8620977  36.9638062  28.6898994  51.8604612  36.5183902
  27.2132778  50.8288908  37.8491306  26.9110847  51.7101383  38.2392335
  26.9496703  49.9798489  38.3284497  27.0044112  49.0516090  34.7390461
  26.0750461  49.8118782  34.6663499  27.5958490  48.5657310  33.6386609
  28.3533525  47.9216814  33.8161397  27.2125292  48.6665249  32.2117329
  26.5496516  49.5272064  32.1227479  28.4651923  48.8275862  31.2449026
  29.2490482  48.1532431  31.5897703  28.2016897  48.6175776  30.2082872
  29.0393162  50.2907038  31.3258243  28.2811785  51.0066748  31.0084772
  29.2156863  50.6683064  32.3330045  30.2065182  50.3590202  30.3441143
  31.3227391  50.7324409  30.8098960  30.0412202  49.9114466  29.1767192
  26.3203502  47.5251341  31.6622114  25.9237337  47.5060701  30.5046988
  25.8958101  46.6047430  32.5206208  26.2002015  46.6811037  33.4806275
  25.1326585  45.4636383  31.9804978  25.7331109  44.9181938  31.2524557
  24.8934412  44.5129681  33.1816697  25.8791947  44.2246628  33.5467339
  24.3496561  45.0558424  33.9547682  24.2342329  43.0646229  32.9390216
  23.5157299  43.2275343  32.1357059  25.2517271  41.9891596  32.4531054
  24.7605515  41.0516119  32.1926069  25.8837032  42.2968245  31.6200089
  25.9219527  41.8495464  33.3012843  23.5305190  42.6433945  34.2284799
  22.7000475  43.3493710  34.2255735  23.1223989  41.6326809  34.2290235
  24.2810798  42.5760651  35.0160193  23.7585998  45.8362246  31.2709785
  22.9858923  46.6083813  31.8142009  23.3344150  45.3116512  30.1012039
  24.1962671  44.7814131  29.1269612  24.0019178  43.7256193  28.9382243
  25.2443147  44.9644375  29.3640208  23.8578510  45.4784822  27.7725530
  23.8460875  44.7915888  26.9263005  24.4998717  46.3422680  27.5999641
  22.4249291  45.9325409  27.9617715  21.7310882  45.5573082  27.2095156
  22.3312593  47.0070267  27.8042746  22.1043134  45.6255341  29.4164801
  21.6459894  46.5458393  29.7785234  21.0663438  44.4203091  29.4323611
  21.5026045  43.2138824  29.5341134  19.7541106  44.7404814  29.3042827
  19.4967818  45.7159519  29.2558765  18.6371827  43.7616253  29.0914869
  18.7511623  43.1510639  29.9872112  17.3200142  44.5883751  29.1711283
  17.5937116  45.6024361  28.8797903  16.0532629  44.2029047  28.4536028
  15.1801753  44.4335699  29.0640235  16.1208832  44.8760319  27.5989485
  16.1620319  43.1393766  28.2410645  16.9726884  44.7697973  30.5511379
  17.2060776  45.6725550  30.7795334  18.7740374  42.8806114  27.8771806
  18.9943087  43.3902502  26.7824459  18.4891152  41.6916037  27.8698874
  44.1279173  28.0897880  24.4766092  43.4448796  14.8066718  12.7570823
  42.6518946  14.3352038  12.5018791  43.7881213  14.3126160  13.5016111
  12.3234146  50.6081700  43.1646446  11.7117184  49.9884092  42.7672008
  11.8537825  50.9552335  43.9230827  45.5386925  21.4916587  53.0079603
  45.6252909  21.2508416  53.9303160  45.2556133  22.4058890  53.0246735
  51.3871633  33.8233329  30.9263423  52.0105183  33.1094527  31.0606388
  51.4208996  34.3269416  31.7396549  13.2196921  36.9981104   4.9273828
  12.6483315  37.7123111   4.6450666  12.7383488  36.5724945   5.6368831
  35.2559936  40.1986801  12.2951177  34.9335384  41.0752451  12.0856241
  35.5326998  39.8376393  11.4529089   0.6100070  20.9882998  23.8608074
   0.8801398  21.2975669  24.7254539  -0.3412186  21.0949039  23.8547111
  66.9497025  32.7533192  22.8067878  66.4452803  31.9877937  23.0820421
  67.2684013  32.5284988  21.9326499  65.0551950  59.8013246   6.7355493
  64.6928226  60.4821979   6.1686901  64.5428001  59.8630535   7.5416950
  57.8602123  11.8638182  32.8960872  57.6698065  11.0338295  32.4589396
  57.1420479  11.9768453  33.5187411  36.0785365  46.0082173  28.1956962
  36.0765182  45.1304495  28.5774711  36.5682148  46.5408515  28.8223938
   4.3323362  53.2034569  54.1255760   4.0253413  52.3182505  53.9296246
   5.0599802  53.0753832  54.7341490  42.5463068  45.9531545  25.5650714
  41.7921471  46.0228943  24.9797443  43.0959498  45.2774977  25.1680664
  22.4792385  44.6552086  53.0960083  23.3830476  44.4928408  53.3661890
  22.3000240  43.9802647  52.4413586  22.7891760   4.1467148  14.0050081
  22.4013262   4.1680700  13.1301645  23.6360007   3.7180120  13.8811735
  60.4513127  55.3095620  55.7279015  60.2325899  55.6983971  54.8810244
  60.8500153  56.0245632  56.2239265   9.3468016  52.5947654  22.2110609
   8.7919920  51.8984162  22.5625042  10.1919716  52.1727335  22.0567564
  45.1928858  16.4386898   8.0894426  45.4694037  16.4507014   7.1731332
  45.1934875  15.5116087   8.3276752  67.0348313  19.4499922  38.7985206
  66.6141911  18.8723660  38.1616187  67.7170368  19.8997748  38.2999992
  26.1235361   9.1299159  24.3411926  26.5447407   8.8488633  23.5288909
  26.7057114   8.8170058  25.0335697  33.3821362  58.3181416   4.4847206
  33.2268017  58.4855163   3.5551599  33.9091986  57.5192511   4.4994310
  10.5656021  59.9914896  17.7647928  10.7949560  59.1334283  17.4079183
  10.8602351  60.6139337  17.0999721  49.3049681  36.3739365  33.2986167
  48.6544835  36.2169036  33.9830497  48.8110315  36.3154351  32.4807933
  67.2934054  18.2078082   1.1700443  67.6291799  18.9649636   0.6902507
  67.9505681  17.5257784   1.0314706  21.9750338  22.9871279  52.3154739
  21.9647770  22.0357567  52.4204734  21.2549525  23.1692368  51.7116931
  48.3679521  43.4567165  28.7020591  49.2716991  43.7544822  28.5980800
  48.3321058  42.6284849  28.2235435  11.6185646  17.4402005   5.5254463
  11.6667204  17.4771887   6.4807180  12.5188880  17.2733075   5.2465251
  65.8944773   5.9719497   2.4316505  65.4136299   6.7492444   2.1473411
  66.5508651   5.8333212   1.7488817  61.7821776  33.2702064   7.8312496
  62.3241913  34.0565335   7.7668861  61.0706794  33.5174274   8.4219125
   7.5687342  14.1000325  17.2525075   7.4169402  14.9675566  17.6274541
   8.3576160  13.7835556  17.6926664  19.8693066   5.1058418   5.6593803
  19.0970831   5.2636725   6.2025121  20.5949288   5.4774934   6.1609558
  21.5217417  52.7392709  27.5368026  21.9545906  52.5774347  26.6985420
  20.9279602  53.4695732  27.3626998   4.7587543   9.9329764  11.0557512
   5.0623446   9.0746361  10.7602695   4.8660164   9.9106652  12.0066598
  59.7679369  43.4611481  14.2430121  58.8108008  43.4553593  14.2524535
  59.9986641  44.3134611  13.8734824  22.1766758   3.2047454  36.8612647
  21.7605233   3.3491743  37.7110815  21.6772532   2.4887642  36.4686060
  27.9116910  46.6343939  19.3089822  27.6311621  45.7764506  18.9904407
  27.1845623  47.2188949  19.0948013  29.3077253  19.2607027  24.1638187
  30.1601135  19.4403845  23.7671045  28.6868988  19.7614247  23.6345867
  66.7397665   7.2559124  13.9182333  66.5501522   7.6587039  13.0708602
  65.8796095   7.1110898  14.3124250  57.0944201  55.6031787  12.4154285
  57.1505296  56.5063083  12.1032766  56.1978185  55.3353726  12.2138885
  34.2796421  15.7744002  50.6831741  34.0529752  15.8421624  49.7556734
  34.9890089  15.1322889  50.7100868  56.0822021  63.9893281  23.0412439
  55.7008516  63.8036882  23.8993505  55.3927695  64.4556939  22.5685743
  14.1873949  50.3590869  15.4443792  13.5100382  50.1617801  14.7974685
  14.1403073  51.3082838  15.5585674  20.6677704  24.5749051  50.4674343
  20.9058409  23.8016802  49.9558834  19.7392206  24.7104412  50.2785972
  34.3102913  32.8293950  25.1828865  34.3808060  31.8751007  25.2071098
  34.0447741  33.0272204  24.2847780  24.0112513  52.3320376  28.6684040
  24.1177529  53.2227933  29.0022377  23.0683010  52.2380173  28.5333541
  41.3020354   5.2732021  13.1013254  42.1981411   5.3227550  12.7685026
  40.8444004   4.7128493  12.4745801  18.7229896  24.1712403  54.0544224
  18.2742083  23.9310861  53.2437706  19.2335653  23.3949757  54.2845440
  51.2684094  16.7027103  26.9988636  51.6185247  16.7039000  27.8897289
  50.3201091  16.6424262  27.1142868  43.1953096  56.8539667  37.3291254
  43.4403133  56.4948416  36.4763474  43.8198662  57.5637913  37.4784803
  40.4258757  10.6396920  31.4372066  41.3460570  10.7468802  31.6780761
  40.0322037  11.4951855  31.6086391   3.0079298  20.3992611   1.4373926
   3.7196355  21.0184437   1.2751630   3.3718686  19.5474583   1.1961177
   5.4474980  41.5555525  41.0849953   4.8170525  41.1102152  40.5189180
   5.1667315  42.4706459  41.0827827  55.1883828  48.2631897   6.5772966
  55.8306348  48.6154901   5.9611562  54.6043503  48.9989137   6.7612842
  62.9509186  16.7323882  10.5906538  63.0625450  16.3582331   9.7167066
  62.1304785  16.3561064  10.9092811  50.9364872   2.2947031   5.3749660
  50.7368260   1.5886384   4.7602800  50.0859814   2.6855308   5.5752710
  10.6637675  50.0236940  53.2664299   9.8091322  49.6231365  53.1071138
  10.4635769  50.8435297  53.7181187  25.5924015  15.2661568  40.9351543
  25.5750923  16.0008770  41.5484336  25.2177220  14.5351321  41.4265255
  64.0404366  16.4245373  17.1595052  64.1795086  17.1116215  16.5077356
  64.0953123  15.6083113  16.6625122  16.2704950  21.3519103  23.6902669
  16.5325098  21.2193495  24.6013168  15.7614641  20.5713755  23.4714464
  50.6418705  24.1998839  29.3464851  51.0800076  23.9777112  30.1680136
  50.9508848  25.0822783  29.1412497  12.2943848  56.2375700   8.9482025
  12.8305834  55.5614197   8.5340313  11.6088456  55.7519757   9.4069723
  52.4287545  47.0103251  11.1148647  52.4988734  46.5875732  10.2589468
  51.7540633  46.5104281  11.5743545  28.7756747  34.0706954  14.2897991
  28.8081282  33.9014276  13.3482412  28.7582463  35.0250759  14.3611148
  13.0599850  47.4779510  26.1648849  12.8384369  47.2293281  27.0622924
  12.2154587  47.5437581  25.7191471  10.4097395  29.4594962  12.7788690
  10.6224351  28.5809618  13.0937818  10.9379201  30.0434357  13.3231786
  19.1079760  10.6425250  38.9831376  19.8966920  10.9218538  39.4480395
  18.8079321   9.8704904  39.4628954  19.6139782  34.2701414  10.1819614
  19.9164122  34.1773933  11.0853771  20.1483172  34.9780482   9.8219875
  28.9517515  56.9727170  41.4872268  29.2664217  57.4907553  40.7463840
  29.5920956  56.2666761  41.5749649  13.4555024  42.0408564  27.6636699
  13.6086052  41.6661292  28.5310653  14.0345782  41.5464937  27.0835784
  54.1668856  33.2427096   9.1625694  54.5908677  33.9070060   8.6192659
  53.7552082  33.7389492   9.8700288  29.8840218  15.9005934   1.9446710
  29.5973711  16.1899001   2.8109077  29.0721159  15.7722622   1.4541915
  49.1773784  41.6572558  31.0905078  48.2484686  41.6910809  30.8619979
  49.2888844  40.8063965  31.5145782   1.4275235  57.6837837  39.5775703
   0.8391970  56.9481146  39.4075969   1.2833231  58.2804429  38.8431171
  26.8933415  18.7014639  48.3173847  27.1549058  19.2348361  49.0679359
  26.2459373  18.0915058  48.6710024  66.3984501  49.5196723  44.4938186
  67.3438942  49.6679520  44.5134452  66.0514271  50.2533554  43.9863494
  31.4484137  54.7933328  37.1239093  30.9515971  54.5491731  37.9047969
  30.9275359  54.4581520  36.3941291  30.2621107   8.5792595  19.0061859
  29.3407660   8.6301428  18.7516979  30.3734141   7.6836068  19.3250135
  66.0826838  64.1784536  10.8088306  65.1330769  64.1040337  10.9033588
  66.3084471  63.5305583  10.1413778  13.5763626   4.2828494  24.5563415
  13.5065203   5.1404149  24.1368965  12.9740434   3.7254650  24.0636304
  17.3793721  47.0459425  45.8756259  16.8682849  47.2367858  46.6621402
  18.1313928  46.5465927  46.1939815  11.6011256  56.4671957   2.0975402
  11.9899004  56.9064247   1.3411287  12.3459309  56.2543237   2.6598362
   6.2478571   4.9418670   6.4588645   6.6357045   5.2433664   5.6373409
   5.3461557   4.7168595   6.2296537  62.2401368   1.3971311  26.1875442
  62.5272511   0.6846601  26.7586711  61.4727711   1.0469514  25.7350448
   9.9115818  56.8394291  27.9110054   9.0359705  56.4738094  28.0369190
   9.9087685  57.6490652  28.4216026  36.1269951  14.1813505  37.4966908
  36.5032601  14.5992231  38.2713127  36.8623137  14.0953529  36.8899441
  57.8761374  25.6226689  33.2911590  57.4473750  26.2533480  32.7126792
  58.2526385  24.9718100  32.6988224   3.2181185  58.8520181   9.9013380
   2.6801604  58.6763274  10.6733278   3.9369887  59.3928468  10.2283910
   6.6124754  15.3114563   9.9881080   6.6388398  15.0630671  10.9121421
   5.7645469  15.7422167   9.8799804  23.9688664   5.2709586  24.4020275
  24.6321183   4.9593812  23.7861970  23.1365805   4.9977762  24.0161470
  50.6855564  20.7509142   2.5761608  50.3272181  21.5268380   2.1451524
  50.9360915  20.1714713   1.8566421  20.5552178  23.8156611  24.5609954
  20.4434281  23.3542735  25.3921703  20.7663565  23.1265789  23.9310554
  30.3274422  54.0014851  13.5821012  30.3068369  53.6023747  12.7123216
  30.1612257  54.9306642  13.4232572  66.8671715  61.1085188   3.4860281
  67.5164759  61.7755687   3.2631353  66.8480122  61.1032450   4.4430212
  29.1676396  49.6923875  16.9021133  29.7751486  49.9428212  17.5981382
  28.3988040  50.2443408  17.0451931  23.1112552  30.6868529  52.8760290
  22.6625538  30.6255865  53.7193203  23.3544159  29.7847271  52.6680040
  16.2176161   0.8297783  18.1998828  15.3612809   0.4673487  17.9728035
  16.0297208   1.4856249  18.8712934  14.4976061  58.0058062  21.2426570
  14.2125958  57.1085536  21.0696271  13.7834090  58.5516273  20.9136680
  31.6684227   6.2021405  14.0009407  32.1990280   6.2045032  13.2042697
  32.0276385   6.9143325  14.5300725   1.1261594   9.9057156   3.3707908
   0.3427827   9.9155003   2.8208355   0.8042561   9.6745068   4.2420820
  40.7210052  39.7201776   9.6508029  41.1942434  39.5891624   8.8291505
  41.3469672  40.1694953  10.2187112  55.7096052  11.9147348  49.1614246
  54.7595215  11.8138790  49.2197371  56.0529280  11.0313821  49.2957783
   5.4857605   9.9851317  52.4360847   6.1254137  10.5967040  52.8008461
   4.7541111  10.0076384  53.0528641  42.9319131  25.4264467  17.5873760
  43.2255184  25.0564950  16.7548088  43.2265961  26.3368076  17.5621418
  15.2321654  33.3936984  10.2082161  14.8734503  33.1997591   9.3422226
  15.8556800  34.1037613  10.0556568   0.0635868  56.0886860  43.5648537
  -0.2647728  55.8939409  42.6870823   0.3734452  56.9926548  43.5095739
  24.8252325   9.0419012  19.9035648  24.6597939   8.1103808  20.0489429
  24.6204357   9.1800696  18.9787963  47.3587930  46.8966770  14.7323755
  46.7497456  46.2467372  15.0829080  47.6774513  47.3664724  15.5030778
  39.6099215   0.6601650   2.0964531  38.8713913   1.0680300   1.6442874
  40.3740053   1.1566407   1.8033269   9.6460491   0.2658850  16.7502168
   8.7333947   0.0128418  16.8890003  10.0745921   0.0851041  17.5868228
  51.3330638  60.8035957  26.0313705  50.5393087  60.2825009  25.9103588
  51.9875204  60.3747069  25.4800418  17.7302437  32.2872740  10.6031326
  18.2360344  33.0940634  10.5056766  16.8667178  32.5018460  10.2502636
   3.1782502  51.1137390   5.8673337   3.2189768  50.1915836   5.6139568
   2.4033659  51.1746346   6.4259723  19.4739371  34.9751526  22.9265884
  18.6960059  34.4554049  23.1288675  19.1409951  35.8625752  22.7929452
  65.6603478  14.5485169  37.1424202  64.8101686  14.7173745  37.5485137
  65.6532048  13.6102635  36.9530395  54.2009627  47.5043296  13.0856279
  53.9544713  48.4010946  13.3120969  53.5246264  47.2177672  12.4718860
  24.6059733   1.4486653  35.9645752  24.1068440   2.1268422  36.4197448
  25.5046635   1.5651447  36.2728313  57.9623658  50.6559985  32.3545814
  57.6197833  50.7617944  31.4670706  57.2027928  50.3941446  32.8748822
   2.7411640  62.4244081  55.2557087   1.8252194  62.6912948  55.1779270
   2.7728713  61.9091406  56.0617685  14.1517943  59.6593534  43.1611923
  14.1071242  60.3297340  43.8429836  14.7973173  59.9936783  42.5384906
  36.4752377  63.8564666  30.1691484  36.6304577  63.0153026  30.5987811
  35.5329836  63.8693368  30.0011444   6.5787476  13.8765907  46.8880561
   6.0427206  14.2901444  46.2113861   7.1255558  13.2517421  46.4118198
  67.2570955  41.0245263  15.5809978  68.0265963  41.5930366  15.5511144
  66.6899693  41.3521987  14.8829750   5.7545155  45.9948968   7.2723583
   5.7713431  46.6212642   6.5487484   6.5759295  46.1467552   7.7397398
  53.6833131  38.0735057  24.9351123  53.4489643  37.3319858  25.4932025
  54.4969499  37.8045546  24.5086292  11.6816080  47.9312890  42.0117998
  11.1777580  47.9869514  41.1998463  11.8371809  46.9946783  42.1334124
   5.2628816  64.3067814  26.4857578   6.1303962  64.1035782  26.1359596
   4.6656383  63.7554023  25.9802771  68.0472576  62.8792130   1.6969589
  68.8345587  63.0432689   1.1778453  67.3382914  62.8510582   1.0544637
  14.6671594  50.8115070  54.8945904  14.3463862  51.3489538  54.1703749
  15.3690112  50.2861219  54.5103931  48.3049237  54.0691220   2.3895744
  48.2556474  53.4991180   3.1569723  47.4311316  54.0242254   2.0013717
  11.5122299  36.0455965   6.8945796  10.6733756  36.1183809   7.3498447
  11.9861703  35.3653740   7.3730285  52.4607897  34.7172642  51.5668774
  51.8629694  35.3087616  51.1097431  52.3085260  33.8631845  51.1624050
  53.9296532   2.7991208  44.0427399  54.3430519   2.3355702  43.3144188
  52.9991961   2.8159219  43.8186932  53.8019800  28.7320733  47.1044779
  54.1716337  27.9612184  47.5350285  54.5343494  29.3451071  47.0407915
   6.3748652  49.4195843  46.9622421   6.7319590  50.2619839  46.6810322
   6.4825350  49.4192934  47.9133654  37.9728775   8.6860186  31.2501911
  37.2255211   9.1984660  31.5585521  38.5756474   9.3355328  30.8882049
  60.0444066  46.6278183   6.5384248  59.9029839  47.5337910   6.8131021
  60.9850943  46.5725994   6.3702301   9.8374695  12.8653646  18.3684266
   9.3568999  12.7918732  19.1929781  10.7572174  12.9074883  18.6301911
  24.8655146  14.6215605  19.1973499  23.9657276  14.8425424  18.9569715
  24.8682898  13.6666059  19.2628101  60.9329748   6.3138908  50.1773977
  60.3771353   7.0854771  50.2866411  60.3782320   5.6818676  49.7201920
  46.8187415  26.3272732  25.0098327  47.3815190  27.0906078  24.8800758
  45.9290492  26.6658079  24.9094680  14.3898368   9.9257672  18.8274431
  13.7354052   9.8700076  18.1311369  14.6203649  10.8540046  18.8656986
   2.7267413   6.1516839  19.6127847   2.0029836   6.7409283  19.4001869
   2.7307301   5.5109436  18.9016822  16.8489361   2.1172343   9.1613269
  16.3782501   2.9454261   9.2550540  17.6273572   2.3405655   8.6510175
   1.1135346   8.1085998  53.2629919   0.9372860   8.7822390  52.6061964
   0.5264765   8.3218658  53.9883280  34.0351475  48.5436552  40.3089237
  34.6261633  49.2116147  39.9614167  34.2438400  47.7551585  39.8079729
  22.6785267  40.5794602  46.0242653  22.7748478  41.1016660  45.2278614
  22.0427835  39.9027758  45.7915401  26.9844597   9.6301138  46.1532596
  27.8712338   9.9246132  46.3609508  26.4142340  10.2873933  46.5520767
  30.7882261  39.1180587  43.8101339  30.1131701  39.7799754  43.6604834
  31.5593076  39.6184468  44.0771103  56.3717031  39.4084716  31.9588923
  56.0059452  40.2111721  32.3305464  57.3195648  39.5342708  32.0031452
  66.2141382  20.5030882  18.6314825  66.8090927  20.8663284  17.9755024
  65.4393351  21.0635113  18.5885767  31.2477845  40.2227246   5.1838020
  31.3468426  40.8900445   5.8628467  32.0862931  40.2244794   4.7221330
  52.2705423   4.7500455  12.2329286  53.0163562   4.1695296  12.0812896
  51.5097129   4.2401778  11.9547132  24.3700302  42.9424720  47.9684496
  23.7415207  43.6643844  47.9754400  24.7456158  42.9604106  47.0881987
  63.8850902   2.2044045  22.0792011  63.6511969   1.2772876  22.0347122
  64.6507489   2.2858149  21.5105394   5.9815901  22.0752906   4.2138485
   6.8632716  21.9290590   4.5566133   5.5822056  21.2054848   4.2012456
  11.4723766  57.5713532  45.7548237  11.9811428  57.0164018  45.1637077
  12.1015990  58.2154643  46.0795259  28.9772099  52.3159992   4.1610530
  28.2721060  52.9005587   4.4391826  29.5343035  52.8604543   3.6047796
  56.7845070  28.6166220   4.7212080  56.0797131  29.0197655   5.2281335
  56.4033520  28.4701988   3.8554672  44.1785705  64.1348111  15.0271801
  44.1430866  63.7795555  14.1390518  45.1080048  64.1168940  15.2553514
  26.3818049   1.7266721  45.9125614  25.6896520   2.3822004  45.9988070
  26.7217493   1.8524335  45.0266409  12.5231731  62.3111808  38.7044215
  12.6668609  62.4222284  39.6442366  11.6805614  62.7342386  38.5393167
   3.0087822  27.7785876  17.6908639   2.9623192  26.9813531  17.1631435
   2.1038073  27.9438182  17.9553560   3.9798361  23.5822749  41.3795519
   4.7939640  23.8161802  40.9337711   4.2529780  22.9955935  42.0848417
  30.7372361   0.3260833  17.1434692  31.1202126   0.5152017  16.2868503
  31.4888554   0.1386434  17.7057508  48.8203144  16.3371193  33.8821697
  48.5807133  15.4523051  34.1577172  48.5607147  16.8948865  34.6154761
  64.6578932  43.5646486  23.2791758  64.5827866  43.7637854  22.3459363
  63.7540245  43.4528494  23.5737228   9.9303711  62.9036463  38.1846333
   9.8097027  61.9550494  38.1418014   9.6792472  63.2165157  37.3155642
  53.5458338  44.3005919  23.7202791  53.4787356  44.8383140  24.5093158
  54.3327820  43.7729036  23.8562587  45.2746058  14.3646932  51.5326929
  45.4392576  14.6617341  50.6377697  44.3509197  14.5641816  51.6851473
  38.0891848  12.0107889  48.9624023  37.3793316  12.5939417  49.2312431
  38.7720346  12.5981832  48.6384964  34.6667576  36.3302057  17.6203540
  34.9213147  35.4081981  17.5837520  35.3838181  36.7582624  18.0881408
   0.8000523  10.0556147  30.2070022   1.5986258  10.3309155  29.7567606
   0.4000098  10.8722055  30.5059648  32.9175734  28.6314630   6.2558321
  33.6616849  28.8291966   6.8245414  32.4098974  27.9822546   6.7426828
  28.1713617  58.6362856  25.4686761  28.5278595  57.9459970  26.0278225
  28.9398468  59.0330171  25.0584698  50.8402395  39.9594092  55.2470684
  50.5122900  40.5351448  54.5562649  50.3804922  39.1315699  55.1072550
  21.7171507   6.2201554  20.7578138  21.9595270   6.6230089  19.9240306
  21.5531950   5.3022200  20.5416063  54.2680407  28.9673114  35.4391837
  54.8700190  28.2307220  35.3329253  53.9630079  29.1572547  34.5519924
   2.8700358  14.7052073  52.7825069   3.3775622  14.0796363  53.2995272
   1.9580132  14.4579053  52.9351234  16.6578210  62.0482887  49.6874809
  15.7118929  62.1780538  49.6195412  17.0188988  62.9339262  49.7262096
  42.4210596  53.7399721  55.0397825  41.7568445  54.4139099  55.1842070
  42.5148392  53.6961460  54.0881968  34.5195692  11.9104921  15.4000667
  33.9119118  11.4254462  14.8417524  35.2639883  11.3196194  15.5138114
  53.2783973  16.0341274  25.3353027  53.3789193  15.0938880  25.4838947
  52.5634062  16.2933707  25.9165195  32.3749709  57.5834625  21.1275104
  31.8390846  57.8445427  21.8764356  32.7447152  56.7376702  21.3808063
  52.0507956  10.7611442  39.2193747  51.9586849   9.8834229  39.5899868
  52.9311323  10.7713258  38.8436866  10.1312178  30.1145741  17.4454549
  10.2491158  30.8285072  16.8188528  10.3288287  29.3223553  16.9458822
  20.9257180   2.9354542  39.4564009  20.8121354   2.0323101  39.1603231
  20.0382477   3.2375076  39.6498060  22.1307057  57.6435506  17.3528102
  22.2516268  57.1265256  16.5563873  22.0382613  58.5441458  17.0419887
  58.0759239  17.7354801  51.6603804  57.1436453  17.9427350  51.5960884
  58.5126066  18.4495294  51.1959743  56.0982286  28.0521154   1.9464496
  56.6896927  27.9259857   1.2045005  55.4172456  28.6364698   1.6132501
   7.3337525  46.6365110  38.6682991   7.1307009  47.1845829  39.4263366
   7.0610875  45.7567536  38.9289001  51.8087232  24.6435195  17.2999671
  51.5591800  24.4224256  16.4027074  52.0277965  23.8027840  17.7017168
   3.9398402  40.4136759  39.0958980   3.2392567  40.6376844  38.4833244
   3.6816710  39.5647704  39.4549755  47.2960817  37.9119718  14.4839433
  46.3652384  37.6902246  14.5082334  47.7436649  37.0659199  14.4740585
   1.0987728  27.8190416   1.0005525   0.2056187  27.7789366   1.3424495
   1.6452711  27.9583117   1.7739681  64.6983551   9.5280320  28.9558128
  64.2450546   8.9008290  29.5191768  65.4925727   9.0710026  28.6790947
  48.5501337   9.9188769  43.4233427  48.1668377  10.7907271  43.5192299
  47.9192066   9.4373900  42.8882408  63.0109369  52.1763288  32.4460987
  62.0571172  52.1100282  32.4915603  63.2576096  51.5932106  31.7282108
  11.0203779  36.7279630  55.1822281  10.6917227  36.4386921  54.3310308
  11.1887539  37.6633697  55.0686646  38.0779767  18.5616040  42.9889965
  38.9076543  19.0352368  43.0485010  37.6693463  18.6857474  43.8456440
  52.9024065  51.4756077  44.5848703  52.2409237  50.9412640  45.0243616
  52.5694120  52.3706358  44.6502256  57.5285416   8.1666905   1.0922006
  58.2589226   7.5564438   1.1940912  57.9444390   9.0217549   0.9820703
  36.9585026  48.7934189  46.2985325  36.4673937  48.5971444  45.5007076
  36.3503016  49.3015891  46.8352604   2.0729929   0.6136908  47.1004820
   1.6989094   1.4009018  46.7047644   1.3427550   0.2121862  47.5714207
  60.0431739   6.1269051  24.4460872  60.3574180   5.3827769  24.9596599
  60.5784940   6.1134869  23.6526874  15.3987122   0.7819082  22.7552152
  15.5382550   1.6036925  23.2257795  14.5350122   0.4853256  23.0420828
   3.3430303  56.6608148  36.9495702   4.2213882  56.4192110  37.2434163
   3.1852925  57.5178748  37.3455477  16.2154823  12.1247250  12.9090313
  15.6002026  11.9148880  13.6116222  15.7209306  11.9716460  12.1039108
  12.0381230  54.6563756  27.9372982  12.2922486  53.9742839  28.5589126
  11.2271326  55.0169980  28.2957271  48.7345534  22.4702889  29.8189167
  48.2768469  22.5054318  28.9789680  49.4803171  23.0604130  29.7101692
   5.8914334  46.8769979  15.4091394   5.4676062  46.0222197  15.4862976
   6.3434941  46.9964600  16.2443674  42.0631045  38.9645022   3.1387666
  43.0187052  38.9097273   3.1470731  41.8764227  39.9016612   3.1945709
  21.7455119  16.1876332  12.3560718  22.6305693  15.8594691  12.1973041
  21.1763638  15.4403948  12.1718410  40.4458266  10.2167422  19.6492389
  41.1926966  10.5092770  19.1269020  40.7850342   9.4834143  20.1624683
  13.9745301  56.2429416   3.5487083  13.4080046  56.9509685   3.8552669
  14.8511666  56.4949047   3.8389734  57.4920785  27.8503331  14.1770175
  57.6260101  28.4839558  14.8818687  56.9733989  27.1526205  14.5775178
  34.7086657  55.6953030  41.1319590  35.6605280  55.5981522  41.1592770
  34.5166195  56.3596397  41.7937803  31.3465947  59.4681417  19.3118671
  31.5782326  58.7063419  19.8431304  31.7387980  60.2097547  19.7727541
  53.8157749  43.0433893  45.4053497  54.3241262  42.8921843  46.2021828
  53.3960199  42.2020864  45.2257776  34.9118000   7.0749724  41.1213446
  35.8194500   6.9456047  41.3964272  34.3981511   6.5517187  41.7366505
  18.6216599  21.4511681  46.5295315  19.2328698  22.1203876  46.2216377
  18.4977681  20.8747888  45.7754278  26.4748495   2.9241859  15.6277708
  26.3497561   2.1145927  16.1228851  26.8449515   3.5381042  16.2620882
  60.0977993  41.4305067  52.1547842  60.9719753  41.5759182  51.7929792
  59.5106983  41.5137577  51.4033747   9.2372769  60.5639994  20.2232460
   9.7760838  60.5522978  19.4321826   9.8631733  60.4661643  20.9408191
  30.4767865  62.1592462   6.6464046  30.9645527  61.3521492   6.4823535
  31.1303776  62.8541839   6.5682462  56.2338829  30.6809568  48.9770031
  56.7292118  31.4443469  49.2738485  55.6289530  30.4940033  49.6948767
  15.2708893  -0.0703758  11.6825012  15.2999168   0.0292260  12.6340631
  14.9543600   0.7745058  11.3627914  37.1084517   1.6777606  44.9986649
  36.1634653   1.8150277  44.9323797  37.4464053   1.9174809  44.1357899
  10.9346979  58.5750305   5.8772758  10.1394003  58.5126984   5.3482679
  11.5153902  59.1428744   5.3707412  22.1349161  49.4473099  15.9273056
  21.9975775  49.3164896  14.9890855  21.8124455  50.3327381  16.0954097
  42.9911125  46.2193292  45.2273464  43.5429514  45.5096226  44.8986816
  43.2957352  46.9963115  44.7585869  41.1358416  63.7605202  38.7860206
  40.4096448  64.0422761  39.3423370  41.5536844  64.5751678  38.5067657
  38.3810919  47.5792014   8.8420919  39.1547888  47.6411557   9.4022563
  38.5101813  46.7722105   8.3437637  57.6697218  30.2769720  12.1011594
  57.0516192  30.6063142  11.4486936  58.1673371  29.6015888  11.6402200
  10.8087355  11.2079859  42.0543098  11.6107899  10.9555972  41.5968895
  10.1281172  11.1714518  41.3822508  10.2371281  35.1883006  29.5832447
  10.5628842  35.5459153  30.4092220  10.9858054  34.7208973  29.2127803
  34.0584248  33.6664773  10.3474430  34.0783757  34.2843772   9.6166662
  34.6812170  34.0239034  10.9803823  17.4343043  41.7166382   4.7491506
  17.1238737  42.5536353   4.4037536  18.3352785  41.8895823   5.0222305
  42.8124487  33.2545638  23.8565591  43.6676585  32.9963741  24.2003444
  42.9377472  33.2951390  22.9084638  21.6598683  15.9215504  52.7318672
  22.1559220  16.3372189  53.4371189  22.2622233  15.2747876  52.3643116
  33.3098059  18.9655119  44.7766593  33.6822920  18.1798083  45.1768497
  33.7504559  19.0348441  43.9297584  17.6100594  54.4338131  49.6136045
  17.5277573  53.6659288  49.0480852  16.7997223  54.9233198  49.4722557
  39.6015202  54.0826928  17.9231933  40.4773163  54.2999422  18.2425931
  39.6556448  53.1567156  17.6868299  65.2123594  37.1306276  49.1337347
  64.6405649  37.2172070  49.8964787  66.0900354  37.3105669  49.4706869
  64.4056397   9.3208891  17.2658638  64.1043930   8.7280375  17.9543499
  64.7456723  10.0817019  17.7367834  53.2199907  20.6525898  16.6159594
  54.0384150  21.1484909  16.6381705  53.1460762  20.2730417  17.4915802
  21.7129284  34.8070025  49.0170145  21.5423638  34.6876073  48.0827284
  20.8835179  35.1256227  49.3730974  68.0640011  15.3136307  31.3746742
  67.5100117  16.0916811  31.3117031  67.5808602  14.7216183  31.9511512
  45.5479419  56.0961019   3.5225395  45.9295260  56.9280803   3.8026050
  45.8117043  55.4719722   4.1986469  56.7108380  33.2525771   2.0827440
  55.7864177  33.0057401   2.1101049  57.0917284  32.8408838   2.8584150
  53.1644392  26.6890717  49.9590731  52.9347563  25.9654117  50.5419874
  53.7969017  26.3123345  49.3472767   4.7651869   7.6324797  31.6444516
   4.9518687   8.1782597  30.8805776   3.8256365   7.7404863  31.7921376
  10.8931816  47.5319546  16.2610173  11.1152685  47.6751321  17.1810222
  10.8156884  48.4123891  15.8935094  64.2698479  31.4620996  34.0255833
  64.5270777  31.1406827  34.8897338  64.0344954  32.3784232  34.1711593
  12.9821556  44.1575312  25.8156112  13.2562226  43.5997629  26.5436367
  12.3553675  44.7677600  26.2041858  48.1146830  53.9651596  24.5556739
  47.5016135  53.4549462  25.0848678  47.7919882  53.8725149  23.6592821
  40.3229654  46.5915590  44.6507740  41.2682951  46.4445811  44.6193695
  40.1685370  47.2932809  44.0183449  14.1154497  29.2973205  25.4774097
  14.5384043  28.7669777  24.8020652  13.6605423  28.6623257  26.0306457
  38.7458830   0.9610778  12.2085527  38.5310107   1.8637234  12.4436906
  39.6964484   0.9626728  12.0960620  15.8354717   2.5923330  24.9945835
  15.0614600   3.1272632  24.8185447  16.1948877   2.9508621  25.8060745
  49.6442080  33.2404852  28.9968705  50.2699041  33.4000134  29.7034764
  50.1874208  33.1279159  28.2168198  57.5084085  53.4815615  28.8397193
  57.1724755  53.3570545  27.9520941  58.4602029  53.4788077  28.7381721
  53.5766792  41.7683792  54.9118423  53.8095760  41.5861320  55.8222151
  52.7036905  41.3898993  54.8075724  60.0136166   6.6657072  12.2693208
  60.9405117   6.8549091  12.4152711  59.6079140   7.5257689  12.1600727
  63.6496602  10.4096943   3.2603172  63.2416772  10.9241396   3.9568285
  63.7524187  11.0266119   2.5356916  31.6739624  63.5621678  49.5831302
  30.8097714  63.9630377  49.6764568  32.1997088  63.9624345  50.2756599
  46.7691076  51.1726218  53.0955124  47.5376928  50.6535953  52.8586149
  46.3334644  51.3497513  52.2618008  33.0093277  62.5583608  53.8339043
  32.1400250  62.3048761  53.5235977  33.0906618  62.1366664  54.6893501
  64.6302092  52.1801578   3.8841871  64.2749702  52.4025356   3.0236152
  65.5545580  51.9929146   3.7206415  15.2961748  46.6994595  12.1271947
  14.4517678  47.0415711  11.8336538  15.4174155  47.0763373  12.9986862
  50.2354300  41.2173080  14.9382452  50.5193626  40.6790536  14.1993955
  51.0273134  41.3434237  15.4609731  65.8058083  58.2797491  18.5467199
  65.7135832  58.9464461  17.8661016  65.3892195  58.6651527  19.3175319
  47.6071787   3.8118765  47.6704931  47.4659109   3.1027681  47.0432425
  46.8021536   3.8380769  48.1876802  43.7946921  26.9634968   5.6919912
  43.4038287  26.1079222   5.8693222  43.4273367  27.5384337   6.3633541
  53.7330496  35.8834886   1.1087850  53.8489496  34.9710246   1.3737539
  54.4682252  36.0574403   0.5210069  25.0657290  43.7925839   9.7895816
  25.5413979  44.5927381  10.0125602  25.7231110  43.2289314   9.3816904
   2.5026602   3.9702285  53.3889123   2.6684565   3.0731428  53.0991205
   1.7734713   4.2669190  52.8443947  38.2855617  49.2704975  23.4514717
  38.9753162  48.7374746  23.0560497  38.3799588  50.1289606  23.0387262
  64.8619663  16.3918215  21.9381622  65.5473041  16.7673928  22.4908784
  64.5838021  17.1153790  21.3766244  25.2969092  46.8349015  14.8182157
  25.3931015  47.7814423  14.9232820  24.6811360  46.5790426  15.5049375
  51.6243256  63.1876839  44.6537781  51.7079485  63.6613770  45.4813385
  52.5260485  63.0570307  44.3604183  54.8841553   9.7368390  23.3799127
  55.5970984  10.3077609  23.6662582  54.3132286  10.3066832  22.8645948
  29.3590622  23.1138808   9.5948366  29.8360281  22.6546627   8.9035657
  30.0419360  23.4403140  10.1808027  54.5316124  25.1300454  39.0770078
  54.6874189  24.4664478  38.4049988  53.7907219  24.7921014  39.5801044
  49.7042942  16.3819635  41.5701008  49.4511461  16.7292619  40.7148075
  50.4477501  15.8081341  41.3850927   5.7145136  21.5038382   0.5669216
   5.9735983  20.6524312   0.2144865   6.4224785  21.7405271   1.1660818
  24.1469983  56.3506352   9.6817306  23.1910934  56.3617002   9.6332029
  24.3381044  56.2032687  10.6080106   9.9457758  41.9085013   8.5302070
   9.9462479  42.0863187   7.5896696   9.0421742  42.0668506   8.8034442
  45.8749104   9.0182817  42.2310305  45.3046560   9.4454372  42.8702354
  45.7704449   8.0827212  42.4043703  21.6398077   9.1572386   2.9591039
  22.0007878   9.6267754   2.2071365  22.2698574   9.3117863   3.6629394
   9.6106774  40.1123714  42.7190304   8.8692242  40.3732586  43.2653046
   9.2409188  40.0216198  41.8408108  57.2183620  59.0606796   9.9781803
  57.6166284  59.3175232  10.8098367  57.8936874  58.5439360   9.5386985
  15.7993727  23.1514269  14.9167446  15.8656459  23.6346299  15.7403663
  16.4931636  23.5171563  14.3679908  45.8248579  48.0776655   6.3942722
  46.3622343  47.4690556   5.8872703  46.3839471  48.3382654   7.1262172
  27.4568634  23.8423926   6.1156992  28.1117611  23.6892086   5.4346136
  27.0829611  22.9780823   6.2871746   5.4073340  44.3426371  40.0860548
   6.2782818  44.4740438  40.4607773   5.5708653  43.9237881  39.2410374
  57.7738094  29.4816995  55.2070761  58.3372784  29.7484612  54.4807339
  58.3708811  29.3788648  55.9481335  24.0706593   3.6295941  45.6254387
  23.9751965   3.8058326  44.6894550  23.7289292   2.7426162  45.7382202
   1.8168217  15.9189475  48.6170101   0.9801060  16.0688150  48.1769228
   1.7119891  16.3273370  49.4763470   9.2128283  21.7818022  40.2567863
   9.0623289  21.5446806  41.1718607   9.5919901  22.6598215  40.2961302
  46.6510689  51.6192924  -0.1747319  46.6454422  51.8363571   0.7575182
  47.5700724  51.6926550  -0.4321858  58.5605001  24.5367932  50.0153112
  59.1490507  23.8156939  50.2385950  59.0988350  25.1328826  49.4946384
  11.8268841  51.2539088  22.0010189  12.0350426  50.4121828  22.4064830
  12.4313849  51.3196694  21.2617734  58.8695442  53.6551940  24.9390033
  59.8149716  53.5311734  25.0227645  58.7130129  53.6727726  23.9948467
  24.9180687  62.0792740  11.5368867  24.5522631  61.8039959  10.6962681
  24.1679943  62.0934457  12.1313787  15.9886425  30.7146066   5.5456451
  16.4283532  31.2025598   6.2419132  16.3400143  29.8270517   5.6164840
  27.6168507  52.7887070  14.8121933  28.4623021  52.5260341  14.4482616
  27.1310681  53.1350266  14.0636543  28.7457865  54.6960961   2.2230485
  28.2164353  55.4923975   2.1792034  29.6356314  54.9888932   2.0263771
  27.5755328  58.6704575  15.8707479  28.0817288  58.6467826  16.6828064
  27.6058262  57.7715074  15.5433372  65.3048002  57.2394144  23.0213264
  65.1136410  56.4641058  22.4935154  65.2070677  56.9431555  23.9262632
  46.9906664  39.1197228  28.5332012  47.8711081  38.8106227  28.3198714
  46.8157291  38.7623048  29.4037628  19.6267824   5.4682356  28.0323700
  19.9952011   5.9351474  27.2823814  19.3986588   6.1581117  28.6554817
  35.6586956  60.2510893  20.6327013  36.3843810  60.6684005  20.1685241
  35.1625823  59.8026668  19.9478534  33.9425677  44.9489843   3.2530979
  33.7290209  44.0161764   3.2307581  33.6339920  45.2855479   2.4118284
  10.9634166  22.2630602  16.2340930  11.4028316  21.4325625  16.0512975
  11.6041594  22.7678925  16.7349199  18.1612700  57.3279464   7.0479587
  18.3283919  56.5212976   7.5354198  18.9277333  57.8749120   7.2199873
  34.1035641  59.5343029  52.3279858  33.8391436  59.6711367  51.4182663
  33.4280193  58.9609473  52.6901102  52.8874445  16.8435240  39.7150993
  52.4463224  17.3856103  39.0610456  53.8082600  17.0980418  39.6555352
  44.9274456  34.6268273  21.7240575  45.1839172  35.1133909  22.5074533
  45.5588161  33.9093932  21.6702989  12.4600476  45.3442716  37.7624897
  12.3152464  46.0854053  37.1742824  12.9779356  45.7066249  38.4813312
  67.6343977  43.3164477   9.8181299  68.1528627  42.7713310  10.4099706
  67.2986900  42.7055239   9.1621545  19.2974890  59.4706699  25.6925249
  18.9360178  59.1968309  26.5354848  18.5410059  59.5039644  25.1069832
  50.8572197  28.4317350  51.3275480  51.5444946  28.0782056  51.8922567
  51.2638998  28.4898424  50.4629898  19.1637820  55.0888931  18.5091404
  19.3247670  55.4501545  19.3808082  19.0253895  55.8560907  17.9537252
  10.3477627  56.4567327  41.6008615  10.0281054  57.1635866  42.1615791
  10.1835495  56.7650652  40.7096863  23.6900175  58.5289984  22.9916692
  22.7381981  58.5071944  23.0906343  23.8349331  59.0043300  22.1735668
   3.2369059  45.6779766  14.1460708   3.5885590  44.8114609  13.9418129
   3.2782620  45.7343041  15.1007179  28.1644130  43.6411285  51.9838476
  27.3758268  44.0681839  51.6492033  28.7331581  43.5549927  51.2187719
  56.9168806  13.5917258  54.8949385  56.4187193  14.1259789  54.2763567
  57.4519157  13.0218410  54.3424892  32.4066782  14.2350960  15.1827312
  32.1885276  13.8607538  14.3292034  32.0328021  15.1159787  15.1605535
  42.7024126   1.2009912  36.4582396  41.9611120   0.7163816  36.0951161
  43.3794880   0.5378204  36.5924168  43.2651388  63.3375394  26.0302356
  43.5945427  63.0103075  26.8672851  42.3214852  63.4277331  26.1629680
  64.7849989  37.8261781  44.3359804  65.4212570  37.2725964  44.7887039
  63.9604855  37.6689267  44.7960711  47.7011347  22.8466010  41.4090633
  47.8553152  21.9820142  41.7897892  48.5455179  23.2922816  41.4770508
  59.3751060  29.7553642   3.4380153  58.8603365  28.9755466   3.2303432
  59.3750083  30.2651686   2.6278690   9.7588175  17.0646810  18.4226755
  10.6637877  16.8139553  18.2372001   9.5915049  17.8058350  17.8405002
  49.1440850  17.1032673   0.6263832  49.7901993  16.4161402   0.4632143
  48.7030440  16.8311030   1.4311460   0.9266823  55.5621755   2.2977117
   1.7030018  55.3302204   2.8073696   0.2604359  55.7641565   2.9546407
  11.4861983  58.9465916   8.7073186  11.3031500  59.0022456   7.7694372
  11.5698450  58.0087792   8.8797906  61.6190540  41.0836869  24.6040634
  62.4125063  41.1108207  25.1387886  61.9224417  41.2705397  23.7156538
  50.8734452  32.1517315  41.6011337  50.0539505  31.6687580  41.4943794
  51.4069330  31.8868307  40.8518318  51.3066327  12.8996586  24.6746067
  51.9450604  13.1777739  25.3313354  50.5798757  12.5409674  25.1839164
   5.8048684  25.1382804  39.5548582   5.6654745  24.3841147  38.9821172
   5.4159886  25.8737063  39.0814114  59.7472191  21.0273194  47.9165411
  60.2725601  21.6855383  48.3715105  60.2975082  20.2441382  47.9102850
  52.1023989  28.8292098  44.5931196  52.5637865  28.1066632  44.1673470
  52.6071644  29.0003061  45.3882074  51.4342022   2.4658388  53.5808706
  52.3502254   2.2274868  53.4382915  51.4736986   3.2674024  54.1025686
  39.0780848  50.0706148   8.2119611  39.8685854  50.0175178   8.7491039
  38.5709971  49.2959427   8.4548286  17.6079159  20.3100306  25.9515861
  17.7812128  19.6511036  25.2792648  18.4255677  20.8029419  26.0202507
  28.6125069  11.5006596  13.7572721  28.9177447  12.4070555  13.7184433
  29.2931443  10.9992796  13.3082918  59.3121660  63.2155807  28.7633848
  59.5641268  63.7299207  29.5303297  58.8315046  63.8309117  28.2097030
   5.6092650  54.8889351  49.4499063   5.1109272  54.9240589  50.2663994
   4.9670655  55.0880051  48.7685966   6.8681293  22.5620276  18.8207058
   6.9328456  22.5439269  19.7755436   7.2704082  23.3933503  18.5690979
  28.4902256  55.1579153  28.3667186  28.2649344  54.9281251  29.2682079
  29.0688294  55.9158575  28.4502033  18.5960787   7.5309462  45.3587341
  19.4368618   7.9749627  45.4690409  18.7029332   6.6981072  45.8182907
  48.6288774  55.0726854   8.0214361  49.2746555  55.7208049   7.7401165
  49.1443550  54.3955028   8.4595445  53.0980873  40.6314278  48.0152321
  53.0065584  39.7675848  48.4172583  52.1991539  40.9130192  47.8453636
  49.4299603  25.0028896  45.6674910  48.5551119  25.3799963  45.7605410
  49.9951410  25.5791426  46.1820173  16.0586316  37.6559019  36.0994458
  16.2723881  38.3729076  35.5024147  15.1653439  37.4058604  35.8633351
  14.9642580  47.5409209  15.1013568  14.1461819  47.0440030  15.1088527
  14.7385615  48.3799087  15.5030921  63.8121939  43.1784630  43.9137459
  62.8792191  43.0289888  44.0668821  64.1699457  43.3679199  44.7811270
  67.4265623  39.1606593  45.8842945  66.6916752  38.7399125  46.3305521
  68.1628132  38.5643911  46.0208082  66.9663410  12.0253140  46.9819931
  67.2587185  12.9353053  46.9303802  66.5534954  11.9548375  47.8427032
   5.5641991  25.4261065  24.5616770   5.9217936  26.0122418  25.2286100
   6.3092142  24.8904109  24.2892575  24.7560149  18.4975010  18.4933618
  24.3279629  18.0286175  17.7770141  24.5896130  17.9577309  19.2661432
   1.6036641  17.0331150  16.4767269   2.2729813  16.5108305  16.0346082
   1.5900075  16.6962296  17.3725799  53.9348888  18.6480916  30.5315590
  54.3701506  17.9765832  30.0063396  53.5262299  18.1635964  31.2488437
  60.5382710  11.9561297  14.2562679  60.9128552  12.7857310  14.5523647
  59.5919018  12.0968443  14.2849783  39.0208483   5.1692283  24.1148210
  38.3165383   5.0651652  23.4750175  38.7678266   4.6028411  24.8438048
  62.8120184  28.4390831  42.6261234  63.6045408  28.6936426  43.0987072
  62.1156359  28.4911895  43.2807732  54.4823170  41.9149351  14.7483325
  54.6566105  40.9813881  14.6285605  55.2353191  42.2375822  15.2434266
  51.0693913  14.1884810   4.0459589  50.7592326  14.1602808   4.9510768
  51.7304974  13.4979445   3.9976982  23.7216263  11.5087658  13.0585388
  24.5172911  11.2943512  13.5455421  24.0275984  11.6994196  12.1718219
  37.4458921  55.2234136  42.7411652  37.9180611  55.9701019  42.3727322
  36.8180311  55.6134897  43.3493328  23.1638581   2.7797779  41.0134506
  23.7506348   3.3871520  40.5628681  22.3152977   2.9074520  40.5893183
  55.6304598  38.3228660  46.1072206  56.4460897  37.8256321  46.1683559
  55.3124714  38.1533027  45.2204514  61.5482187  42.1771145  21.7334127
  61.2033319  42.0970678  20.8440995  61.7970181  43.0980825  21.8118262
   3.0496632  37.2800499   8.8761714   3.4967267  37.3575646   9.7190002
   2.5299012  38.0807883   8.8062147  26.3091343  58.6735856   7.1334461
  26.9219082  58.1720983   7.6712659  25.5671709  58.0832755   7.0021013
  59.6486740   9.9155718  26.7651371  60.4990845  10.0358921  27.1877006
  59.8409348   9.3984801  25.9829048  48.8492947  15.3637463   2.7673200
  49.0212899  14.7626120   2.0425514  49.4276696  15.0646788   3.4689430
  58.4095555  29.9378497   6.7984298  57.9493885  30.7606703   6.9640878
  58.1081467  29.6651226   5.9318260  36.5100127   1.2033445   0.9359077
  35.6225376   1.3937003   0.6319574  36.8108158   2.0241052   1.3259128
  23.1053238  62.8380495   4.6777156  22.5605421  63.5385424   4.3188861
  23.6882763  63.2802683   5.2948431  49.1456431  58.5927975   6.6719965
  49.1163462  58.5230863   5.7177881  49.9695891  59.0447342   6.8539480
  64.1207485   7.1984440  15.1531700  63.5349446   6.4608509  15.3235391
  63.8569908   7.8652054  15.7872776   6.4198988  48.0837035   3.1748489
   6.5527123  47.7470147   2.2887138   6.7318457  47.3824095   3.7467817
  60.5051821  50.7502603  19.1267446  60.8700102  51.5892744  18.8453296
  60.0405806  50.9514963  19.9390701  42.2571706  58.7293708  19.4187025
  43.1368839  58.4653794  19.1491703  42.1219587  59.5779097  18.9968828
  53.0109053  29.1602999   2.3010639  52.2555380  29.6937853   2.0539812
  53.5949927  29.2070204   1.5441659   6.5761477  42.3683834  52.1672010
   6.9066817  41.6850615  52.7503395   5.9479338  41.9181347  51.6025305
  15.3438109   6.6774745  40.0081301  15.2751034   5.7605690  40.2742052
  15.2360266   7.1714491  40.8209085  51.7973404  13.0500657  12.0882896
  51.0593634  12.7310950  11.5687898  51.4116268  13.6942154  12.6820234
  60.8403319   1.9757552  55.3989792  60.3767031   1.2539477  55.8235598
  60.1460474   2.5594801  55.0932407   5.7420802  42.4136793  22.3000434
   5.1343608  43.1512117  22.3543695   5.6471514  41.9628053  23.1390480
  16.7681794  15.2819401   8.2690147  16.4843087  15.7916123   9.0278867
  17.4228983  14.6771437   8.6180118  61.1315631  35.2946574  30.6850723
  60.6650924  34.7922427  31.3530639  61.9034838  35.6352955  31.1371044
  21.5330368  16.0980201  43.8180113  21.3050133  16.3195944  42.9151630
  21.2841755  15.1782322  43.9090633  67.5543797  60.3136455   9.2982439
  67.1477377  59.9011552  10.0602964  68.0519163  59.6098244   8.8819173
  14.2022377  33.3916426  43.0250359  14.5299870  32.5851035  43.4229136
  13.4616906  33.6464620  43.5753918  45.3290701  15.6238449  32.6993060
  45.6747055  16.5053821  32.8395152  44.7104979  15.7214487  31.9753766
  46.6380482   3.7294156  39.3045810  47.3094015   3.0840832  39.0830902
  46.6730004   3.7934667  40.2589992  22.7153998  19.0876824   7.7774242
  22.8881007  19.1055352   6.8361000  22.0245390  19.7375065   7.9065469
  25.1066380  28.9437062   3.9402011  25.6735926  28.3448559   4.4261840
  25.3884106  29.8162610   4.2149404   3.2819563  37.7109861  46.6464186
   2.3532254  37.4819040  46.6812611   3.6591584  37.0880532  46.0252094
  45.6183558   6.5051371   4.8096517  44.7411471   6.8846995   4.8612741
  45.6161576   6.0072261   3.9921478   3.4476859  14.8026109  46.7792845
   3.7779242  14.1030586  47.3430204   2.8801781  15.3216636  47.3491526
  25.9319645  21.6865396  36.7578530  26.4419037  22.2072101  37.3784113
  26.5643650  21.0734320  36.3831568  47.8492850  12.6742005   5.1690439
  48.7175387  12.7170884   5.5697015  47.9556101  12.0745027   4.4306043
  66.2279903  13.4713454  22.7658248  65.9472191  13.6101527  21.8613195
  66.3728487  14.3528552  23.1096053  51.4652967  61.4148712  38.8158846
  52.0834875  60.6892586  38.7289548  51.9717884  62.1125031  39.2318225
  49.1142206   0.7317025   3.9480260  48.2129269   0.9543139   4.1811374
  49.2631655  -0.1216286   4.3553022  67.2155785   2.6259047  23.1745151
  66.8169307   3.3472520  23.6613134  67.6141476   2.0741636  23.8475374
  64.9079466  22.4043965  39.1834188  64.6742439  23.2980156  38.9323020
  65.7775784  22.2694612  38.8069010  48.7510395  26.2985396  36.4171815
  48.9509010  26.7896533  37.2141099  49.6025896  26.1554337  36.0041308
  39.9080896  29.6749115  40.5287838  39.3849421  29.6053362  41.3273478
  39.5259714  29.0286112  39.9350548  56.6529894  46.9403553  54.8751593
  55.7808495  46.7174816  55.2006388  56.8608809  47.7734184  55.2982664
  59.3975449  33.6331129  32.0492983  58.8694334  33.1572771  31.4082789
  58.7641573  33.9512944  32.6925826  46.5062571  41.6161394  30.6282163
  45.7362461  42.0583296  30.9856820  46.1712170  41.1156893  29.8842216
  47.5027514  28.9112830  50.5629778  46.7255306  29.2361903  51.0175085
  47.9214573  29.6974897  50.2125549  34.5741499  40.0693779  51.0637474
  35.1694239  39.6071034  50.4736757  33.8858784  40.4090863  50.4918098
   1.8663889  41.8287516  21.7406869   1.0996634  41.2903976  21.5443754
   1.9992691  42.3532867  20.9511042  65.9054720  57.2382485   6.6355709
  66.6176998  57.0652830   7.2512392  65.6120169  58.1234323   6.8513588
  60.8696306  63.9868939   3.0495441  60.2686441  64.7313080   3.0196700
  60.8242548  63.6786088   3.9546040  39.3937617  18.4572131  17.0901207
  39.0687638  18.5410744  17.9865459  38.7230568  18.8775641  16.5518859
  55.2941418  42.5722170  47.7047825  55.7562590  42.8298044  48.5024834
  54.8651505  41.7473221  47.9322720  37.7189434  58.9573251  43.7958002
  37.7128876  58.4034675  44.5764637  36.9098318  59.4651880  43.8561630
  25.7248181  60.6898701  14.5248941  25.1088589  60.4679501  13.8266233
  25.9409350  59.8497760  14.9295763  43.5983753  51.9993925  36.2969351
  42.9458189  52.4983501  36.7882991  43.3489609  51.0846043  36.4280462
  13.5978621  31.9855856  11.7208341  14.2192524  32.6519083  11.4273695
  14.0262335  31.1535174  11.5198616   4.2120772  16.1131960  33.7679199
   4.4698792  15.2146203  33.5621646   3.5711890  16.3388401  33.0937007
   6.7430025  36.2364125  38.7190127   5.8745676  35.8650899  38.8744903
   6.9236714  36.7585635  39.5006466  58.1355679  45.0350093  30.6751159
  58.6075222  45.3493440  29.9039558  58.5278761  45.5115151  31.4067367
  48.9355516   2.3196311  54.6380138  49.8819876   2.3151226  54.4949245
  48.7243557   3.2364213  54.8144341  64.7504616  48.1316996  31.2404013
  64.3239880  47.2944736  31.4231801  65.6182146  48.0498838  31.6360545
  26.6632879  45.4110187  47.4235821  27.5906694  45.3835314  47.1881104
  26.6149033  46.0532921  48.1316614  18.8640326  53.2648265   5.5056051
  19.6263522  53.3523356   4.9333719  18.1154030  53.2660782   4.9091247
  62.8879166  22.7294850  21.8499970  63.2235670  22.2491336  22.6068521
  62.7439117  23.6182284  22.1750021   4.7909552   3.9872748  27.1373510
   4.5602423   4.2279980  26.2401009   4.3774086   3.1343287  27.2703648
   7.0408839  50.4336094   0.4505924   6.3024681  51.0363948   0.5379156
   6.7329377  49.7646176  -0.1608416  25.9907586  11.6283774  25.4841185
  26.7189175  12.0864522  25.0643730  26.0317475  10.7394910  25.1313663
  20.9182358   6.4849395  23.3991003  21.3390660   6.5023822  22.5395489
  21.2411499   7.2708666  23.8398695  54.5816172  42.7049952   0.2823064
  54.5185888  42.3491459  -0.6040509  55.5117786  42.6432353   0.4996108
  51.1470127  16.0001373  12.2138679  50.3669119  16.5510571  12.1493578
  51.6914654  16.4320135  12.8721154  14.0946978  38.9321595   8.6378530
  13.2298058  39.2676174   8.4019187  14.5990532  38.9777982   7.8255847
  29.9986666  42.9942154   9.4054559  30.7169312  43.6253571   9.4500402
  30.0602281  42.6230847   8.5252813  22.3704033   1.7327982  11.6923574
  21.4937048   1.3679654  11.5718273  22.2897702   2.6459533  11.4169029
  56.5101301  53.9282977  26.4484027  57.2865569  53.9402139  25.8887199
  56.0026109  54.6907007  26.1702064  21.8383044  22.3073404  15.5523304
  22.7027338  22.5714206  15.8673671  21.4606160  23.1084936  15.1893714
  42.9627275   3.7585905  42.2526217  43.2981873   3.8092411  41.3575649
  42.8038931   4.6693188  42.5007725  47.4815167  50.4333835  42.1204758
  47.9426802  51.0443240  41.5457487  46.6323650  50.8464616  42.2771263
  22.5083786  13.5655856  46.0967398  22.4715096  13.3928418  47.0375013
  23.3480221  13.1995964  45.8187485  51.1919897  33.6283570  15.9945348
  51.8061179  34.3441176  16.1581615  51.5845888  32.8716786  16.4298919
  48.4153116  63.0800599  44.1145468  48.7335194  63.9789452  44.0309954
  47.6827610  63.0272736  43.5006905  -0.0758518   5.1575405   0.9680179
   0.4446541   5.1381308   0.1649431   0.5699956   5.1138884   1.6731504
  34.8781240  53.5780173  51.0474110  34.8033131  53.2835620  51.9551182
  35.7935513  53.4176510  50.8182669  11.1121708  16.6420281  45.1022959
  10.9973675  17.2987723  44.4154596  10.5501181  15.9148800  44.8347378
  37.9665488  44.5571303  16.8766264  38.0947703  44.5440828  15.9281400
  38.5708159  45.2297377  17.1907762   9.5316273  26.3238764  33.8744998
   8.9977890  26.1415982  34.6478224  10.1922995  26.9452214  34.1805649
  60.5902969  26.7624735  15.3691677  59.9073112  26.0923635  15.3959278
  60.2010786  27.5188216  15.8081201  36.6836882   7.9976869  36.5907717
  36.0908175   7.8122461  37.3190212  36.3699436   8.8277560  36.2319088
   6.2979000   8.7644851   5.0741867   5.4006117   9.0498053   5.2465347
   6.7064923   9.5108067   4.6356872  61.7446041   8.5637158  39.1329193
  61.2884760   8.1040365  39.8378134  62.6212931   8.1795615  39.1244555
  13.1948632  43.4816491   9.5882705  12.6515597  42.7074277   9.4411853
  14.0078324  43.2965946   9.1180852  44.2549628  60.2289736   2.6822189
  43.9467162  60.1386845   3.5839180  45.1365584  59.8562490   2.6920131
  63.2193375  33.7818599  26.3120437  63.0071688  34.2216873  27.1353102
  64.1666889  33.6497688  26.3482857  56.8660212  12.5503051  20.5457830
  56.3110733  13.1954980  20.1076126  56.3501120  12.2627902  21.2990475
  13.6649144  50.9075408  25.4363537  14.2222822  51.1351293  26.1805153
  13.8982046  50.0023442  25.2303815  19.1355770  55.8585131   2.2412447
  18.5466545  56.3928449   1.7084316  19.4176691  55.1561176   1.6553310
  25.4506844  50.7772886  12.9784492  24.5169133  50.7369267  12.7718595
  25.6172531  51.7033183  13.1543926  58.9979588   4.9985587  18.4615568
  58.8461792   5.6299483  17.7583173  59.8945891   4.6943891  18.3209518
  66.2533712  24.6261406  11.4968503  65.5831766  24.1664743  10.9911072
  66.0040665  25.5486774  11.4420521  12.4359708   6.7763049   2.4706796
  11.5013461   6.8464858   2.2763113  12.5760417   5.8447248   2.6402954
  50.8488321   3.7122703  43.4214830  50.9893656   2.7720374  43.3099222
  50.2090979   3.9405084  42.7470350  32.0360994   7.6212549  10.5460191
  32.3874187   6.9802743  11.1640406  32.7980661   7.9152155  10.0467944
  54.5086849  44.2534905  43.0903578  55.3244055  44.7538202  43.0679464
  54.3316210  44.1256910  44.0223169  15.2176112  13.7604391   0.9195331
  15.4476803  13.9187872   0.0039867  15.6841772  12.9565215   1.1481432
  39.2085827  46.2440794  47.0374107  38.7654770  45.3956633  47.0461702
  39.4335688  46.3873022  46.1181164  56.5171146  39.1136742  34.8910928
  56.6963148  38.8011122  34.0042853  55.5620670  39.1503406  34.9437046
  36.5851294  53.7763440   2.1055034  37.1188199  53.7726700   2.9001049
  36.8357908  54.5813620   1.6523460  19.4352490  27.1631742  26.9191837
  18.5073048  27.1267033  26.6871977  19.4681031  27.7349353  27.6861525
  54.8315477  12.5188410  43.1308460  54.0775061  12.3246133  42.5741291
  55.1203108  13.3867502  42.8487444  55.5386066  34.2963266  53.1094980
  56.2464714  34.5325184  52.5100183  54.7450018  34.3535328  52.5773811
  59.1946411  11.7132783  54.1356325  60.0216913  11.3037968  54.3896914
  58.5393763  11.2971914  54.6957445  60.9664154  13.5474956  36.6443658
  61.5191936  12.7660799  36.6522431  60.4099417  13.4394598  35.8730721
  52.0575857  18.6147296  32.7097368  51.8964291  17.9793167  33.4072399
  51.7108536  19.4388056  33.0516553  26.4712334  12.2211921  52.1588469
  25.5498457  12.1923864  51.9010782  26.4543700  12.1683514  53.1144381
  66.1659527  31.6669154  41.5088701  66.5438509  30.8520651  41.8396854
  66.7853355  31.9650888  40.8427668  62.4279976  40.0169992  54.7411060
  62.3189306  40.9570503  54.5974207  61.5609074  39.6471286  54.5750237
  21.9049478  15.5297768  21.4709210  22.5535464  16.2332916  21.4957976
  21.8347311  15.3014088  20.5440187   2.9002852  61.5218668  51.5343189
   2.7279753  61.0216751  52.3320341   2.6481814  60.9328710  50.8231497
  55.1174164  14.3082535  38.8781118  54.2528582  13.8984203  38.8497305
  55.6034851  13.8915467  38.1665468  46.9171751  53.5387724  39.7620082
  46.5326298  53.4061223  38.8955426  46.3471783  53.0486982  40.3546000
  58.0457079  31.8248441   4.4519523  58.5541164  31.0757377   4.1411594
  58.6921560  32.5209578   4.5692590  20.0438994  64.5102870   4.3422988
  19.3869084  63.8172137   4.2771581  20.5733937  64.4135343   3.5507730
  31.8492144  51.8533921  15.1491216  31.0653704  51.3049852  15.1164297
  31.6207236  52.6286041  14.6362165  20.0683964  61.8040823  34.9702525
  20.1065195  60.9537333  35.4080701  20.7600582  61.7646199  34.3097401
   5.2401512  38.5602623  18.1301836   5.1434773  38.4670293  19.0779117
   4.5088499  38.0624103  17.7647022  34.7451925   0.0549073  28.7257242
  34.4875193  -0.0245671  27.8072929  34.5087576   0.9512890  28.9641142
  67.5760508   1.4417146  25.8139300  67.2689867   1.9092032  26.5907192
  66.9868231   0.6912435  25.7375216   9.8794764  27.1941524  16.3684848
  10.1890868  26.4418983  16.8729499  10.6747216  27.5796109  16.0007385
  62.7804375  43.6760426  34.3209267  62.6159525  44.6178722  34.3671131
  62.0418882  43.2809162  34.7842336  12.6455265  54.8470163  55.4354000
  13.2083470  54.6177959  54.6958637  12.3349244  54.0056276  55.7698107
  37.5071078  12.3453576  28.0741123  37.3898297  11.5021712  28.5117343
  36.9417982  12.2958142  27.3032669   4.4832390  26.8050730  30.8978466
   3.9019507  27.5649666  30.9278682   4.1634291  26.2879455  30.1585678
  58.7365389  16.1512744  54.1091347  58.2499504  16.5174711  54.8476219
  58.6833334  16.8238389  53.4301233  24.2929571  24.4034278  -0.0799176
  23.8222283  24.0880072   0.6915477  25.1448458  23.9692819  -0.0347992
  29.3220728   4.2003674  54.5524311  29.2319840   3.3878417  54.0545177
  29.8401087   3.9552731  55.3191137  45.4620981  33.4311271   9.1710162
  45.2637911  32.5530291   9.4963682  44.7276783  33.6448455   8.5955322
  64.9752939  39.2960816  53.6397171  64.0723360  39.4516807  53.9166307
  65.2275789  40.0988012  53.1834030   7.7147633  53.5649014  42.6389599
   7.3651749  53.8612604  41.7986059   7.4757344  52.6391602  42.6847410
  61.9959402   7.0049274  41.5165806  62.0635033   6.2103456  42.0460224
  62.7123642   6.9340426  40.8857489   8.9012772  34.0859652  38.3711052
   8.4543902  34.8946238  38.1209230   9.7602850  34.1479325  37.9533744
  21.8216282  11.6686368  54.1603518  21.8825776  10.7866728  53.7933969
  20.9598214  11.9828236  53.8868189  44.7058784  56.7562019   0.7939533
  45.0820553  56.8561375   1.6684440  44.7655808  55.8181011   0.6133083
  57.1476555  10.9708607  42.7478218  56.3771772  11.3579452  43.1634712
  57.3059702  11.5189981  41.9792414  60.5948675  46.9373219  47.4264860
  60.3824652  46.8931847  48.3587790  60.0729216  46.2405091  47.0286751
  50.1862507  22.8113085   7.7540735  49.2312126  22.8726441   7.7733234
  50.3853588  22.4440533   6.8928484  48.8770390  34.9275494  53.4997606
  48.4736872  35.0292087  52.6376677  49.6165085  34.3384314  53.3502436
  17.2572630  51.5668964   8.6967853  18.0387944  51.1070692   9.0033773
  16.5739268  51.3194024   9.3197063  10.6953198  41.6179132  26.5143728
  10.3170067  41.1776114  27.2754550  11.5815407  41.8527412  26.7895103
  19.1706591   3.0730254  22.6915840  18.7833672   3.8115317  22.2216419
  19.2916994   2.3999101  22.0218853  54.2288618  17.5779969   4.7473196
  55.1226645  17.2355467   4.7560504  53.9955120  17.6620013   5.6718353
   9.4507140  35.4892731  11.3594294   9.5780206  36.2074947  10.7396042
  10.2140868  34.9257636  11.2331319  47.3346460  60.8639615  35.0449514
  47.3138655  61.1624786  34.1357279  48.0334700  61.3777348  35.4498148
  63.8451290   4.1723749  34.1187716  63.0024767   3.7681624  34.3255997
  64.0880442   3.7995201  33.2713032  28.6636675  54.5797318  31.0582352
  27.9914415  53.8992839  31.0948110  28.7488401  54.8811357  31.9627428
  16.8113058  44.3069779   3.3335117  16.4709204  44.8588180   2.6293520
  17.7211064  44.1392326   3.0878452  21.1515671  11.2393057  44.3375540
  21.6842991  10.7880843  44.9924040  20.2807957  11.2912285  44.7316217
  19.0203303  55.8695661  23.6272720  19.1545075  55.8814036  24.5749477
  18.1446713  56.2362348  23.5047534  50.6760883  15.7399917  47.8966665
  50.2448511  16.2606704  48.5742807  50.9612083  14.9463916  48.3495855
  34.7585409  31.3556786  16.6059354  35.3276270  31.3748472  17.3753551
  34.3766611  30.4779791  16.6122917   0.3565633  12.7792651   4.5094589
   0.7395398  13.3565623   3.8489393   0.5463921  13.2098824   5.3429798
  13.8019139  56.1885643  41.1883736  13.0144555  56.2115955  41.7320776
  14.5203644  56.0817003  41.8117857  36.1502624   3.3852002  12.0310867
  36.1680555   4.2850530  11.7052341  36.3630581   2.8494942  11.2669086
  60.7078296  43.3441597  35.9371781  60.4213065  43.0752330  35.0643587
  59.9615819  43.8235217  36.2971187  10.9533184  49.9694848   6.4862779
  10.7609623  50.6100308   7.1710590  11.8887394  50.0767612   6.3138965
  26.8286675   2.7453131   0.5953851  26.4737290   2.8425974  -0.2882352
  26.7911356   3.6266512   0.9669555  60.0663412  64.0034506  31.3037920
  59.4050158  63.4567244  31.7280173  60.8070219  63.9972830  31.9100761
  37.7022868   0.3142482  19.0444997  37.4311190   1.1253911  19.4743255
  37.7864199  -0.3183216  19.7579483  10.4626053  52.3370444   1.5587476
  10.0921744  51.4706253   1.7270568   9.7429913  52.9433810   1.7340854
  48.4836578  21.1186242  32.1295905  48.6401033  21.5536356  31.2914252
  47.7960587  21.6391373  32.5449252  46.2148523  26.4976668  37.2541547
  47.0807886  26.2610316  36.9219065  45.6625223  26.5412450  36.4736032
  20.4016178  38.2242804  20.2806810  20.7459420  37.7512305  19.5231250
  21.1799591  38.5016339  20.7638935  13.9283090   3.5665447  21.7867807
  13.9151960   4.4177824  22.2243312  13.1775337   3.0981046  22.1516470
  66.2937927  33.5948086  48.9038038  66.1132717  32.6731539  48.7188911
  66.0001326  34.0584230  48.1195450  54.7884834  45.3083425  31.7444086
  54.2439354  45.2940970  32.5314879  54.7900284  44.4015842  31.4377832
  17.4239785  24.5266104  44.1697693  18.2835156  24.1279507  44.3057823
  16.9057423  24.2410564  44.9221802  59.5201206  14.0052247  25.2852154
  59.4498825  13.2634199  25.8860683  59.5184898  13.6087537  24.4139862
  37.1170252  37.6299118   4.2725614  37.7643030  38.1254041   4.7743085
  37.1686285  37.9945051   3.3890203  42.3867052  57.0396006  13.2122043
  43.2408636  57.4716031  13.2149557  41.7563933  57.7556669  13.1335166
  14.7321099  60.9214842  22.6452402  14.8779904  60.0237119  22.9434923
  14.2467987  61.3351452  23.3590940   4.5582681   3.3012945   2.5568822
   5.1567583   3.0006582   3.2407383   4.2997175   2.5027090   2.0968345
  35.9350966  16.4225632  10.9379438  36.5956031  17.0952708  10.7723430
  35.7906686  16.4563519  11.8835834  20.3187971  21.4721018  17.5519184
  20.5835944  22.2000510  18.1142381  20.8362370  21.5848786  16.7545656
  16.2516462  52.9237711  25.3290084  15.3764134  53.3096110  25.3654388
  16.1020827  52.0149087  25.0685695  64.5917832  25.7245547   6.4029506
  65.0995635  26.3934618   6.8622402  63.7201332  26.1085755   6.3081697
  21.0082465  19.5380169  37.5966648  21.0571699  19.7057253  38.5377887
  21.7167263  20.0619942  37.2228530  25.2281361  18.5768181   8.5224775
  24.3267136  18.7515360   8.2520345  25.6092482  19.4440133   8.6601547
   0.1890021   4.7790939  37.0334915   1.1037617   4.9469525  37.2599319
   0.1879006   3.8868433  36.6869072  66.4358993  11.1327100  34.0679312
  66.9353285  10.3557849  33.8165545  67.0822714  11.7133701  34.4695139
  26.0818216  59.2455565   4.6132854  26.4955389  59.1814720   5.4740814
  26.8062716  59.1655266   3.9928058  25.6603646  52.8046989  52.7026463
  25.8874488  53.6808634  53.0140924  24.7046947  52.7747297  52.7476454
  53.5470969  57.4030047  44.6899700  53.7132854  56.8973547  45.4855442
  52.8899324  56.8938660  44.2154789  17.1336382  30.6121516  27.8595546
  17.8906697  30.7214412  27.2840694  17.1127671  29.6748253  28.0524734
  27.3746910  60.1996958  22.6870683  27.6094990  60.8372390  23.3613304
  27.8791165  59.4175898  22.9108957  11.9404440  22.7098376  39.8146919
  12.8572970  22.9404599  39.9644378  11.4450889  23.4193665  40.2238754
  36.6840219  37.8473991  18.5532812  37.2990262  37.2720837  18.0982927
  36.9038820  38.7259691  18.2434324  17.3658209  26.4631707  48.2217315
  16.9318443  27.3103672  48.3225349  18.1039076  26.6400391  47.6384929
   8.4679627  47.3849773  47.8764725   9.0284288  48.0867290  47.5453329
   7.6019740  47.5812387  47.5190115  21.4813404  17.4471384  14.7513107
  20.7645445  17.9971653  15.0673870  21.1133557  16.9827849  13.9995149
  54.8534524   0.9292979  27.3715830  53.9281499   0.8818621  27.6119995
  54.9646723   1.8127675  27.0203710  40.5779433  49.1974711  36.6634277
  40.1790642  48.7158966  37.3881439  41.4824795  49.3421900  36.9410900
  61.8470501  45.6652934  25.9940914  62.0929896  46.4383227  25.4859928
  61.2353229  45.9957653  26.6519836  34.8418986  60.0949633  23.4778503
  34.9308073  59.1437065  23.4192279  34.8838961  60.3958332  22.5701335
   7.6838142  63.2342577  49.2660570   7.6461673  64.0598297  48.7830973
   6.8023551  62.8697014  49.1862965  24.0441876  58.5288531  13.5634903
  24.1155320  58.2129198  12.6627496  23.4779816  57.8903967  13.9971021
  34.7107935  49.8969412  42.9091549  34.5246291  49.4642496  42.0758772
  35.0355840  50.7628012  42.6621151  24.4324379   3.1585795  19.4457105
  24.6423750   2.2277743  19.5216087  23.7706738   3.1993324  18.7553218
  60.7269382  46.1769724  53.6129951  60.0724697  46.7969704  53.2912731
  60.3537321  45.3157711  53.4251642  34.1691172  55.8418524  38.3184818
  33.3537805  55.5416357  37.9168228  34.2100369  55.3765690  39.1539863
  37.8270268  50.0539064  28.2619333  37.5190330  50.8180857  27.7746964
  37.7961063  49.3373013  27.6280928   2.7879267  44.5321948  39.6508029
   3.6563926  44.1582829  39.5018486   2.3650222  44.5049912  38.7925247
  21.1955004  25.8372504  20.6545499  20.9395294  26.6384560  20.1976255
  22.1159344  25.7131058  20.4229740  18.3566361   5.9585840  11.6223720
  17.8977089   6.7712957  11.4099649  18.5633307   6.0366231  12.5537256
  41.8114786  31.9958741   9.3986467  41.6074925  31.0639054   9.4764427
  42.6313477  32.0212370   8.9052871  61.8132144  29.0901041  51.9371080
  61.8874252  29.8944020  51.4234686  62.6252705  28.6159468  51.7583084
  62.6434611  14.1451603  33.8406757  61.9599639  13.4764868  33.8847545
  62.5476967  14.5284420  32.9688076  13.4050739  43.4022427  49.3100405
  13.2105887  44.2259502  49.7571659  14.0979528  43.6249924  48.6883259
  20.9786539  18.8482195  19.5900539  21.5905171  19.1084534  18.9014772
  20.1864319  18.5873085  19.1204408  52.0406210  52.1986591  47.6693920
  51.4275825  52.6657640  48.2370475  52.9051125  52.4890816  47.9601482
  57.2116863  27.5136275  31.3093758  56.7353332  26.7707057  30.9387255
  57.1022021  28.2135577  30.6656861  62.6106059  10.2268130  23.7596897
  62.3259710   9.3167263  23.6762813  63.4246170  10.1781994  24.2609457
  45.4731408  28.6057860   0.6054691  44.7777150  29.2272288   0.3900007
  45.3511475  27.8857857  -0.0133606  56.5295755  62.7730452  38.8629917
  56.4555585  63.3231747  38.0831722  55.9478247  63.1842553  39.5022872
  58.3303773  40.8129346  15.0279430  57.9045522  41.5686744  15.4326156
  59.2589819  41.0441845  15.0066856  29.0731161  50.8280408   0.5235246
  29.9640136  51.1427354   0.3702262  28.7303274  50.6439280  -0.3510186
  11.0236960  60.7967287  22.2907976  11.1710029  61.6930777  22.5926117
  10.6169968  60.3564841  23.0371336  55.2166979   3.5293228  26.6228393
  56.0001921   4.0782196  26.6557506  54.5733808   4.0582043  26.1509708
  59.9119996   9.7327763  31.2338546  59.9292945   9.7976071  30.2790073
  60.5921852  10.3389031  31.5274337  63.6906683  55.0991475  24.9486450
  63.4523737  54.8472678  24.0564493  64.6449673  55.0280582  24.9707893
  55.4658007  34.6250779   7.2726539  56.2898492  34.9554163   7.6305011
  55.3008567  35.1734263   6.5056232  24.2084760  64.1701781   7.4162820
  24.8693785  64.0196859   8.0921463  23.4647945  63.6303150   7.6840786
  56.1043071  19.1950566  15.5893758  56.3971757  19.8887545  14.9984125
  55.4234492  19.6058995  16.1221698  50.8508300  23.3903128  26.7963508
  50.6826579  23.4542519  27.7364925  50.1216396  23.8588721  26.3901905
  22.2418528  30.1490122  10.4206518  22.2992020  31.0915858  10.5771879
  22.2533589  30.0633961   9.4673589  20.2126050  61.3269424  41.1028671
  20.5889463  61.5232944  40.2449369  20.9291530  61.4786339  41.7191315
  13.4325176  33.4002072  14.1102794  13.5970121  34.3264300  13.9333871
  13.2549434  33.0199248  13.2499984  64.0507435  23.4875494  15.6242374
  63.5910951  22.7341134  15.2537111  63.7416231  23.5355383  16.5288785
  40.6198578  20.4241854  12.5784210  40.8719616  21.0073716  11.8624834
  40.9720116  20.8429915  13.3638004  27.3166623  55.6657040  25.3418258
  26.9217395  56.3037574  25.9360984  27.2095289  54.8252451  25.7872299
   3.2944780   9.6816975   8.6632970   4.0388160   9.3244130   8.1790069
   3.5982638   9.7274310   9.5698598  10.8821583  37.1853781  37.3780680
  11.4574087  36.4428926  37.1935868  10.0452590  36.9444489  36.9808483
   5.5575924  13.7265927  26.1991123   6.2815099  14.1890818  25.7768825
   5.2555495  13.1017834  25.5398563   3.9107137   3.7908513  10.1328233
   3.2993369   4.3925911   9.7081331   3.3507376   3.1466490  10.5660251
  13.7369561  46.0071468  50.3400564  13.2437897  45.8693647  51.1487818
  13.3589089  46.8007517  49.9612427   5.6250882  45.5707026  49.6567631
   6.5068841  45.9429693  49.6474791   5.0532246  46.3142014  49.8475933
  33.5716264  42.8038948  23.3298595  33.4145300  41.9319361  23.6921317
  32.7607529  43.0220002  22.8703506  20.3341418  16.3890845  41.3712886
  19.8416786  15.7988650  40.8008960  19.8746710  17.2260815  41.3038353
  31.3482141  59.8619127  48.1163454  31.8441153  59.5779943  47.3484230
  30.4817200  60.0816441  47.7740908   1.0959305  39.5295572  43.8791275
   0.9820090  40.0679016  43.0959034   0.2082609  39.4036770  44.2144346
  54.7847616  11.1271960  46.0921768  54.9831044  11.8892580  45.5479721
  55.2720158  11.2779671  46.9021610  32.5045078  37.8233617   7.7549127
  32.9604804  37.9629564   6.9249490  32.9356598  37.0602735   8.1396678
  22.6205253  25.3953272   4.3006853  22.5414466  24.7125966   3.6344579
  23.5597633  25.5727440   4.3515066  66.9253874  20.3128099  32.8391051
  67.1744442  21.1574101  33.2144094  67.2656441  19.6662438  33.4574962
  13.4783988  42.6588255  18.7641815  13.0443197  43.4748799  18.5154632
  12.8907876  42.2611433  19.4066766  25.2181225   0.4476768  27.4494842
  26.1482172   0.3047806  27.2741798  24.9409991   1.0715252  26.7784790
   1.8156680  20.8681679  41.1464500   1.6768876  20.6405401  40.2271271
   1.5125547  21.7733264  41.2174702  53.9827376  36.0976082  26.6091159
  53.8533907  36.4803368  27.4768833  54.7590905  35.5457884  26.7040256
  29.4617795   5.0851685  36.0929969  29.1001378   5.2280528  35.2183345
  30.1600777   5.7350022  36.1725524  62.2252857  22.1780104  43.5896683
  61.8106162  22.3854060  42.7522516  61.4942920  22.0613665  44.1965246
  64.8948389  59.1320419  31.1121535  65.5510983  58.8919067  30.4580212
  64.9902695  60.0793695  31.2106037  10.4808927  32.4430013  41.1718464
  10.7549167  33.2329535  41.6378069  11.1118889  32.3552966  40.4574347
  39.6304529  18.7297207  22.0871833  38.9104330  18.5212141  22.6824382
  40.1776283  19.3424326  22.5785163  67.5762938   2.1734101   5.8718017
  67.2992515   2.9272348   5.3510049  67.1513890   2.2992855   6.7202381
  11.0101967  53.3744246  33.5410312  10.9241038  52.9357058  32.6946643
  11.9162898  53.2124621  33.8037017  14.0599971  20.2233750  41.0970501
  14.4207173  20.8199412  41.7529586  14.7701054  20.1028544  40.4666141
  50.1794954   9.7559983  12.5721935  49.6342437   9.5526844  13.3321909
  50.6467490   8.9411980  12.3877862  13.9870196  40.4170424   3.1382469
  14.0499120  40.6636959   4.0609792  14.3188362  41.1790949   2.6634697
  19.8723393   0.7648689   0.7320217  19.1326886   1.0659820   1.2597326
  20.6416970   0.9487158   1.2710241  65.3032314  52.0851921  35.6540206
  65.7122004  51.2210214  35.6073001  64.4679081  51.9313096  36.0953716
  11.1921292  19.6917683  19.5311025  11.8985968  19.2936665  20.0396827
  10.7930451  20.3235823  20.1292470  12.4703222   7.9221541   6.5183261
  12.7181750   8.4563309   5.7637027  11.5152579   7.8750712   6.4751152
  37.1732115  55.1923334  18.3070282  36.9489979  54.7342240  19.1170267
  37.9752373  54.7660601  18.0049089  61.5196012   3.8996059  17.9793409
  61.0280084   3.2458669  18.4765247  62.4225508   3.8009578  18.2813028
  65.4943012   1.7089230  19.8797992  65.3679048   0.8852130  19.4088892
  66.3687037   1.6345388  20.2620557  21.9791055  58.9687967  52.7597332
  22.7149463  59.4908190  53.0795145  21.6809344  58.4800148  53.5268164
   8.5664779  21.1077738  48.5434246   8.9695203  21.5063167  47.7720928
   8.4696251  21.8305278  49.1634846  28.0636888  25.3585636   8.2839206
  27.9840928  24.6646988   8.9384798  28.0388808  24.8997044   7.4442390
  -0.1282210   9.2462737  33.3315471   0.7941108   9.0677601  33.1480506
  -0.5121202   8.3839089  33.4902385  58.0541097  24.1421038  12.7802757
  57.8740667  24.8397786  12.1501449  57.4047171  23.4672696  12.5824836
  66.8261956   9.0472657   1.4645103  67.4927496   8.6294514   0.9191946
  66.0471939   9.0780598   0.9091381  40.7762479  62.9874241  27.3249820
  39.9312138  62.6477777  27.0303730  40.8036410  62.7834379  28.2597927
  41.9673395  53.7543249  48.7809849  42.3303127  52.9425144  49.1351700
  41.2054157  53.9360905  49.3311357  28.3155232   5.7490403  51.6164878
  27.9757386   5.5965835  52.4982742  27.9273777   5.0528103  51.0865501
   5.8313692  52.8545761  39.4847035   6.4410943  52.8221893  38.7475324
   5.0618595  53.3071423  39.1393471  22.5271969  45.2965027   3.4809879
  22.1594315  45.2009732   2.6024345  22.7257042  46.2297732   3.5573629
   8.6493521  23.7956578  22.1453002   7.9838925  24.0232521  21.4959959
   8.1497364  23.5324294  22.9181675  40.9507995  32.7410895  13.4195474
  41.1617534  33.3669096  12.7266696  41.7976098  32.3807293  13.6827663
   3.7848406  32.7470929  49.3425849   3.6564522  33.6331231  49.6812633
   2.8992253  32.4216753  49.1812805  21.6122437  39.6282601  50.4191589
  22.0951629  40.2660465  49.8935652  21.3802242  38.9351439  49.8011065
  60.9807336  49.7801590  49.8868036  61.7138231  50.1125622  49.3688107
  61.0212850  48.8301277  49.7771406  37.6387434  29.2197472  17.0361331
  37.0481329  29.9270541  17.2952274  38.1072693  29.5651919  16.2762693
  49.2783957  23.4071309  16.9517616  48.5419159  23.9780909  17.1704868
  49.6301108  23.7705904  16.1390976  18.4272354  36.8504908  12.5682214
  19.2620486  36.9082155  12.1034816  18.0312079  37.7148640  12.4575094
  18.1098585   3.2456547  36.4450267  18.3773213   2.4259144  36.0294345
  17.2270422   3.4062535  36.1117366  57.6667517   6.7339122  41.4598227
  57.3289508   7.2326273  42.2037315  57.6390725   7.3488605  40.7268095
  63.4237916  55.8857989  54.4917917  64.1829020  56.3252359  54.1085482
  62.8900165  55.6300771  53.7395144  28.0857873  13.0306268  38.3245206
  28.3423615  12.3753929  37.6756215  28.5032153  13.8388968  38.0267167
  50.9290838  12.7575159   6.4737755  51.8725300  12.7473652   6.3124186
  50.6898546  11.8341660   6.5539306  32.0461440  17.1060157  55.2874231
  31.3338590  17.3039567  55.8954525  32.0248342  17.8218830  54.6523523
  17.8626431  56.4162575  37.0138860  17.5152672  57.2752207  37.2541833
  17.4266470  55.8065032  37.6091504  45.0589629  60.2137371  21.6497016
  45.5737995  59.8716032  20.9188652  44.7602345  61.0726299  21.3508749
  28.5174925  64.4915206  35.3507805  28.3109421  63.7740642  34.7517610
  27.8051669  64.4823506  35.9901094  56.8198949  21.4563918  13.8171530
  56.4124542  21.8344426  13.0378568  57.6187795  21.0411429  13.4922159
  55.9645402  53.7586963  42.7420429  55.1207005  53.4378397  42.4238971
  56.2580811  53.0888664  43.3596138  45.2849913   2.0799702  31.0439467
  45.9473085   1.5309754  30.6242156  45.7811880   2.6391974  31.6416788
  42.0633149  29.3999957  11.6680769  42.4949443  30.2467241  11.5541509
  42.4968123  29.0104171  12.4273780  64.3978416  17.2291040  14.4960884
  63.4644424  17.1112275  14.3197206  64.4852221  18.1572496  14.7132114
  11.5133631   0.5965608  54.1968918  11.7846286  -0.0250626  54.8723412
  10.6140554   0.8266651  54.4304085  11.0515678  55.8320110   6.0378603
  11.8876112  55.3821533   6.1598829  11.2080181  56.7197411   6.3598732
  30.3927588  28.0139089  47.9661322  29.5394349  28.3985114  47.7657604
  31.0252190  28.6772871  47.6901674   1.6002691  63.2467451  34.0154386
   2.1766079  63.3237850  33.2550883   2.0261658  63.7718758  34.6929932
  64.5037186  32.7468358  18.2328037  63.9731609  33.5424610  18.2742790
  63.8842260  32.0581526  17.9916051  58.8577837  13.5415196  43.7643719
  58.9133406  13.0090463  42.9708862  58.8042807  14.4423079  43.4450722
   1.6349134  20.2625418  38.0006170   2.4732204  19.8049331  37.9368401
   1.7730299  21.0826135  37.5266576  27.5051379   6.9937336  45.5120897
  27.2831655   7.8373742  45.9060812  28.4494781   7.0401824  45.3627729
  59.5681572  24.6390009  31.1480069  59.9556327  23.7763309  31.0000372
  60.3078371  25.1949787  31.3929415  27.9338717  19.9223304  36.0703659
  28.6962414  19.3455327  36.0220909  27.2859335  19.5112979  35.4981256
  62.1389907  32.3620319  46.0418177  61.5082443  31.8250775  45.5621624
  62.6939517  32.7443337  45.3620434  67.4992847   9.9983823  45.3345251
  67.5389624  10.6987739  45.9857607  66.8257046   9.4032168  45.6636143
   3.6279768   1.6159478  55.2540302   4.3638575   1.3142078  54.7214317
   3.0118138   1.9874199  54.6226978  12.5020409  30.0402427  37.3800945
  12.7928448  29.2229033  37.7845955  12.5694370  30.6906652  38.0791211
  50.5609452  33.1929907  20.7559970  50.8104550  33.8803467  20.1383260
  50.2317559  32.4833066  20.2044395  45.1256334  51.7927825  29.1101745
  44.1853177  51.6369187  29.0221790  45.5257451  50.9370481  28.9557079
  53.6809575  53.5689628   8.7289718  53.4238660  52.7084958   9.0602306
  53.6651313  53.4735143   7.7766708  28.3496493  23.1446665  12.7179006
  28.1509357  22.4521684  12.0876697  27.9992389  23.9404720  12.3177293
   9.9830920  22.4548578  52.2854137   9.9765402  22.0199203  51.4327621
  10.2188075  21.7641807  52.9047966  56.1164724  57.1209990   4.4954303
  55.4971802  57.8171431   4.2761282  55.5647861  56.3760411   4.7339920
   9.7101349  11.1690331  54.4855547  10.3904521  10.9211111  53.8595104
   9.4393843  10.3423321  54.8849201  52.7196485  53.2743168  51.3075686
  52.8585881  54.1708517  51.6127777  53.5242027  53.0536795  50.8382654
   4.5392454  38.9162803  53.8262606   5.3132349  38.4321451  53.5385418
   4.2688259  39.4155002  53.0556250  41.9879448  52.4547755  15.5690101
  41.6966903  53.0205571  14.8539642  42.4889802  51.7625009  15.1377872
  59.8772890  63.8740112  47.5643873  59.6315354  64.4275557  48.3056211
  59.1898162  64.0236913  46.9153833  17.0738864  17.7109277  51.5301657
  16.8429303  17.1537995  52.2734690  17.0975471  17.1143878  50.7819605
  48.6402470  30.4627490  41.6273594  48.1006902  29.7900867  41.2118626
  49.2605084  29.9726582  42.1671009  48.3183491  59.7849070  10.8575109
  47.5582873  60.3388059  11.0356525  48.1288278  59.3837273  10.0093511
  20.7890058  24.8191881  42.0892906  20.5316782  25.1282954  41.2206888
  20.3988481  25.4507375  42.6935673  20.3133803   9.4900471   6.4324049
  19.5208054   9.0356833   6.1467317  20.8049851   8.8298804   6.9210104
  35.0773835  44.4024086  51.1929274  35.3385568  43.5586548  51.5618515
  35.1360703  44.2780972  50.2456474  57.6744973  59.3500149  20.3092721
  57.7398693  58.4088647  20.1474241  58.1732785  59.7506916  19.5973018
  33.4622473  43.3164196  18.5799694  34.0357548  44.0568047  18.3821034
  34.0360409  42.6737886  18.9971268  35.5779552  60.3341972   5.1690343
  35.6561446  59.8693191   6.0021022  34.7215664  60.0745403   4.8293165
  30.6965690  46.3236701  18.4380058  29.8236608  46.7153823  18.4667114
  31.1077773  46.7113602  17.6654533  39.2428565  46.6773581  30.1537040
  40.0384640  46.6231155  30.6831363  39.2626523  45.8896625  29.6102146
  64.9588429   3.2503492  31.7188362  65.6135749   3.7931448  31.2796024
  64.6022033   2.6963121  31.0245136   1.9681805  51.0991239   0.4086927
   1.5139788  50.8546316   1.2150196   1.2677782  51.2300682  -0.2304646
   1.2525194  19.8284101   5.5441574   1.0747927  20.2221047   4.6899608
   0.6188887  20.2380359   6.1331800  31.1278629   1.2734425  51.2615252
  30.5737472   1.1212219  50.4960108  31.7007518   1.9953036  51.0027885
  58.4250080  30.8970844  32.0704273  57.8864061  31.5209713  32.5571540
  58.9355957  30.4459117  32.7427200   9.7178996  10.8624899  48.9010239
   9.8652261  10.3850365  49.7174549   8.9264750  11.3758707  49.0632534
   4.6888607  41.4853048  17.7238754   3.8142079  41.7362618  18.0209163
   4.7031706  40.5312621  17.8002265   6.5962391   1.4152414   9.2910579
   5.7571678   1.5390378   8.8473609   6.6983300   2.1976167   9.8329977
  18.8429570  11.6508400  45.4478645  18.7916422  11.9888866  46.3419151
  17.9533124  11.7409039  45.1063204  59.7647273  36.6395142   7.0564321
  60.6742560  36.3866865   6.8981126  59.7945678  37.5910043   7.1564725
  14.8477543  54.3489461  37.3944116  15.1186431  53.4340303  37.3183823
  14.7190655  54.6365368  36.4905524  49.9461528  33.2184130   1.7676500
  49.4423239  33.8238150   1.2237028  50.4744004  32.7194888   1.1445430
  53.5860598  43.7405514   2.5455001  53.9703977  43.4116625   1.7328838
  54.2032253  44.4056987   2.8503183  61.8720335   4.6334267  28.2352996
  61.2610757   4.3503305  27.5549912  62.1432352   3.8227966  28.6660671
  25.5210381   9.0856892  27.6850132  25.2407866   9.5202309  26.8794921
  26.3523131   8.6699587  27.4561504  55.7720649  52.3327362   4.2307809
  55.1951324  52.9079115   4.7333292  56.0714662  52.8732168   3.4997085
  12.8058732  41.2731266  51.3172007  13.5720706  40.7038641  51.3886976
  13.0152547  41.8671513  50.5964184  21.4555740  21.1034894  42.9193306
  22.1946335  20.6381631  43.3111191  21.6819811  22.0294070  43.0067873
  13.3213758  31.9175291  51.1968660  12.7387893  31.4460611  51.7923021
  13.1328309  32.8418255  51.3592243  60.4184991   6.0391641   6.9637650
  60.6150913   6.7852175   7.5303221  60.0357568   5.3870249   7.5506675
  16.4752358  50.8951711  17.5719360  15.9702843  50.0959730  17.7220682
  16.0007304  51.3512718  16.8769172  14.1043437  43.7227583  44.5758533
  13.7336743  43.1006622  43.9498854  14.7850537  43.2273722  45.0313330
  14.5348006  11.9540936  10.6630949  15.1523547  11.6868025   9.9823526
  14.5417719  12.9107148  10.6305889   2.9364878  43.3732510  44.3433142
   2.3579842  42.7610207  43.8886261   2.3460680  43.9230061  44.8584938
  58.2673216  12.9627991  27.8447843  57.7446795  12.3672712  28.3818364
  59.1443968  12.9217815  28.2259512  34.5934069  53.1457912   4.0700630
  35.1333510  53.3198201   3.2990888  34.2815589  52.2492682   3.9466623
  45.3043615  27.0190310  15.5701927  44.9774944  27.0803540  16.4677623
  46.0942971  27.5595974  15.5655054  40.7263827  53.9999783  32.6490119
  39.8744940  53.8865053  33.0704883  40.7479619  54.9232232  32.3972419
  31.7444413  60.9517180  26.2673381  32.6511847  60.7743608  26.0171512
  31.7185711  60.7833921  27.2092632  34.5483803  29.2692097  12.9671100
  34.8724555  28.7244033  12.2498992  35.2733218  29.8625749  13.1636051
  27.1897512  35.3962790  11.0408023  26.8182492  35.1715949  10.1877264
  27.8014320  36.1088377  10.8554939  63.0344593  40.4409313  34.7214893
  62.4035227  40.7618963  34.0771869  62.4954974  40.0746917  35.4226497
  15.6794434  58.0157744  12.3964551  16.5700167  57.9822933  12.0471862
  15.1527225  57.5381767  11.7556003  39.2733442  53.1726658   8.3228544
  39.3775069  52.2571003   8.0637744  39.8924231  53.2895791   9.0434841
  57.2447383  32.5095590  26.9896987  58.0387270  32.0328894  26.7476276
  56.5347850  31.8863885  26.8352512  14.7947145  51.3192749  50.2702856
  15.6466007  51.5380049  50.6480169  14.8918021  51.5056705  49.3364429
  15.9920168  24.1227460  48.0664396  15.4830027  24.4043827  47.3062992
  16.4629459  24.9085617  48.3438444  12.1082818  55.7849323  18.1874040
  12.5767433  55.7041418  19.0182165  11.4531505  55.0875246  18.2130388
  31.6710108  26.0486632   4.0032390  32.3016327  26.7583692   3.8813165
  32.1001434  25.2798163   3.6278060  28.5250645  59.2363226   3.6736015
  28.3793693  58.4150755   3.2039646  28.2039862  59.9131762   3.0777744
  36.2227010  45.1445162   5.2405790  35.3711330  45.2685749   4.8214487
  36.6624248  45.9892570   5.1441959  36.0270881  52.2368013   6.5191272
  35.6859314  52.8432095   5.8617738  35.3146803  51.6138958   6.6629890
  44.3853723  25.0367635  29.0926078  44.3126142  25.8866822  28.6583522
  44.8153078  25.2295374  29.9258140  32.7830111  33.5808372  17.6309112
  33.3326661  32.8777107  17.2848991  31.9664365  33.5119847  17.1362451
  17.1318495  34.3394971  52.1507788  16.5627635  34.8988318  52.6794720
  18.0049968  34.7168517  52.2577715   3.8028889  17.2028738  10.0276855
   3.5229092  17.2225005   9.1125587   3.0683761  16.8042380  10.4943851
  32.5847912  51.1388779  44.5601273  31.6608548  50.9025621  44.4781017
  32.9882002  50.8107185  43.7565041   9.2968952  49.2861461  29.3695644
   9.9874830  49.4440650  28.7258438   8.8348567  50.1218867  29.4350627
  23.8450718  60.8523703  50.7954693  23.6103153  61.1839724  51.6621685
  24.2439628  59.9990177  50.9654903   4.6089515  20.2083635  49.2022467
   4.1477263  20.9433794  48.7981987   5.2433121  19.9311364  48.5412169
  37.8282260  42.2995006  18.5866312  37.9653692  43.0221605  17.9741052
  38.0195152  42.6745736  19.4462589  20.8122969  31.0325003  42.4680328
  20.7993746  31.7666674  43.0820894  20.3663230  31.3641882  41.6887236
  26.8909054  25.2098948   2.3344234  26.6975336  26.0172183   1.8579057
  26.2677126  25.2054745   3.0609516  47.2596681  39.8773944  12.2741273
  46.8214118  40.5933910  12.7340272  47.5497877  39.2877393  12.9700950
  34.3981624  20.4947281  22.8470969  33.9854813  20.7008481  23.6858106
  34.1972303  19.5701551  22.7021027  52.1523124  18.3435893  37.7228045
  52.9600161  18.7986302  37.4845123  51.6744250  18.9716637  38.2644463
  55.8123499  26.8426919  34.8507023  56.2680036  27.5155950  34.3449235
  56.4604670  26.1472416  34.9626231  38.8068521  57.6535856  13.4282211
  38.3167123  57.2840130  12.6937774  38.8623344  56.9391620  14.0628484
   8.5927015  27.5481326  24.0522197   8.0775194  27.7667481  23.2756713
   9.2493682  26.9271332  23.7369779  10.3335476  47.4025059  51.2139273
  11.0127687  47.8569698  50.7155800  10.8079612  46.7405558  51.7169046
  10.6204849  10.0023610   9.3978408  11.1418276  10.7473046   9.6969894
  10.9261899   9.2672593   9.9292568   3.8676041  62.4952232  18.4677795
   3.4765929  63.0219995  17.7707532   4.6179312  62.0689403  18.0536226
  67.7775394  60.8480346   6.0914520  67.9568111  61.6522324   6.5786460
  67.2378790  60.3244245   6.6837600   5.9269362  19.0385968  51.1150077
   5.4433756  19.2736870  50.3230957   6.8381124  18.9740330  50.8289627
  12.9834199  46.6898632  29.3306494  12.0967805  46.7204380  29.6900439
  13.2714975  45.7893515  29.4800472  42.7210772  55.2316486   3.4483150
  43.6097133  55.5418288   3.2741121  42.5607836  54.5724832   2.7730135
  59.1219615  28.8972289  16.4884046  59.4862842  29.3930489  17.2216610
  58.4236108  28.3713776  16.8783001  63.7337119  62.5283680  50.1856089
  63.2580477  62.5998022  49.3580389  63.0486006  62.4846899  50.8526516
   0.1532254  39.9547124  51.9801378   0.1373301  40.3069162  51.0902357
   1.0359292  39.5984960  52.0810127  59.4889748  49.3417167   6.8381122
  60.1935708  49.3080341   6.1910871  59.4712221  50.2545547   7.1255926
  20.1951664  42.6135659   9.1036418  20.2505254  42.7753984  10.0454381
  20.5230695  43.4184873   8.7026266  47.2537977  10.2884060  11.4533237
  47.4063066  11.2086445  11.6681150  47.6081574  10.1867300  10.5699638
  16.0871988  14.9279887   4.1326383  16.5393977  14.3413264   3.5263589
  16.7805224  15.2697522   4.6971992  25.4463506  35.5374932  48.4907722
  24.6004772  35.9826517  48.4401464  26.0874844  36.2170553  48.2825136
  30.4916668  39.7815180  55.5672216  31.2846303  39.5669055  55.0759172
  29.8223662  39.1990542  55.2080441  34.8189890  17.8042733   8.0419639
  34.0938377  17.2962582   8.4057048  34.4811642  18.1446278   7.2135500
  33.5326850  43.5886180   8.4128908  33.1616401  44.2077946   9.0415243
  34.3289148  43.2665359   8.8354019  11.7484546   6.8336749  39.6464396
  11.8451047   6.7223203  40.5922127  11.6953373   5.9412557  39.3043900
  54.4854509  48.5975694  18.7092927  54.0927827  48.4579861  19.5710138
  53.7886655  48.3792698  18.0903724  50.6260263  42.5343918   9.4844631
  49.7831690  42.1504962   9.2427066  51.1231458  42.5551021   8.6667398
  49.4552195  62.7936541  16.2274316  48.5043799  62.8901088  16.1742214
  49.7997558  63.5634267  15.7746843  14.0583944   8.1845510  50.7580614
  14.6231496   8.6730003  50.1591444  14.5212185   8.2070512  51.5956259
  43.9308178  29.4045034   7.7210382  44.1751754  29.9973913   7.0104030
  44.4948661  29.6601709   8.4509090  64.6700144  23.4808445  48.7956905
  65.5048704  23.4243631  49.2605162  64.1842937  22.7068901  49.0808153
  50.1600415  59.8295098  18.1268227  49.4836173  60.5016648  18.0438173
  50.7237280  59.9615600  17.3645544   2.8636807  57.0830250  27.8101897
   2.9134086  57.5609684  28.6380363   2.3042923  57.6251078  27.2538948
   2.1049469  28.1071540  27.8006176   1.6277760  28.9065730  27.5782016
   3.0214280  28.3176585  27.6217845  48.5396850  55.2189099  12.6688245
  48.9377939  56.0353720  12.3669485  48.9901626  54.5351564  12.1730617
  46.4172236   0.6852228  10.8633760  46.9967887   0.0878102  10.3906873
  46.5078786   1.5202099  10.4042343  13.8341439  58.1500768  24.7173738
  13.6139071  59.0284853  24.4073319  14.6825493  58.2538819  25.1482630
  24.5698822  63.6847368  54.1115427  25.5248440  63.6759579  54.0466785
  24.3136299  64.5365564  53.7580299  58.2433521  56.2266576   2.3877147
  58.3923375  55.4101526   2.8645280  57.3546040  56.1434590   2.0421222
  41.1865425  44.0053749   1.3524154  40.4033064  44.1323828   1.8878082
  41.6541326  44.8385655   1.4105991  53.4853160  35.4365780  17.0515398
  54.0987241  36.1201903  17.3210529  54.0429460  34.7235912  16.7402032
  59.2402923  43.2495069   0.4252246  59.3877637  43.5209298  -0.4807612
  58.5109817  42.6316380   0.3744606  29.2656898  37.8252244  54.1042280
  29.1577673  37.0071006  54.5892620  29.9714851  37.6443195  53.4834576
   8.1903100  54.8527145  39.9616575   8.3324778  55.4876709  39.2596269
   9.0691888  54.5561075  40.1979399  65.0872641  34.2705711  10.8481840
  64.6173649  34.8029997  10.2063516  64.4924646  33.5453517  11.0392431
  64.4192385  18.8404948   9.3591789  63.9942550  18.1185872   9.8222879
  63.7093185  19.2696148   8.8815836   7.8790826   8.4318382  43.5427046
   7.5183308   7.9593277  42.7924871   7.1806836   9.0307117  43.8069391
  64.7130728  48.6290646  49.4941378  64.4253397  49.0300751  48.6739969
  64.4752789  47.7060843  49.4058084  35.7237374  56.7304384  15.3204778
  36.5842521  56.3120353  15.2943281  35.1268100  56.0336506  15.5932430
  47.2805702  57.1903598  18.7211565  46.7421734  57.3548066  17.9470018
  46.6706383  57.2576892  19.4557909  62.2310340  61.9255292  16.5037778
  61.5445530  61.9116127  17.1706966  61.7859709  61.6676771  15.6965211
  53.1593781  13.3005911  32.4713234  52.8092556  12.5886113  31.9358543
  52.3991900  13.6425358  32.9418758  43.1377583   7.2073752   5.4693845
  43.5204392   7.0799381   6.3374523  42.7052718   8.0597359   5.5210689
  21.2799483  13.9927107   0.4567150  21.9637947  13.9901453  -0.2130457
  21.6004305  13.3909089   1.1285451  55.7259690  55.3300440  33.1962684
  55.9389388  55.4217803  32.2675804  55.5446422  56.2229168  33.4897522
   6.7892771  21.7813450  21.7812542   7.6011043  21.2745053  21.7980674
   6.3296752  21.5240199  22.5804952  68.0593060   6.7768198  24.2549327
  67.6634144   5.9526736  24.5382789  68.4524130   7.1391422  25.0489238
  50.4834175  30.1886463  46.0387135  49.6794701  30.4558516  45.5931807
  50.9562159  29.6690655  45.3885365  40.0540913  63.0909630  55.3046608
  40.4941881  62.3846581  55.7776117  40.3337515  62.9812440  54.3958282
   7.2109878  59.8910284  38.6831927   6.3051426  59.7932005  38.9766312
   7.1431953  60.0279045  37.7382565   4.3975144  20.2769286   8.5926345
   4.8043471  20.1144940   9.4437173   3.9080243  19.4761759   8.4044174
  63.2814943  44.4018411  36.9708255  64.2357742  44.3272244  36.9679645
  63.0046236  43.9643108  36.1657527  17.5662911  31.1499619  41.4106846
  18.2937205  31.1601043  40.7886076  17.9618800  31.3993454  42.2458744
  15.3664177  50.9990286  10.5079797  15.5803221  50.7716059  11.4128307
  14.4837045  51.3661611  10.5555538  24.5235443  45.9018421  45.8294344
  24.9247360  46.2786436  45.0463009  25.2581954  45.7430696  46.4221430
  62.4685370  61.2580311  33.0585388  62.8497803  60.8763945  32.2678188
  61.8430078  60.6010305  33.3639816  48.2360661  47.7604305   9.9248174
  48.9060866  47.4830150   9.3000415  48.4607088  47.3037028  10.7354787
  14.7312312  18.4298331   7.2526649  14.7767549  17.9720074   6.4132885
  15.6412893  18.4874970   7.5437025  63.0074233  51.3377571  36.9655204
  62.3653996  51.7087603  36.3602161  62.6926792  50.4495668  37.1337175
  35.3536367  51.6100037  18.4045461  34.7837650  51.3226997  17.6911500
  36.1773896  51.8405950  17.9750207  58.0749261  24.9667358  20.8158783
  57.3924028  25.6332188  20.8945898  57.6114237  24.1829431  20.5208066
  35.8966398   3.9547482  54.2900848  35.3201008   3.6974591  55.0095558
  36.2447190   3.1284842  53.9548826  52.6385164  24.5205283  45.3012943
  52.3003769  25.3589201  45.6159258  52.3429346  23.8836980  45.9519196
  51.9189655  52.0501542  24.9333957  51.4384138  52.1770155  25.7514480
  51.8623197  52.8958952  24.4887069   5.9455042   1.6282755  18.9270929
   6.1134939   2.5673658  18.8488725   5.1613288   1.4803940  18.3984808
   9.3781166  15.9235388  15.4539064   9.1305857  16.0565716  16.3689283
   9.7749048  15.0526101  15.4373172  17.8120594  62.0834166   7.8895858
  17.4980049  62.8956801   7.4923233  17.0700817  61.7660433   8.4043458
  52.6687419  60.2408301  12.3994640  53.4243071  59.6893632  12.1964029
  52.9343497  61.1199009  12.1294311   8.7689858  28.2957035  53.7789634
   9.3607598  28.5420042  54.4898513   9.3271785  27.8378970  53.1504253
  18.9831793   2.0758814  32.7287984  18.6691761   1.6840405  31.9138813
  19.4633552   2.8556437  32.4501705  60.2158135  31.3110018  43.9068127
  59.3637663  31.0438371  44.2515898  60.0097597  31.9672966  43.2411909
  16.7736059  49.3553072   1.5905431  16.5119605  50.1935584   1.2095979
  17.4439984  49.5836932   2.2344688  25.9370267  48.7086641   5.2186683
  25.2943006  48.0174732   5.0593236  25.8921462  49.2618691   4.4388059
  48.6273681  14.3996102  12.9422000  48.4510984  14.3971497  13.8830284
  48.9884530  15.2688939  12.7684454  63.3551216  34.7500277  34.7521448
  63.3718872  35.5695653  35.2464247  62.7458477  34.1915488  35.2349687
  59.0003287  40.2804953  24.4815639  59.9040233  40.5496556  24.6462539
  58.5887217  40.2819354  25.3457454  29.2541981  49.3616629  42.2695303
  29.7583628  49.3183851  41.4570189  29.4710398  48.5506773  42.7294397
  27.9880643  56.8233299  49.2990828  27.2828865  57.2587872  48.8201904
  27.7969956  57.0003796  50.2201557  27.7963233   7.9252601  49.9385691
  28.1713653   7.2744018  50.5318260  27.5623226   7.4281943  49.1547298
   6.0049408  48.8513159  27.7125553   6.5207880  49.2299354  27.0006755
   5.8111113  47.9606282  27.4204353  22.9422932  12.1622759  20.3662351
  22.7273541  13.0261713  20.7179740  22.2961932  12.0176035  19.6749595
  59.1309993  22.4055808   3.8265235  58.8554619  22.6323050   4.7147281
  58.6640660  21.5932101   3.6309249  43.1323540  15.7676215  52.7048254
  43.6758291  16.2509245  52.0825005  43.4538495  16.0388846  53.5646439
   0.2594859  11.8150365  55.3410196   1.1459166  11.5043473  55.5252647
  -0.3001684  11.0575199  55.5118656  51.8065249  37.4999541  12.8650573
  52.0532715  37.4876570  13.7898258  52.2027409  38.3009594  12.5220779
  13.3876479  62.0328808  44.7766447  13.7246716  62.6806068  45.3955936
  13.7185502  62.3200035  43.9255905  29.4069886  58.3993435  39.4094634
  29.9718356  58.5342407  38.6485553  28.5339499  58.2684326  39.0394688
  25.3594893  45.4170620  24.3277172  25.5217331  45.4065740  23.3844236
  25.8480090  46.1760449  24.6463398  43.9387071  31.8302862  27.3536113
  43.5301339  30.9703586  27.2544864  44.3578755  31.9950872  26.5089992
   2.5727206  27.9673821   3.3957914   3.1295162  27.1985489   3.2729009
   3.0211025  28.4831768   4.0659717  21.3351231   8.3441550  37.7243904
  20.6020050   8.4741980  38.3259395  21.7540579   7.5388056  38.0279354
  29.4570231  28.8607526  54.7076702  28.6283207  29.1078544  54.2972803
  30.1281786  29.2176199  54.1259241  55.4851294  30.6759357  46.2362194
  55.2384186  31.5726757  46.0099030  55.7560921  30.7261705  47.1528959
  15.6957417  41.5356070  11.4063982  15.6560307  42.3239047  11.9479135
  15.6689458  41.8614251  10.5067590  10.4866629  14.7941834   3.6898092
  11.2467699  14.4081026   3.2545951  10.5783778  14.5350129   4.6066812
   0.8104187  60.4566193  34.8974800   1.6367871  60.3975391  34.4180417
   0.1361424  60.3470325  34.2269754  42.6450491  13.1135035  49.1167259
  43.0040979  13.8099062  48.5668707  42.9107809  12.3035288  48.6813402
  19.7070151  19.4751364  15.6561378  19.5121222  20.2451664  16.1902765
  20.2896433  19.8007876  14.9700407  34.1243677  26.7365700  22.2010473
  34.3501025  26.7990595  23.1291488  33.6140185  25.9296805  22.1324829
  59.5244157  57.6324260   9.7532991  60.0080263  58.2064688   9.1593030
  60.1633322  56.9718968  10.0211051  51.9371133  15.6925494   9.4959024
  51.7024182  15.5954129  10.4187873  52.1549182  14.8055464   9.2095188
   3.7102002  13.1964969  32.1578029   3.2032364  12.7627313  32.8441433
   4.5659417  13.3552670  32.5562004  20.4297524  15.1606804   7.4541954
  21.2238961  14.6274525   7.4191288  20.4092722  15.6155020   6.6122011
  50.7221365  44.3218899  48.4058142  50.0970697  44.3110514  49.1306591
  51.5290737  44.6640968  48.7904978  10.1579731  59.9693405  14.4234708
  10.2165478  59.0177237  14.3384651  10.7671660  60.3064310  13.7665990
  12.0606284   9.5692355   4.4699148  11.1300021   9.3461806   4.4902137
  12.0826869  10.5170351   4.6019367  64.5960819  62.3031341  17.5639299
  64.5653259  63.2440149  17.7372221  63.7872946  62.1211636  17.0854095
   3.0411881  46.8463957   1.7225174   3.9666909  47.0245099   1.5553287
   2.6067084  47.0363783   0.8910326  39.3751746  10.5578906  46.5214637
  39.8380356  11.3897473  46.6214946  39.6860533  10.0216013  47.2508338
  11.4329248   7.5245458  35.3409008  12.0925932   7.0051915  34.8811821
  11.8950610   8.3206469  35.6033615   9.7640114  21.4618784   0.9987739
  10.4729991  20.9049612   1.3203529   9.1549950  21.5231615   1.7346910
   7.1260433   6.4925629   3.8974336   6.6794186   6.5819675   3.0555538
   6.9627171   7.3229915   4.3445877  26.3531231  53.6486136  19.1822437
  27.0143526  54.3407046  19.1779665  26.5645101  53.1201493  19.9518350
  61.5248013   2.3508871  34.0304065  61.8432570   1.5626994  33.5904312
  60.6523132   2.1137942  34.3447113  11.7258697   2.4576956  23.3124879
  10.7704573   2.4031002  23.3333686  12.0125013   1.5657908  23.1160596
  18.4023600  12.2175461  22.4456028  18.5084563  13.1688029  22.4548248
  19.2646771  11.8780381  22.6851324  45.0855570  44.3346888  11.6877273
  44.6528893  44.4870192  12.5278667  45.4736595  45.1799208  11.4614633
  49.0289318  50.3452026  18.7914136  49.9140083  50.6776380  18.6418823
  48.4886324  51.1310434  18.8736585  14.3237388  29.0659881  50.6657267
  13.4706223  28.8079643  50.3166580  14.1171050  29.6424294  51.4014244
  36.6904335   4.1043765  31.0212329  37.3912268   4.7290284  31.2081245
  37.0398693   3.2600457  31.3062385  40.6797361  62.4526011   6.2827686
  40.5596566  61.5342509   6.0410169  40.1115012  62.9346954   5.6819967
  16.5371828  11.7307288   2.1489624  16.5859847  10.9619671   2.7171711
  17.4220543  12.0954710   2.1629671  47.0019810  17.8627818   6.0776908
  47.3225634  16.9612854   6.1052901  47.1825115  18.1539267   5.1838882
  18.6856776  15.9949309  26.1175445  17.7786856  16.2141615  25.9041599
  18.7072211  15.0379759  26.1172107  49.2906391  32.8648774  25.6501487
  50.1994788  33.1598893  25.7068256  49.2551338  32.3522924  24.8425392
  61.7954801  11.1322171  32.7651599  61.5374803  10.2346236  32.9749111
  62.6076089  11.0378796  32.2673801  63.3507072  24.2985875  11.3738063
  62.7992844  25.0453812  11.1404279  62.8069710  23.5326058  11.1898092
  25.1271533  47.4592268  20.2969316  25.6348377  47.6560139  21.0841802
  24.7248926  48.2938575  20.0564912  10.4842120   4.6659619   7.1787265
  10.2636247   5.1365644   6.3749174  10.1714855   5.2343613   7.8825429
  51.4338093  19.0900141  20.6867031  52.1584301  18.6402804  21.1213258
  51.7284136  19.9972445  20.6068138   7.0564431  51.0134768  23.4458259
   6.3992232  50.8857965  22.7617267   6.7065400  51.7230057  23.9846853
  21.3862181  27.7860761  47.1420527  20.8064485  28.4803820  47.4551630
  22.0944095  28.2490802  46.6944790  52.9132544  63.3619821  47.3433879
  53.5476934  63.7103164  47.9697994  52.7374994  62.4724352  47.6500705
  59.2552983  63.0639851   5.2949432  59.2084920  62.3090803   5.8815959
  58.9179265  63.7930524   5.8153966   7.3093086  27.1862132   9.5803264
   7.6263957  28.0506188   9.8420290   7.0739656  26.7581088  10.4034713
  23.6713481  24.8953557  40.6702995  23.1415868  24.5223975  41.3749170
  24.0653253  25.6780934  41.0554409  63.4032440  57.8083324  47.9788971
  62.6830244  58.1669617  47.4603462  63.5022831  56.9104004  47.6624489
  51.6087048   3.6103326  38.7259582  52.1588766   3.8461524  39.4729045
  50.9664058   4.3177325  38.6687854  64.1746521  41.6119337  52.2570992
  65.0328541  41.9669771  52.4887466  64.1664791  41.6104603  51.2999344
  15.7018459  46.9482040  37.9271650  16.3742948  47.1376467  38.5815001
  14.8808396  46.9525576  38.4192634  48.8965296  17.0729500  24.5186142
  48.8466166  17.8307730  23.9359954  48.7048062  17.4258048  25.3875068
   0.4949826  10.7826132  52.1621799  -0.4441005  10.9678120  52.1697235
   0.8696240  11.4196152  52.7705431  40.0062006  35.0826188  22.8368286
  39.7051257  34.2363741  22.5059894  39.8191660  35.0532478  23.7751201
  44.9683439  53.5565841  31.1784557  44.7458779  53.1574428  32.0195392
  45.1017129  52.8143560  30.5889228   9.7932088  37.4461138   9.3504861
  10.0541305  38.2761746   9.7494224   9.6621203  37.6555710   8.4257272
   5.4086053  45.1389510   2.5836757   5.4949986  45.0484234   1.6346887
   5.2863442  44.2436749   2.8995327   4.9725184  40.6566620  44.3963909
   4.8082787  41.4441538  43.8776302   4.2322204  40.6096554  45.0013542
  30.1645970  46.0304403  53.2360983  31.0975575  46.1294889  53.0463505
  29.8486805  45.4182959  52.5714874  31.2109404  55.8492529   1.8454031
  31.1229646  56.4950716   1.1444000  32.1554082  55.7259595   1.9403318
  17.0489764  42.0415115  36.8079972  17.6437986  41.5477514  36.2435341
  16.2075889  42.0129538  36.3524961  55.7874500  51.5065443  25.7364563
  56.1692631  51.3477122  24.8731998  55.8451569  52.4548590  25.8530811
  21.1548567  48.6893702  32.4016285  21.8950415  48.0824518  32.3990655
  21.3077879  49.2504215  33.1619358  15.3565293  27.1347624  17.6119379
  15.8855777  27.6151091  18.2488111  15.6642227  27.4468666  16.7609647
   0.2979344  37.5057506  24.3238643   0.5819672  36.9340956  23.6105875
   0.6792420  37.1151497  25.1101688   2.3394745  34.6654427  17.0757345
   2.7612322  33.8162061  16.9447664   1.9158142  34.5931008  17.9310182
  21.4920073   9.1408116  49.7624877  22.2474699   8.8555914  49.2485240
  20.7480412   8.6864144  49.3671707  46.1071646   6.8717474  45.6696796
  46.2291252   7.7907795  45.9078741  46.9873249   6.4969582  45.7025814
  66.3711595  10.9560448  13.2028774  65.5278467  11.1307579  13.6206487
  66.2558698  10.1068312  12.7765230  49.6543586  57.8467190  21.9391779
  49.2285215  57.3857295  21.2164167  50.3141987  58.3966910  21.5168336
  24.8445034  46.8572998  39.8803616  24.3661284  47.2560596  40.6072617
  25.7384062  47.1869993  39.9723816  42.6503423  62.5771289  54.2279005
  42.6312712  62.0976097  53.3996916  43.3238861  62.1353354  54.7449970
   3.8121765  49.8589503  24.5170501   2.8846234  50.0951361  24.5074657
   4.2595309  50.6565892  24.7996810  57.7033269  56.6093003  20.1540330
  58.3432090  55.9510552  19.8829273  56.9207394  56.4081942  19.6408609
  66.0011684  40.6174212   7.7141098  66.0072958  41.5714168   7.6360849
  66.7655479  40.3312963   7.2140173  62.3299705  49.8350763   2.6248268
  62.5163686  50.4611885   1.9252018  62.0028555  49.0586519   2.1705202
  49.2045482   3.8573653  23.6227134  48.8331067   3.0949336  23.1789115
  50.0054242   4.0513808  23.1356958   3.4151774   2.0044500  17.2558168
   2.7451210   1.7194277  17.8771165   2.9614835   2.0397312  16.4137033
  30.3156805  48.0773735  46.5989447  29.9954462  48.7816620  47.1625519
  31.2087774  47.9149151  46.9026232  11.5539484  15.6907660  20.9742359
  12.4750333  15.9454304  20.9196619  11.5436988  14.7708994  20.7097105
  43.8909864  20.1032448  34.7829890  43.1556892  20.3852439  34.2388916
  43.7568045  20.5515242  35.6180191  22.7482486  36.9166803  40.7803631
  23.2162809  36.3424397  40.1742029  22.9542613  37.8016376  40.4792929
  54.4575005   1.6223055   9.1620592  55.2478676   1.0825473   9.1766790
  54.5394688   2.1454746   8.3646825  18.4256678  25.2125603   8.7811950
  18.2148962  26.1341387   8.6311868  18.7986975  24.9140936   7.9517368
  27.3976594   2.3125453  43.4255171  27.2374710   3.2553572  43.3845139
  27.4268639   2.0345206  42.5100517  31.1581057  48.5157406  13.4035209
  30.4362982  48.2380795  13.9675525  30.7331436  48.9760553  12.6798156
  55.0876980  23.3362967  24.6606830  55.7791327  22.8645474  24.1963533
  55.2341430  23.1285960  25.5835250  24.0305937  51.3792955  16.6462806
  23.5866212  50.5649864  16.4095977  24.6817108  51.1167228  17.2969249
  26.2428784  57.1828794  41.6775560  26.0967302  57.7759933  40.9406090
  27.1722054  56.9597244  41.6247463  14.0344696   5.0183040  30.8765224
  13.8691645   4.1227156  31.1711887  13.4219532   5.1491982  30.1526931
  57.3337471  15.0510830  47.6597118  58.0145227  15.5376715  47.1949482
  57.6776301  14.9461216  48.5468197  16.9359272  48.4282803  26.2796310
  17.1284121  47.5915586  25.8564476  16.7957800  48.2046890  27.1997360
   3.0800324  24.4880253  16.1869482   3.3238774  23.7450463  15.6349042
   3.8075548  24.5780379  16.8024496  56.3522803  40.1919657  19.8609165
  56.3711130  40.1651293  20.8175567  57.2734701  40.1640088  19.6023468
  61.2077701  34.0921933  21.6928056  61.2386023  34.8099908  21.0603145
  62.1226847  33.9445230  21.9322923  48.3703982  39.9577331  43.2388500
  49.0593588  40.1211428  43.8829425  47.6655971  39.5482772  43.7406734
  17.0456254  50.5352736  46.2091160  17.8516805  50.1089382  45.9180021
  16.4383829  50.4244709  45.4775333  68.4588956  33.9169175  52.1257785
  67.9568314  34.7247416  52.0181659  67.8152322  33.2177979  52.0110515
  37.9939032  54.9054956  46.7267942  37.8713489  54.0966082  46.2298870
  38.8899207  55.1761961  46.5265274  58.3291566  59.6512925  12.4345544
  58.6912596  60.5344665  12.5060991  57.4854814  59.7012102  12.8839448
  51.5535819  58.9994394  20.3371767  51.9793689  58.2924950  19.8522380
  50.9038436  59.3502366  19.7280649  44.2124443  45.6202656  19.4745163
  43.5318451  45.0072819  19.7524742  43.7478524  46.4445836  19.3299964
  51.6263377  39.6006166   3.4567646  52.5754630  39.6743708   3.3570007
  51.5045702  39.2555892   4.3412784  61.0877406   1.7157704  31.1299423
  60.6085383   0.9042484  30.9625343  60.4569243   2.2780138  31.5795902
  67.1159899  49.5354735  24.8645881  66.4354431  50.2078497  24.8330215
  66.9148266  49.0278041  25.6507400   5.2118062  12.3687356  10.2126987
   6.1082314  12.3663205   9.8770721   5.1143263  11.5185457  10.6415374
  65.9417533   6.6053301   7.6140026  66.8403672   6.5809065   7.2851757
  65.6903647   5.6850797   7.6925758   3.2105177  40.1543343  31.0666755
   2.4262637  39.6114700  30.9862045   2.9436129  40.8782684  31.6331676
  14.9045628   5.0554413  51.0222054  14.5235079   4.2890019  51.4506912
  14.3805188   5.7916064  51.3379049  23.2673531   0.8788711  14.2714218
  23.1223374   1.1053854  13.3527854  23.5155850   1.7053563  14.6855930
  20.3621090  46.7680185  44.9535847  20.9173191  47.4927359  45.2412558
  20.0921572  46.3366693  45.7643223   9.0476668  32.8665376  53.5225821
   8.6844057  33.1477237  52.6828146   8.2820022  32.6452708  54.0527010
  62.7523863  59.0515363  17.0116190  62.8274929  60.0053608  16.9831804
  63.5928499  58.7351214  16.6803554  62.8497099  29.6600300   8.7504962
  63.1641458  29.7028786   7.8474334  61.9343554  29.9351174   8.6987022
  60.1705085   8.5345322   4.0644840  60.9711622   9.0348774   4.2220882
  60.4476093   7.6193315   4.1076044  46.6850787   2.2775585  27.4816421
  45.8942633   1.7609459  27.3268608  46.8364315   2.7370984  26.6557220
  60.0615381  25.9247405  19.0882019  59.5476638  25.6204421  19.8362449
  59.6585940  25.4987532  18.3316282  12.8156190   4.3101841   2.9726318
  12.3796063   3.9448101   2.2028068  13.2812815   3.5683733   3.3587745
  62.7983582  47.4554705  23.9637188  61.9121921  47.5285804  23.6093286
  63.3262026  48.0301225  23.4092907   2.3479467  43.8986117  19.8766569
   1.9438558  44.7473532  19.6961597   3.2286816  43.9695269  19.5085434
  49.2748725  44.9574935  25.5332950  49.7110950  45.7903420  25.3535656
  49.6194827  44.6852731  26.3838104  45.2291434  41.6334313   2.1305282
  45.9301417  42.0686024   1.6452891  45.0249569  42.2344273   2.8470046
   4.6808677  19.3694455  21.0387901   4.8712926  19.2652518  21.9710544
   5.1836043  20.1405627  20.7763675  47.7029494   0.5258066  29.7416404
  47.8479694   0.6427533  28.8027481  47.5349054  -0.4110426  29.8431686
  46.7789250  14.9897200  15.9823803  46.0722332  15.3718096  15.4619697
  46.6382008  14.0449578  15.9203676  24.5198660   7.7980358  14.4114688
  25.3986960   7.7730185  14.7899726  24.6670800   7.8868586  13.4698347
  14.5386105  18.7125880  20.3182319  14.6018200  18.6746842  19.3638757
  14.9545222  19.5421082  20.5530599  19.5266800  11.4150912   8.2435039
  20.2395373  10.8364779   8.5142044  19.4009142  11.2217480   7.3145107
   9.1895121  41.8948978  38.6915210   9.8803681  41.2443339  38.5661510
   9.6580952  42.7136921  38.8534931  65.4442465  36.7335563  28.1857589
  65.8597576  36.1244955  28.7961868  65.2049028  37.4872493  28.7250999
  43.9839363  54.1539335  46.6732979  44.1403341  55.0880194  46.8120718
  43.5489273  53.8622952  47.4745083   4.4770390  41.0182381  49.1599798
   5.2628142  41.5615749  49.1001892   3.8103300  41.5074396  48.6778927
  15.0825148  13.1520564  18.9924911  15.6331282  12.6760966  18.3707861
  15.1508813  14.0674073  18.7210325  40.1422215  45.0591469  53.8004351
  40.4696035  45.0292683  52.9014587  39.3867612  44.4713402  53.7998772
   7.0682864  17.1216351  36.9966796   6.7035036  16.5424973  37.6658348
   7.7103787  17.6547200  37.4654773   8.0177718  42.5802189   4.2686800
   7.5332790  42.8117091   5.0610879   7.3419147  42.4567658   3.6021904
  26.8451243  31.6515356  19.9804166  26.9334154  31.2955576  19.0962652
  27.5712996  31.2633807  20.4685119  47.7148926   7.6153035  34.3727589
  46.9867599   8.2201809  34.2307043  47.8483641   7.1971793  33.5221171
  26.7833596  18.3679491   2.6375822  26.8631583  17.4174220   2.7173379
  26.9001274  18.5405547   1.7033437  26.0477143  19.0598732   5.4476741
  25.2377396  18.5771567   5.6124643  26.2606793  18.8658482   4.5348600
   1.7120540   5.9527535  43.4641266   2.1766006   5.7544655  42.6510382
   1.8957579   6.8782229  43.6253452  50.2091133   1.8739647  51.0991716
  49.3185436   1.8319792  51.4475298  50.7716500   1.7915101  51.8692303
  36.1176467  64.1602898  55.4693270  36.0817432  63.2041264  55.4957151
  35.2005482  64.4344378  55.4672432  11.0004525  18.0136401  14.4525007
  10.4903012  18.7729794  14.7342447  10.4212551  17.2666317  14.6033147
   9.6374089  53.5953426  47.0740175   9.1156060  54.0696716  47.7212858
   9.4869524  54.0655470  46.2539530  57.7326261  57.6192319  29.6837143
  58.3545267  57.6171457  28.9560703  57.9450333  58.4109008  30.1780609
  27.3797255  42.0704752  -0.3557869  27.9845171  41.7230278   0.2997592
  26.6768198  42.4714285   0.1554779  30.9950238  17.7585799   8.0707458
  31.4984827  18.3245522   7.4855665  30.1289444  18.1643111   8.1098035
   9.2970662  32.5057036   5.7609752   9.4321184  32.2192103   6.6642526
   8.4029322  32.2334534   5.5544952  51.3562714  46.2414128   4.3122009
  51.8296831  46.0691410   3.4982971  50.6461113  46.8299586   4.0562395
  62.8898703  12.3832661  38.9350132  63.7826144  12.0459038  38.8613514
  62.9683160  13.3150679  38.7304977  33.3763289  51.8055773  20.5676818
  32.4735904  51.8642998  20.8804870  33.3043885  51.8688011  19.6152842
  62.9239082   6.2203336  46.7850780  62.7336550   6.5301239  45.8996010
  62.4126768   6.7949665  47.3548746  31.6727047  10.8852631   6.6309074
  31.6203909  11.6722924   6.0886148  32.4381523  11.0283810   7.1875385
  61.4510994  20.0893218  25.4259208  61.1223202  19.4476086  26.0554794
  60.8648567  20.0088030  24.6735385  52.5421429  61.6587210  32.8453016
  52.1356010  62.5197220  32.7471566  53.4721565  61.8460846  32.9725862
  16.3463526  22.8363902  11.7413429  16.7657333  22.2774226  12.3954872
  16.8786483  23.6318404  11.7293170  67.1253872  55.6404734  46.7519379
  67.5066710  56.4574623  47.0734596  67.7194643  54.9589157  47.0662355
  55.5932247  45.3413593  12.0819858  55.0006449  45.8799254  12.6064209
  55.8871924  45.9223365  11.3803581  29.5113969  62.1112871  11.1213851
  29.3625760  62.7672148  10.4403222  29.1783118  61.2962675  10.7458508
  53.3298914  18.2903100   7.5626186  52.9261391  18.4739972   8.4108404
  54.2664759  18.4224225   7.7095417  26.6365843  16.0904652   4.0388635
  25.8283787  16.3300234   4.4923452  26.7126541  15.1451069   4.1682819
   4.6957892  14.5798344  28.8512039   4.8029822  15.4966588  29.1045308
   4.8128193  14.5785899  27.9011846  19.7916001  43.7604749  23.5627321
  20.3937262  44.4600021  23.8163761  19.4784802  44.0167999  22.6952699
  64.8375760  19.0719086   2.4834016  63.9544307  19.0858799   2.1144966
  65.4118596  19.2406756   1.7364410  47.0803081   1.8213362  36.3398767
  46.1716449   2.0407290  36.1338902  47.5595796   2.6397128  36.2103105
  41.8972616   9.6598250   5.9617475  41.0729676  10.0520283   6.2497524
  41.9378023   9.8488766   5.0242809  19.6522832  34.1640782  44.4769907
  19.9317384  34.3126655  43.5736275  18.7455606  33.8668084  44.4013834
   7.8079623  30.0479090   1.8683675   7.4183863  29.5661175   1.1387495
   8.7471407  30.0442402   1.6835359  20.9587317  17.0833403  24.2488531
  20.0843888  17.0497042  24.6369651  20.8013659  17.2326905  23.3165649
  25.7675057  39.6738154  20.9626535  25.5099516  39.2791611  20.1294950
  26.5728741  40.1509768  20.7628349   5.1607424  47.2273111  37.3272777
   6.0293824  47.1737814  37.7258086   4.9202734  46.3171816  37.1538806
  47.4048328   1.4711842  49.7086000  46.6622925   1.8746887  49.2591000
  47.5940800   2.0626847  50.4369879  44.5667916  19.1996008  22.0219139
  44.9742775  19.8091179  21.4065460  45.2402621  18.5396820  22.1867851
  23.5077357  48.3566999  48.4167910  23.9500856  49.1405201  48.7426519
  22.7594995  48.2428503  49.0028048   8.0433779  25.1461560  18.3584455
   8.9977484  25.1074702  18.2959083   7.8735810  25.4329640  19.2557434
  32.3489731  41.3451129   7.3340467  32.7586668  42.1915519   7.5127176
  32.9595583  40.7024848   7.6952222  32.0864182  30.7813555   0.5375579
  31.9174462  30.6077963  -0.3884884  31.2592297  31.1290127   0.8709053
  60.2818297  25.4943425   6.1810783  59.8100816  24.7085625   6.4571813
  60.0667488  25.5891949   5.2531913   0.3139884  49.7694254  13.8630939
   0.7248682  50.6304693  13.9406586  -0.6243864  49.9544001  13.8247693
  45.4421454  13.8997227   9.3405298  46.2515908  13.5515028   9.7143940
  44.8192864  13.1754357   9.4012455  29.2205935  27.2959191   0.0980953
  28.2956200  27.2499281   0.3400425  29.6493321  27.6803833   0.8626846
  34.3001962  32.9007769  22.4317527  33.7856817  33.2796144  21.7190194
  34.1873217  31.9554591  22.3324347  26.5095311  16.9381148  24.4663528
  26.5440207  16.5611082  25.3455070  25.6477719  17.3518187  24.4167999
  21.8599033  53.5850811  42.4292850  22.3350954  54.2624521  41.9480419
  21.3490653  54.0670490  43.0796576  47.9453736   8.3094508   4.6815780
  47.0831185   7.9103142   4.5656780  47.7819615   9.0781743   5.2280191
  62.3978853  62.6289797  47.9346037  62.3745155  62.0695972  47.1582174
  61.4869213  62.8903437  48.0690050  23.9428597  20.9683567  23.2182506
  24.3315583  21.8223149  23.0287889  24.1456681  20.8122069  24.1405920
  10.9108418  30.8145136  43.3685303  10.8428734  31.5019221  42.7058935
  11.5135640  30.1749320  42.9891968  16.8686705  54.7030550  -0.0244805
  15.9327345  54.6428687   0.1669220  17.0380836  55.6422240  -0.0985619
  55.2547836  37.5420666  54.5857716  56.0280418  37.0101762  54.3976355
  54.7006035  37.4411798  53.8118601  23.4852629  17.2877366  24.9160961
  23.4800034  16.8304068  25.7569603  22.5839310  17.2201401  24.6010498
  45.9999990  61.5295601  11.3645244  45.5107737  60.7963419  10.9913218
  45.3613091  62.2403908  11.4195371  44.6308470  57.7899599  43.9932299
  44.0857792  57.9276896  43.2185221  45.3163195  58.4545755  43.9250326
  57.5421976  39.8487574  39.2753986  56.6471278  39.5136506  39.3281368
  57.4377309  40.7898003  39.1348175  46.6646862  57.6891565  48.4358454
  46.8546009  58.5977221  48.2020187  46.5288544  57.2492409  47.5966454
  65.8810389   3.1765027  40.7259560  66.6940700   3.1661744  41.2310410
  65.9967863   3.8916726  40.1003599   2.0640498  26.6429478  14.5642761
   1.2180596  26.6524893  15.0119833   2.5240522  25.8910328  14.9374536
  57.2187376  49.6064329  20.0889444  56.8173313  49.6250677  20.9577131
  57.7774286  48.8292742  20.0998569  33.2843333  30.6503684  21.1135057
  32.8319531  30.7055909  20.2717594  34.1105872  30.2106816  20.9129671
  41.7848682  51.4775896  50.4453564  41.1621666  51.4719009  51.1722994
  41.6290140  50.6501865  49.9900055  23.1343246  36.7718363  44.7533083
  23.8826776  37.1482420  45.2164698  23.5005736  36.0334277  44.2666388
   5.7800203   0.6524211  15.6327394   6.0240345   1.5734822  15.7240490
   6.3741856   0.1876837  16.2219909  56.7422235  47.7182579  33.9680007
  56.4742434  46.8006026  34.0162281  56.2818825  48.0622899  33.2025150
  52.4765158  49.7925901  21.2638783  52.8124332  50.2364206  22.0425987
  51.5926361  50.1423502  21.1514044  20.8034640  58.5568911   7.5682119
  21.0420113  59.2476946   8.1863645  21.1898642  58.8347346   6.7377142
  30.5444937   1.4158684   9.5119384  30.4788046   2.1484143  10.1245502
  29.6459561   1.0988695   9.4204143   1.6403883  26.3569927   9.6998170
   2.5334137  26.0209792   9.6234420   1.4399832  26.2943911  10.6337074
  28.7221365  14.1819436  14.1674999  28.4412747  15.0119883  14.5526889
  29.4246226  14.4235569  13.5638717  63.2077801  10.1713557  43.1603289
  63.8976776   9.5271248  43.0014706  62.4843943   9.6623463  43.5261917
  43.0394268  44.0258932  52.4975491  42.5916100  43.4860754  51.8461704
  42.4232244  44.7335243  52.6867104  13.8114524  56.6848946  52.1564674
  14.4610822  57.1620512  51.6401958  13.3613169  56.1290312  51.5203667
  49.7945595  47.8875399  45.1390982  50.0432825  48.7537241  45.4617357
  48.9845133  47.6816797  45.6056547  37.6128078  40.5174112  50.0074768
  37.7836657  41.2993956  49.4825506  37.1836185  39.9121070  49.4027996
  12.6538949  39.9597794  46.4299873  12.0885639  40.7131344  46.6005424
  13.0548387  39.7645813  47.2769741  52.5091505  10.7953990  43.8688278
  52.5345087  11.2886941  43.0489206  53.4268618  10.6025851  44.0608215
  15.5091441  56.8511057  49.0271187  14.9060595  57.5930452  48.9819002
  16.3722503  57.2503281  49.1362143  18.0570345  21.9996411   8.1589416
  18.0479651  22.8667599   8.5642246  17.1752744  21.8927914   7.8021387
  38.7250853  53.2237959  53.3704805  39.0899777  52.4949408  52.8686285
  37.7786851  53.0829334  53.3437634   4.6674078  25.8970671   2.7833704
   5.4413145  26.1251991   2.2683385   4.4429034  25.0111645   2.4987510
   1.9328743  31.9673467  44.4447994   2.3574692  31.1643600  44.1428709
   1.4165884  31.6946578  45.2032995  64.4762135  41.4243126  37.9647493
  64.7914410  41.7114544  37.1077681  63.5286665  41.5546560  37.9274011
  25.6369715   4.1391450  22.5730947  26.4173918   3.5913426  22.4888757
  25.9016114   4.9888522  22.2206787  13.6244922  50.0816256   5.6454471
  14.0760451  49.8853880   6.4663175  14.2410832  49.8155314   4.9633649
  36.7385035  30.7674223   7.9099468  37.5452547  30.9825140   8.3780530
  36.8996172  31.0538346   7.0109228   0.9820252  24.1729027  22.3098758
   0.3707438  24.2110640  23.0454782   1.7477517  24.6631724  22.6090959
  45.3872633  29.8941755  51.7069530  44.6162128  29.5064116  52.1209049
  45.7375860  30.4929113  52.3665142  30.7534628   6.6998488   4.6831420
  30.2502852   6.0689622   4.1683343  30.0950938   7.2928721   5.0452283
  14.7986393  20.6764084  10.3180650  15.1211911  21.0951191  11.1161092
  15.5744677  20.2727181   9.9290184  31.7411881   1.4206082   2.9482416
  31.6281014   1.7908508   2.0728162  32.5359803   1.8358475   3.2830719
   0.6805520  21.3383824  11.9508937   0.1400333  20.5484539  11.9599966
   0.3081947  21.8913180  12.6378015  58.1770182  38.7656665  16.8347299
  58.0182314  39.6312046  16.4580822  59.1306543  38.6914587  16.8708563
   9.6377926  10.7542950   5.3245595   8.9910655  11.1619049   4.7485117
  10.4377179  11.2604720   5.1826433  32.7401924  40.2200937  53.8575935
  33.3441067  40.4909611  54.5490742  33.2815814  40.1791048  53.0692720
  11.6392839  59.2879009  40.1094961  11.3999081  59.1709900  41.0288763
  12.5871623  59.1560507  40.0901604  10.4892783  18.6701161  11.0587123
   9.6128421  18.7242657  11.4397052  10.9314637  19.4632489  11.3614419
  33.9502764  43.7522459  54.7573614  34.6364784  44.4130850  54.6643400
  34.3393254  43.0801058  55.3169107  57.5329380  15.7517582  21.7853883
  56.6849022  15.6317526  22.2127918  57.6660996  14.9455697  21.2868312
  33.4790974  11.8011242  12.6450304  34.3994217  11.9658381  12.4398426
  33.0645781  12.6624400  12.5945476  57.5494366  10.7561356   4.2195848
  57.3603134  11.3787896   4.9215606  58.1269913  10.1082713   4.6232513
  46.1320591  47.8200579  40.7813883  46.5648317  48.1712055  41.5596104
  46.8242741  47.3546743  40.3118324  46.9221756  21.3392598   4.5821432
  47.5239107  20.6157786   4.4068626  47.0710455  21.9540221   3.8637117
  29.6008139  21.7849976   0.9828285  30.3193074  21.9725663   0.3788284
  29.3950777  22.6310736   1.3804010  62.3698902  38.0549598  32.3871541
  62.3984814  38.8634109  31.8754697  61.8925524  38.2915783  33.1823850
   0.7886749  34.1299111  19.3959812  -0.1011891  34.3647677  19.1328958
   0.7158332  33.2282263  19.7088579  58.5258436  49.4709969  40.7507849
  58.2225561  48.5807896  40.9290552  57.7238083  49.9903297  40.6936169
  56.8674969   9.4895846  26.8232540  56.8532716   8.6864621  26.3026527
  57.6493417   9.9544341  26.5251449   6.8544537  62.0777893  19.9658406
   7.7310377  61.7419195  20.1529932   6.7475021  61.9556046  19.0225136
  32.8924017   6.6970974  18.2972721  33.0521088   7.1069938  17.4471477
  33.6807471   6.1811787  18.4662965  33.8714551  55.2411138  31.4541725
  34.5528781  54.6667969  31.8035415  33.8787174  55.0754439  30.5114463
  12.2637385  62.7168142   3.9392713  12.1528309  63.4014475   4.5989755
  11.7548626  63.0228984   3.1885484  49.1874838  11.1879456  20.3674674
  48.3122635  11.5282583  20.5529714  49.2259407  11.1336815  19.4125807
  35.2886271  46.8097830  47.6888227  35.7213783  46.6350269  48.5245371
  35.9848475  47.1454573  47.1241665  57.6056336  10.4309279  16.6230348
  56.8394040  10.9759575  16.4439586  57.2459625   9.5600516  16.7916778
  26.1562329  19.4851929  34.1040042  25.2660399  19.7183281  34.3675140
  26.3055544  19.9815470  33.2992843  43.5349857   7.0172114  55.2601576
  42.8609597   7.5103135  55.7278824  43.0523741   6.5163750  54.6025229
   7.1458535   3.2858354  23.1663946   6.9297581   2.6554090  23.8534883
   6.3285213   3.7586910  23.0095295   7.9487198  55.1181089  12.7691606
   7.5260418  55.8827292  13.1602291   7.6559084  54.3817841  13.3061174
   8.0365234  33.2048041  40.9473232   8.8936215  32.9589659  41.2954238
   8.2240086  33.5616976  40.0791553  22.3193985  51.9434404  33.2686710
  21.6185147  51.3315535  33.4935856  22.4625546  52.4483728  34.0691566
   6.2287205  40.8155864   0.5336097   5.3221100  41.1219525   0.5542902
   6.6988438  41.4914345   0.0453046  32.6682973  51.7356968  41.4293194
  33.1725049  51.9614649  42.2110081  31.7746615  52.0119190  41.6326666
  60.8518505  27.9577589  44.4797039  60.4912758  28.2664609  45.3109217
  61.0303497  27.0288467  44.6263075  40.6290007  56.8192816  37.9824328
  40.3514385  57.7350521  37.9587841  41.4870310  56.8180418  37.5581455
  10.0313955   6.6431886  26.5360740   9.9340015   5.8554846  26.0010341
  10.9759622   6.7304093  26.6642097  18.0697661  13.2593876   9.5190910
  17.3050289  12.7257306   9.3031791  18.8153773  12.7470309   9.2063812
  44.2717200  16.6069657   5.3526691  43.5914402  17.1384961   4.9392322
  44.9402123  16.5043456   4.6753076  19.8202008   7.3892874  48.1844902
  20.2379626   7.6799149  47.3737860  19.2603129   6.6602845  47.9174328
  18.0498379  10.2962679  16.5324676  18.6354845   9.8934979  17.1735835
  18.6361378  10.6797738  15.8802319  14.0280347  20.3864056   4.8124078
  13.3616953  20.5871016   5.4696325  13.8180094  19.4989497   4.5216421
  24.3826938  63.6606169   0.4146919  24.3216968  63.5022497  -0.5273437
  23.8268709  62.9874039   0.8072232  27.4187069  16.9415242  53.7858966
  27.7286892  17.6626975  53.2381252  26.9781046  16.3497836  53.1760314
  17.7437334  24.6160418  13.7970403  18.2221680  24.5663744  12.9694751
  18.3977585  24.9013764  14.4350580  24.7076052   4.9265666  40.1950932
  24.7783917   5.8727450  40.3214693  25.4939955   4.6911950  39.7027254
  32.4824124  24.2428452   2.1097663  32.7001791  23.3154112   2.0166544
  33.0598955  24.6879107   1.4895538  25.4839819  22.5669379  42.2877312
  24.5390576  22.5355048  42.4372721  25.5835312  22.4049754  41.3496017
  35.5986576  28.2934243   7.2446350  35.9296828  29.1223341   7.5904134
  36.2159090  27.6362425   7.5661043  60.4901075  36.9888449  48.6432600
  59.7014380  37.0940828  49.1753817  60.6024456  36.0413814  48.5662985
   4.0115624  17.3517043  13.7731079   3.7303405  18.0902153  14.3132452
   4.9642139  17.4348456  13.7309793  54.9357409  59.3692034  26.6556501
  54.3012399  59.2426001  25.9502339  54.6280027  58.7985783  27.3598623
  18.9678550   2.9275036   7.7701980  19.7479081   2.3759195   7.7109927
  18.7680840   3.1580126   6.8629003  34.8385835   1.5799353  14.1011953
  34.4901395   2.3162133  14.6039021  35.1283216   1.9690593  13.2760489
  17.8379914  56.9659268  14.4852785  18.2559782  57.1915876  15.3163007
  17.4346977  57.7824485  14.1905263  19.0526188  60.6129696  22.3044491
  19.1203821  61.5209123  22.0090175  18.3145416  60.6138679  22.9139328
  65.1878076  43.9827072   1.0582403  64.9169283  43.3210778   1.6947177
  64.4588428  44.0328359   0.4399112   2.9470289  58.3439945  30.0728273
   2.6147020  58.6228382  30.9260774   3.8924134  58.4839427  30.1266122
  32.9728961   9.1438901  36.6438866  33.6859703   8.7354618  37.1347499
  32.3196316   9.3631524  37.3082662  22.0610642   4.8690149  47.0438766
  21.6654325   4.0053844  47.1615601  22.7777529   4.7220495  46.4266348
  45.4460669   2.0178322  47.8868055  45.1446486   2.7405322  47.3362732
  44.6765614   1.4578724  47.9894686  17.4915875   8.1644207  34.5683861
  18.2220209   8.0978542  35.1834202  17.3785151   9.1050392  34.4317150
  18.6249722  41.0065442  34.4924331  18.6529577  41.9463926  34.3131781
  19.2309416  40.6235819  33.8581038  40.1612091   3.2239112  49.9461174
  40.6218386   2.6330772  49.3503284  39.8861313   2.6647869  50.6727171
  29.4391859  35.0673156  52.8532076  28.6957825  35.2817493  52.2896481
  29.2660606  34.1733222  53.1482267  57.8924424  32.5948720  41.4874649
  57.4227554  31.7660671  41.5807772  57.2712857  33.2575183  41.7896175
  15.0187076  28.8316112  46.2503958  15.4902137  28.8216048  47.0833492
  14.1259468  29.0862375  46.4835787  18.7060571  19.3637311  48.5612965
  18.6407924  18.5295081  48.0964899  17.9956436  19.8947132  48.2012939
  60.8238316  21.4529085  32.8717160  59.9243498  21.1981797  33.0773306
  60.8987379  21.3250923  31.9260502   1.4080971  45.1763081   2.9181293
   1.8174523  45.9061610   2.4533990   2.1257180  44.7681331   3.4025291
  13.4146881   1.4908481  49.8086786  14.1665483   1.6804472  50.3699207
  12.7341270   1.1932614  50.4124260  30.3373157  10.3936159  11.7261985
  30.6789743  11.0302841  11.0983804  30.9545892   9.6631157  11.6864923
  33.1171989  53.5705387  10.8027938  32.7011054  52.7131521  10.8921579
  32.4083846  54.1971075  10.9484819  48.3003676  22.4830394  55.4989576
  48.4574867  21.7285257  56.0666370  49.1577113  22.6824956  55.1229143
   2.5139302   5.9062635   9.0155796   2.1876210   6.4162147   8.2741550
   2.4320048   6.4950454   9.7658161  52.4930870  49.5569384   0.8589414
  51.8320500  50.1338672   0.4762987  52.0467460  48.7164592   0.9619382
  27.3915120  32.9069400   7.0456365  27.8884947  32.7784731   6.2377170
  27.7639251  32.2736228   7.6591924  66.2555296  45.6801467  40.1088953
  65.9418279  46.5773743  39.9957347  65.5686814  45.2485662  40.6170368
  11.9615973  62.8579291  20.1244712  12.0663655  63.1020742  21.0440612
  12.8554118  62.8156032  19.7845674  41.1561728   0.9444151  23.5096765
  42.0163441   0.5302546  23.4403563  41.0614491   1.4376321  22.6948166
  48.3703813  50.1583689  25.3631687  48.7562129  51.0159367  25.1844430
  48.4339792  50.0604170  26.3132191  40.7716990   9.1496158  41.3812160
  41.2347746   9.3848556  42.1852446  40.2798939   9.9372578  41.1488819
  23.0298698  62.1971708  15.5090702  22.7873314  62.2520354  14.5847356
  23.9298475  62.5216814  15.5402100  64.0205962  48.0383544  34.0539002
  64.5538909  48.8206201  33.9128685  63.1963903  48.3711975  34.4090509
  14.2330217  29.7637224  16.5494943  15.1787364  29.8812532  16.4598155
  13.9532316  30.4897833  17.1069765  46.6835272  59.9503505  19.4553760
  47.0126783  60.6723701  18.9200405  46.9317305  59.1618573  18.9727739
  31.8531942  16.7887664  29.5227957  32.1994925  16.1384153  28.9117694
  31.0451961  17.0967364  29.1122818   0.9610117  48.4593957  54.4431162
   0.5112207  48.0864757  55.2013063   1.0164536  49.3956988  54.6341515
  62.8257537  26.9389820  35.3932905  62.9054177  26.0970855  34.9448514
  63.1020605  27.5841403  34.7424006  11.6402543  29.9468666  24.2075896
  12.1958149  29.5079976  24.8517776  11.7939842  29.4682246  23.3930326
  59.3920708   0.8295639  44.1802597  59.4914770   0.1360815  44.8325109
  58.4530544   1.0149187  44.1689491  28.2944572  63.7780596  49.8400879
  27.6764477  63.7361446  49.1103315  27.9474199  64.4654608  50.4086590
  55.3363848  32.7225947  36.5638304  55.3862429  32.6618314  37.5177979
  54.6660185  33.3861184  36.4008093  47.3168219  45.6774002  52.1718407
  46.5530670  45.1546484  52.4160671  47.1100700  46.5607064  52.4772215
  17.0003033   9.1667950  47.9100180  17.4227786  10.0129056  47.7622223
  17.2772658   8.6280811  47.1688604  26.6584206  22.8630829  44.7644711
  27.2499990  22.1161079  44.6734047  26.1574268  22.8726625  43.9489079
  17.8389442   8.7097555  41.3885069  17.0566177   8.9853269  41.8662691
  18.5520542   9.2062956  41.7899466  48.8880682   4.2997026  36.1609888
  49.2349386   4.0658820  35.3000355  49.2319298   5.1773584  36.3274574
  36.5086001  33.5098645  26.7019180  35.9664267  33.9852645  27.3314098
  35.9090632  33.2866799  25.9898952   8.6760217  20.1325846  34.8704672
   8.4106582  20.7411814  35.5599785   7.9589099  19.5005906  34.8198128
  17.6647294   2.8294998  53.8413000  18.0607986   3.5249424  54.3663931
  17.5062644   3.2340688  52.9883957   7.2508395  35.3499799  42.7144623
   7.4756849  34.5626097  42.2187519   7.1861327  36.0390025  42.0531797
  54.7820080  60.4264199  41.8695831  53.8648743  60.1577949  41.9237900
  55.0233007  60.2717694  40.9562969  24.1079748  49.0340131  37.9726982
  23.6118019  48.5309809  38.6184549  24.8372686  49.4065612  38.4682441
  53.1996405  41.9949340   4.6362880  53.1622135  42.5068318   3.8283304
  53.9195525  41.3796877   4.4968895   1.7918575  61.3693910  15.9517956
   2.1529711  62.0928007  15.4394412   2.4150909  60.6535440  15.8277953
  59.2883009  49.4244366  34.6954656  58.8620383  49.5398288  33.8462210
  58.6388404  48.9666706  35.2292109  16.9823396   7.4522030  50.3981638
  17.3382378   8.0530071  49.7434855  16.7265224   6.6771787  49.8980379
  36.0048867  42.0673495  52.3481989  36.0096217  41.3325148  51.7348242
  35.3377444  41.8357044  52.9943323  66.5685541  61.3347473  31.1258221
  67.3292739  61.1284550  30.5827022  66.2271291  62.1506528  30.7598186
  44.5674783  44.1373902  44.2402315  43.9419192  43.4386259  44.0488338
  45.4087514  43.7951379  43.9379835  39.4614124   3.2742035  27.2465900
  38.8187921   2.8489220  26.6787818  40.2299082   3.3963048  26.6891483
  31.9306874  14.6569788  21.1736778  32.3446029  13.8429594  21.4605192
  32.5515246  15.0347983  20.5507425  50.3174496   4.1854221  16.6666222
  50.3067064   3.3980912  16.1223555  51.2277842   4.4803488  16.6432405
  50.0843918  35.2508807   9.2265037  49.3958413  34.5909032   9.3074993
  49.6179950  36.0583034   9.0102247   1.6194027  10.2668583   6.2228159
   2.0771807  10.9129512   5.6850103   2.0649165  10.3009855   7.0693258
   4.3081463  35.2397662  49.7682238   4.6128524  35.5351620  48.9102459
   5.0697363  35.3379112  50.3396988  63.0617582  56.4686024   7.9136089
  63.8263332  55.9064495   7.7885536  63.1070339  57.0981061   7.1939519
  64.3979716   7.6945406  39.3329000  65.0538882   7.1428806  38.9066648
  64.9070787   8.3743894  39.7743154  12.9331636  11.0928011  33.2535100
  13.7562108  10.7541060  32.9012156  12.8674853  11.9793177  32.8985381
  54.8956906   9.7251403  31.3145546  55.1284039   9.0411412  30.6866840
  54.3113768  10.3073275  30.8288959  54.8619032  51.5377670  32.5206804
  55.4610646  51.5547185  31.7743897  54.3815232  52.3635405  32.4609637
  53.4557503  46.0611153  40.8419752  52.7183932  45.6966448  40.3523874
  53.2974690  45.7940578  41.7474365  50.9299028  63.2061679  50.3720570
  51.8084598  63.3672252  50.7161951  50.8739263  62.2537585  50.2944994
  41.1107349  57.4969398  15.9045795  41.9927024  57.2760450  15.6052927
  40.5542969  56.8097245  15.5380443  50.6201899  38.5810929  35.7180333
  50.4336974  38.2007843  36.5764141  49.7970030  38.9922028  35.4542470
  10.9149873   4.2285961  33.2283163  11.3179517   5.0620288  32.9849195
  10.7393336   4.3121526  34.1655421  20.8266151  55.7328390  39.4992614
  19.9968803  56.0554832  39.8509264  21.4457739  55.8253073  40.2233648
  30.8381653  41.4039278  20.1987195  31.0264087  42.2358179  20.6331801
  30.3939152  41.6522503  19.3880355   7.9330170  21.2810969  26.9207481
   7.7135884  20.5570352  26.3343814   8.4804892  20.8835077  27.5978187
  51.2994975  59.8733627  44.2917156  51.2715000  60.6723707  44.8180580
  52.0451773  59.3838360  44.6389294  11.1597061  13.0713701  43.9722443
  10.9515798  12.1743631  43.7109137  11.9668925  12.9915988  44.4804907
  63.9728862  48.1555098  12.9520857  63.3827669  48.3304339  12.2190154
  63.4146363  47.7552503  13.6187065  37.3411798  17.0651030   4.1201261
  38.0034899  16.3799512   4.2103723  37.1105980  17.2953677   5.0201515
  62.8415543  43.5633617  39.8779321  63.1287188  43.8752156  39.0197277
  62.3645658  42.7546626  39.6916032  10.9565890  57.3506968  21.9997787
  11.2980831  57.9860991  21.3705921  10.3366316  56.8237823  21.4955497
   2.9606665   6.8770795  11.8121290   2.9816878   7.5646835  12.4777043
   3.8295782   6.9048267  11.4115632  56.7002684  52.6501029  36.9866395
  56.2330276  52.0925289  36.3645220  57.5458557  52.2180658  37.1072936
  32.8148746   5.7568496  28.5226178  32.0491862   5.1831138  28.4946942
  33.3936429   5.4172617  27.8400183  18.8667214  49.5711946  48.7525606
  18.0118036  49.4456339  48.3407593  18.9527845  48.8329363  49.3557215
   8.6032355  54.1623240   2.3071319   8.0532349  54.9048781   2.5568205
   8.4245766  53.4975844   2.9722905  27.4398840  60.7383611  52.6160097
  27.8242243  59.8617127  52.6166868  26.5143192  60.5939408  52.4192858
  25.6111592  40.3319889  11.0142664  26.0775393  39.5590078  11.3324264
  26.1530798  40.6602203  10.2967599  36.0737395  24.7729015  40.6322765
  36.1624098  25.2599382  39.8130298  35.6067300  23.9742374  40.3867722
  63.5445833  21.1971140  24.2599869  62.7439260  20.8442545  24.6481490
  64.1938591  20.5038190  24.3783641  36.6830576  59.4722440  13.7292993
  37.4682081  58.9358263  13.6196053  36.5744484  59.5467826  14.6773911
  32.5258374  10.9862411  33.3201075  32.6053238  10.0407898  33.4467363
  31.8665457  11.0812330  32.6326895  48.5127651  34.2668102  17.1789268
  48.3523929  35.2086287  17.1198514  49.4618713  34.1794614  17.0906166
  10.8529174  22.5832367  23.5483837  11.0213625  23.2513356  24.2128372
  10.0501943  22.8733516  23.1151366  32.5773191   4.4981903  32.7027059
  33.0635095   5.0661093  32.1049452  33.1419206   3.7341163  32.8195286
  28.4967542  17.0033014  39.0840268  29.0894723  16.6651917  38.4127617
  28.5035515  16.3342631  39.7685504  36.5213341  58.8523351  53.0362129
  36.4352215  57.9392254  52.7622700  35.6717790  59.2442178  52.8339338
  34.9929274  50.5186813  51.4237642  34.1733349  50.0935381  51.1712694
  35.1309193  51.1892288  50.7547665  62.9996502  45.9270894   3.3546070
  62.9867470  46.2846112   2.4667743  62.3746168  45.2025449   3.3301500
  55.1709330  59.7140893  44.5767784  55.2014643  60.0275432  43.6728716
  54.9871928  58.7778699  44.4995451  50.1387655   3.5558688  48.8925651
  50.0355374   2.9789936  49.6493915  49.2520725   3.6584556  48.5468963
   8.2340825  54.9756717  48.9082193   7.2929681  54.8334097  49.0096951
   8.3937490  55.8248048  49.3201780  43.6723661   4.0059763  19.2063034
  44.4010878   3.3857721  19.1829658  42.9759121   3.5759926  18.7100208
  40.1589727  54.6288001  10.8879093  41.0889482  54.4191515  10.9740785
  40.1397788  55.4099762  10.3350738  16.1793679  51.9146418   0.7767442
  15.3813570  52.2252547   1.2044481  16.5577954  52.6981341   0.3777841
  19.3307853  32.0767784  49.4752359  18.5674798  31.7539454  48.9963055
  19.1939032  31.7772388  50.3739977   2.5832289   7.6935780   2.9565576
   3.4515065   7.9544794   3.2635740   2.1331042   8.5198271   2.7806810
  62.5600994   8.2596356  31.1979508  62.9830974   8.7241775  31.9201040
  61.7993241   7.8378731  31.5974116  41.1986912  52.7903681  46.3447189
  41.2202776  53.7465792  46.3069630  41.3744534  52.5828796  47.2624826
  56.3374996   4.9348855  55.0273848  56.2390614   4.3778700  55.7995749
  56.9570923   5.6123853  55.2981853  38.0644655   6.0828578  13.1863168
  38.8671886   6.3223135  12.7231458  38.3626818   5.7939469  14.0487722
  49.0093576  46.2542939  29.2194751  48.7832391  45.3594183  28.9659027
  49.9649465  46.2825643  29.1717056  64.0828896  10.5167651  21.0235071
  63.7311506  10.7884371  21.8712711  64.4879436  11.3076854  20.6676817
  18.8055218  42.0336776  38.8412523  19.0704620  41.1363535  38.6391521
  18.1117046  42.2263580  38.2105994  51.4863586   5.5135429  45.4620647
  51.5423822   6.3942283  45.0912714  51.3442278   4.9439517  44.7060251
  12.6527226  63.2328688  41.2690306  13.5316933  63.2102875  41.6473579
  12.0717824  63.0227824  42.0001984  20.4724646  16.6851544  50.2655602
  20.7376957  16.4766347  51.1613274  20.5820918  17.6336503  50.1979542
  32.7542818  51.1193161  38.0867124  33.6045969  51.0819321  38.5246611
  32.3379696  51.9060987  38.4386921  53.9299237  50.5942499   6.7770818
  53.0887138  50.3368568   7.1543697  53.7027347  51.2221348   6.0912374
  62.0678890  19.9932432  50.7895851  62.6233846  20.5675650  51.3166618
  62.0147622  19.1818953  51.2946796   9.5087612  13.3082259  27.4246407
   8.8780516  12.5938582  27.5147295   9.9394011  13.1431675  26.5858698
  53.5872555  41.7912369  39.1398859  53.5432673  41.5711504  40.0704002
  54.1420937  41.1106925  38.7587714  29.9548268   2.4866156  35.3388643
  29.5885444   3.3585563  35.1912594  30.8748007   2.6458645  35.5498672
  43.5018092  30.5792290   0.1772789  42.9484730  30.4539067  -0.5936572
  42.8959875  30.5333287   0.9169439   8.9767146  21.0848379  32.4145174
   8.8899851  20.6511092  33.2633948   9.8376662  20.8152390  32.0946550
  45.3157949  17.2435033  37.1455860  44.7660780  16.8258774  36.4825392
  45.4736996  16.5565085  37.7931499  35.9142625  22.3444360   5.7614139
  36.4766860  21.9325745   6.4173702  36.5152299  22.6181030   5.0684646
  50.3334367   7.5373685   0.7026056  50.2680075   7.3879420  -0.2405926
  51.1002719   7.0320570   0.9725288  26.0549569  34.9711251   8.5597137
  25.3772237  35.4170063   8.0516771  26.5046840  34.4153454   7.9232505
  57.5622231  23.9199615  53.1354809  57.2635764  24.3495893  52.3339415
  56.9452947  23.1997013  53.2653046  63.0345594  37.1145051   1.6050581
  63.9495050  37.2206079   1.8655447  62.8356325  36.1980748   1.7969326
  31.3739861  55.5402409  51.5559387  31.4178741  56.1243456  50.7988882
  32.0144594  55.8971488  52.1712780  39.4097638  36.4961719  17.5770906
  39.0570020  36.4079046  18.4625295  40.1136767  35.8489552  17.5340894
  49.0376997  33.7661028  45.2749491  48.8410854  32.8871179  44.9509668
  48.7312651  33.7612343  46.1817598  14.7357291  18.4081542  17.3353818
  15.1617068  18.3332669  16.4814714  14.8265522  19.3321716  17.5681356
  14.5519650  58.3964925  32.2086763  14.6131623  58.5744702  33.1471920
  15.3997243  58.0144476  31.9815683  18.7465611  51.7739796  12.2567276
  18.7745246  51.5670525  11.3225797  17.9048609  51.4280700  12.5535730
   5.3724230  61.7881986  54.4960976   4.4524229  61.7891412  54.7603512
   5.4728616  60.9876531  53.9810514  53.4384047  35.6600475   4.3857721
  53.0781018  35.9545269   5.2222541  54.2776191  36.1146604   4.3131307
   0.1185184  24.6132094   8.0401758   0.5206924  25.1954037   8.6847929
   0.0844150  23.7612730   8.4752372  55.1392621  23.3243614  34.3411279
  54.5445669  22.8163629  34.8929477  55.7745988  23.6963706  34.9528384
  13.8463419  43.1012904   1.7409805  13.7745398  44.0208458   1.4850620
  14.3738764  42.7008354   1.0499099  49.3633782   5.7403695   3.0313257
  49.4477689   6.6026842   2.6244787  50.2268183   5.5669224   3.4063152
  14.0290606   4.0268898  48.5913754  14.3835032   4.5117742  49.3366861
  13.8464594   3.1537905  48.9386320   8.3417660  14.3887484  24.6977687
   7.8096735  14.5249557  23.9138317   9.1074061  13.9058173  24.3866348
  58.2616245  49.4250261  50.5728534  58.2786047  48.4716975  50.4885391
  59.1829884  49.6837031  50.5527118  33.9408100  61.2214422  30.0308347
  33.7521160  60.4260757  29.5328188  33.0794609  61.5763741  30.2506828
  47.7694831  59.2332345  23.6047697  47.0947582  58.5713392  23.7560081
  48.3764822  58.8204681  22.9904342  40.3209496   8.6315441  38.6978221
  41.2194824   8.5150623  38.3891153  40.3979731   8.6670744  39.6512556
  34.6991396  20.8646536  35.6337547  35.3531289  20.4702902  36.2108207
  34.7102332  20.3163838  34.8492098  49.4100917  49.5770507  21.4179349
  49.2080015  49.7622972  20.5008340  48.5887194  49.7396701  21.8817616
  61.4569372  32.1584087  24.9612117  62.2290725  32.4249750  25.4601932
  60.9117467  31.6917949  25.5946708  20.1926517  28.2275057  41.6781044
  20.3388119  28.9746404  42.2583294  20.4119015  28.5551453  40.8058596
   9.5705069  51.9742113  18.7822521  10.1542342  51.2961810  19.1224980
   9.9914969  52.2696703  17.9749703  24.3703055   4.5476994  43.1678247
  24.1804004   4.1680726  42.3098898  25.2814007   4.8346928  43.1063843
  48.9840328  43.9655327  13.1779960  49.6893346  43.3502232  12.9775528
  49.3241131  44.4923579  13.9012054  31.5951288  56.6554105  45.7104588
  30.8536804  56.8254643  45.1294518  31.4317978  55.7781010  46.0566998
  63.6654102  13.8105387  51.3486719  63.2212698  12.9880757  51.5549040
  64.2406904  13.9664359  52.0976543  45.9985220  56.5283596  10.1983694
  45.1510083  56.3465726   9.7922805  46.5225160  56.9144403   9.4965080
  63.8122761  56.6058886   0.6424478  64.1104710  57.4959051   0.4548887
  62.8641855  56.6877019   0.7456687   7.6314771   2.1212029  45.4961872
   8.2228923   1.5998226  46.0389805   8.1330490   2.9081625  45.2832270
  28.2665420   1.0337516  49.8949623  27.9516387   0.5640731  49.1226482
  27.9471159   0.5182607  50.6355476  34.6728754   2.9717845  33.1922293
  35.2834058   3.1324691  32.4727392  35.1990008   2.5297868  33.8586092
  14.2689007  36.9234058  10.6543783  15.1393240  36.6749533  10.3431419
  13.9379423  37.5236511   9.9862436  49.7057356  11.3846547  17.2806505
  49.0306311  12.0472151  17.4272064  49.3120243  10.7756669  16.6558698
   2.4207276  30.3927712  14.2412189   3.3669775  30.4596927  14.1133121
   2.2706431  29.4684892  14.4397405  57.3891293  60.6469929  26.6162399
  57.9202449  60.3369247  27.3497203  56.6636502  60.0245964  26.5658859
   7.2285307  57.9638916  49.5314789   7.5908530  58.1204598  50.4035139
   7.8361834  58.4039878  48.9370823  16.0298991  19.8551333  39.3804264
  16.8440223  20.0916815  39.8248148  16.1708212  18.9555717  39.0851927
  13.0164355  33.7401699   7.5899938  13.9186495  33.9205469   7.3259882
  12.7336138  33.0337821   7.0092538  47.8698742  42.3791432   0.7423833
  47.6738893  41.6340941   0.1742986  48.2721126  41.9892430   1.5185360
   4.3459290  37.5619667  11.4354471   4.7214383  36.6896599  11.3158372
   3.4860152  37.4013352  11.8240026  68.1057274  28.9212432   4.1795019
  68.7917625  28.2827585   3.9847616  67.3419105  28.6072182   3.6955551
  43.6776638  11.2867427  15.0382614  42.8029633  10.9154093  14.9231780
  43.5204935  12.1996295  15.2794373  44.6205378   9.2078608  46.7620087
  45.4297447   9.5668435  46.3979435  44.4609213   9.7278243  47.5496578
  42.6939892  13.0465483   7.0059160  42.8136408  12.5699245   7.8273443
  43.5304963  12.9522991   6.5502790  30.6340122  19.7189081  54.3098879
  30.4302859  19.9825954  55.2072144  30.7188487  20.5435395  53.8313293
   8.2389653  44.3564492  17.8360224   9.0883840  44.5886391  18.2112646
   7.8024161  43.8541775  18.5240471  57.2818076  25.8195948  55.5009845
  57.7164232  25.5053573  54.7081474  56.9016516  26.6609394  55.2482894
  37.8602278  39.0147042   1.7904285  37.2717285  39.4755119   1.1924699
  38.1828212  39.6954667   2.3809627  15.9562176  16.0096275  18.3147672
  15.5749911  16.7744338  17.8835252  16.3809222  16.3624465  19.0966705
  54.2193520  45.9880459   4.2174343  54.8879134  46.2461805   4.8519567
  53.3924758  46.0761773   4.6915010  63.4529030  35.4566568   8.4415248
  62.9541170  36.0703611   8.9807943  64.2663347  35.9198903   8.2415823
  26.1738604  49.2727553  15.2979091  26.0054797  49.6968710  14.4564775
  26.7555779  49.8773300  15.7586959  16.7640829  33.9431596  23.6214972
  16.0487604  34.5126724  23.9046907  16.3790488  33.3982921  22.9351306
  47.4643743  47.2986370  46.6654253  46.9387353  47.0782607  47.4344301
  47.6847992  46.4526861  46.2755394  67.8478289  33.6647844  54.9346542
  67.9645586  33.4754682  54.0036535  67.4054432  32.8906512  55.2828550
  56.1376488  54.3750560  17.0979217  56.3300621  55.0989496  17.6938966
  56.6732156  54.5525872  16.3246921  21.8619752  34.1247678  54.2789745
  21.8957114  34.1354132  53.3224297  22.7775192  34.0580726  54.5501995
  52.0471680  34.1090850  25.5005840  52.1755897  34.2379400  24.5608333
  52.5523316  34.8115828  25.9099010  50.6017542   7.0656312  54.3601274
  51.2456894   7.4421692  54.9599600  51.1262751   6.6492975  53.6761856
  20.8086181  12.3317468  18.4618032  20.3332806  11.5058267  18.5520339
  20.1572132  13.0055106  18.6566019  52.2628403  23.6543584  24.5048380
  51.9513226  23.7976861  25.3985071  53.1878710  23.4303522  24.6066737
  45.8752823   6.5147924  53.9751196  45.1860380   6.7989194  54.5754910
  46.6505146   7.0031869  54.2521095   0.4169214  37.7765589  38.6579704
   0.8621896  38.2543927  39.3577147  -0.4976308  38.0510645  38.7248397
  56.4580495  63.0971248  31.9048452  56.8087393  63.9756231  31.7582536
  56.1107296  62.8326572  31.0529900  58.9429266  64.2369740  17.6526392
  58.4687776  63.4191908  17.8031206  58.4323043  64.8991093  18.1185508
  39.5069635  60.5450731  19.6420979  39.4258744  59.6808707  20.0455952
  38.6888987  60.6615325  19.1589427  -0.0979942  34.6774960  26.7384982
  -0.1807922  35.5618691  27.0952344   0.6010872  34.2756534  27.2542834
  44.6715392  27.7134042  47.9751921  45.2996597  28.0705386  48.6030102
  44.6015277  28.3858209  47.2975636  30.7885695  10.8825064  50.4433680
  29.9251604  10.4950404  50.5869818  30.6156230  11.6662490  49.9217653
  65.3781986  25.6001377  29.1729760  65.6439829  26.4677048  28.8681531
  64.4275761  25.6603122  29.2674732  37.1774542  13.9573156  12.5521472
  37.2380900  13.3917391  13.3220056  36.7122280  14.7344016  12.8618816
  35.0783021  52.6366716  42.6676989  35.0986845  53.2034843  43.4387636
  35.8639408  52.8740530  42.1751022  55.9282154   9.4380462  40.2418804
  56.0910278  10.0282192  40.9776926  56.7965525   9.1231865  39.9907112
  20.0204790  55.5838274  35.3762174  19.3674076  55.9105664  35.9950686
  19.5150459  55.3415852  34.6002746  12.8021687  45.6999349  14.7143606
  12.4814194  45.4364955  13.8518384  12.1550434  46.3317525  15.0278381
  40.1158714   3.8970315  43.2014418  40.7214355   4.1225457  42.4952793
  39.6379185   4.7079563  43.3752060  43.5514860  14.8969084  28.2383636
  43.0273753  15.6652838  28.0122093  44.4078951  15.0672776  27.8462223
  40.9339380  12.4409425  54.6255016  41.6997290  12.4529207  54.0513468
  40.1863289  12.4605501  54.0280676  28.8981032  15.3748536  49.4235182
  28.3092356  15.1596665  50.1468182  29.1774988  16.2729585  49.6012163
  10.5208958  44.0669756  39.6347952  10.9959782  43.7911826  40.4186773
  11.1954392  44.4314127  39.0617275  61.2598657   7.0292098  26.9951442
  61.7880022   6.9562608  26.2001709  61.3479637   6.1761648  27.4203304
  45.6479036  47.9133987  11.1363462  46.5128910  48.1515228  10.8026937
  45.0582230  48.0549550  10.3957609  37.6045680   7.9371554  41.4928865
  37.6605821   8.6175501  42.1638250  37.5246477   8.4187138  40.6695127
   6.5531557  26.1727350   4.7982076   6.1152333  26.6946679   5.4705528
   5.8749121  26.0083347   4.1430810   1.8903321  40.8528923   4.7014812
   1.0411328  40.4122298   4.6713451   2.1861285  40.7413357   5.6049732
  17.6099186  15.4792839  20.9840587  16.8394475  15.0089652  21.3025096
  18.1569796  15.5964428  21.7607358  43.9479828  10.0087738  54.5489311
  43.8264751   9.0990663  54.2770863  43.1512880  10.2220249  55.0347614
  44.0928638  56.6181379  51.1395502  44.3750513  55.7316070  50.9144640
  44.5523584  56.8157964  51.9556570  13.3691776  17.2992759  13.2858419
  13.0283082  16.9923501  12.4457002  12.6218308  17.7242284  13.7066984
  26.2364138  48.4951430  46.1388159  26.5205420  48.4308963  47.0506096
  25.5902708  47.7959590  46.0394573  11.5707410  34.0625577  10.6756687
  12.1046794  33.2793694  10.8089268  11.8902886  34.4331627   9.8530066
  42.9836643  45.5760663  37.3685503  43.5193623  45.7900982  38.1323838
  42.0876682  45.7733529  37.6415110  49.3652331  47.1629440   2.5311950
  50.0300014  47.2471666   1.8476585  48.5321962  47.2046565   2.0615772
  38.0402649  60.4607897  33.7373352  38.2157267  59.6922886  33.1943321
  37.6081026  61.0777538  33.1467223   4.0730208   4.1799938  24.4280628
   3.8665408   4.0371859  23.5043672   3.5268181   3.5483920  24.8960022
  59.8679530  41.1150926  27.8467563  60.5466902  41.5821415  28.3340076
  60.1635467  40.2047282  27.8370956  58.8668651  50.6652384  44.2057467
  59.7021872  51.1298614  44.1547918  58.6596531  50.4447549  43.2976246
   2.0766777  29.7587085  35.1037335   2.5378242  30.5892730  34.9865150
   1.1808135  30.0115538  35.3267336  68.2335711   3.5818785  42.5475788
  67.5383329   3.4820130  43.1978893  68.6613607   4.4063067  42.7789831
  16.7169815  16.2962270  29.0247416  17.3391968  16.8736219  28.5823727
  17.0778138  15.4178894  28.9040923  46.5287590  15.8799422  49.2177582
  47.4583864  15.8253825  48.9962864  46.0969210  15.3111196  48.5804272
  43.4589434   3.0986744  29.6521115  43.8344479   2.6869288  28.8738489
  44.0271616   2.8178760  30.3694081  55.7863695  62.8197692  25.5085874
  56.5003020  62.2006881  25.6611347  55.0076098  62.3741990  25.8421040
   9.1960705  47.2587626  34.6797895   8.7943924  48.0859321  34.4139338
   9.1818584  46.7203706  33.8884830  53.7775128   6.4783389  -0.0980374
  54.4294559   5.7823068  -0.0159308  52.9900544   6.1182767   0.3100017
  29.7486793   4.4342452   9.8802427  30.2138530   5.1149374   9.3939260
  28.8297020   4.5545155   9.6409849  59.7566759  39.0075015  11.9897083
  59.1135346  39.7156274  11.9556812  60.5827510  39.4440102  12.1977809
  55.0669205  50.7204687  10.8042625  55.8517944  50.3863882  11.2385372
  55.3860175  51.0809087   9.9769214  23.9174437  18.9651524   2.6341013
  24.8191750  19.1720831   2.3885540  23.4527768  18.8928043   1.8003849
  17.4846512  52.6312649  15.2421049  17.5327712  51.7812943  14.8045352
  17.1812736  53.2335317  14.5627883   5.4702109  27.7865740  34.0459732
   5.9556597  27.0872098  33.6084083   4.9948376  28.2256859  33.3406929
  28.4013724  14.9299693  28.9601517  27.9284334  15.3792310  29.6606660
  28.3014798  15.5015445  28.1988668  67.1556425  30.8752918  20.5515838
  67.5865936  30.0834513  20.2298665  66.2433958  30.6158209  20.6808519
  38.9160168  39.4199705   6.0688690  39.5777475  38.8110357   5.7409338
  38.7606513  40.0203162   5.3397087  17.0150333  47.4111211  17.3016027
  17.4365162  48.0784237  16.7600397  16.3953196  46.9808661  16.7124799
   9.2057263  20.1988553  14.9013284   9.3377614  21.1469042  14.9011901
   8.3653700  20.0741314  15.3423217  33.3793926  12.9679644  29.5392585
  33.2968926  12.0322287  29.3553400  32.5079989  13.2317066  29.8348045
   0.2816734  17.8029621  20.8877444  -0.4796806  17.9149413  20.3185058
   0.7493573  18.6360502  20.8288503  29.2876041  48.1383269  50.3163242
  29.2366541  48.4916823  51.2044573  29.6362055  48.8589173  49.7914886
  46.1268902  16.1390042  43.8927650  46.2381315  15.3988731  43.2960558
  46.1079931  16.9066572  43.3212900  55.9340525  22.4866414  27.0595384
  56.6676426  22.6885986  27.6402998  56.0957432  21.5877199  26.7731333
  21.5171504  17.3892164  46.2123919  21.4773273  17.0029545  45.3374958
  20.6056285  17.4182475  46.5031099   8.4573180  12.6397741  21.5478158
   9.2468506  12.4082518  22.0369720   8.2058293  13.4972548  21.8909049
  63.7330151  28.9142251  30.1364636  63.0557966  29.5797825  30.2574515
  64.5200586  29.3008184  30.5203176  30.4773844  60.3340026  28.8091660
  29.6665800  60.2883440  28.3024716  30.6825150  59.4221049  29.0155530
   4.2042261  22.4950266  38.1035447   4.2461735  22.2332287  37.1837974
   4.9987418  22.1298981  38.4929776  10.0860136  51.8141496   9.9450735
  10.2605170  52.2009623  10.8030656  10.8478754  52.0509231   9.4161705
  63.7440449  45.0656717  41.8507767  63.4802205  44.5562916  41.0845137
  63.8276095  44.4187110  42.5512695  51.7770338  48.4559345  53.7378263
  51.6872168  49.3934631  53.9087105  52.6577663  48.3619213  53.3749151
  42.9977942  11.1016977  32.3381662  43.6739063  10.7798553  32.9344201
  43.4473848  11.2046087  31.4994097  29.5208830  60.9734412  55.0692225
  29.9857289  60.1592308  54.8763180  28.7627978  60.6998616  55.5856466
  62.4022805  27.4872288  22.8211072  62.5941264  27.6042020  21.8906501
  62.1656882  28.3622306  23.1287244  61.1439883  30.3129351  15.1430133
  60.5785238  29.5566207  15.2994445  61.3721978  30.2535639  14.2153123
  32.3895174  61.0503208  13.9404777  32.7073335  60.1486837  13.9881948
  32.9084217  61.5219843  14.5920185  11.8928677  47.4288750  44.8187923
  11.6249997  47.8599215  44.0072060  12.5692612  48.0007076  45.1817417
  27.8939562  13.1375700   8.6854557  27.0877724  13.3242709   8.2043699
  27.8476076  12.2006899   8.8760856  41.8957758  30.6902671  47.7094650
  42.7472353  30.8177233  47.2911310  42.0051670  31.0499477  48.5897446
  56.9899178   2.2379278  16.1315429  57.6568460   1.6325301  16.4554739
  56.9422579   2.0613830  15.1919723  57.3075199  -0.2758780  47.2600794
  56.3635683  -0.1196711  47.2320032  57.6493073   0.4222316  47.8186989
  49.3432199  19.1374087  22.7915958  49.6103513  19.8370444  23.3877328
  50.1193988  18.9684224  22.2575334  44.6378136   5.6460303  17.3471272
  45.4000759   5.0998837  17.1550107  44.2582655   5.2586216  18.1358540
  67.6211607  59.5869600   1.0539106  67.2860109  59.8269498   1.9178060
  68.5725128  59.6467530   1.1410001  26.1101275   0.4375369  16.9004777
  25.3064232   0.3279239  17.4086860  26.7978459   0.5380684  17.5586322
  50.7786309  41.9057220  24.7059730  50.3724396  42.6842141  25.0870136
  50.7070696  42.0366722  23.7604717  65.3365337  46.3108956   7.2658590
  65.8182442  47.0995044   7.0162872  64.9727070  46.5150582   8.1273559
  14.4993382  22.4407298   8.3462575  14.5338111  22.1065432   9.2425636
  13.7237602  23.0014664   8.3293680   1.2155169  64.3143212  18.5909132
   1.3383072  63.5911405  19.2058662   0.3568238  64.1530692  18.1999258
  11.0298449  63.5589647   1.4483353  10.9480816  64.5099497   1.5202701
  11.1652666  63.4001923   0.5141594  65.3726559   6.2738425  19.5106367
  64.7773915   6.9951540  19.3066553  65.4948788   6.3249570  20.4586223
  -0.1222259   9.8788249   9.6367553   0.8059519  10.0467073   9.7996429
  -0.1967222   9.8505771   8.6828760  43.2249486  12.0989000   9.6734193
  43.6590135  11.2460291   9.6941474  42.9772174  12.2637414  10.5831913
  33.1669259  57.7774894   7.3539785  34.0642666  58.0453455   7.5521282
  33.2540595  56.8934786   6.9973758  59.0012895  20.2870852  12.5603632
  59.5807969  20.4617316  13.3019165  59.5867442  20.2412754  11.8044666
  13.9447694  11.4939839  14.2673067  13.2158785  11.9065720  14.7306875
  13.5272627  10.8860833  13.6570838  41.5519064   1.5995783  46.2098980
  42.0799654   0.9701390  46.7010117  41.6101759   2.4088950  46.7176819
   4.2432219  10.8621454   5.5797136   4.0939099  11.2688100   4.7261548
   4.4636876  11.5925658   6.1577386  26.4193552  54.5563852   9.2037824
  25.8364743  55.3156030   9.1954425  26.9625920  54.6800291   9.9821380
  58.7407243  61.1416685   7.7705005  58.9210116  60.2025210   7.7289060
  57.7854764  61.2019813   7.7801040  50.8525467  30.5165029  31.5779185
  50.7725811  31.2550831  32.1815228  49.9708223  30.1465559  31.5339589
  35.1858807   3.6193433  43.3166409  35.8629608   3.8337961  42.6749229
  34.6022582   4.3780208  43.3116579   6.2213856  15.5585408  39.1509795
   6.2205798  16.0157406  39.9919319   5.4547840  14.9865794  39.1885853
  11.3755232  51.8777275  16.6546440  11.1902100  51.0625982  16.1883235
  11.4865452  52.5296450  15.9626102  58.6713982  23.3060455  28.3235955
  58.9352369  24.2191434  28.2101321  59.4273901  22.7996135  28.0265594
  57.1071148  36.2704277  32.0856261  56.5857649  35.8035970  32.7386928
  56.5113163  36.3929820  31.3465476  22.7008503  43.2966387  20.5757574
  21.9556969  42.6958632  20.5827621  22.4474305  43.9995408  21.1740402
  21.3771468  30.2034193  16.0186866  22.3029309  30.0038105  16.1576465
  21.2759667  30.2201754  15.0669960  67.9712593  48.4231018   1.4335350
  67.9110252  48.8534617   0.5806592  67.9405605  47.4877476   1.2325338
   0.3821677  52.8224098   4.3693260   0.2494067  52.1237599   3.7286285
  -0.4107458  53.3553612   4.3102983  53.3008611  59.8732149  35.6080631
  53.9003503  60.5582892  35.3122333  52.7086484  59.7373974  34.8684219
  45.5134773  12.2685528  53.5324192  44.8921680  12.2384667  52.8048849
  45.2518225  11.5442920  54.1009378   0.2289492  14.4157255  28.3442283
   0.8656317  14.8772717  27.7984738  -0.3870767  15.0945687  28.6197472
  66.4410185   2.7756554  15.2427009  66.9885420   2.6817852  16.0222152
  66.3842582   1.8908721  14.8819164  39.1736317  29.7622514  47.9258633
  40.0084877  30.2286196  47.8840923  38.6373782  30.2840900  48.5228109
  48.2218921  52.8219354  21.9600919  48.6244928  52.6473629  21.1094049
  47.4511706  52.2546875  21.9812444  40.4897774  51.0428887  44.1054249
  41.0998381  51.5849739  44.6056271  40.3619135  51.5202742  43.2856798
  22.0334452  34.7677418   5.5106214  21.6000241  35.2053266   4.7778848
  22.9515808  34.7103255   5.2461246  54.0922165  30.6036735  40.3590107
  54.9134064  30.6068659  39.8672080  53.4188080  30.4363108  39.6996570
  38.0732632  25.2475119  35.2128553  37.3047185  24.6802759  35.2746201
  37.8884912  25.9676743  35.8157301   4.7208088  52.3434317   0.3998235
   3.9991015  51.7337799   0.5537561   4.8322075  52.3475635  -0.5508658
   8.2651776  37.3811233   1.4501003   7.4894398  36.9482475   1.0936121
   8.5114163  38.0201905   0.7813791   2.3055523  54.8379790   4.6564106
   3.0914944  54.5144832   4.2160944   1.6797226  54.1167747   4.5898679
  33.0079203   9.7191006   4.5301012  33.7340575   9.3306166   5.0179866
  32.4270420  10.0707585   5.2047542  46.7985093  27.4905064   5.5808261
  45.8477246  27.5141474   5.4727367  47.1429336  27.7763211   4.7347120
  26.9577246  13.2316500   5.2442649  27.0876293  13.3260209   4.3006280
  27.8001910  13.4756524   5.6275991  61.5057039  30.9638262  49.4870758
  61.8017626  31.2693214  48.6296082  60.6070662  30.6691837  49.3391991
  20.8558111  22.3368174   5.9763340  20.7953577  21.5719563   5.4040006
  20.8963709  21.9718892   6.8603138  62.2379149  34.4125324  17.5497091
  61.8667734  34.0309935  16.7541504  62.7186811  35.1819520  17.2445977
   6.9535214  36.2623429  45.2502680   7.3718411  35.9782982  44.4375181
   6.0188872  36.2815976  45.0445652  27.4485045   6.1636740  11.5571025
  27.9271202   5.7298953  12.2634986  27.6023083   7.0973116  11.7016653
  65.7793343  58.4834873  10.6053737  65.5904734  58.3837044  11.5384344
  65.4313719  57.6871716  10.2040771  43.8575381  59.9799954  10.2762512
  43.7505930  59.6360886   9.3893913  43.0406969  60.4469597  10.4521802
  33.3999681  57.5312138  42.9546881  33.1088185  58.3755255  42.6102924
  32.6350522  57.1826839  43.4125757  55.8316278  28.3771515  44.6461201
  55.0563669  28.4153986  44.0859985  55.6456518  28.9930177  45.3548908
  53.4093647  12.9323584   4.1910032  53.4379177  13.0455452   5.1410583
  53.8447028  12.0940072   4.0364841   5.5105358  19.8218787   6.0583133
   5.0701290  20.3280067   6.7410368   6.3988215  19.6931982   6.3909113
  18.4464909  59.2007607  55.7503308  18.4546734  59.4123810  54.8168527
  19.0871407  58.4954518  55.8416529  16.7158484  14.6501195  45.7935238
  16.7773330  13.7799978  45.3993940  16.3518202  15.2015722  45.1009798
  42.3009884  60.0696885   4.9124197  41.8857061  60.1761066   4.0565876
  41.8656039  59.3089020   5.2969650  47.9513920  60.2577644  50.9396458
  48.8707245  60.3589758  50.6930351  47.9580725  59.5808377  51.6163731
   3.2908684  37.2469759  16.7039251   3.0351931  36.3472533  16.9073069
   2.5105053  37.6338005  16.3069034  62.0324421  22.3830986  36.3982391
  62.9767990  22.2449899  36.3250947  61.9196129  22.8262544  37.2391391
  38.9196038  58.3163166  20.9832525  38.9616084  58.3847666  21.9370770
  39.6692014  57.7690220  20.7491565  44.1415298  25.0432234  54.3431902
  43.7418068  24.9984842  55.2117825  45.0651825  24.8422938  54.4939566
   9.2057770  63.3408915  41.5344051   9.2595166  62.6105439  40.9180168
   9.2383021  62.9286301  42.3976615  41.6109943   9.3949848  52.6459932
  41.4983892   9.2924589  53.5910034  40.9170341  10.0010347  52.3864555
  20.0473631  63.3483934  50.5825424  20.8470858  63.8397072  50.7703829
  19.9826086  62.7141794  51.2965536  30.8901720  21.6779953   7.7215627
  31.8276244  21.8059594   7.8666214  30.8309155  21.3283831   6.8324665
  57.0955925   0.7923728   9.4776920  57.3351651  -0.0828022   9.7825054
  57.4260502   1.3811141  10.1562313  66.0001575  37.1078070  18.8147977
  66.4199411  37.5413042  19.5578245  66.1140739  37.7178156  18.0859998
  60.0084352  19.9920893  23.0695772  59.9543953  20.5486441  22.2926879
  59.3943739  19.2785692  22.8962350  57.2503966  60.6359994   4.6403364
  56.6833227  60.1301825   4.0582708  57.9797095  60.0474488   4.8351291
  66.0620546  17.3295498  49.9115992  65.3953934  17.1884263  49.2393780
  66.5180874  16.4904737  49.9765396  52.8830194  36.6508651  39.7997260
  52.4765968  36.9846654  40.5994940  52.9090881  35.7019138  39.9223781
  37.1342831   0.4753477   5.6218103  36.2940436   0.8593065   5.8724168
  37.5649815   1.1572415   5.1062969   0.8922995  62.9521888  47.3218489
  -0.0457084  62.8299347  47.4682283   0.9966577  62.8899492  46.3723946
  55.3276491  35.3588820  49.9712181  55.0945997  35.4985094  49.0533829
  54.7758865  35.9737706  50.4546452  50.4368782  13.2880139  49.3974495
  50.3125334  12.5577199  50.0036192  49.8213196  13.1154263  48.6850357
  55.1489782  23.2637000   2.8617793  54.6992874  23.6135483   2.0926136
  54.6722364  23.6315084   3.6058652  12.9990929  60.4132854  15.1278451
  13.1705922  60.4745781  14.1881279  13.7268275  60.8830082  15.5352644
  53.8259297   5.8022601  28.7147525  53.1642949   5.9718448  29.3853572
  54.0340923   4.8731715  28.8132099  13.9367825  34.0592122  53.5291767
  13.7130982  33.5320616  54.2961931  14.2240578  34.8977971  53.8903952
   4.0787798  44.5439720  22.3295760   4.0566403  45.3903770  22.7760482
   3.3704668  44.5932007  21.6876245  51.5378380  52.3275757  29.7100711
  50.7414961  52.5611210  30.1870751  52.0087385  51.7415190  30.3025389
  58.8108807   9.0964896   6.2284997  58.4160881   8.4328896   6.7941907
  59.2759972   8.5946566   5.5591253  52.8390408  22.4999690  47.6471996
  52.3065472  22.6799750  48.4219742  53.5321522  21.9199157  47.9624224
  28.5820036  18.2927329  10.5176071  28.9938145  17.4295670  10.4778436
  29.2389612  18.8883692  10.1572517  65.3430891  51.5622044  24.3546104
  65.0102711  51.4518261  23.4639478  65.7889700  52.4090910  24.3404436
  43.5989313  34.5464426   4.2905286  43.1598454  33.7077719   4.4321970
  43.8943987  34.5114333   3.3807472  23.1642491  57.1504021  19.8070598
  22.6128441  57.1592951  19.0246892  22.6122815  57.5252914  20.4933739
  46.3983590  59.8993015  43.3643532  47.2015530  59.3818712  43.3062458
  46.6021496  60.5876064  43.9975452  53.3024788  55.2542782  36.1805010
  52.8267765  55.2183151  37.0103455  54.1049337  55.7343435  36.3850403
  51.0734940  17.4312425  18.6260998  51.3124990  17.9908442  17.8872108
  50.8862400  18.0423546  19.3386376  63.4169006  12.4698257   1.6365629
  64.1629934  13.0452514   1.8052666  62.8132391  12.6422727   2.3591179
  42.3082531  47.4352460  40.8874321  41.6538084  47.2942179  40.2032948
  41.8234957  47.8507011  41.6006184  49.2350864  43.8776827  52.8407001
  48.7849855  44.6401405  52.4769688  50.1125193  44.1961098  53.0527067
  34.7838526  25.5455309  26.4367965  34.6987372  26.4972741  26.3805011
  35.4914551  25.4051453  27.0659450  55.1704502  23.9483976  42.6292944
  55.1022196  23.6912870  43.5487890  55.4868650  23.1625485  42.1836996
  39.2036915  50.5513954  40.0540829  39.9391055  51.1336374  40.2448416
  38.6340094  51.0648441  39.4813156  53.0990016   9.5799870  54.1017056
  52.7302157   9.5293231  53.2198524  53.9946281   9.8907084  53.9692831
  46.8011570  14.6851420  54.4648027  46.3764429  14.0478921  53.8905525
  46.7422009  15.5133617  53.9885569  64.8190641  17.6804852  40.3357267
  65.1411200  18.5742021  40.4531240  64.8727179  17.2900379  41.2080240
  11.6766888  10.0100124  25.9172297  11.2412602   9.5680791  25.1883054
  12.1036106  10.7676876  25.5173564  53.3238923  28.9500041  32.5144649
  53.5381376  28.0475420  32.2780561  52.3854362  29.0263934  32.3421264
  33.9897375   8.7281281   8.9499334  33.9154749   9.6803910   9.0124992
  34.6303397   8.4932238   9.6212581  10.4989678  39.7135997  50.9137106
  11.4123398  39.9058652  50.7015324  10.0888735  40.5733538  51.0079336
  59.9189758  51.7856121   7.9254007  60.6554937  52.3867989   7.8142530
  59.7244978  51.8157148   8.8621521  47.9126226  61.8621933   4.9435905
  47.6576578  61.8021666   4.0229276  47.4387967  62.6254141   5.2740625
  17.4685364  38.6587388  17.6942543  16.5719657  38.8545710  17.4221424
  17.4140673  37.7890307  18.0903295  30.8340817   0.7714850   5.4156831
  31.1084776   0.6137806   4.5123151  29.9084883   0.5280191   5.4308275
   5.4533547  56.4387619  16.9003156   5.5467480  57.2311937  17.4290470
   5.0679940  55.7969009  17.4967578  10.6679219   0.7945342  19.1503930
  11.3076752   0.5699343  19.8260438  11.1108416   1.4478344  18.6088610
  55.5124235  26.5358853  47.8760529  55.6129980  25.6080270  47.6634550
  56.3410616  26.7780566  48.2895088  54.2228651  36.4972067  47.7423334
  53.3127356  36.7350602  47.9193306  54.5495415  37.2007155  47.1814489
  58.1997204  54.0530634  48.6079597  58.3495378  53.9402390  47.6693106
  59.0761137  54.1502762  48.9804029  13.4675746  10.8953768  29.9760917
  12.8654843  11.5723664  30.2849678  12.9048376  10.1471096  29.7769455
  34.7874575  47.5529868   1.5657238  34.0418511  47.0139176   1.3017038
  35.3108530  46.9799429   2.1260026  16.1005455  21.6584063  42.4394321
  16.0255295  21.6297722  43.3932590  16.5050084  22.5064158  42.2563410
  63.2387077  57.3345100  14.6959594  63.0972969  56.7300856  13.9673284
  62.6184785  58.0467426  14.5401529  33.4520226   4.1456944   9.2540983
  33.0697756   3.6108452   9.9498371  33.0245905   3.8393957   8.4542755
  22.8549414  39.3831307   5.0156120  23.3123665  39.6861321   5.7999471
  22.0012122  39.0902430   5.3343586  21.2596661  27.3920608  51.6665125
  20.3287655  27.2026277  51.5491390  21.3266236  27.7169561  52.5643969
   1.8253285  36.6652799  50.5804300   1.1717183  36.1219358  50.1401949
   2.6603657  36.2389278  50.3876448  58.7644397   8.6091381  24.1722301
  59.1922127   8.6913163  23.3198885  59.1643940   7.8343922  24.5672420
  29.8682809  24.3593884  22.3698807  29.8456621  24.0405035  23.2721162
  29.0162015  24.1156197  22.0082593   5.3864449  59.7603738   3.8957838
   5.1629370  59.6436727   2.9723886   5.4334992  58.8704502   4.2451433
  15.6166320  18.7109858  13.8422826  14.9940424  18.0092007  13.6522583
  15.0707774  19.4860512  13.9747718  58.5990715  40.8677673  35.7322025
  58.2286453  41.7492533  35.7768869  57.8458691  40.2993011  35.5716825
  63.8023281  28.7746358  33.6187935  63.9119291  29.7254300  33.6333561
  64.1995621  28.5003805  32.7922201  52.3714953  16.4319807   2.9135755
  53.0263739  16.7511946   3.5344318  52.0117646  15.6472880   3.3271984
  27.4595290  13.4613520   2.5799707  26.8419342  13.4129101   1.8502763
  28.2525282  13.0380064   2.2510913  51.3624668  18.2304215  45.7915974
  50.6363630  18.0202579  45.2043724  51.8825483  17.4275863  45.8262539
  30.4610515  60.4701900  34.1258669  29.7001624  60.0806808  34.5566344
  31.1700010  60.3777504  34.7623229  52.1862328  49.3153381  27.7425006
  51.7506635  50.0997531  28.0759719  51.5703189  48.9514255  27.1065429
   8.0051094  46.0408354  32.4130917   7.0612580  46.1060429  32.2677588
   8.3362633  45.5887461  31.6370869  64.8679781  56.3448000  28.5686040
  64.4439936  56.0695457  29.3814397  64.1446829  56.5976858  27.9949093
  65.9744167  32.1498227  37.7727127  66.7186069  32.1494341  38.3747196
  65.9623718  33.0344677  37.4073482  56.3982142  23.1775463  48.4934362
  57.1559799  23.0079687  49.0531328  55.6807697  22.7006662  48.9106747
  68.3655989   5.9616942  48.7981558  68.4532129   5.8068270  47.8576374
  67.4403011   5.8000464  48.9823341   3.4524304  22.2832918  14.5151949
   3.6268145  21.5745950  15.1345253   4.3198401  22.6005030  14.2637706
   9.9733931  28.9844275  40.6535053   9.3394572  29.5118380  41.1395073
  10.7884604  29.0744495  41.1472559  54.1157246  31.6589952  32.4545932
  54.6178961  31.6969466  31.6405797  53.7122202  30.7910347  32.4468446
  62.1051693  13.0802429  10.0772011  62.8578091  12.6358664   9.6869498
  61.7762947  12.4642158  10.7318628  15.8469968  34.0517193   7.4530223
  16.2874084  34.7625262   6.9871667  16.3399463  33.2668930   7.2136882
  10.2747256  35.3216624  47.9538965  10.2416951  36.2755060  48.0268526
  11.2047154  35.1216578  47.8473806  67.4844265  41.0695028  29.1223741
  67.5846291  40.1251364  29.2422152  67.4444771  41.1875963  28.1733274
  64.0745460   4.8868937  36.8611598  64.1397631   4.7016949  35.9243131
  63.1396496   4.8174853  37.0545125  61.5847111  54.3961382  47.1576500
  61.6300154  53.7397909  47.8529119  62.4789476  54.4500351  46.8205118
  59.3290043  30.1515794  48.0543947  58.4863520  30.5327749  48.3011007
  59.1309071  29.6038604  47.2947931  26.7850046  19.1772801  14.9037746
  26.9509535  19.9813277  15.3959087  25.8723049  19.2511898  14.6249345
   7.4479014  43.4821987  45.0907183   6.8897349  44.0076780  44.5175219
   7.0879465  43.6193991  45.9669828   0.3490645  35.0548244  48.9737129
   0.9636456  34.3705416  48.7086105  -0.5058664  34.6243763  48.9676237
  48.6426592  55.2680397  42.6833344  49.0111589  55.0349283  41.8312216
  47.6951742  55.2411509  42.5500011  54.4025850  47.2917652  50.1909781
  54.0358925  47.4819708  51.0544586  54.3778658  48.1304216  49.7302389
  21.7421322  16.5641457   1.5100912  21.4431267  15.8030516   1.0125354
  20.9875136  17.1528632   1.5238145  63.5741758  18.9564133  44.1922569
  62.7525234  18.6101341  43.8440990  63.7837124  19.6954691  43.6211872
  62.0997655  57.1185386  10.4143861  62.6349747  56.9128453   9.6479181
  62.3904335  56.4982259  11.0829357  33.9868193  35.0766665   7.8611711
  34.5276146  35.4895884   7.1879200  33.4870415  34.4093234   7.3909524
  48.0775309  31.1102414  48.0719614  48.1480122  31.8582845  48.6650038
  47.4952173  31.4115214  47.3745584  41.0589361  56.5935993  20.6829357
  41.7688322  56.3829279  21.2894797  41.4066172  57.3050117  20.1451254
  37.3348308  62.3343086  15.9615886  37.0799065  62.4970245  15.0534213
  37.0118594  61.4524603  16.1466908   4.9760216  52.4107325  41.8574527
   5.4047316  52.7704489  41.0808948   4.1184252  52.1219134  41.5454391
  11.1025149  11.5301001  46.6625547  10.4917961  11.1645019  47.3025513
  10.8244854  11.1571646  45.8259869  30.2766114  28.8745457   2.2055582
  30.1681309  29.6742159   1.6907791  31.1751538  28.9200932   2.5323204
  42.0113306  30.1638848  16.8088678  42.4347859  30.2915293  15.9599737
  42.2520094  30.9394556  17.3156169  48.9093399  46.2573957  49.9238777
  49.0595865  47.0119238  49.3543625  47.9571581  46.2060738  50.0072384
  32.0199948  46.1180502  15.9829858  31.5625649  45.7388503  15.2325204
  32.1024781  45.3942639  16.6039232  53.4817505  62.0199203  19.3799448
  52.9480505  62.2355938  20.1447225  54.3328571  61.7751169  19.7431505
   9.5969874  55.3644228  34.6560192  10.2848488  56.0235834  34.7486830
  10.0088316  54.6564913  34.1605949  45.1667070  49.7771168  50.4223728
  44.5199966  49.7289896  51.1264181  44.8476791  50.4760599  49.8514700
  55.1428080  57.7914190  34.3056273  54.4340992  58.3512783  33.9885855
  54.9106979  57.6030350  35.2149510  42.1109152  16.9211888  55.3192520
  41.4729309  17.6196802  55.4652548  42.7452564  17.0240784  56.0286570
  17.3768156  49.7704672   5.4082349  17.6077860  49.5107495   6.3001064
  17.4784535  50.7222354   5.4020170   0.8193236  14.4847685  10.1814750
   1.0836058  15.2678591  10.6643346  -0.1375265  14.5082718  10.1922706
  10.7566333  44.0618944  35.3064370  11.2425566  44.4320393  34.5694828
  11.3698769  44.0988922  36.0404634  17.9520541   2.3847681  11.6221622
  17.7160769   3.2903201  11.8234638  17.4642449   2.1819216  10.8239559
  14.1615975  59.1660684  49.9148512  13.3895171  59.4617658  50.3972244
  14.7770823  59.8965158  49.9769449  42.7135754  10.9746361  40.0987720
  41.8559504  11.2593305  40.4144621  42.6636028  10.0187421  40.0988245
  15.3275090  13.8176018  24.5475009  16.2355142  13.9150101  24.8343280
  14.8072892  14.1127783  25.2948097  64.2044163  42.1116877  49.5294952
  65.0011587  42.2797346  49.0263128  64.0730572  41.1660004  49.4612885
  24.4468373  53.3526051  34.5791439  24.3661469  52.6591956  35.2340511
  25.2644080  53.1561076  34.1217617  45.5131245  27.7276492  27.6827621
  45.3247738  27.6161885  26.7509198  46.3489103  28.1937385  27.7041054
  50.4683094  10.1171309   6.4391569  51.1758356   9.9914509   7.0714906
  50.7479220   9.6265799   5.6662324   5.2606362  34.9754053  11.0380796
   6.1765736  35.0060251  10.7617477   4.8446530  34.3723040  10.4220775
  65.7589674   9.6061748  40.4966021  66.6435528   9.6798021  40.1383877
  65.4391050  10.5076551  40.5320263  16.9626063   4.3710751  27.2049904
  17.2827452   4.8252625  27.9843831  17.7555149   4.0781779  26.7558289
  16.0801082   7.9588467  24.3102077  16.9409256   7.8410989  23.9085105
  15.8920198   8.8914162  24.2045120  45.6600647  35.9104306  23.9545301
  46.3072710  36.5980345  23.7978128  46.0032015  35.4250294  24.7047809
   7.4755722  12.5902808  44.2909241   7.9548985  11.8423891  44.6474838
   7.4075705  12.4065542  43.3539867  50.3244019  37.7212524  22.5593662
  50.5620623  37.0725870  23.2219267  51.0441065  38.3521867  22.5728893
  19.0294606  60.5928707  14.3575537  18.2110936  60.1187420  14.5049155
  18.8521534  61.4798069  14.6708322  18.8655728   0.6485791  18.2387173
  19.0976113   0.9730429  19.1088378  17.9097861   0.6939120  18.2132173
  66.2592602  57.2958803  38.4777451  65.7560349  58.1094360  38.5112190
  65.7096624  56.6948175  37.9748583  67.3364138  50.7238776  10.7266477
  67.0446705  49.8198611  10.6088499  67.5411176  50.7898814  11.6593698
  60.0348330  58.3437347  47.7168083  59.1094303  58.5038757  47.9017782
  60.3796959  57.9688931  48.5272360  48.3426428  31.2809896  44.5526266
  48.6225843  31.1840510  43.6424255  48.1232357  30.3920507  44.8317003
  51.9404554  32.8595066  46.0837936  51.1165667  33.2217598  45.7578802
  51.7404747  31.9429660  46.2740326   6.4085632  11.5198714  19.7145656
   5.7486921  12.1870953  19.5258525   6.9825344  11.9273716  20.3632024
  10.4653078  60.5917120  34.8469615  10.6646067  60.5026817  35.7789421
   9.7170597  61.1879635  34.8179364  52.7151871  63.0651999  29.8921204
  52.3776770  62.2265625  30.2067733  53.3842134  62.8283453  29.2498302
   6.2500388  22.4005508  35.3015399   6.8416745  22.2743869  36.0433483
   5.5944497  21.7097855  35.3978705  24.7715872  56.4593660   6.9756940
  24.6321553  56.6505849   7.9031805  24.2247456  55.6926572   6.8043712
  63.9958084  30.5347419  36.6868114  63.1586027  30.5745101  37.1491289
  64.5612141  31.1432719  37.1624589  21.3669831  45.0835752  55.6785488
  20.5792958  44.6870565  56.0507727  21.8156201  44.3599463  55.2411461
   8.5317618  46.9986343  27.3221040   8.4334237  47.9460859  27.4164200
   7.8169972  46.7404032  26.7401600   3.9206654  44.6596241  34.8786044
   4.2194086  45.4793549  35.2723360   3.2127673  44.3631697  35.4506445
  42.5635338  29.4533038  41.6695261  41.6374493  29.6297073  41.5037489
  43.0225611  29.8881435  40.9508944  63.1797617   2.2769923  29.3789530
  63.6405390   1.4387459  29.4144893  62.3792189   2.1318240  29.8832154
   0.9680479  42.7395033   1.3038877   0.3934592  42.3428368   1.9586662
   1.1194485  43.6283945   1.6251091  22.3279541   4.7851843  49.7994328
  23.0593460   4.1690917  49.8409319  22.1333092   4.8633284  48.8654995
  52.2269809  50.3332757  31.4628986  52.0403039  49.4010066  31.3521865
  52.9530584  50.3598010  32.0860675  47.3210364  28.2195813   3.1061557
  46.7516117  28.2430083   2.3371080  48.2082920  28.2114703   2.7470687
  29.5953732   3.5272533   4.3486885  30.4314261   3.2028514   4.6833662
  28.9353590   3.0755216   4.8745731  11.2134844  35.4947639  34.9416256
  10.4166275  35.7699442  34.4882703  11.6550118  34.9160814  34.3200088
   4.1919905  45.4114819  26.6083574   3.3202130  45.6461382  26.2902832
   4.2448288  45.8089399  27.4775338   1.4331490  57.3711014  35.1684022
   2.1502358  56.9089508  35.6024957   0.9599930  57.8017569  35.8803678
  17.6149767   5.3438134  17.6727581  17.3330515   6.2104697  17.3800886
  18.3065766   5.0969214  17.0587862  39.7439313  56.9798279   9.4971186
  39.2566562  57.7789021   9.6978140  40.2826071  57.2114277   8.7405324
  64.1021061  41.1881065  46.4054298  63.7925482  42.0382500  46.7179251
  64.6357965  40.8486652  47.1238899  50.1392328  13.5224909  27.7976584
  49.6029531  13.8550753  27.0779204  50.0468814  12.5711865  27.7454138
  38.5557604  42.4641275  23.9867759  39.3566084  41.9757938  24.1775751
  38.0656171  42.4509907  24.8088574  58.5740292  16.1875147  42.8626490
  57.9079926  16.8683619  42.7673197  58.9646613  16.1110301  41.9921398
  28.0185824   2.8101689  25.6628040  27.2263508   2.5036317  25.2216342
  27.9469471   2.4633509  26.5520862  17.4076872  27.9776770   8.3191684
  18.2578450  28.0861622   8.7454275  17.5648384  28.2193142   7.4063972
  10.4230457  39.3317706  13.8613800  10.8023911  38.9825064  13.0549434
   9.8160367  38.6521584  14.1544679  21.1360794  58.5358047  23.7394047
  20.5431420  58.1261635  23.1094408  20.5748421  58.7720966  24.4779253
  14.6893364  48.5273695  45.1337576  14.6193177  48.7926817  44.2167330
  15.5646187  48.1468630  45.2068377  60.5264187  25.6557369  47.7682114
  59.8886061  25.0955200  47.3259592  60.2698851  26.5462327  47.5285435
  53.5270023  53.9346266  32.7234316  54.2687273  54.4508839  33.0389619
  52.8001070  54.1868830  33.2928348  59.8785382  23.8314778   1.5573743
  59.1662197  23.8749701   0.9194473  59.5423298  23.2672602   2.2536949
   2.1253306  33.6308527  27.6984549   2.9988676  33.9220142  27.9599643
   1.7738968  33.1986713  28.4768796   5.3390795  30.7532382  35.7300639
   6.0589320  31.1589742  35.2469277   5.7395560  30.0051785  36.1730671
  47.9671097  51.1006880  46.0774040  47.1676970  50.5864573  46.1902714
  47.6594210  51.9647455  45.8036089  13.3639103  52.8825235  41.3536215
  13.0362374  53.4808969  42.0250463  13.0354744  52.0231199  41.6177845
  53.0356156  14.9143977  44.1256714  53.0711257  15.1808638  45.0443459
  53.9527547  14.8258299  43.8663530  17.7938956  59.8135125  18.2049182
  17.7623099  59.4204175  19.0771059  16.9701117  60.2950608  18.1292585
  49.9740564  17.8792471  49.9675035  49.6735107  17.5857539  50.8276033
  49.6101272  18.7596316  49.8741961  55.2606916  48.7126493  31.9253159
  55.1717710  47.9054737  31.4185667  54.8653269  49.3870211  31.3729262
  25.1580458   4.7549254  10.9282735  25.7991772   5.3788954  11.2686256
  24.7620325   4.3683845  11.7092947  50.5433464  34.9622726  43.4258080
  50.9847832  34.1271901  43.2708788  49.7712755  34.7327352  43.9429665
  37.4685030   0.6707102  15.8721450  37.7761107   0.7810456  16.7718318
  36.6486054   0.1841480  15.9573177  34.9217337   5.0118727  18.7195289
  35.2036208   4.5351691  19.5002484  35.7032603   5.0522227  18.1683302
  21.8745117  18.6938292  11.0458663  20.9900313  18.5977370  11.3989833
  22.2798519  17.8369290  11.1787323  22.1403366  34.8973250  51.6566896
  22.8190857  34.2569923  51.8700027  22.0824677  34.8758197  50.7014847
  49.7596359  26.9123125  54.0965176  48.8540602  26.8585825  53.7911034
  49.9026966  26.0913324  54.5674324  22.6758552  13.8780379   7.4612236
  22.9169416  13.7203014   6.5484101  23.5029554  13.8246143   7.9400611
  56.7541885  27.8678465  52.0578527  57.4903107  28.2626128  52.5253153
  56.0074043  28.4274936  52.2707748  57.5128651  24.3646073  35.8363819
  57.5672007  24.9178600  36.6156054  58.2385778  24.6562004  35.2845240
  14.8108821  31.7159802  29.3946937  15.3771000  31.4465720  28.6714748
  15.4103022  32.0840889  30.0438694  48.2402658  25.2153420   7.3681229
  48.3416700  24.9107265   8.2698756  48.3079195  24.4212127   6.8380153
  57.5417614  41.2929726  54.3028402  57.0704889  40.7142544  54.9021864
  57.8401089  42.0166826  54.8537159  12.5461823  55.2336979  38.7003708
  13.2433564  55.0534964  38.0697322  12.9985768  55.3193712  39.5395565
  60.0380325  22.4383116  45.4873180  60.1421452  21.9665265  46.3136435
  59.2326784  22.9433012  45.5996656   8.4217172  48.4167868  24.1299346
   7.8395849  47.7478272  24.4902805   7.8968792  49.2172724  24.1318944
  63.2564162  24.9723345  23.3317045  63.1234287  25.8253342  22.9182533
  63.8459085  25.1506430  24.0644649  43.9809799  31.1465573  54.9127007
  43.2786322  30.8556056  54.3310785  43.6785316  31.9896054  55.2503777
  55.8126116  45.7362890  47.4755859  54.8896217  45.4837370  47.4987602
  55.7980728  46.6909838  47.4079037  23.3839280  60.3432417  20.1704264
  23.8788372  59.9640751  19.4441199  23.8423497  61.1588240  20.3726816
  13.0803113  27.0696408  32.0719913  13.7816172  26.8389708  31.4627365
  13.5279398  27.4992472  32.8008941  22.0690888   9.3476338  52.6287222
  21.7766779   8.4741683  52.8890800  22.1331757   9.3042702  51.6746521
  38.8846606   1.5927357  42.6895761  39.4029826   2.3823781  42.8446102
  39.3732565   0.8957285  43.1273937  19.3418843  36.1394739  25.7548594
  19.3642384  35.5524087  24.9991560  18.4140831  36.2028384  25.9815645
  29.6326666   5.0789434   2.2293094  29.5408039   4.4412953   2.9372648
  29.7015124   4.5477802   1.4359907  39.0651917  56.8844175  51.9853306
  39.1996574  57.7405071  52.3918629  39.9404621  56.4992762  51.9429207
  40.6504869  45.8036184  23.8128805  40.9820938  45.3231716  23.0543041
  39.7710586  45.4526091  23.9529872  49.4599009  54.9980593  54.2381096
  48.7182951  54.4667625  53.9483261  49.3124437  55.8543825  53.8366175
  55.9861517  52.1255302  22.7050805  55.3342104  52.8212738  22.6205564
  56.8270779  52.5720072  22.6064277  56.8821610  43.8803471  49.5326957
  56.7589987  44.6555651  48.9848819  56.9229830  44.2222345  50.4258248
  20.9823590  21.4722830   8.5420850  20.0968628  21.5729577   8.8913587
  21.5397625  21.4074713   9.3175367  49.4885218  17.3701663  55.2001381
  49.9126732  17.2391505  56.0481739  48.5786974  17.5743384  55.4163933
  61.8420792  22.9631734  29.8515630  62.0631456  22.1237493  29.4481635
  62.0772362  23.6153793  29.1915941  52.5695610   2.5082728  34.0875316
  52.2457981   1.7891437  34.6299911  53.5212326   2.4707499  34.1831517
  18.7330550  55.4891884   9.4639257  19.0996903  54.8472011  10.0719265
  18.2402962  54.9660789   8.8316444  16.0347992  41.8330097  46.0256338
  15.8950192  40.9150314  46.2580395  16.0681206  42.2903919  46.8658257
  16.8905121  56.6866636  26.6138768  16.1000592  56.5574074  27.1380043
  16.5807587  57.1118116  25.8141661   9.5449417  10.4249854  39.0622377
  10.5017012  10.3963418  39.0669227   9.3030470  10.2021880  38.1633043
  60.7026827  53.7752044  17.6697973  60.4428994  53.7653267  16.7485765
  61.6563427  53.8547408  17.6488784  60.0799446  29.0093237  33.7854675
  60.8427124  29.3087489  33.2907394  60.3450661  29.0830380  34.7022632
  32.8142088  62.2088277  20.0925544  32.0229071  62.7242004  20.2489570
  33.4130877  62.4713504  20.7915977  33.1554240   9.0477986  13.0227792
  33.8510626   8.7993474  12.4140167  33.0484694   9.9900527  12.8926051
   3.6178910  52.4979407  19.8303751   3.7535226  51.9369036  19.0667823
   3.0291878  51.9964987  20.3944782  44.1857910  61.8176985  31.1559129
  43.5860109  61.1313438  31.4481568  44.8111963  61.9111776  31.8744969
  25.5612498  25.0986248   4.7092823  26.3250141  25.0653511   5.2852968
  25.1343136  24.2502266   4.8283580  59.7701931  44.7280598  45.7644224
  60.1821280  44.3020821  45.0126982  59.3993282  44.0078402  46.2742996
  43.6298781  17.4529463  18.3711008  43.0062609  17.7327448  19.0412096
  43.9145785  16.5847498  18.6564306  43.2428950  22.1288867  24.0729761
  44.1337317  22.0020957  23.7465525  43.3276480  22.0810027  25.0252151
  65.1715803  22.0807385  55.8600426  65.5197811  21.2509823  55.5337095
  64.2766523  22.1143913  55.5221128  63.4244406  15.2994627  38.3857894
  62.5105798  15.4412121  38.1388140  63.6278688  16.0240645  38.9772248
  46.1301308  25.9498507  20.1046375  45.9428578  26.7535836  20.5895809
  46.5994196  25.3969866  20.7294134  37.8685772   2.6843924  25.0403857
  37.6005148   2.3980374  24.1672444  37.1617162   2.3920865  25.6158328
  32.7871399  32.6150519   6.6575912  33.1593495  32.0406872   7.3267702
  32.8740959  32.1208626   5.8424572  66.4622271  15.8201308  34.5416522
  65.7149612  15.9214491  33.9521122  66.0739099  15.7782073  35.4155397
  57.3668754  20.8985896  38.5155344  57.7738106  21.6600508  38.9288330
  57.3959648  21.0906977  37.5782609  10.4537331  34.6194083   4.7377876
  10.2671944  33.7785155   5.1553205  10.9096657  35.1250035   5.4106430
  41.4772635   2.6398879   5.4324201  41.8906956   3.3929545   5.0102857
  41.9691115   1.8846756   5.1099685  28.1941241  13.8010020  32.3824739
  28.2715910  13.0188460  32.9287910  28.4588354  14.5205779  32.9555035
   1.0649544  34.4593406  41.1518240   0.7601029  34.5031786  42.0581245
   2.0022589  34.6460414  41.2051105  52.0024126   6.8262286  23.5024309
  52.5718039   6.0716910  23.3517742  51.8086069   7.1588130  22.6260376
  22.9228896  61.0092580   2.6396469  21.9793337  61.0806119   2.7840379
  23.3126801  61.5305912   3.3414367  45.5158483  33.5548396  53.4979820
  45.7799541  32.6372904  53.5657310  45.9571063  33.8735766  52.7106285
  46.0455847  45.6146717  31.9324160  46.9016981  45.7944012  32.3210073
  45.6658411  44.9374819  32.4922681  43.2398319  37.2963548  17.6942968
  43.6828375  37.1045399  18.5208488  43.6378431  38.1131387  17.3931563
  56.3977318  46.0784584   9.1972974  56.9478493  45.4612643   8.7149290
  56.8018990  46.9320208   9.0413621  60.2134705  46.2654066  29.3578649
  60.9736252  46.1279106  29.9231029  59.8374176  47.0924616  29.6591830
   6.5541571  25.1427741  20.8221579   6.3800925  26.0336203  21.1259985
   5.7909125  24.6395487  21.1057973  21.7023676  16.9599051  34.2898035
  22.3759907  16.6813273  34.9101663  21.0024565  17.3132224  34.8389101
  26.9418686   5.9481472  28.9997005  26.6690749   5.3012747  29.6503711
  26.4838475   5.6908555  28.1995440  35.4982966  20.0910849  13.8600361
  34.5905035  20.3810210  13.9499784  35.7828635  20.4518408  13.0203295
  57.9511452  46.8109179  41.4173222  57.9558611  46.4034843  42.2834682
  57.4205685  46.2234497  40.8791733  60.3375702   5.7146079   4.2149929
  60.7528382   4.8526818   4.2443899  60.3624230   6.0234505   5.1206592
  51.4125586  54.6506310  34.3057036  50.7793665  55.3674841  34.3434477
  52.0153570  54.8252058  35.0284719  59.6022367  61.0692501  24.8311090
  58.9874220  60.5903673  24.2753124  59.1171455  61.2318468  25.6401062
   8.1096047  33.2051272  47.1118069   8.4967202  32.7055449  46.3929272
   8.6647337  33.9809222  47.1905184  60.5514288  52.1401358  35.3667259
  60.1621819  52.9668283  35.0815988  60.1330757  51.4766169  34.8181319
  37.5590639  28.5173851  11.3317636  37.2908812  29.4329888  11.2544826
  36.7972641  28.0189043  11.0361246  54.6768713  33.5256219  45.6595469
  53.7751722  33.3242226  45.9097672  54.5921040  34.1671252  44.9541950
   5.4502904  33.8214833  15.0073675   5.4466473  33.6814219  15.9542564
   5.2460324  34.7506672  14.9019054  54.5566874  28.6923844   7.2514919
  54.1705208  29.5463473   7.0569232  53.9366465  28.0605656   6.8873647
  58.3127605   1.2348074  26.5635896  57.8509628   1.4608712  27.3709726
  57.6338016   1.2432570  25.8889222  41.4580994   1.3456065  11.2236551
  41.5717392   0.6209761  10.6086496  42.2891980   1.3911492  11.6963390
  33.1390023  56.7445374  25.7329965  33.5229135  57.3833656  25.1323771
  32.2130966  56.7155027  25.4919910  45.8207083  45.8875036  29.2461491
  45.9081793  44.9507236  29.0700221  46.1509514  45.9953785  30.1380777
  49.7497427   9.5382590  40.8717489  50.6371724   9.8866887  40.7863140
  49.4724214   9.8017449  41.7491865  22.0014733  20.2533431  47.7586651
  21.0555476  20.1083369  47.7795219  22.3150795  19.6872038  47.0534229
  24.6481781  33.1332117   1.5894035  23.9152174  33.2776028   0.9909442
  25.4269486  33.3062035   1.0604242  54.6555090  54.5480108  21.6623354
  54.5883179  54.4463634  20.7129216  54.8486233  55.4766941  21.7907166
  39.8441332  10.5351586  50.7162189  40.6481474  10.3871674  50.2183247
  39.2720049  11.0084052  50.1121187  38.7172222  55.7462502  15.4684615
  38.6202025  56.3106012  16.2354851  39.0482712  54.9196243  15.8196449
   8.0343157  43.5298491  24.4864893   7.6839358  43.8785648  23.6668158
   7.5425249  42.7217531  24.6326184  55.8447628  26.1576563  15.0880483
  55.1526528  25.8677060  14.4937900  55.4011755  26.2900979  15.9258560
  44.6832752  40.9662199  28.0313516  44.6774578  40.3617954  28.7735558
  45.4750967  40.7392120  27.5437927  43.4588623  50.1376486  24.7861552
  43.8448381  51.0133266  24.7651267  43.9546204  49.6735191  25.4607224
  42.4792433  17.8340673  35.8338213  42.9417086  18.6230862  35.5513191
  43.1074047  17.1254027  35.6944084  67.3093271  38.3438110  21.1901045
  67.6881695  39.0220499  20.6309056  66.8437767  38.8280582  21.8720174
  40.9559279  35.3827959   6.6210941  40.9993677  36.1559683   6.0584692
  40.4710131  34.7383601   6.1055425   5.5003888  38.9347172  13.6452973
   5.0344998  38.5651994  12.8952050   6.3930947  39.0725470  13.3285797
  50.8920269  25.3604418  32.9969982  51.1185961  24.6590096  32.3863510
  51.7198258  25.5845410  33.4221557  52.2957509  27.4261433   6.1304334
  51.6603999  26.7886311   5.8046392  52.0065688  28.2615382   5.7633880
  22.5303191  12.8384871  42.5199175  22.1759671  12.3434729  43.2585812
  23.3452814  12.3878760  42.2985220   3.6270863  33.9254880  43.5088825
   3.1728274  33.3351040  44.1099882   3.7787157  33.3984089  42.7243900
  12.8834610  24.9444443   5.3670791  13.6393504  25.3318173   5.8084491
  13.2376676  24.1810090   4.9110750   7.1259325   3.6600871  54.5218372
   6.8588751   3.5143084  53.6142778   6.6434735   3.0019373  55.0221395
  41.2599552  62.7824841  48.8687897  40.3470171  62.5779056  48.6664915
  41.3720882  63.6882020  48.5801125  15.8458966  10.2365298  42.1932888
  15.8659428   9.5104022  42.8166389  14.9186772  10.3451581  41.9818592
  26.1828858  58.0518007  47.6907253  25.3143460  57.6531553  47.7451515
  26.0166890  58.9498758  47.4042368   4.9245900  15.7065386  49.8077106
   4.1699808  16.2703700  49.9776745   4.6783417  14.8588080  50.1777744
  66.5197336  16.4581103   3.4098503  67.2416651  16.6292853   4.0146235
  66.3522350  17.3026843   2.9916674  46.1387938  18.1967730  32.7053428
  45.3343409  18.7138552  32.7468538  46.8398684  18.8472743  32.6657414
  64.5052587   5.8922953  49.9127340  64.3079340   4.9618525  50.0202847
  63.9236319   6.1807389  49.2093563   3.5527474  54.7277403  18.4934080
   3.5256916  55.2228260  19.3121815   3.6082751  53.8126278  18.7685776
  11.7696606   4.6113855   0.2945188  11.7905556   3.8816339  -0.3245589
  12.5098263   5.1624924   0.0402025  35.9726219  15.6866270   2.1687797
  36.7309170  15.3370816   1.7007688  36.3259869  15.9888321   3.0054620
  12.7135998  30.3101134  46.4749384  11.8654782  30.3153777  46.0312033
  12.6639325  31.0374880  47.0951700  57.9032790  18.4748263  38.2609630
  57.9030930  18.2211775  37.3379803  57.6109087  19.3862814  38.2589388
  50.0167065  55.9369189  10.3906158  50.5310088  55.1498038  10.2112487
  49.3077879  55.9114176   9.7479538  49.7770596  61.4466143  45.8573818
  49.3007708  61.9509315  45.1978016  49.6083927  61.9075251  46.6791773
  16.3483769  58.8489199  36.8099999  17.0258957  59.5250845  36.8090916
  15.5930859  59.2672205  37.2232747  51.5825367  10.6732345  46.7858601
  51.6978455   9.7294074  46.6757393  51.5099812  11.0114098  45.8933306
   9.2939103  56.3167816  51.4010572   9.9504817  56.0163479  50.7726574
   9.7912682  56.8226045  52.0437145  67.3598963  58.6237555  29.0379262
  66.8391973  59.2208450  28.5007238  67.9245025  59.1978317  29.5555043
   3.8094443  42.8343808  10.6059650   4.4180125  43.0520796   9.8999313
   3.1802672  43.5557305  10.6107763  49.3759063  61.5181743  36.9654036
  49.8753572  61.2629663  37.7410650  49.4562382  62.4714031  36.9317412
  14.5780647  32.4399333  22.7413702  14.8238743  32.0074754  23.5591650
  14.5257652  31.7300754  22.1013713  61.8782252  46.4462798   9.5750785
  61.6848320  46.2074881   8.6685413  61.7736441  45.6307083  10.0651169
  41.8293881  27.0355159   0.5695728  41.2926113  26.3738912   1.0058692
  42.6899504  26.6257572   0.4814724  33.8867700  10.3071129  29.2294792
  33.7128651   9.5305335  28.6975864  34.6433258  10.0666129  29.7642807
  11.6257942  54.2143171  42.8785849  11.1806453  54.9384498  42.4384642
  10.9649528  53.5239010  42.9319334  60.5339605  50.7869702  31.7581177
  59.5805174  50.8154648  31.8379164  60.6939704  50.2311843  30.9954047
  15.7013298  39.2130744  42.8312334  15.7478643  39.4275075  43.7629434
  16.6078592  39.0348255  42.5809142  15.0764382  43.9375787  12.9464698
  15.4068411  44.8114543  12.7381301  14.1571796  44.0770250  13.1739593
  13.0458034  33.9367800  33.3613062  13.1311334  33.4967499  34.2070746
  12.4268711  33.3956032  32.8711224  29.0458620  31.0660367  48.6657906
  28.6075485  30.4220181  48.1095934  28.8918913  31.9038492  48.2292175
  52.9974890   2.6029736  48.6474419  52.2859955   3.0909348  48.2328320
  52.5789785   2.1390611  49.3726063  55.1592064  12.1704328  34.3032336
  54.9152756  11.2448430  34.2994237  54.6918201  12.5443757  33.5562754
  35.6434286  55.5612975  49.2480469  36.4192379  55.0294655  49.0705442
  35.0081146  54.9443560  49.6113491  48.6957788   6.6861784  43.1622887
  49.3949604   7.2751713  42.8786325  48.8850737   6.5166700  44.0851450
  45.6695366  10.6418800  30.3631210  45.6435061  11.5668499  30.1182055
  45.1799870  10.1970494  29.6712375  -0.1643931  51.4530747  41.9793463
   0.0199855  52.2895723  41.5521336   0.6511629  51.2278562  42.4269819
  44.7883260  58.3676612  12.1793321  45.3019082  57.6439225  11.8206314
  44.5087635  58.8664972  11.4117149  57.6150436  57.1669417  22.9681325
  58.2209808  57.0015281  22.2458386  56.7467899  57.1198028  22.5679517
  33.1405151  48.5784071  20.6704259  33.1865490  47.7462810  21.1412525
  33.5189760  49.2168658  21.2748837  67.2662830  31.2228680  12.4431300
  68.1553745  31.1061668  12.1082723  67.3722172  31.7782617  13.2154942
  10.1052774  47.3667031   8.9196652  10.1252950  47.3148530   9.8752505
  11.0190714  47.2613256   8.6548895  56.4316082  13.2261932  36.7476344
  57.1352100  13.8456094  36.5539837  56.0472345  13.0258715  35.8941936
  50.3076113  47.8663855  26.4513111  49.8010958  48.5476821  26.8934751
  49.9899948  47.8797119  25.5484414  28.7347639  62.4268078  29.8336983
  28.8149822  62.0675501  28.9501095  28.6703957  63.3728121  29.7026849
  21.4506472  60.0503128  16.3375652  22.2075260  60.5942633  16.1196530
  20.8056057  60.2552202  15.6606877  61.4827765  48.3260470  35.1402569
  61.1709726  47.7116614  35.8047414  60.6908072  48.7641626  34.8286939
  31.6483498  19.9713540  18.7999630  31.2209058  20.5997181  18.2179999
  31.4902663  20.3137684  19.6797323   7.1304000  52.5402515  55.1675940
   8.0164326  52.8432923  54.9692392   7.2589028  51.7217331  55.6469107
  68.1852007  15.7747686  25.1177979  67.4260283  15.6616759  25.6897259
  68.9385796  15.6056333  25.6835246   1.9121939   6.1280435  38.5800791
   1.6059214   6.8092817  37.9814601   2.8141171   5.9581262  38.3082390
   6.3898444  10.7493424  33.5981703   6.1059582  11.4036715  32.9598165
   7.1969736  11.1085689  33.9665866  47.2355080  47.9709816  24.2613602
  47.6495409  48.7203836  24.6893835  47.2451353  47.2809076  24.9246383
  57.4218500  62.2675463  53.3385468  58.3018625  62.5872954  53.1396198
  57.3802984  62.2598078  54.2948151   9.1311991   4.5335484  24.4949389
   9.6297622   3.9431840  25.0598598   8.4176433   3.9937761  24.1547680
   7.7273005  37.0845523  22.9374889   8.0156725  37.9970943  22.9190830
   6.8095654  37.1178886  22.6675132   4.4578660  38.7392741  33.4043503
   4.4953001  39.3494254  34.1409278   4.0907562  39.2538171  32.6855278
  15.7386577   9.2967439  31.0317516  15.6616938   9.9184692  31.7554688
  15.4880404   9.7992891  30.2565932  52.7563369   9.9359142   8.0309824
  53.6297214  10.0113379   7.6466087  52.8861844   9.4081699   8.8189271
  27.7713335  51.5495353  41.2866449  26.8552673  51.4450901  41.5438271
  28.2338512  50.8597272  41.7625332   3.2642401  25.8252340  46.4682293
   3.7971890  25.7411533  45.6775761   2.4685205  26.2689333  46.1746407
  33.2255792  14.2257165  11.1420206  33.6900901  14.9541270  11.5541843
  33.2565021  14.4211780  10.2055028  12.2558594  23.9386320  33.0831051
  12.5813818  24.8101473  32.8578782  12.5334036  23.8061619  33.9895558
  20.1205921  21.4813757  33.1063581  20.0964236  21.9456506  33.9430737
  20.6165648  20.6834269  33.2894444  29.7543312  25.8160168  53.2402628
  30.3537727  26.5612083  53.2003644  29.8202110  25.5036831  54.1426700
  13.7643540  41.9531661  22.9690242  13.9139569  41.3248997  22.2625303
  12.8133500  41.9710093  23.0762792  12.5472272  52.4641924  29.5856619
  12.7672780  51.6939395  29.0617156  11.9849551  52.1268540  30.2830005
  37.2927952  41.9831800  15.1327932  36.5735388  42.2987986  15.6798649
  37.4141502  41.0718060  15.3990686  57.6596308  20.3796124  10.0874662
  57.8381586  20.3166914  11.0257614  58.1846952  21.1238599   9.7931302
  63.8634396  21.9963074  51.7640209  64.6879911  21.5667224  51.9916201
  64.1266537  22.8378630  51.3915491  14.6841019  49.4883823   8.2469991
  14.8116749  49.8982906   9.1025308  15.5536717  49.1734027   8.0002740
  22.1386147   1.5110381  25.6345606  21.6920424   0.9477223  26.2666059
  21.4411855   2.0465583  25.2563500  29.2733276  45.4816704   6.5813649
  29.9834621  45.1523905   6.0304457  29.6852243  46.1500090   7.1289897
  35.9436941   7.2213477  26.9508410  35.5170321   7.8538764  27.5288534
  36.8255401   7.5708508  26.8226719  29.8533797  20.6770158  26.3894558
  29.5586467  19.9307609  25.8674741  29.8707294  21.4088011  25.7726717
   6.2241972  61.7802196  17.3569286   6.5336073  62.3030377  16.6172254
   6.7709458  60.9947100  17.3403668  53.9568901   8.9694011  25.5942011
  53.8599491   9.8423743  25.9746647  54.2743397   9.1293699  24.7054553
  31.2476957  42.9364996  45.9156036  31.3967646  42.1329313  45.4173183
  30.3976810  42.8038888  46.3352680  42.4641657  19.0055943  20.2312231
  41.7527580  19.5369351  20.5887222  43.0250931  18.8186610  20.9839869
  35.6092906   6.3051492  14.0083218  35.5770397   7.2611701  14.0431869
  36.5168214   6.1042964  13.7796760   6.7686146  48.8619387  10.6058315
   6.9418829  47.9232239  10.6767086   7.5088137  49.2762768  11.0492996
   4.0513283  43.8017178   7.3744947   4.6155745  44.5707130   7.2938198
   3.4140784  44.0417385   8.0472004  13.7696415  13.0528247  39.7656322
  13.5022694  13.2882285  38.8771915  13.9186055  13.8920569  40.2012157
  48.4541225  24.4322252  25.8785534  47.7653790  24.7332525  25.2858949
  48.0039024  24.2742372  26.7083549  12.5202322  32.1681285  39.4306064
  13.1770897  31.6610241  39.9076962  12.9672766  32.9825759  39.2002606
   3.6566937  38.2251649  24.0891409   3.5182798  38.8121992  23.3458614
   3.2467735  37.4019080  23.8237238   6.9878126   0.1012224  32.4060103
   7.0420290  -0.0511128  31.4625665   7.8156735   0.5274957  32.6277586
  38.2327974   0.9158004  49.1413924  38.1263054   1.3858665  49.9683919
  39.1161430   0.5498064  49.1859522   3.9165360   9.7163224  23.8728023
   4.1007191   8.8345683  23.5490441   2.9650742   9.7401738  23.9746928
  27.3272729  15.0593233  51.5665245  27.8792596  14.2778289  51.5380907
  26.5304565  14.7736180  52.0133924  22.4630106  60.2974006   6.1259067
  22.7726782  60.7388400   5.3350407  22.8073204  59.4071912   6.0537183
  33.5456228   6.4218229  53.6989021  32.8972888   6.0350424  53.1104326
  34.3334532   5.8943701  53.5671949   0.9639490  51.8172758  26.6545463
   0.9469903  52.7263718  26.9536924   0.8373464  51.3008254  27.4504614
  38.8855577   9.6436375   4.7624746  39.0676546  10.5182064   5.1062799
  39.0136242   9.7263169   3.8174909  49.5842064  38.9642959  40.7214785
  50.2538479  38.5589271  41.2723732  48.8211287  39.0466266  41.2934589
  29.3704057  11.0608888  46.1520720  29.0244699  11.5740085  45.4218197
  29.2845654  11.6371059  46.9115686  24.8617435  28.6616564  48.1229973
  24.8576951  27.9438066  47.4898243  24.0877628  28.5075831  48.6647034
  37.9197168   7.9116535  23.3820915  37.9390621   7.6388752  22.4647880
  38.2955194   7.1722156  23.8598323  19.5690417   7.3388517  30.1515961
  20.3201580   7.0226538  30.6536627  19.6021199   8.2909024  30.2450681
  49.4328422  61.7817115   0.6958810  49.9650702  61.8225681  -0.0986602
  48.7860439  62.4788713   0.5870132  50.1670504   6.1713463  49.2340899
  49.3242884   6.3257754  49.6608543  50.2115917   5.2210057  49.1287327
  43.2157196  55.8448481  21.9577885  42.7217049  55.8952855  22.7761006
  43.6251825  54.9798869  21.9781303  26.2145090  21.1489034   0.7139760
  26.3728571  21.6809106  -0.0658490  25.2676892  21.0084581   0.7198951
  25.2144051  12.6027596  35.7799745  24.7920442  12.4110472  34.9426627
  24.5067906  12.5512433  36.4225149  18.7397230  52.6941078  38.6280084
  18.6861551  53.6397760  38.7661123  19.5726812  52.4407702  39.0257955
  50.3960896  61.0204264   5.9901798  50.1885689  60.9394445   6.9210982
  49.5980359  61.3732945   5.5966997  61.1345106  36.0463428  19.3486691
  61.8224954  36.6902852  19.5167422  61.5561956  35.3820705  18.8035500
  18.8586748  46.5478390  19.4829595  18.1188000  46.7016595  18.8954616
  18.5139645  45.9571426  20.1526499  63.8183338  57.5247955  33.9940763
  64.4466955  57.2665476  33.3197618  62.9622299  57.3941379  33.5863447
  63.4580814  30.1846036  12.6387361  62.5135815  30.0581000  12.5484470
  63.7024652  30.7140353  11.8796495  16.2766790   7.9485106  37.5870347
  16.0034788   7.5087547  38.3921480  16.0091627   8.8594323  37.7090502
  57.8023195  42.9906750  46.3599920  57.7704763  42.1477985  46.8125153
  57.0021582  43.4394884  46.6330242   3.9796502  13.4311688  36.2335563
   4.4544751  13.4088910  37.0643854   3.9506155  12.5174832  35.9497094
  35.3114200   0.7939634  35.5090904  35.3194380   0.0461348  34.9116635
  34.3827677   0.9677601  35.6628227  39.1929007   6.7971915  36.0210967
  39.3723416   6.3125765  36.8268156  38.3860540   7.2780585  36.2054753
  41.8374300  26.8383765  28.0935550  42.5448227  27.1789455  28.6411285
  41.6620398  27.5391746  27.4655771  67.1172649  59.3900415  49.6684217
  67.4751240  60.2206271  49.9819469  66.5540964  59.0877067  50.3809309
  34.3977642  23.2779264  22.6603079  35.2239990  23.7313771  22.4931312
  34.6161151  22.3486066  22.5901365  27.8249031  18.6024261  51.7428780
  28.3980137  18.0472505  51.2141562  28.2288414  19.4693482  51.7040586
  33.2037020   1.1149666  53.2048607  32.5726128   0.8284087  52.5446749
  34.0042353   1.2909520  52.7104902  47.3718405  13.7121272  30.7068729
  47.0820379  13.1998968  29.9519777  46.6880703  13.5790551  31.3633657
  10.9451425  18.7060988  43.3633184  10.1460886  19.0138400  43.7911510
  10.9863448  19.2035592  42.5465775  38.6938322  32.4424201  22.1508384
  39.2611111  31.9725423  21.5395784  38.1038654  31.7713957  22.4942040
  51.4152193   7.4470437  11.5274632  51.3429737   6.5244502  11.7720723
  50.8738375   7.5297940  10.7424212   1.7269648  62.5081638  20.4946494
   2.3920572  62.4305465  19.8106468   1.9338692  61.8054291  21.1107540
  52.7852535  38.9506578  31.1265755  52.8035879  39.8956108  30.9750438
  52.5843525  38.8613319  32.0581818  11.8294848  61.9373410  48.2593012
  11.0525907  61.4079740  48.4394026  11.5365756  62.5807431  47.6139593
  54.9776972  52.4282473  47.3078537  55.3209866  51.6434663  47.7350569
  55.2143467  52.3223143  46.3864374  36.6130674  51.0155433   9.8478931
  36.6872061  51.8102448   9.3195134  37.5079716  50.6804173   9.9033117
  58.6679697  36.8208742  26.2627125  59.2020607  37.6152182  26.2622333
  59.2372894  36.1496925  26.6390419  28.1317878   3.1886092  21.3796782
  28.5089254   3.5546219  20.5796576  28.2033634   2.2408369  21.2663770
  59.8013897  32.6103324  53.8790288  59.4933552  33.0927139  54.6462673
  60.7481856  32.5430296  54.0026542  58.4649772  41.7683959  50.1293578
  58.1040163  41.1076337  49.5383140  58.0478139  42.5860363  49.8579302
  12.6689041  12.2121108  24.9908304  12.3975217  12.9508662  25.5356455
  13.6224079  12.2840643  24.9474144  30.8999395   8.8444930  29.4610095
  31.7757177   9.0238464  29.1188407  30.3347993   9.4755381  29.0153313
  28.2081354  50.3900760  24.6913147  29.0653647  50.0671893  24.4135880
  28.3697546  50.7970946  25.5424595  24.9676824  29.7304034  12.7313256
  25.6939387  29.8249984  13.3476329  24.9818659  30.5385637  12.2185779
  35.9210157  12.4980474  25.8615971  36.4915442  13.1901371  25.5273223
  35.0916338  12.6284480  25.4018641  66.0896451  41.6134935  40.1056290
  65.6748802  41.3067298  40.9119129  65.4518873  41.4184385  39.4190049
  32.9908967   1.6727728  38.4907722  33.1082606   0.7236934  38.4494710
  33.5189629   1.9470069  39.2405558  47.0269632  11.4012980  37.5212789
  47.9514313  11.1659002  37.5998998  46.6056108  10.9684634  38.2638073
  23.5210854  13.9653265  49.0240240  24.3138844  14.2767119  48.5872936
  23.5514218  14.3686199  49.8915863  25.7277322  18.1506932  11.0862398
  26.6650462  18.3316422  11.1564493  25.5749440  18.0392158  10.1479113
  12.5629771  59.4880866  20.4931808  12.3584140  59.7582039  19.5979583
  11.9521201  59.9838435  21.0384440  66.2144720  49.9477767  34.0435794
  66.9868051  49.5624375  34.4573978  66.5139496  50.2072405  33.1722454
  62.8398848   5.0412351   6.3367772  63.3824205   5.8232993   6.4380598
  61.9407415   5.3685355   6.3623309  16.7439402  57.4128204  30.5683661
  17.0306075  56.5305983  30.3322792  17.3135698  57.6631289  31.2957573
  52.4872387  42.4148756  33.1109619  52.3928154  42.0411044  32.2348285
  53.3715761  42.1687990  33.3823109   4.1228598  23.5410428  21.6352224
   3.9847887  22.7845430  22.2052026   3.6151522  24.2432094  22.0419502
  17.2941387  59.9960425  44.8114061  16.9741786  60.5163964  45.5483532
  16.6809452  59.2634987  44.7513294  47.4443483  33.1462693   2.8104866
  48.2223177  32.9365802   2.2937384  46.9108486  33.6895967   2.2304821
   9.4489933  51.7336231  49.3359699   8.5248209  51.6041499  49.5489958
   9.4388844  52.2260898  48.5152337  27.5212955   9.6527636  19.2126679
  28.0701733  10.3559828  19.5597231  26.8161798   9.5608652  19.8534465
  14.9903452   9.4474584   7.3995101  15.3574324   8.6040586   7.6643789
  14.0430653   9.3287361   7.4687642   9.5843566  63.9848034  35.7302403
   9.5469273  64.8497426  35.3219390  10.2347243  63.5055409  35.2168608
  10.4394687  53.3396953  38.6971354  11.1992920  53.9039259  38.8404608
   9.9739278  53.7459915  37.9660892  53.0026400  40.0227814  12.0137409
  52.7124726  40.9171366  11.8343977  53.7686407  40.1281100  12.5779918
  21.2229050  57.3346966  27.9519844  20.5163515  57.9131090  28.2391334
  21.9252527  57.9282349  27.6861882  59.8515784  38.9638060   5.0389675
  60.7177770  38.6035603   5.2291206  59.4650185  39.1250413   5.8996728
  41.5140820   0.7821520  41.5357733  41.0589361  -0.0271055  41.7685270
  42.0355701   0.9947675  42.3097754   0.4598814   2.3048736  35.7157755
  -0.0363773   1.5499246  36.0320210   0.8433634   2.0104149  34.8896623
  67.1059084   6.6662252  32.0748997  67.9062748   6.4918697  32.5701165
  66.4071274   6.6283411  32.7279735  57.5833702  19.0635002  46.1764145
  58.0994749  19.6669328  46.7109585  57.3136711  19.5843387  45.4199648
  55.0745249   0.9908684  47.2120762  54.7649670   0.4435522  47.9337788
  54.3683195   1.6210723  47.0694256  54.1292334  12.4489355  17.7968585
  53.2496977  12.7356684  17.5510240  54.5908070  13.2570839  18.0206406
  10.6444538   2.5126517  47.0236262  10.5803812   3.0750096  46.2516936
  10.5246723   3.1075037  47.7639195  51.1329317  20.5196905  38.8926744
  51.5418577  20.6898260  39.7412419  51.2738657  21.3240600  38.3933139
  16.3717324  27.9387283  28.4294510  15.5298001  28.1295347  28.8429427
  16.7879444  27.3057652  29.0145612  27.0274758   7.4293607  17.7607346
  27.2972608   8.0380923  18.4484076  26.6668940   7.9892594  17.0731843
  26.6989029  64.2781193  41.2972021  26.6218031  63.3753490  40.9885073
  27.5517595  64.3110570  41.7305422   0.2775818  30.9385633  50.5863428
  -0.4190820  31.3583064  51.0910273   0.4287344  30.1057625  51.0333633
  33.7746037  53.3879691  39.9339008  33.9717567  54.0585523  40.5878735
  33.3002890  52.7126151  40.4188299  52.1391106  31.2807298  36.2859106
  52.7106380  30.6720448  36.7539811  51.3846827  30.7509065  36.0283041
  19.9284244  27.9551125   9.1749758  20.5151868  27.5331020   9.8025495
  20.5132461  28.3471990   8.5265297  49.8260039  48.7117361   6.5027193
  50.1002615  48.8086914   5.5907873  49.4887942  47.8175878   6.5576414
  17.0449902  49.4170254  54.4929889  17.6555515  49.4163614  55.2301754
  17.5870253  49.2057258  53.7328706  33.4565001   5.0867349   5.9452489
  32.9527169   5.6726939   5.3803733  32.7984457   4.6545726   6.4897016
  37.7720833   1.5135227  40.2788162  38.2593036   0.8678610  39.7669864
  38.2852197   1.6209547  41.0796785  58.5316181   1.8856946  11.5752113
  59.3440676   1.4664301  11.8587077  58.6341524   2.8028923  11.8291128
  54.1786539  53.1309592  14.5446495  54.5562684  53.2463014  15.4166225
  53.5755407  53.8676059  14.4454673  22.3783165   2.2607109  17.7927577
  22.5767475   1.3252591  17.7504873  21.7424923   2.4026060  17.0914602
  13.9577878  60.1362427  12.4038398  14.4513929  60.9553694  12.4440598
  14.6146906  59.4537555  12.5414026   0.6585509  27.7648997  31.3261104
   1.5276200  28.1350732  31.4807868   0.1565987  27.9976344  32.1072054
  60.8072805  23.7664032  13.5100591  60.1277447  24.1288519  12.9416478
  61.5099478  24.4160104  13.4875786  59.9265099  15.0779033  40.2806139
  59.7513628  14.5889401  39.4765782  60.2730179  15.9178329  39.9794769
  39.1932583  21.3775134  23.3943653  38.4232903  20.8582950  23.6263013
  39.0622282  21.6018391  22.4730945  67.0320606  28.4845853  33.2872486
  67.0782614  29.2678714  33.8354826  67.5057602  27.8168392  33.7831855
  66.5393543   6.9986874   4.7803697  66.5183830   7.9444039   4.6340412
  66.3298273   6.6195494   3.9267981  21.1601216  26.1024857  54.1202927
  21.5261036  25.4753709  54.7440052  20.2630478  25.8012462  53.9762259
  58.5117304  44.3220198  27.5291732  58.5329449  43.3884465  27.7394680
  59.2745053  44.6861255  27.9784301  18.6077416  10.6744003  25.7332897
  19.3797052  10.3660989  26.2079000  18.8408613  10.5799687  24.8097277
  37.8913331  37.1294498  15.0861645  37.6572299  36.3333869  14.6089756
  38.0843115  36.8284464  15.9740770  58.1286573  53.5776424  40.8828211
  58.8130760  53.0040693  41.2275219  57.7556276  53.9979124  41.6577101
  58.8432013  51.9551825  10.4792503  58.2714331  52.6092135  10.0773052
  58.2487118  51.2635850  10.7699493  16.7678308  30.8300018   2.6792362
  16.3370728  31.0325646   3.5096866  16.2645316  31.3135338   2.0241635
  49.3840826  60.6353157  40.6605911  49.9175203  61.3335096  40.2808475
  48.6202896  61.0862448  41.0204697  61.2500000   0.1795568  39.2729735
  61.0399103  -0.1019095  40.1634073  60.5253792   0.7542423  39.0261960
  47.3866594  49.5042484  38.2183385  46.5319813  49.3107062  37.8332472
  47.4232042  50.4601532  38.2521462  36.7431009  63.1704937  46.1441040
  35.9388912  63.6204024  46.4030647  36.4812220  62.2564825  46.0334921
  55.5905056  17.3833168  39.6608496  56.2767410  17.9551780  39.3169165
  55.9433603  16.4991140  39.5612931  47.0204735  17.8140771  21.8636918
  47.8549767  18.2820737  21.8351340  47.2589540  16.8927145  21.7614698
  42.0980453  17.0390379  27.8113961  41.1852360  16.9332039  28.0793810
  42.0492792  17.4855840  26.9661450  58.7043238  35.7416511  44.0434265
  59.1259193  35.0011444  43.6073828  58.3221960  36.2534857  43.3305216
   6.0148341   1.4981249  47.8414249   6.4348322   0.6591994  47.6515913
   6.4941269   2.1320751  47.3079252  12.3338246  20.2265668  22.3900414
  12.1407056  21.0919309  22.7507091  12.7880454  19.7683167  23.0970931
  55.3613615  42.4014282  33.5175562  56.0775661  42.7553082  34.0448642
  55.6052256  42.6053667  32.6146889  11.0658699  30.9400749  52.6351690
  10.5915409  30.7062888  51.8373013  10.4308277  31.4317107  53.1559849
  66.3549394  55.7984561  51.0612070  65.5618543  56.3158768  50.9215065
  66.3083954  55.1060337  50.4019531   4.7011245  58.4886926  45.9409904
   5.4368365  59.1002058  45.9091663   5.1095450  57.6230990  45.9541130
  52.6458931  12.2736108  41.5801096  52.2566462  13.1456316  41.5145445
  52.4909210  11.8770695  40.7228041  68.0614233  26.7126632  35.0617146
  68.7302637  26.6626263  35.7446361  67.2930622  26.2921166  35.4477119
  37.7948368  48.2195693  25.9592056  37.5789249  47.3082858  25.7612729
  38.0369127  48.5974353  25.1137185  56.3969183  30.5913854  38.9853525
  56.3530302  30.8250546  38.0581522  57.2739124  30.2249813  39.0987635
  57.5069618  45.6806469  23.7423110  57.1214819  45.7913160  22.8731799
  57.2606754  46.4748526  24.2164564  66.4037466   4.9702600  30.1159835
  66.5016270   5.5633509  30.8608961  65.6868601   5.3448695  29.6041512
  10.8936477  19.1854346  27.6249552  11.6151166  18.5875952  27.4292469
  11.3168466  20.0311065  27.7731824  49.4722748  26.5192509  21.1234045
  50.0301361  27.0910549  21.6507268  49.7788429  25.6347990  21.3233852
  58.6349010  31.2483883  51.9475031  58.9873981  31.7495394  52.6829100
  58.8845778  30.3431296  52.1329784  34.2120409   2.6461059  29.6273041
  33.7537503   3.4625661  29.4283199  34.9037170   2.9022428  30.2373910
  50.2765083   8.2364279  47.0307779  50.2717876   7.5300831  47.6767540
  50.4678631   7.8003538  46.2004423  60.8255720  19.4915307  10.7255387
  61.4805222  18.8693595  11.0420370  60.2646303  18.9751303  10.1468253
  14.7788483  10.9041846  48.1619167  15.2313000  10.0679934  48.0509758
  14.4217354  11.1000526  47.2956944  47.8907090   6.0464531  50.9435180
  48.0766707   6.7290503  51.5882686  47.5864678   5.3024918  51.4633182
  67.2325945  41.4668512   2.9048613  67.3389435  40.5434275   3.1333619
  66.3515663  41.6882992   3.2064959  12.4599522  51.0554969  19.0665725
  12.0994299  51.2770032  18.2079748  13.0201977  51.7987322  19.2900852
  19.6475435  39.4407791  46.6857799  19.3098236  40.3074509  46.4598259
  19.5668770  38.9341307  45.8776757  36.8051052  18.6030865  40.6171799
  37.5360155  18.5322165  40.0031948  37.2205305  18.7175429  41.4719057
  50.3207588  37.7008414  38.3672976  50.1863909  38.0950856  39.2291260
  51.2568331  37.5030351  38.3377123  59.7532701   7.7910727  37.0187902
  60.5208158   7.8928035  37.5815988  59.9548435   8.3130640  36.2421799
  63.8937283  22.6965213  32.0180368  63.2055283  22.6712561  31.3532257
  63.7790155  21.8849778  32.5124741  58.2464695  20.5844235  19.3161011
  59.1407728  20.8599114  19.5175099  58.3504200  19.8917186  18.6637318
   9.7401684  42.2662401   2.1533350   9.2726010  42.5368797   2.9435066
   9.9163502  43.0836546   1.6874746   2.6200158   2.9355690  30.7580566
   1.8707091   3.2158569  31.2836170   3.3828551   3.2615861  31.2355709
  12.0985657  45.5727196  23.5503864  11.6479021  44.7317743  23.6274409
  12.3042542  45.8177757  24.4525361  53.6611986   4.1062790  16.7495251
  54.0599060   3.5382932  16.0902405  53.2472420   3.5029685  17.3666859
  54.8545980   9.4751799  36.2215662  54.9719286   9.8705280  37.0853758
  55.5739164   8.8482738  36.1453795  42.8772783  14.7751498  39.9824429
  42.1030283  14.8295116  40.5426311  42.5577021  14.3837535  39.1694760
   7.4346882   7.8334045  47.8747082   7.5738913   8.5695958  48.4704256
   6.7480570   8.1336796  47.2792244  34.0496594  16.3552999  34.2603207
  34.5191437  15.5287397  34.3726230  34.3080002  16.6612840  33.3909178
  11.0202719  39.4262308  21.2822386  11.4407612  38.5859066  21.0998174
  11.0393597  39.5014971  22.2362825  53.1620646  16.6398692  20.1268220
  52.8884602  15.9443617  20.7248545  52.3962593  16.7954385  19.5740330
  55.3963900  38.2469153   9.4960493  54.4840050  38.4882307   9.3362147
  55.4823685  38.2533669  10.4493582  64.2151880  33.2716274  42.0917892
  63.4846115  32.6672149  41.9607496  64.9841690  32.7060580  42.1627426
  41.7725897  12.6603758  43.1709385  42.0894432  11.7940938  43.4266520
  41.9866943  13.2230115  43.9151382  29.6476793   4.0574148  16.1650181
  30.5362606   3.7717327  15.9527922  29.0945888   3.3110631  15.9341931
  45.8981657   9.5116383  50.7267761  46.7546082   9.7962171  51.0457563
  45.5980015   8.8784599  51.3788652   1.3421410  33.2682131   0.9260944
   1.7476862  32.6150082   0.3559259   1.4191025  32.8990335   1.8058733
  56.4244313  55.9246653  53.4518993  56.1835403  56.6407484  54.0396303
  55.6834860  55.3201765  53.4946338  27.9124331   7.0947939  40.5661964
  27.0005488   7.3377579  40.7263947  27.9109812   6.7289549  39.6816683
  52.7484989  47.9898405  16.4931071  53.2368517  48.4479094  15.8090651
  51.8426371  47.9932690  16.1838472  65.4835892   7.6522130  52.0201874
  65.2992439   7.2539288  51.1695290  65.0735617   7.0637447  52.6540804
  64.9532509  35.2213407  47.0803261  64.7013855  35.9828877  47.6026726
  64.3571854  35.2367616  46.3315296  35.3444642  54.5126050  12.4881303
  34.7981543  55.2628385  12.7224958  34.7618062  53.9377730  11.9918346
  28.0610931   3.9724458  49.3563214  28.2169188   3.0990899  49.7157654
  27.3466003   3.8501871  48.7311920  53.9708633  40.4545194  35.1652786
  53.1233282  40.7847136  35.4634186  54.3830795  41.2048501  34.7371289
  44.0814293  58.2450115  28.7230778  44.5474422  57.9069190  27.9583836
  43.3527601  58.7463861  28.3571553  61.0486078  42.9750109  44.0649080
  60.7712030  42.8430796  43.1583405  61.0967493  42.0921278  44.4315529
  57.6440305  34.9821985  51.3592866  57.0860595  35.5297714  50.8069613
  57.7985735  35.5107301  52.1422317  19.6342493  58.5616773  43.6622437
  18.9027573  59.1589659  43.5060367  19.2977549  57.7007335  43.4136924
  16.6873986   7.0933682  31.7944336  17.3574978   7.6258403  32.2230077
  16.1525208   7.7239901  31.3122988  65.9257603  25.0787115  34.4764757
  65.0374651  24.9415088  34.8056197  65.8687782  24.8776817  33.5423589
  60.9243011  17.3151684  44.0537834  61.0427189  16.7744315  43.2728767
  61.3616180  16.8272233  44.7515631  50.3966618  31.2904239  18.1714296
  50.9787941  31.1610436  17.4226868  50.6855392  30.6426001  18.8141632
  35.0509966  52.9025488  37.4662542  34.6413553  53.5067170  36.8470573
  34.5713699  53.0357998  38.2838321  57.0308018  57.4082708  15.4583895
  57.9657125  57.2161055  15.3859162  56.6046524  56.5539169  15.3897440
  44.6453714   3.2254720   7.9610103  45.3880024   3.0907702   8.5497272
  43.9943695   2.5842434   8.2460666  49.0136337  28.5550165  19.0971541
  49.2409658  27.7680278  19.5923281  49.2418242  28.3427858  18.1921017
  52.4674702  20.8835292  30.1560211  52.0172739  20.7813478  29.3175006
  52.7839518  20.0050402  30.3665662  34.0181637  34.8458552   1.9065231
  33.4754300  34.0730000   2.0626161  34.7470379  34.5235658   1.3763329
  46.6515272  26.9171893   9.1468338  46.6386145  27.8217875   8.8341573
  47.2496527  26.4662927   8.5508684  55.4758835  17.2756886  26.7648387
  54.6300220  17.3597956  26.3247538  55.7462406  16.3735461  26.5937376
  23.7499482   7.3675632  51.1523008  23.2984597   7.2871035  50.3121138
  23.1612355   6.9506466  51.7814493  49.7601271  11.2663639  26.3016057
  49.9990702  10.3397179  26.2799978  48.9517736  11.3172305  25.7915020
  45.0882483   6.6670275  40.9213018  45.3607845   6.8139428  40.0155592
  45.7610178   6.0903513  41.2833166  31.2426925  23.8052559  17.0284545
  31.6900921  23.0901241  16.5760696  31.9405794  24.2710042  17.4891746
   0.8138853  17.3824143  37.2305179   1.4731938  16.7760193  36.8931293
   1.3053900  17.9833210  37.7904892  54.7522926  18.6282277  44.7947979
  54.7851419  17.9570961  45.4765129  53.9574099  18.4286129  44.3002844
  16.6619742  27.2139478  11.2977743  17.1815526  26.9507217  10.5381811
  17.1799660  27.9020214  11.7154706  16.8606717  30.0371718  18.8593125
  17.5148159  29.9410367  18.1671548  17.0832878  30.8645725  19.2860174
  33.9261055   5.0882697  35.1324606  33.5463500   5.0083667  34.2574549
  34.8562956   5.2509588  34.9759078  58.6064434  16.6381240  45.6200457
  58.2530260  17.4989843  45.8442116  58.9629173  16.7477095  44.7384834
   4.5789105  10.7305872  35.5406451   5.2798087  10.8311749  34.8965502
   4.9893910  10.2675772  36.2709594   0.4014212   5.0219941   7.2422230
   1.2732273   4.7770488   7.5523651   0.5014521   5.9222800   6.9328523
  57.3893309  -0.1159950  35.1055694  57.0648003   0.6936172  35.4998279
  56.8122530  -0.2658269  34.3567300  54.0210104  34.7809553  43.3414841
  54.7606516  34.6550274  42.7470875  53.7357521  33.8938046  43.5601759
  54.1855764  23.5123348  28.8035965  53.5963154  22.9634905  29.3210626
  54.4571590  22.9526114  28.0761456  66.6239489  56.7634266  41.4974976
  67.0159472  57.3129081  40.8187914  65.6877935  56.7675363  41.2979317
  39.1134834  32.3909521   4.2721191  38.5786104  32.5372863   3.4919086
  38.7731743  33.0123138   4.9158043  51.2527227  57.5493479  28.6596966
  50.6489658  58.2546234  28.8927007  51.3149881  57.0158339  29.4519877
  47.6547241  56.3532209  28.9969206  47.2502375  56.9211531  28.3411217
  48.5939693  56.5141106  28.9065337   9.7173661  57.2198903  13.8314870
   8.7951678  57.0406520  14.0149406   9.7744101  57.2275435  12.8760198
  17.9856390  63.8754896  34.9700427  17.6388354  63.9978022  34.0863037
  18.5461325  63.1024930  34.9025249  36.7207551  31.3993979  12.5002050
  37.6076674  31.6539812  12.2456324  36.2472367  32.2275090  12.5792205
  65.9574938  24.1520834  41.3708305  65.9097910  24.5240402  40.4901457
  66.8781519  23.9143610  41.4808798  40.4284191  14.3892467  36.0188723
  40.8934498  14.0895748  35.2377343  40.4859495  13.6537611  36.6287756
  24.8878360   0.7484832  53.1685638  24.8995471   1.5152358  53.7414408
  24.3888307   0.0929695  53.6559343  44.9995184  20.4207015  50.6504488
  44.6490765  21.2817812  50.4224968  45.2433729  20.4978800  51.5728378
  12.1827066  39.7639041  35.7817936  11.6546238  39.7203308  34.9846339
  12.6363099  38.9216595  35.8149385  28.5780239   7.7457786  34.9269032
  28.4531498   8.6747867  34.7330451  28.1930089   7.6284695  35.7953691
  60.9978396  35.4297047  45.3287649  60.8449215  34.5071440  45.5330420
  60.1443655  35.7567006  45.0443602  67.0418739  10.1545215  21.6940141
  66.1871433  10.5851436  21.7091584  67.3058414  10.1784122  20.7742405
  17.1582217  58.9017867  20.5439878  16.2031264  58.9286911  20.6013584
  17.4563498  59.4966113  21.2321281  11.8379551  38.0157113  44.9045849
  12.1538597  38.5979390  45.5955601  10.9360796  38.2960606  44.7488832
  10.4207951  25.6391811   9.8833799   9.6594626  26.2179255   9.9241543
  10.4211193  25.1841450  10.7255054  52.9960394  16.0681987  46.4914846
  53.6438322  15.6657016  47.0699215  52.2006083  16.1192954  47.0214939
  35.7679802  25.0738502  18.4418929  36.3313824  25.6088352  19.0009964
  36.0664898  25.2610540  17.5519061  19.2738932  49.9285864   9.0113739
  20.0869721  49.8546469   8.5117010  19.3600291  49.2765641   9.7068409
  18.9884632  32.4127344   1.4276746  18.4624117  32.2920709   0.6371454
  18.6875122  31.7260500   2.0227626  42.0619535  10.5500579  27.4254131
  41.2285614  10.4258525  27.8795743  42.5844574  11.0826337  28.0250669
  21.0764557   7.2660488  26.4017963  21.6203553   7.5018179  25.6502533
  20.7384735   8.1014937  26.7243409  42.2832060  25.7892728  22.2616267
  41.7228937  25.0561976  22.5163460  42.8459978  25.9360123  23.0218697
  65.6543577   8.0185402  45.4267451  65.4033030   8.2218159  44.5257005
  65.8025396   7.0728791  45.4265555  29.6340609  18.3630788  28.2316446
  29.2994332  17.8814590  27.4751425  30.1555824  19.0709817  27.8533340
  67.9923248  26.5796828  21.2796831  68.0433559  26.7740703  22.2155452
  68.3247089  25.6853819  21.2023401   6.0062092  32.1011230  -0.0635954
   6.7263573  32.6643870  -0.3470513   6.1911028  31.9216264   0.8582643
  31.6237092   6.7555499  35.7063675  32.4580169   6.3572943  35.9544706
  31.6809511   7.6538920  36.0318446  48.4703053  46.6643875  32.7657318
  48.8451899  46.1332207  32.0631981  48.9526451  46.4002150  33.5491824
  29.6591067  14.3812633  35.1829362  30.2047515  14.8891997  35.7833552
  30.2704263  14.0520751  34.5240307  37.7737474  30.0354242   5.2755314
  38.3749795  29.2998147   5.3922778  38.2787275  30.6814384   4.7816750
  40.3668070   7.2631872  29.9484634  40.5287838   6.9390213  30.8344173
  39.7835040   6.6122913  29.5581746  40.4174269  27.2688561  20.6961536
  41.0203493  26.7367559  21.2153697  40.9157742  27.4993067  19.9120796
  62.0839250  49.3054509   5.4370693  62.5124633  49.4893491   4.6011451
  62.4570119  48.4702002   5.7188419  54.5306921  36.6489220  35.1463771
  55.0617075  36.1001444  34.5692325  54.0851593  36.0286689  35.7234526
  19.5383757  17.4839603   8.6313823  19.5442456  16.5551888   8.3999065
  20.4495543  17.7607166   8.5344747  49.7119331  16.4780271  52.3012161
  50.0640249  16.6341209  53.1775141  48.7620640  16.4949727  52.4182272
  44.4801855  11.0210609  48.8007259  45.0789070  11.6925812  48.4738922
  45.0295258  10.4525280  49.3403864   4.4000059  49.8767090   2.2702420
   4.0767294  50.6097031   2.7941191   5.0795466  49.4761181   2.8124455
  65.8841038  38.3180666  25.8344269  66.6706848  38.0139232  25.3816342
  65.7630157  37.6937079  26.5497899  44.5353687  45.8822780  39.7389650
  43.8353956  46.3952117  40.1429081  45.3144682  46.0933679  40.2534294
  52.6439476  54.8075056  39.1943526  52.9399443  55.5755043  39.6830249
  53.4449148  54.3159056  39.0126514  63.4289742   8.2878715  19.3739200
  62.8179884   7.7726203  19.9006510  63.6646652   9.0267932  19.9348795
  56.8190920  48.4825944  14.0654520  56.8895256  49.3642270  14.4315055
  55.8937203  48.2570207  14.1604904  32.0559812  13.7204528  33.5183883
  32.1297765  12.7690649  33.5935354  32.9611373  14.0317726  33.5201097
  31.5536678  59.1729050   2.2257745  31.1711967  58.8547593   1.4080140
  30.8280838  59.1613602   2.8499755  33.9750851  50.5384415   7.4375314
  33.9146698  49.6642881   7.0522553  34.3621624  50.3934389   8.3008856
  35.0817192  57.3691946  23.4053993  35.8106411  57.0642894  22.8650880
  34.3570030  56.7853426  23.1814909  65.6147289  55.8468962   9.4587952
  65.3234959  54.9483538   9.6138358  66.4175701  55.7533550   8.9460343
   8.8165194   6.0433763   8.8648885   8.8607174   6.8114060   9.4344574
   7.8799921   5.8994561   8.7291151  56.7009866  25.9973955   5.4922107
  56.7269718  26.9495505   5.3975633  57.0865118  25.6654971   4.6813777
  62.3680687  37.6632404  45.9537983  61.7785645  37.0181847  45.5631351
  62.0079517  37.8189945  46.8268919  42.0292740  15.7438570   7.3266796
  42.7093296  16.3136774   6.9674305  42.2975903  14.8609358   7.0723251
  20.4384762  16.5439308  28.4541941  20.0355011  16.3282084  27.6131797
  19.8798710  17.2306716  28.8183045   7.6646727  44.1658043  12.0530561
   7.5434130  43.5111212  12.7407459   7.3296278  44.9777185  12.4335435
  33.5900248  55.4607826  22.2214651  33.2272137  54.7891413  22.7989578
  34.0834415  54.9703162  21.5640330  21.8395918   6.4443123   7.2016529
  21.2679499   6.6588222   7.9388383  22.6708191   6.1974465   7.6070550
  31.8280817   1.3050741  43.2864937  31.5751244   1.9022578  42.5824949
  32.0635964   0.4926866  42.8383955  11.8320233  41.8420458  20.6244969
  11.1610276  42.3568296  21.0728168  11.5285641  40.9371996  20.6979179
  45.2216482   1.8507141  24.1124964  45.4925251   2.7687645  24.1189408
  45.8704805   1.4134194  23.5611105  57.8957796   4.7944647  26.8442273
  57.7732801   5.7429516  26.8842077  58.8455296   4.6759555  26.8313909
   6.7305285  36.9138098   8.4241199   6.0340887  36.3052082   8.1775331
   7.5370318  36.4812636   8.1436026  22.0043867  21.3736951   0.7997755
  21.1959236  21.4282882   0.2902273  22.4952143  20.6588804   0.3943590
  47.2696972  18.3289921  39.7646761  46.4521313  18.1512117  39.2996931
  47.8540087  17.6176715  39.5023131  30.5500305  53.0620318  39.0425682
  30.4165876  52.2468513  39.5262051  29.8386086  53.6324387  39.3336725
  20.7268978  44.9724120  41.0723802  20.1160265  45.2486294  40.3891715
  20.5026842  44.0567380  41.2382170   9.6431166  18.3321333  37.5110722
   9.6193558  18.6177635  38.4243536  10.5065066  18.6020148  37.1980977
   2.0150811  37.3931789  42.6156569   1.9101817  37.6368356  41.6959524
   1.5269667  38.0608678  43.0974960  50.5610687  52.2125190  16.0913551
  50.1219559  53.0625098  16.0608721  50.8701778  52.1348553  16.9939351
   7.8696352  18.3821130  11.9069326   7.1367222  18.3596873  11.2916553
   7.4578625  18.3615780  12.7707934  51.3636589  33.3147717  38.4030890
  51.4499855  32.5982690  37.7742791  52.1294022  33.2286477  38.9709425
  24.6202826   8.4303170  11.4404345  24.2557597   8.6519235  10.5835533
  25.4619217   8.8854414  11.4676511  43.9576006  15.6475461  35.2247739
  44.2232990  15.8355391  34.3246102  44.2343426  14.7431755  35.3722739
  54.3612993  49.4330805  48.7159634  54.6483076  49.1051822  47.8637075
  54.9495113  50.1650982  48.9014196  56.9898748   4.6997216  11.0937846
  57.5662041   4.2042106  10.5119395  57.1495104   5.6156027  10.8659446
  45.7024479  23.9459491  11.2287712  45.6553221  24.0118837  12.1825337
  45.4299116  23.0486417  11.0369611  67.7105713  35.9107447  44.4026470
  67.8928280  34.9961209  44.1870642  68.3913612  36.4047480  43.9457941
  30.0603474  62.8641584  14.6650004  30.2730597  63.5678442  14.0519643
  30.6808556  62.1666455  14.4536233   4.9535042   8.7374592  26.4309454
   4.5764548   9.2384803  25.7077265   5.7456929   8.3455431  26.0634327
  28.0502253  16.7555243  15.3907016  27.8240805  16.0889059  16.0393289
  27.2531681  17.2768647  15.2951482  43.4667385  53.6464947  41.8401432
  42.9721201  54.0104192  42.5744057  43.4431494  54.3318497  41.1723375
  15.2204574  31.7617040  25.9456515  16.0835112  31.3575273  26.0351515
  14.6062720  31.0295825  26.0004830  57.6824379  45.4884863  19.4918203
  57.1095133  45.8203125  20.1831126  57.3424673  45.8833742  18.6888766
  24.3374801  26.8585682  18.7211418  24.3648410  27.7222323  19.1329277
  24.8863220  26.9472408  17.9419494  20.9891689  51.7507880  40.5963373
  21.3179672  52.2870594  41.3178205  21.5809048  51.9401222  39.8681712
  66.2160742  22.0380914  23.4556297  66.5458643  21.8135595  22.5855402
  65.4524910  21.4734458  23.5754112   4.4523388  18.8667512  45.4589081
   4.7494799  18.6419749  46.3406181   5.0268132  18.3678651  44.8781109
  51.8608141  44.7760963   6.3753265  51.7881536  45.3238726   5.5937278
  51.0214090  44.3189001   6.4262682  67.6249266  17.7671731  41.5064383
  67.3812723  17.8602409  42.4274158  67.4292946  18.6205471  41.1195135
  12.7606732  46.5793180  21.0492778  13.6709267  46.2943125  20.9690285
  12.5242001  46.3738203  21.9537568   6.8290430  11.2049937   4.0857890
   6.0156924  11.6926146   4.2158562   7.0432001  11.3383412   3.1624329
  62.5135660  55.1803398  51.9416952  63.0218077  55.9897184  51.9948816
  63.0588341  54.5887756  51.4230728  37.5067115  53.1260443  20.5911541
  37.0268202  52.7046061  21.3041234  38.0736327  52.4373055  20.2440667
  15.6910092  51.5093851  30.9156585  16.5302044  51.7138290  31.3281894
  15.1965958  52.3278046  30.9600830  37.9899669  60.3975487   4.1413167
  38.5661936  60.1505280   4.8646244  37.1211934  60.4609251   4.5381138
  67.8795528  38.3017755  29.4774199  67.8704453  37.4949193  29.9923301
  68.6536932  38.2215714  28.9201927   0.9402758  23.7116456  17.8232920
   0.3768402  24.4784546  17.9271042   1.5809399  23.9729595  17.1618569
   2.6771668  35.6633568  23.1669140   2.4544498  34.8280954  23.5779715
   2.0285600  35.7682109  22.4708200  66.8530083  45.5374432  45.8484793
  66.9475412  45.9873104  45.0088882  67.7334642  45.2214241  46.0513496
  11.2379366  48.2391930  18.9471006  11.3979823  49.1659451  19.1252875
  11.7700344  47.7755880  19.5937610  53.9313221  18.7078106  22.2338843
  54.5593023  19.2277014  21.7322993  54.2458105  17.8075075  22.1515298
  38.6853242   9.2764133  26.5762115  39.0688515   8.4052658  26.4750195
  39.4382977   9.8652834  26.6261601  46.8051624  23.3175373  27.7838778
  46.1076307  22.6636481  27.7379465  46.3513756  24.1389775  27.9724073
  25.0745810  58.1918543  34.5042396  25.4680908  57.4431484  34.0561080
  24.8728598  57.8668510  35.3816867  56.3013792  35.6648517  29.5477128
  56.1836004  35.3386140  28.6555648  56.9391918  35.0678015  29.9388146
  29.0594345  46.0249949   0.3949552  29.1331917  46.8991375   0.0119821
  29.6255070  46.0529041   1.1663259  26.4170426  44.9087119   6.3650850
  27.2130602  45.3928935   6.1456493  26.5319174  44.6622884   7.2828582
  16.4298886  17.1754260  38.7414694  16.9788617  16.5941996  38.2151270
  15.8916109  16.5845484  39.2681146  57.0461941  39.8247075  52.1201515
  56.3476610  40.0109291  51.4927673  57.0962095  40.6112576  52.6633549
   3.9566714  36.1594605  32.1384788   4.6160847  36.3692498  31.4771247
   4.0839440  36.8183517  32.8210449  12.1435226   3.7144006  42.3354992
  11.2964476   3.7497199  41.8911501  12.2533358   2.7925957  42.5688406
  41.6051960   3.7508568  37.1356010  42.0660734   3.0414888  36.6876960
  41.4289188   3.4066504  38.0112028   6.6838509  19.3936992  16.3191521
   5.9502941  20.0084877  16.3317132   6.7615801  19.0950203  17.2252321
  65.2792835  59.9714422  42.4697685  65.7042456  59.6436357  43.2623482
  65.1322746  59.1903973  41.9362974  46.8727875   8.5971397  13.4871566
  46.7234945   8.9541698  12.6116717  46.9749641   7.6556861  13.3476675
  65.4101658  27.7167058  52.1894693  65.1267862  28.2609653  51.4548206
  65.0107765  28.1246233  52.9577971  18.5395354   4.0950524   1.5491394
  18.0190581   3.5644853   0.9459547  17.9260271   4.7496402   1.8828300
  65.3066170  55.1788270  12.3454956  64.5316946  54.8137128  11.9183878
  65.3676235  56.0723721  12.0077280   4.0762299   3.3016486  21.5867209
   3.1370133   3.4628195  21.6768646   4.3259543   3.7774558  20.7945871
  43.9406586  46.2900257  22.3348212  43.0859709  45.9217834  22.1109009
  44.4561338  46.2038279  21.5328932  50.9739923  38.1160188   1.1777959
  50.8955193  38.7250566   1.9120610  51.0618067  37.2558427   1.5884259
  64.7430241  23.7859244  45.6991434  65.0379717  24.2929453  46.4555645
  65.0901949  22.9067511  45.8499765  11.6113907  42.0703554  47.5161505
  12.2110230  42.5269651  48.1062174  10.9645707  42.7325439  47.2725058
  57.1804810   8.5083997  52.1597004  58.1323004   8.5036957  52.0584345
  56.9273376   7.5881463  52.0870256   0.4505450  40.0723314  40.7810354
  -0.4319614  40.4391146  40.7273531   1.0302168  40.8280563  40.6857252
  58.8107014  47.8819752  53.1854153  58.0404425  47.5023317  53.6082697
  58.5388803  48.7671185  52.9427958  47.6065016  23.4516931  38.5819221
  47.6950979  22.7029347  39.1716194  48.5047436  23.7472701  38.4334946
  63.5815620  53.9940023  18.1320858  64.3756819  53.5396004  18.4133816
  63.8280392  54.4215584  17.3119175  57.7559280  49.4336414  11.3829839
  57.3198414  48.8704586  12.0224261  57.5610399  49.0308666  10.5368030
  14.4218689  39.3107533  17.7345634  13.7493473  39.5292616  17.0894265
  14.6105820  38.3852005  17.5797260  26.1689049  46.0869312  43.6540031
  26.4083344  46.3198423  42.7569723  26.8246609  45.4411125  43.9169264
  55.4382658  49.3045855  22.9892707  54.4868612  49.4094992  22.9966283
  55.7779312  50.1910019  23.1122637  17.1201563  48.6084747   7.9217309
  17.7428985  47.9244709   7.6756293  17.6235414  49.2011023   8.4799677
   3.4495074  24.2889166  49.9137831   2.6560837  24.2431235  50.4472780
   3.3255869  25.0642514  49.3663025  67.6178789  56.8451738  20.9073305
  66.8177843  57.1638393  21.3250995  67.4657583  56.9716024  19.9707890
  60.0461006  38.7309885  22.5101781  59.9017334  39.2160439  23.3226514
  60.7321167  38.0995870  22.7268553  38.4465981  36.3205600  20.4698324
  37.8457260  35.5876470  20.6040812  39.1925955  36.1256695  21.0370493
  44.5508879  22.8709502   4.6050388  44.9762266  22.1239371   5.0260973
  45.2565115  23.5034556   4.4699225  47.8740406  12.5585830  43.2640648
  48.6290359  13.0614364  43.5695982  47.2935104  13.2116914  42.8733349
  32.7826536  53.5346370  46.3056850  32.8879822  52.8192895  45.6784534
  32.2191704  53.1725650  46.9895124   7.6813161  17.7361781   1.3019613
   7.8304707  16.8818242   1.7070058   7.8679311  18.3668238   1.9974426
  52.4490213  41.8093920  16.9660723  53.2356596  41.5218019  17.4294543
  52.6492548  42.7024174  16.6856349  29.1491831   1.4861715  53.2110804
  29.8246563   1.4478791  52.5339540  28.4204662   0.9804261  52.8513226
  12.7527005  49.6187735  36.4565086  12.7870900  49.7191381  37.4078131
  13.6677605  49.6577406  36.1783266  48.6153620   4.1098399  26.2610221
  48.5871714   4.1775031  25.3066325  48.8739031   4.9831433  26.5555167
   3.4727818  37.6613522  39.9227667   3.8424116  36.8299842  40.2201462
   3.4774453  37.5975680  38.9677072  67.7613974  29.2801070  29.2856812
  68.2499695  28.6552429  29.8214793  68.3776808  29.9959230  29.1306472
  50.0031662  49.0083456  48.9463377  50.6864071  49.4034958  49.4878769
  50.1727962  49.3421412  48.0654049  29.2353797  14.9650872   5.9741199
  29.1574192  15.7898307   5.4945874  28.9183784  15.1687586   6.8540406
  32.4104261  24.7403216  21.3398051  33.1293511  24.4309020  21.8908358
  31.6198516  24.4275379  21.7795682  20.4086548  50.5185032  34.3702769
  20.7580429  49.8146009  34.9167967  19.5740277  50.7474279  34.7792101
  55.6291199  43.0977201  21.8004823  55.1250362  42.4127245  21.3612676
  55.0442886  43.8553905  21.8120122   5.1355940   5.7756412  20.5844259
   4.2871291   6.0236847  20.2172542   5.3616530   6.4958638  21.1729884
  66.7196941  42.2255135  18.5540688  66.9805098  42.0231152  17.6556015
  66.4586735  43.1460094  18.5261095   4.0091616  57.1349144   2.4178576
   3.9319283  57.4940825   3.3017486   3.3915621  56.4037943   2.4016093
  62.9784822  12.7983034  46.4935780  62.9886007  13.1442058  47.3860359
  63.1228638  11.8580019  46.5994978  19.4137543  49.8151218  22.9597190
  20.2162045  49.2965269  23.0177406  19.6991986  50.6599688  22.6118854
  54.5331526  26.1424208  28.2723022  54.3364763  25.2225566  28.4495020
  55.3332567  26.1194634  27.7473831  51.1579752  12.0742035  30.2352905
  50.4823303  11.8054163  30.8577776  50.8828688  12.9434180  29.9437165
  46.8932455  41.3898068   6.3358310  46.2089270  40.7544141   6.5461210
  47.4527567  40.9387755   5.7035783  11.6952103  14.6169705  25.4523420
  11.4099615  14.8367352  26.3392282  11.8012017  15.4634327  25.0181818
   6.9000870  26.6711593  12.1655977   6.2968832  26.1427498  12.6882482
   7.7306086  26.6254807  12.6392877  60.7931089  44.1924620   3.6518604
  60.2237844  43.4701824   3.9172116  60.2014256  44.8286772   3.2501474
  31.8254357  18.0960757   4.1218999  32.2848015  17.3259407   3.7870792
  31.0867243  17.7388579   4.6147827   1.4728791   0.2479505   8.5360861
   0.7389838   0.7724454   8.8562959   1.2317425   0.0218648   7.6377708
  58.5830915  27.5293387  46.7893484  58.3339441  27.1797598  47.6448938
  58.0328215  27.0539558  46.1668953  44.5248735  62.9261404  21.5322495
  43.6697519  63.0180741  21.1120749  45.1324547  63.3659890  20.9375954
  49.3564558  38.9970064  31.7913079  48.8869238  38.2550216  31.4102149
  49.9939871  38.5983324  32.3836303  40.6106186  45.2125740  14.3476856
  41.0207415  46.0397577  14.6002603  39.7281671  45.4578590  14.0695763
  57.6245546  53.6007690  34.1339231  57.7559757  52.8543520  33.5492659
  56.7227125  53.8769531  33.9707422  67.6745272  49.1990328  19.9382925
  68.4404755  48.6328888  20.0333428  67.9920530  50.0722122  20.1684380
  50.8367682  43.9129782  27.6028252  51.3414478  44.5108175  27.0513558
  51.4166451  43.1632280  27.7364326   0.9673458  34.8770952  35.2586842
   0.1391322  35.2387428  35.5741262   1.6389614  35.4102755  35.6839871
  61.8265533   9.7539222  28.3409166  61.6879272   8.8323039  28.1226635
  62.7615261   9.8157376  28.5364604  30.3227997  10.8317077  25.1918554
  30.3630376  10.7168460  26.1412883  30.4006100   9.9450034  24.8398137
   2.4496609  54.9279690  24.9174476   3.2883936  54.8732948  24.4594431
   1.8610150  54.3725348  24.4063473  28.7913674  53.4262955   8.6496976
  29.4352311  54.0834104   8.3853773  28.0008715  53.9299976   8.8436941
  24.7080439  32.1989589   8.7042383  23.8677758  32.2683299   8.2510570
  25.2116650  32.9504270   8.3913616  50.7402992  28.2384181  37.2781229
  50.4700184  28.1463456  38.1917429  51.4862776  27.6454210  37.1881080
  52.2851229  24.6173525  11.2642324  52.7976513  24.4716597  10.4690468
  51.5726376  23.9804411  11.2100124  52.9186802   0.2303058   0.1095155
  52.1453982   0.2884227  -0.4516312  52.6437550   0.6237513   0.9376768
  64.4092751  18.8809359  35.7068372  63.8618708  18.1021833  35.6061959
  65.1186132  18.6018980  36.2858081  46.3253164  59.5475674   6.0771281
  46.4098167  59.1202497   5.2247846  46.7170191  60.4118872   5.9516132
  31.7385996  55.1837861  17.4264741  30.9057415  55.1737248  16.9547999
  31.8417585  54.2886549  17.7494740   0.3490799  62.9128086   9.6852354
   0.5866068  63.2304799   8.8140920  -0.0432474  62.0539367   9.5282367
  19.4968850  49.9783182  42.2544813  19.8538262  50.3980875  41.4717817
  19.7717911  49.0642738  42.1825504   3.4898669  47.5236368  50.1100636
   2.8386074  47.8231907  50.7443857   3.5773856  48.2515955  49.4947195
  19.5507771  45.7147646  25.9275699  19.4911724  44.9448681  26.4932036
  18.8291890  45.6124973  25.3070188   7.0326764  45.4097414  22.5115991
   7.9452998  45.4612970  22.2275352   6.5341288  45.7829952  21.7847133
  36.5653062   5.1585901  22.7076626  35.8402777   5.2065003  23.3307743
  36.2054801   5.5115336  21.8939137   8.3185107  45.1765394  54.6355820
   8.7234837  46.0215855  54.8308372   7.6954323  45.3659344  53.9340544
   2.2854794  17.1670187  40.6625661   2.4366749  18.1032217  40.5325839
   1.3441909  17.0961845  40.8212837  50.6345558  36.3996291  50.8847332
  49.8476267  35.8797860  50.7212305  51.0030842  36.5562344  50.0153160
   1.9069249  48.1265163  27.0629263   2.0198017  47.5342417  26.3194871
   1.0626179  47.8792763  27.4400854  11.3684040  19.6887636  40.6770897
  12.2645241  20.0252008  40.6809711  10.8331734  20.4360151  40.4099226
  51.9989967  41.7867184  30.6287193  52.3486662  41.5570450  29.7677827
  51.0498095  41.7136669  30.5289865  55.2324533  53.3481884  50.1321220
  55.3832626  53.7028742  49.2559481  55.9548044  52.7354813  50.2700853
  19.0306021  62.6434892  54.3490789  19.3605686  61.9726461  53.7513154
  19.4761063  62.4661773  55.1775212  46.3474846  29.6181870  18.2600558
  47.2657537  29.4060636  18.4274650  46.3762712  30.4486942  17.7850187
  15.4555052  19.9414057  52.2516203  15.7886475  19.2032427  51.7413712
  14.6001786  20.1321406  51.8665648  52.6900387  36.0535932   7.0100510
  53.3993340  36.0779762   7.6523453  51.9574928  35.6520104   7.4773151
   3.1541401  55.3731251  12.5868809   2.2867495  55.1326561  12.2612464
   3.6639887  55.5561352  11.7977059  30.5994183  21.4661360  49.1801977
  30.8137471  21.3092852  48.2605791  31.4138848  21.7912054  49.5638704
  35.4820776  14.2366707  29.9793792  34.6924472  13.6991525  29.9178171
  35.9538436  14.0634525  29.1647243  61.6337156  41.6668749  37.8981280
  61.4355516  42.3144341  37.2216415  61.2818527  40.8458328  37.5541663
  22.0908964  12.9266871  27.1225592  22.9465282  12.7918947  27.5299379
  21.6994894  13.6450375  27.6195594  66.7561645  35.9989291  51.9004875
  65.8596773  35.7777813  51.6482219  66.6795511  36.8466055  52.3384448
  30.2069319  10.6896627  31.7193362  30.6420601   9.8504246  31.5690919
  29.3746841  10.6149281  31.2524125  47.6196432  35.6094646  11.3988721
  47.7408075  34.9063492  10.7607675  46.8189335  36.0524321  11.1180162
  27.3837662   8.4622473  14.8667467  27.8279948   7.8466564  14.2837024
  28.0934453   8.9204437  15.3169024   5.1058823  58.6096525  13.1843781
   4.6338993  59.1075850  13.8518560   4.9303347  59.0773439  12.3678756
  61.8980217  53.8957500  30.0741911  62.4221373  53.5224390  30.7828307
  62.3211861  54.7316217  29.8780322  54.8670673   4.0861142   1.7408289
  55.6381226   4.1550690   1.1778439  55.1806593   3.6298245   2.5216562
  40.9787226  12.3543537  13.0378282  40.7086086  13.1626678  12.6020563
  40.7995701  12.5107193  13.9650202  52.8900576  25.6346703  55.5915928
  53.7500572  25.3724337  55.2631760  52.9643250  26.5788603  55.7302284
  40.1061201  15.0941312  40.9318161  39.4054866  15.6785405  40.6423235
  39.6568060  14.4068229  41.4237022   3.5415846  57.0228624  32.7405977
   2.8704077  57.2193480  32.0870328   3.4854132  56.0753393  32.8642082
  66.7577505  46.9404936  34.7025466  66.3087940  47.3595905  33.9683604
  67.6746798  47.1951342  34.5994616  50.4520369  43.4646273  34.6323037
  50.8634472  43.1299925  33.8354397  50.8719683  42.9776192  35.3413272
  54.7312880  38.8140726  40.2899551  54.4424868  38.0010462  39.8754525
  53.9341307  39.3376374  40.3715229  55.2310514  21.5306568  46.1246157
  54.9124193  20.7255769  45.7165098  55.2038479  21.3499022  47.0642042
  41.1138153  48.6461115  43.0050659  41.9806767  48.5981512  43.4081602
  40.6601763  49.3329716  43.4936047  40.9583128   8.5196484  55.2307356
  40.2319372   8.8604153  55.7527371  40.6265057   7.6995886  54.8651667
  58.9625644  17.8179032  14.3071130  58.4439193  17.0137364  14.3306879
  58.6192666  18.3023936  13.5563472  28.9296520  19.4651497  46.3733145
  28.4066761  19.5009077  47.1742192  29.7162998  19.9705732  46.5781673
  54.3450356  31.2576771   3.4741300  54.7471952  31.0731292   4.3229178
  53.6695671  30.5862999   3.3780932   8.6183220  55.4239702  22.3675919
   8.8578755  55.7048988  23.2507253   8.3573491  54.5087385  22.4699211
  66.8375504  32.7020892   5.2488664  67.7598917  32.9428181   5.1618579
  66.8059599  32.1542307   6.0331396  64.0452730  52.3024237  11.4394239
  63.0889570  52.3284470  11.4712575  64.2477715  51.4804089  10.9927467
  65.1300716  36.6776681  12.7849162  65.5040979  36.8522263  13.6485505
  65.5755472  35.8846259  12.4868155  10.0243538  21.2882704  11.9467759
   9.4887703  21.5167994  11.1870658   9.4011324  21.2325854  12.6711571
   4.0721089  53.5104561   7.6795417   3.8879019  52.5864363   7.5107479
   4.2579562  53.8792610   6.8160170  34.0119915  14.5972783   5.8258108
  34.6241646  13.9645630   5.4501203  33.8409787  15.2158505   5.1156333
  16.9517284  35.7679802   9.7302440  17.1866350  36.2124831   8.9157108
  17.2573619  36.3561398  10.4208139   9.0866667  58.2040501   3.9810345
   9.5660120  58.6392784   3.2760230   8.3997303  57.7096224   3.5339430
   7.9562182  26.0298908  55.5976889   8.1480879  26.6067350  54.8583171
   8.2227225  25.1605309  55.2986626  33.4697514   7.6433450   0.3145507
  32.8773003   7.9695469   0.9919170  32.9330092   7.0450622  -0.2052542
  48.9859390  49.9442101  27.9410601  48.6645222  49.6937466  28.8071966
  49.4341803  50.7778406  28.0837703   2.0933545   4.4397128  49.7911587
   1.4900649   4.9859798  49.2873105   2.8156961   4.2621220  49.1887316
  63.4008843  23.3774328  26.4514375  63.9139992  22.9026341  27.1052885
  63.6126953  22.9478860  25.6226683   6.0233455  46.3739640  12.3693040
   6.0305529  46.4270884  13.3250001   5.1781636  46.7445380  12.1151880
  63.8194715  14.2355818  12.9474437  62.9504644  14.6036715  12.7875400
  64.0305912  13.7617058  12.1430159  39.5392609   5.6961036   6.5278912
  39.9841571   5.8070248   7.3681259  40.0308466   5.0036860   6.0861540
  41.3478601  58.1394189  41.8429327  41.8603838  57.3499411  41.6689348
  41.3124693  58.1963985  42.7977800  27.4865454  50.1390242   3.1058315
  27.4764937  50.3298842   2.1679071  28.2531184  50.6067573   3.4372285
  53.0570459  18.6707163  10.3170812  52.5700712  17.8478861  10.3622234
  52.7093601  19.1947043  11.0387337  26.4807678  37.6488870  52.6758393
  26.8029190  37.0447513  52.0069056  27.2554422  37.8682637  53.1935110
  55.8749390  31.2958121   6.0099846  55.8795023  31.8794942   6.7686188
  56.6626215  31.5329909   5.5205619  25.7899815  29.0861940   8.3852059
  25.6906945  29.9003386   8.8787055  24.9574810  28.6295938   8.5064244
  41.8713140  35.3634691  16.5334892  42.2934055  36.1095881  16.9593716
  41.3738823  35.7492113  15.8123815  45.9810829  13.0180883  33.2901502
  45.5413008  12.6903832  34.0746450  45.7418299  13.9440608  33.2505894
   4.7671593  54.3079823  43.6372280   4.9159968  53.5893338  43.0227184
   3.9818109  54.7454571  43.3084822  51.3211918   9.0572566  35.6869698
  51.9230318   8.9617115  34.9488020  51.4435101   8.2588613  36.2006187
  30.2612257  20.3227448  39.8946929  29.4492245  20.7947254  39.7099733
  30.2391982  20.1687455  40.8391666  61.1005211  31.7480874  33.0163431
  61.0121965  32.0231533  33.9289045  60.4346132  32.2521925  32.5487137
  66.6519701  35.6652945   8.4885362  67.0344412  35.0045135   9.0658716
  66.4781439  36.4121708   9.0614179  62.4930609   8.0796230  48.6390927
  61.7199743   7.5868714  48.9143255  62.2103918   8.9940775  48.6492899
   7.5571411  24.3800443  30.2133564   6.8975561  24.1916274  30.8809475
   8.3831280  24.0982091  30.6064800  14.8498333   3.7310923  43.4271249
  13.9574063   3.8113821  43.0904361  15.3257216   3.2696093  42.7366194
  58.7990320  51.0997217  37.4768090  58.8250483  50.1429110  37.4850345
  59.6086443  51.3575500  37.0360327  33.2978689  35.6406053   4.6179918
  33.6767756  35.5931630   3.7402586  32.3818588  35.3904342   4.4972805
  33.0228031  56.5598326  55.2775717  33.6292065  56.3463383  54.5683956
  32.7334440  55.7098585  55.6093025  22.6740921  61.0485067  24.7885180
  23.4006250  60.8408334  25.3760982  22.4682463  60.2180424  24.3593454
  36.3374686  34.5499659  20.7487082  36.0315466  34.1633797  21.5691924
  35.5636525  34.9781418  20.3825068   5.3842646  16.1399436  45.3481913
   4.7323901  15.8281076  45.9759188   4.8832852  16.3219535  44.5531273
   7.6967466  29.7467017  43.3655405   8.0395848  29.1414785  44.0231085
   8.2977599  30.4913282  43.3888912  54.0946102  26.5396976  31.2512851
  54.2442322  26.2709665  30.3448462  54.1029692  25.7215881  31.7481327
  67.3489666  23.4660411  52.9780293  66.5830040  23.0024815  52.6394415
  68.0937862  22.9329157  52.7000809  47.9894627  53.1302541   4.8946273
  48.8378513  52.7914553   5.1804322  47.3852861  52.3981576   5.0180745
  60.5748987  27.1177602  39.2033434  60.6089878  26.7948365  38.3029032
  60.2024078  26.3920212  39.7041225   1.7573887  39.9868798  27.3770833
   1.9148785  40.0669146  26.4363265   2.1167904  40.7921124  27.7494526
  60.7806540  22.2320318  26.9881701  61.4098501  22.8499007  26.6159058
  61.1572742  21.3702226  26.8101931  61.5093565  25.6309152  26.2204909
  61.5935421  25.9374499  25.3176165  62.2471142  25.0328994  26.3401699
  14.2562997  30.0368142  21.3974571  14.9426079  29.3873262  21.2445521
  13.6669743  29.9432683  20.6490088  21.0657526  53.1902116  53.7558958
  21.4981676  52.9826611  54.5842489  20.2436901  53.6078161  54.0128977
  46.8685358  14.5410633  18.8134721  47.0810622  14.9937951  17.9973224
  47.5589007  14.8061859  19.4212106   5.1380647  52.6552635  28.0617452
   4.4276417  52.0452588  27.8631806   4.7198046  53.3548456  28.5636163
  48.1611681  46.4156771   6.0452205  48.2031298  45.9497929   6.8803400
  48.4502411  45.7728577   5.3975677  11.3122762  16.9759501  50.1213768
  11.7591584  16.1390722  50.2485028  11.8997086  17.6229179  50.5120018
  61.9121885  41.3884163  14.8189759  61.0423088  41.7829418  14.7566748
  62.3816538  41.9410896  15.4437828   9.4011236   0.5469340  48.7654307
   9.8684193   1.3586849  48.5681334   9.9344612  -0.1397950  48.3651945
  26.3959778  51.1228757  28.9465332  25.4760540  51.3871699  28.9572048
  26.3878763  50.2423888  28.5711575  60.3515577  27.5797606  29.8806238
  59.4284487  27.8242564  29.9463725  60.7865477  28.3703160  29.5611930
  42.2591257  62.2455120   8.3175004  41.5040970  62.2830105   7.7303398
  41.8808413  62.2751331   9.1962814   0.3160721  17.2034168   5.5440003
   0.6705910  18.0822814   5.6787062   0.9316069  16.7866933   4.9409330
  39.1681183  58.4357774  26.8541956  39.9346006  58.7921130  26.4050150
  39.5143164  58.0786072  27.6720023   8.1880385  19.0851986  29.6549082
   7.7335745  19.4062245  30.4337788   8.9712912  19.6318448  29.5922661
  48.4793377  35.5580139  13.9992416  48.0063009  35.5659294  13.1671309
  48.7332201  34.6432614  14.1217303  43.5709036  59.6852710   7.6196951
  44.1808260  59.5397093   6.8964809  43.1754482  60.5364852   7.4318647
  24.8659302  52.1663540  42.2976955  24.3247438  52.0804649  43.0825349
  25.2255083  53.0518788  42.3504361   9.7642130  57.6365065  10.9972060
   9.9399180  56.7825662  10.6020522  10.0015253  58.2680284  10.3181660
  48.6548805  34.0554333  48.3174801  48.3303165  34.4339848  49.1345453
  49.5880318  33.9111114  48.4744310  33.2997263  58.1996309  14.4780469
  32.8940332  58.2104021  15.3449535  34.2225206  58.0102187  14.6477914
  47.3624182  16.4720333  29.9341154  47.6446390  15.6436384  30.3218603
  47.8635263  17.1391129  30.4032946  13.1120516  31.7695190  54.8042029
  12.4008347  31.3956085  54.2840159  13.9011360  31.3384703  54.4759093
   8.8157803   4.7094992  11.9693899   9.0269667   4.6863118  11.0360670
   8.0784041   4.1064101  12.0631611  65.8860273  53.8299340  49.1222873
  65.4630298  53.8412541  48.2636973  66.5708036  53.1658166  49.0431830
  22.0327538  46.7651987  10.6102947  22.4450558  46.9730341  11.4487699
  22.0508355  45.8092451  10.5649332  24.1397053  33.1914020  51.9140196
  23.7473542  32.3205853  51.9770956  24.7679001  33.2239008  52.6355124
  53.6352634  20.3886318  35.8054328  52.7456665  20.4587102  35.4591060
  54.0552187  19.7276902  35.2549529  35.1771259   1.5510873   8.1781203
  34.6120071   2.0888232   8.7328398  35.4827213   0.8509391   8.7548661
  44.1720343  14.8168600   0.5934177  43.9105129  13.8993180   0.5162510
  43.3643341  15.3092444   0.4470983  51.3407946   8.8953656   3.8303638
  50.5957556   9.0696985   3.2552463  52.1030331   9.1861129   3.3296806
  32.1046675  30.5805116   4.5993215  32.6011503  29.8772388   5.0178212
  31.3403738  30.7021409   5.1626128  17.9619080  27.7837396   0.4868776
  17.6063973  26.9319773   0.7405382  18.2124382  27.6751161  -0.4305460
  38.9780402  32.3849487  11.5851617  39.1581154  33.2129240  11.1398983
  39.5470476  32.3981714  12.3547626  20.4337633  55.9650504   4.5962226
  19.8476542  56.1275785   3.8571060  20.6904305  55.0478160   4.5011750
  35.7992744   6.0366756   7.2627741  34.9711514   5.8155596   6.8366849
  36.3869619   6.2621200   6.5416425  64.1566753  25.5196691  13.9227784
  64.3199492  24.8465371  14.5834339  63.9305401  25.0295615  13.1322801
   2.8245522  58.8391679  54.4526318   2.8631998  57.8834528  54.4159104
   1.8957115  59.0368813  54.5725808  28.5764807  34.5255838  20.7376483
  29.1981524  33.9107230  20.3481630  28.1767481  34.0380440  21.4578918
   3.3806712  22.4939203   7.4100703   2.5976235  21.9465923   7.3509520
   4.0419155  21.9243050   7.8031695   5.3112770  48.0219108  53.2665434
   4.3689180  48.1345159  53.1420055   5.5273176  47.2370356  52.7630269
   8.9160955  36.0500103  32.6741576   8.4948123  35.3143149  32.2297430
   8.2228315  36.7037421  32.7650046  16.1842430  14.0524281  48.2897499
  15.2330435  13.9870203  48.3744481  16.3269580  14.2986382  47.3758331
  61.7577124   9.8343682   6.8150127  62.3296022   9.7525960   7.5782228
  61.0090303   9.2726427   7.0154399  25.4151106  58.6220551  55.1258755
  25.4505992  57.6906490  55.3437138  24.6923828  58.9637852  55.6522942
  59.8899937  34.1809034  23.9641404  60.2471113  34.2678332  23.0803180
  60.3728199  33.4481907  24.3465614  43.0072546  21.7315483  36.7519975
  43.6099243  22.4647164  36.6275597  43.2994747  21.3163662  37.5634551
  20.4318112  41.9102537  20.4176334  20.0734251  42.0594537  19.5426897
  19.8613327  41.2432509  20.7995943  27.1565747  11.4433920  40.2811766
  27.4263048  11.9882441  39.5418429  26.9892216  10.5831301  39.8962402
  51.6471386  29.4831371  48.7321281  52.4902725  29.3491197  48.2992315
  51.1286545  29.9789166  48.0984020  68.2510824  62.9373568  44.5928070
  68.3302660  63.6376899  43.9451226  67.3408050  62.6494187  44.5241412
   7.4912411  23.1644225   2.0823398   7.7948719  23.9646912   2.5108379
   6.7812258  22.8481960   2.6410091  30.7901532  21.8133616  12.4216294
  31.6075093  22.2521162  12.6575422  30.1095826  22.4620295  12.6013410
  38.0184067  13.7708223  41.9588813  37.5739706  14.2851627  41.2849637
  37.5898350  14.0254391  42.7760300  62.8596306  54.5875120  21.8816066
  63.4149599  54.6757889  21.1069798  62.2825050  55.3505373  21.8507886
  24.9423397  55.0528234  29.2818165  24.3957651  55.8029156  29.5160174
  25.6055677  55.4140782  28.6937213  67.4673814  10.2756566  26.0519573
  67.5835485  10.4278487  26.9898125  67.6941366   9.3538660  25.9290024
  65.9447611  51.6757374  27.4972343  65.8254278  51.6441005  26.5480304
  66.1499346  52.5921660  27.6824260  14.7847992  30.7627702  41.1930656
  15.7186848  30.9527445  41.2825680  14.5212323  30.4447865  42.0565796
  67.6023293  19.0010190  12.4612963  67.5300312  18.8560569  13.4046900
  67.5863457  18.1223083  12.0820308   0.5916315  13.9273906  38.6673331
   0.5114132  14.6050584  39.3385744  -0.2270931  13.9805341  38.1742883
  41.1347246  34.1308975  11.0192549  41.3999653  33.3619523  10.5146718
  40.8509016  34.7639203  10.3597426  41.8206728  44.9114411  21.6416240
  41.8384874  44.0152579  21.9774365  41.5300835  44.8214036  20.7340527
  55.4877222  14.7754150  19.1223812  55.0398911  15.3457981  19.7471535
  55.3912199  15.2201181  18.2802665  52.3366583  46.0411613  25.8409953
  53.0700100  46.5164059  26.2315941  51.6685331  46.7106431  25.6939006
  62.1138859  20.3548002  46.4739561  61.6389275  20.8212495  45.7861567
  62.8412962  19.9315441  46.0179234  56.7574835  51.5318155  17.6378715
  56.9523621  51.0141420  18.4190679  56.9975281  52.4268675  17.8776371
   9.2696959  23.7433028  14.6303403  10.0079304  23.3653951  15.1082838
   9.6633059  24.4158196  14.0744412  60.6896025  48.9144664   9.9414551
  59.9484235  49.3032067   9.4769502  60.4570002  47.9904705  10.0328803
  60.4050636  38.9965487  40.2622938  59.4767380  39.0322590  40.0317049
  60.5126524  39.6753645  40.9285259  56.7506123   7.0483786  25.6883192
  57.4372530   6.5897393  25.2041650  55.9453773   6.8451303  25.2123809
   5.3879667  35.3579977  47.2375288   4.6468998  35.1893493  46.6556289
   6.0594965  35.7328623  46.6676560  26.5978193  18.5895479  39.7122431
  27.3091960  17.9890490  39.4895840  25.8093905  18.1606865  39.3795466
   3.1512934  30.0444388  40.5125761   3.8308388  29.5807767  40.0232220
   2.3692709  29.5023108  40.4087734   8.6981869   8.2152963  29.6906567
   8.0376917   8.6797440  30.2047253   8.7333900   7.3413461  30.0795054
   4.0203339  24.8302984   8.7402427   3.8474614  24.4656467   9.6082157
   3.7625462  24.1364861   8.1332827  59.6075035  13.9290231  52.4753618
  59.4216419  13.0355877  52.7642542  59.6452499  14.4393450  53.2842984
  51.4192724  15.6699598  33.4677792  50.5243063  15.9000099  33.7174511
  51.9291306  15.7868934  34.2694044  16.5818863   5.8058721   2.1068719
  15.8960824   6.2439782   1.6029218  16.2665515   5.8282262   3.0103639
  62.0498896  40.2478790  44.7042656  62.8527594  40.4465771  45.1860857
  61.8531227  39.3390083  44.9311256  39.3199814  12.6547993  52.5833529
  39.5632828  11.8416775  52.1407866  39.9465359  13.3012426  52.2581219
   4.1122240  18.6866272  38.5116800   4.6398062  18.5829056  39.3035957
   4.2057509  17.8529823  38.0506810  53.9628077  32.2622609  19.8759055
  54.0298176  33.0506730  20.4145598  54.6056938  32.3930430  19.1788912
  39.9466543  15.8846528   2.6448778  39.5763426  15.1966769   3.1978611
  39.5138960  15.7707077   1.7987255  64.7610903  28.8091135  47.0837021
  65.6353000  28.4688830  46.8933535  64.2526644  28.0372715  47.3326921
  22.6540293  53.1886279  17.9915384  21.7814327  53.0303370  17.6313308
  23.2391204  52.6715958  17.4378446  48.4873747  20.7356078  16.4407447
  48.9450644  21.5469605  16.6608814  48.2033311  20.3843123  17.2846321
   3.7770324  30.6632906   1.5176204   4.2181807  31.0644728   0.7688383
   4.0682702  29.7515351   1.5068821  66.9839985  17.7724862  31.2916541
  66.8569548  18.2555914  32.1081734  67.1854100  18.4470510  30.6430960
   9.3537664   7.4857354  39.8403716  10.2674425   7.2161233  39.9338484
   9.3977582   8.4272021  39.6732283   1.7638524  16.5991676  11.7282307
   2.5513154  16.9642901  12.1317387   1.1863416  16.4018512  12.4656451
  42.4995613  39.0155792  15.3097251  43.1403148  39.5970815  14.9004320
  42.0179259  38.6350601  14.5752433  28.8098424  40.7275921   1.5494255
  29.6842515  40.9007269   1.8982318  28.3619809  40.2536213   2.2501424
  33.9107334  38.3112180   5.5467943  34.1922342  38.6979156   4.7176651
  33.8652181  37.3716551   5.3696445  18.9173308  56.0286080  43.0450634
  18.6510360  55.2692544  42.5266937  19.4885292  55.6674563  43.7229541
  52.2171384  52.1032238  39.7249126  52.4173611  52.6348162  38.9544916
  52.8488713  51.3848972  39.6910214  52.0952212  51.2076973   9.4987157
  52.9516136  50.7959222   9.6138958  51.5682709  50.8712744  10.2235416
  56.6621405  19.8797202  54.6521282  55.8759075  19.4316626  54.3401766
  56.4829975  20.0637555  55.5742311  59.3985969  16.2642598  33.2104301
  59.7081071  16.8795609  33.8751411  60.1696408  16.0852432  32.6722145
  60.2698547  57.4036455  42.6270342  60.3613055  58.2774353  42.2470808
  60.3062224  57.5485849  43.5724974   0.6909113  25.2176386  32.6459411
   0.8688455  25.3352696  33.5790733   0.5399614  26.1038977  32.3173145
  26.2776571  46.4405822  10.2635530  26.9135534  45.9503304   9.7424749
  26.3566380  46.0744190  11.1444143  64.5132779  16.8812806  54.5253185
  63.7136363  16.3819319  54.3596176  64.7196137  16.7053515  55.4433158
  58.9388286  13.3962351  38.4069351  58.8921033  12.4843270  38.6941246
  59.4415354  13.3655364  37.5929454  51.9108003  23.2409143  31.3917994
  52.0469326  22.3491144  31.0718131  52.7363866  23.6895537  31.2091470
  44.3845440   9.3537480   1.7807582  43.4958371   9.2038208   1.4583353
  44.8354052   8.5219008   1.6358951  13.1820368  40.2554440  10.8991626
  13.9314699  40.7696795  11.1993984  13.5489779  39.6521544  10.2529195
   4.3736026  36.2471986  44.6088743   4.1294217  35.4541540  44.1317129
   4.2756110  36.9518042  43.9684343  66.9965218  24.5730263  24.1305307
  66.4011191  23.9279372  23.7489847  67.0793175  24.3098742  25.0471214
  50.7202190  22.6207232  53.9940643  51.6673475  22.5128388  53.9072180
  50.6134444  23.4800601  54.4019461  46.6243827  63.5597503  16.5219406
  46.7772161  64.0047371  17.3555234  46.5113842  62.6392805  16.7589954
   1.3777244  23.5881543  41.1857462   2.3288879  23.6950016  41.1755943
   1.0927219  23.8979101  40.3260612  66.1936544   5.3954083  45.6661895
  67.1200608   5.4867774  45.8890155  66.1638569   4.6495062  45.0670436
   9.1362458   1.8597228  22.0154670   9.1296535   2.2641999  21.1479476
   8.3515888   2.2007495  22.4447063  11.9285643  27.6066995  44.7624493
  11.9825959  27.5699663  45.7174158  11.8466961  26.6922069  44.4918346
  20.2114558  34.0305734  41.2626934  19.3166852  34.3235779  41.0901594
  20.3416133  33.2939386  40.6654835  36.8718242  48.3170068  13.5856727
  36.0987186  48.8481056  13.3946947  37.5397694  48.6402094  12.9810098
  20.7087127  44.6180975  18.4568122  20.1040080  45.1856648  18.9347557
  21.2368968  44.2028069  19.1385654  20.2457666  56.5425587  13.3903074
  20.0610209  55.6884098  12.9997516  19.3879521  56.8765259  13.6527085
  20.0249839  25.3098559  32.8592443  20.5889201  25.6501484  32.1646857
  19.3968713  24.7487450  32.4044275  61.9537735  44.1833735  19.3613303
  61.2603795  43.6004877  19.0520036  61.4886218  44.9103260  19.7753370
  37.2671210  15.0152260  25.6625942  37.1779858  15.4944092  26.4864067
  38.0274629  15.4108483  25.2364543  53.7909084  11.7652184  29.6892170
  53.8902258  12.7079541  29.8219493  52.8456258  11.6175038  29.7184280
  51.8484305   4.6926910   3.7005046  51.5865778   4.0567357   4.3662551
  52.7464097   4.9279148   3.9340261   2.4484226  14.0804422  24.2268610
   2.8912705  13.4306157  23.6811113   1.5983060  13.6876023  24.4248748
  18.1208681  19.0739399   6.8872789  18.0297660  20.0170189   7.0234064
  18.6459516  18.7744338   7.6294473   6.0664862  60.6648970  33.1975484
   6.6156274  60.1002884  33.7415051   6.5769076  61.4680624  33.0944538
  33.8702321  36.7486292  21.6632083  33.3526909  35.9557786  21.5225986
  33.3311378  37.4533730  21.3041214  28.2786953  57.3943221  30.8418850
  28.6917477  56.5557897  30.6357673  28.9828324  58.0365383  30.7525543
  10.2571726  38.1442809  48.4350729   9.7958720  38.5730481  47.7142477
   9.9405760  38.5899329  49.2208195  12.8889894  35.3616285  47.8076315
  13.7071145  34.8707318  47.8845978  13.1408250  36.2723446  47.9606199
  15.1565122  25.4952866   7.0907644  15.8591675  25.1366764   6.5486291
  15.4609298  26.3709694   7.3289541  22.8726387  53.6636066  15.0580144
  23.4642243  53.0312777  15.4659581  22.0977974  53.1516647  14.8261368
   7.7693634  19.8861271  19.0082172   8.3720594  20.0301987  19.7377590
   7.6248126  20.7582480  18.6411480   2.9415417  55.4393864  40.4977465
   2.4212530  56.2426710  40.5141306   3.8374776  55.7374859  40.3406906
  11.7239594  39.5707446  24.0938667  11.8098175  38.8002896  24.6553424
  11.4500594  40.2701693  24.6871761  14.6266114  34.6882164  19.9627546
  15.0861704  35.2045199  20.6249240  15.2161109  33.9572206  19.7773698
  54.2395233   2.4279839  14.3072179  54.4105624   2.9341728  13.5130218
  55.0096207   1.8679267  14.4047788  43.8418310   2.7527720  12.0254186
  44.5396814   2.4932009  11.4238695  43.9786417   3.6904437  12.1606401
  53.5187881  21.7590481  11.5922550  52.9623293  21.1242110  12.0434383
  52.9530488  22.1379286  10.9194807  22.9197024  21.1516005  10.4379037
  23.4971022  21.4505726  11.1403659  22.6338934  20.2816540  10.7167104
  56.7548214  20.9378249  22.9920724  57.0818530  20.0383240  22.9786161
  57.4840318  21.4526469  23.3376792  56.9727462  28.1421208  23.1082487
  56.0269838  28.2112718  23.2385731  57.0844775  28.1465030  22.1576023
  18.7846639  59.7799932   9.8264650  17.8880131  60.0956952   9.7142986
  18.6868822  58.8522446  10.0408319  65.8926254  39.1569304  17.0690429
  65.0081214  39.5175743  17.1308553  66.4585331  39.9240351  16.9822538
  52.9870116  38.0646855  19.3142799  53.8029145  37.6798970  18.9941648
  53.1286292  38.1789881  20.2540163  46.6928139  31.3202101  11.7758707
  47.4831799  31.6062743  12.2338203  46.6849979  30.3690440  11.8828872
   9.8983335  63.3601295  18.6717132  10.7074284  63.0677139  19.0913442
   9.9309861  62.9767429  17.7952531  16.6756272  54.1257381  17.4057424
  16.9211709  53.6171961  16.6328740  17.4704862  54.6051073  17.6394868
  65.4957330  30.5896354  23.0306840  64.5557129  30.6035781  23.2106805
  65.7213607  29.6597004  23.0073476  51.0020405  34.2635345  34.9952507
  50.7771140  33.3804250  34.7024012  50.1725823  34.6346331  35.2961087
  67.4472474  25.6169468  15.0940040  67.0112084  26.3520485  14.6630386
  67.2171425  25.7105261  16.0184101  61.1257648  53.2964182  44.6590090
  61.2402725  53.5523462  45.5742264  61.3289881  54.0885639  44.1615725
   4.5911807  17.2500873  29.7546458   3.9317703  17.2778201  30.4479289
   4.7394258  18.1682324  29.5282292  48.0512678  24.3251943   9.8756507
  48.6773264  24.2746436  10.5979589  47.1937263  24.2763662  10.2981094
   9.4282364  55.9360420   0.5627969   9.0719830  55.1836025   1.0351852
  10.2623784  56.1176216   0.9957746   9.1669828  25.2586508  37.6165891
   8.4609520  25.3364778  36.9749546   9.6360612  24.4642520  37.3613834
  40.3117573  56.6854417   4.9744848  40.0628685  56.0540497   5.6494907
  41.0092580  56.2498629   4.4845918  58.8642715   4.2218310   1.3886980
  59.0465640   3.4708029   1.9534639  58.0200957   4.0190679   0.9856037
  52.8827387  26.6723204  37.3268723  53.0019563  26.1608839  36.5265894
  53.5686821  26.3584566  37.9161119  14.5977867  46.4097553  33.5377836
  14.6166337  45.5171209  33.1926990  14.5777572  46.9669538  32.7597356
  16.3939768  36.2042793  21.6162399  17.2050356  36.6795584  21.7965845
  15.7074856  36.7453733  22.0063404  65.6142050  44.7948449  50.9222937
  65.2413351  45.1113992  51.7450905  66.3414508  44.2327481  51.1894846
  13.6164796  52.3139429  52.5717878  12.7818298  52.4869537  52.1362877
  14.1259122  51.8231869  51.9269085  22.6854279  32.6434008  22.0026496
  23.1049134  33.3083498  22.5486425  22.9765875  31.8103979  22.3735479
  40.7457292  40.1432961  16.9669155  41.3564121  39.5213037  16.5714124
  41.0935473  41.0033237  16.7311052   4.3197834  55.4299080  51.8385318
   3.7748050  54.6609508  51.6714004   4.6605825  55.2943479  52.7226738
   3.8156599  57.8235292  42.9458332   4.4227517  58.0054045  43.6631870
   4.2601246  57.1598625  42.4183559  46.9053048  39.8520637   9.4808722
  47.1495956  39.7735214  10.4030347  46.4048856  40.6666994   9.4342113
  51.5275180  62.6017224   3.5074428  51.0380709  63.3853256   3.7577203
  52.2585761  62.5687110   4.1244510  24.8267269  37.6681948  54.9622631
  25.1545191  38.4231257  55.4509974  25.1285672  37.8138995  54.0656614
   5.8300619   1.5024573   4.4560913   4.9871736   1.1007363   4.6667865
   6.2763911   1.5789753   5.2993969  19.0414596  10.0157714  30.3018594
  18.1202626   9.9202478  30.0599813  19.0208840  10.4309118  31.1641049
   7.5710464  38.3000541  26.5637064   7.7454084  38.6508083  27.4370909
   7.9623675  37.4265575  26.5738845  52.7236729  31.8906456  26.8209652
  51.9925969  31.3147599  26.5970996  52.5544535  32.6945406  26.3296894
  29.6185249  53.3098471  24.9187091  28.8940227  53.9344251  24.9537853
  29.6033018  52.8771865  25.7724098  28.6981689  39.8896843   4.2821411
  29.6207129  40.1224190   4.3869260  28.7120186  38.9718157   4.0109304
  57.0965022  27.8575635   8.4969771  57.6385015  28.4515882   7.9777437
  56.2440818  27.8688908   8.0616790  42.7196657   1.5727324  43.7988615
  42.1630108   1.6358132  44.5749950  42.6745748   2.4419302  43.4004879
  32.0061546  60.0505077   6.4581302  32.4368685  59.3776524   6.9853738
  31.5275889  59.5607817   5.7892707  44.5425696  36.8254954  20.1074270
  45.3103303  36.9279725  19.5450452  44.7381470  36.0558325  20.6418422
  41.5821838  60.7600546  40.6041574  42.5100136  60.8641148  40.8151770
  41.3468122  59.9085045  40.9725189  30.3547787   2.8237481  41.3636494
  29.7418469   2.3019309  40.8457184  30.7339680   3.4398360  40.7368469
  14.7630847  49.1259384  42.1754932  14.8313987  48.1732464  42.1126604
  13.8511729  49.3157387  41.9549799  37.7148705  22.4849087  28.9882854
  38.6254929  22.5905186  29.2636875  37.5665991  21.5394789  29.0086463
   2.3590409  62.8593695   0.5901960   2.8980398  63.3814537   1.1844543
   2.5499498  61.9521248   0.8282999  22.8742003  42.5245380  40.7720613
  22.9600549  43.2673645  40.1745081  21.9370532  42.3297596  40.7789516
  12.1142679  34.3650156  27.4816230  13.0103045  34.3570668  27.1450428
  11.5702682  34.5263964  26.7107490  14.9533403  47.3776388  31.0943770
  15.6917739  47.8989267  30.7794070  14.3077993  47.4262667  30.3892922
   5.5095637  52.6097012  25.1523709   5.0737548  53.3832455  24.7946954
   5.7293314  52.8529692  26.0516787  30.3703070  42.9545784  49.8546934
  30.7657027  43.8020325  49.6504450  31.1151981  42.3662329  49.9780416
  24.8372471  11.8674368  46.8606758  25.0140252  12.7559514  47.1697426
  24.6913421  11.3605875  47.6594496  21.8256140  39.6485877  42.8339911
  22.3712659  39.4636631  42.0695972  22.2036171  40.4427814  43.2116175
   4.4022554  12.0081818  29.7276258   4.5578620  12.8114080  29.2307878
   4.0312070  12.3079598  30.5574989  18.6618738  10.2144391   3.1954149
  18.7123614   9.2730481   3.3611587  19.5746737  10.4994255   3.1528333
  17.6455097  24.3353611  25.0498394  18.5944109  24.2131287  25.0200656
  17.5286894  25.2192503  25.3981498   2.2973117  30.5956507  53.4349442
   2.4769978  31.5177846  53.2516050   1.9880931  30.2415109  52.6011562
  64.5881566  40.1500893  31.9992089  64.7192812  41.0680389  32.2367144
  64.4772518  39.6995592  32.8364372  21.8622923  31.6130948  55.6187534
  21.4680195  32.3106909  55.0951719  21.1171412  31.1112452  55.9491014
  21.8747263  25.7467705   8.0053953  22.3453980  26.1904341   7.2998003
  21.0445004  25.4814774   7.6097015  56.5626949  45.3527117   2.7520466
  55.9993297  46.0686111   2.4582115  56.9970912  45.6949806   3.5333186
   6.9761663  26.0831982   1.3332990   7.1935659  26.2291914   0.4126171
   7.8205591  26.0970837   1.7839006  10.3961211  13.7830883  10.8484415
  11.0079413  13.4766013  10.1791338  10.7150584  14.6544367  11.0835174
  33.6582147  19.0323407   5.9753898  33.8588082  19.8651129   5.5482057
  32.8966354  18.6976057   5.5019096  62.6086480  63.1053561  44.3389559
  61.8670327  63.6251006  44.6489620  62.5327760  62.2752949  44.8095655
  55.2715068  13.9852721   8.8817886  55.5092358  14.9021203   9.0200189
  54.8960184  13.7066561   9.7170213  68.1978285  54.2712008  12.2303346
  67.3386394  54.5199358  12.5711492  68.1138908  54.3603312  11.2809948
   3.5015771  43.9033699  30.1236892   3.6985299  44.7610140  29.7470069
   2.7841151  44.0693855  30.7351780   3.5099869   1.1483675   1.3220838
   3.5346203   0.7477051   2.1910480   2.9646879   0.5583984   0.8016876
  18.4660172  44.3996382  50.9177446  18.9892197  43.8212824  50.3627729
  19.0853405  44.7335720  51.5667105  10.4722433  26.0530764   5.2156738
  10.6041556  26.8569762   5.7182458  11.3296204  25.6274754   5.2152351
   3.4067070  54.1583216  33.0746177   3.7346398  53.5066187  32.4549583
   2.4691307  53.9767134  33.1394199  54.6422588  17.4185997  35.5209640
  55.5533217  17.4784142  35.8084014  54.6743273  16.8727642  34.7352985
   0.3249173  30.3148085  23.6305431   1.2613826  30.4986149  23.7045578
  -0.0375528  31.0882145  23.1984666  14.2584753  10.6875265  55.9079742
  15.1441634  10.6329763  55.5490685  13.7289155  11.0299718  55.1878834
  60.3780424  24.0802771  34.8286918  60.8428239  23.3236557  35.1860908
  60.8607482  24.3039280  34.0329460  50.3102290   2.6331264  20.1916936
  50.0407772   2.1552235  19.4073251  50.2991026   3.5530263  19.9273256
  14.8323720  16.8653006  55.0272894  15.6451481  17.0511717  55.4974794
  14.5694971  15.9984869  55.3367710  13.0004096  28.9720988  42.5174141
  13.7350714  28.6634254  41.9871092  13.0504370  28.4539056  43.3206606
  48.9709728   4.0275222   5.9495357  49.1262059   4.9368221   5.6939796
  48.1009727   3.8269264   5.6044391  41.1580789  63.0534875  20.4589656
  41.4999854  63.2027113  19.5774511  40.8340239  62.1529924  20.4409174
  36.5357660  16.6834980  16.6872123  37.4515872  16.7087752  16.9644598
  36.0721587  17.2025401  17.3444036  23.9044094  58.2257938  31.6693735
  23.4191084  57.4129200  31.5281200  24.2178965  58.1638813  32.5716615
  64.3480157   3.8839108  18.7688688  64.8130189   4.7069484  18.9192441
  64.8254990   3.2400137  19.2919735   9.6016884  58.9242268  32.5766587
   9.6211940  59.4586086  31.7827511   9.9295878  59.5042419  33.2638979
  28.2131338  44.6540594  44.5398188  28.0625725  44.0054989  45.2275181
  29.1120052  44.4940329  44.2523241  58.3935260  18.9031559  16.9835237
  57.4727725  19.1634327  16.9570163  58.6448287  18.8176733  16.0638622
  53.6685823  28.3953577  23.5303358  53.2838141  29.2177159  23.8335041
  53.4857946  28.3773667  22.5909236   3.1319361  38.0846888  20.9466938
   2.2050100  37.8970391  20.7989601   3.2233291  39.0154559  20.7428459
  61.8804728  26.7577130  12.7513126  61.9969558  26.9114453  13.6888794
  62.6045178  27.2293049  12.3395017  30.4667836  26.8713528  21.4671806
  30.4691201  26.9299609  22.4225811  30.0946122  26.0093409  21.2810091
  58.1763637   8.1232113  33.2378888  57.4566066   7.8889126  32.6519847
  58.7763464   8.6290688  32.6898408  56.7956089   8.1379372  43.4571460
  56.2046288   7.7096301  44.0764431  56.5705501   9.0665394  43.5144046
  57.8534514  57.8408861  44.3170547  57.3771590  57.2191334  44.8673248
  58.7763929  57.6409340  44.4733572  15.1264434   4.8931533  18.8843158
  14.3979173   5.0824768  18.2930139  15.8895641   4.8262030  18.3103851
  30.3487282  39.5399230  12.6558641  31.0755169  39.6095621  13.2748655
  30.6891441  38.9938551  11.9472364  37.5747323  50.6258011  42.3022938
  37.0519257  49.8318911  42.1899748  38.4066844  50.4275274  41.8724394
  59.0566431   6.8079239  16.2733081  58.1445764   7.0142895  16.4777092
  59.3661224   7.5619275  15.7713798  38.2870071   5.2653343  28.6258415
  37.3546879   5.1048452  28.4800437  38.7264495   4.5317680  28.1957248
  63.5248714  63.3898389  11.1041645  63.3078724  63.6146533  12.0089296
  62.8852158  63.8697707  10.5781034  50.2069246  14.6903080  31.2476397
  49.2694985  14.5101542  31.1768556  50.3104150  15.0839991  32.1139717
  26.7088490   6.3709122  21.6160015  26.5368729   6.3167960  20.6759361
  27.2221070   7.1721679  21.7198566  39.1198873  54.5319330  37.2411254
  38.1897759  54.7579991  37.2452739  39.5673596  55.3552663  37.4363712
  13.4846001  10.4893536  40.7628202  13.2173901  10.0329775  39.9649787
  13.5253566  11.4114089  40.5090952   8.4105324  58.9239890   7.7296594
   8.1295847  59.4946104   7.0143322   9.2302107  58.5382563   7.4205259
  20.9233332  57.1893024  54.9621296  21.4246750  57.1488237  55.7765341
  20.3474045  56.4255571  54.9972057  34.6797108   4.8986096  26.6181684
  35.1693177   5.6968684  26.8164158  34.4483399   4.9830384  25.6931973
  27.9103088  53.7912369  39.6718836  27.6628375  52.9549074  40.0662661
  27.1406221  54.3481779  39.7886515  31.3822698  20.7912308   5.1509813
  32.2494196  21.0186249   4.8154596  31.0045623  20.2273899   4.4759658
  55.6605035  27.3872209  11.7894793  56.3913661  27.7240562  12.3077607
  55.2835971  28.1630445  11.3744211  12.9995549  37.8510165  48.9808941
  13.3795047  37.8549957  49.8594475  12.0546257  37.8126478  49.1287708
  42.5574439  20.2223164  17.6355651  42.7317529  19.7111088  18.4258274
  42.4378379  19.5671612  16.9480327  31.8294465   8.8867766  53.7660888
  31.0771870   8.3012730  53.6793521  32.5781642   8.3003336  53.8744262
   9.0688246  61.4702320  55.7694149   9.8618358  62.0016289  55.6988430
   8.8381976  61.2627125  54.8638868  18.2492030  58.0030632  49.4501066
  18.4579003  58.2150650  48.5403109  18.8822544  57.3262119  49.6895933
  42.7629121  33.5790688  20.4186157  43.5546962  33.9188200  20.8356050
  42.1676915  34.3281037  20.3887371   5.9827429  62.6203108  44.2419052
   5.2432251  62.6746845  43.6366034   6.3377315  63.5089016  44.2667818
  44.7574204  55.7844257  35.2001905  44.9768633  56.2217665  34.3775058
  44.3027466  54.9856281  34.9329376  49.5925533  24.4969088  12.4730972
  50.2588456  25.1803023  12.4005941  48.9749764  24.8324925  13.1228784
  67.9406845   4.6800942  52.5740004  67.7302801   5.5994553  52.4104881
  67.9515373   4.6028800  53.5280180  57.9093002  41.1018139  11.6631702
  58.1413518  41.7077547  10.9594539  57.8220545  41.6568619  12.4381164
  33.1265068  44.8284340  45.8898354  32.8581166  45.7159615  45.6521559
  32.3046756  44.3641996  46.0489225  61.5260111  12.4580389   6.3135484
  61.6085993  11.5168959   6.4673618  62.3880147  12.7251250   5.9944109
  39.4777870  49.1597330  31.4086631  39.3936121  48.4788680  30.7411483
  40.4196631  49.3182837  31.4716247  58.7731301  11.2428385  11.1585954
  58.5785674  10.5016190  11.7321542  59.7233330  11.2158114  11.0462764
  45.0092889  11.5737254  26.1631969  45.7382706  11.2747437  25.6196693
  44.2303544  11.2162453  25.7369331  34.8585807  12.6593405  19.0352968
  35.7820045  12.7670914  19.2631343  34.7225164  13.2552582  18.2986835
  37.7402698  56.0746371  11.4863113  38.4471952  55.6123220  11.0360292
  37.0586359  55.4131019  11.6045335  26.0917192  55.7076418  36.0563091
  25.6924721  54.8937094  35.7491497  26.9338506  55.4379332  36.4227870
  28.3424799   1.3022138  18.2507614  28.3273260   0.9579183  19.1437677
  29.0052144   0.7766629  17.8026489  14.0973198  36.8868852  44.2071676
  14.0490365  37.1112990  43.2778978  13.3456457  37.3305511  44.6000767
  44.0437662  62.3627006   5.6123498  43.4661853  61.6936576   5.2449039
  43.5433185  62.7400863   6.3357881   3.7275845  29.7029114  48.4919357
   4.3245751  29.6867490  47.7438927   3.8815361  30.5535793  48.9029026
  14.5088518  52.3871136  47.5139904  14.1946864  53.2911205  47.5314903
  14.8639357  52.2739744  46.6323185  67.1551905  47.4189854  47.8494740
  66.7340846  47.8297615  48.6045647  66.4703148  47.3865557  47.1815491
  52.8796226  40.8527660  41.6327477  51.9444769  40.9679031  41.4639950
  52.9167420  40.3897476  42.4696875  22.2382407   8.0750365  31.4056706
  23.1723245   8.2810635  31.4413357  22.0696004   7.5872893  32.2118306
  16.0072403   2.5672490  20.2635578  15.7002216   2.1229369  21.0538486
  15.3838806   3.2818228  20.1330379  21.7732685  63.3598053  36.4885334
  22.7206629  63.2357776  36.5458969  21.4928168  62.7502858  35.8058456
   4.2403751  23.4170109   1.6245082   4.9958854  22.9090411   1.3288740
   4.0149169  23.0384642   2.4742750  57.7613365  36.5807921  21.8477443
  58.3467995  37.3188883  22.0170883  57.8287946  36.0366589  22.6323417
  18.4162879  39.1508269  28.1042242  17.9284000  38.8778043  28.8811779
  18.3862400  40.1072979  28.1263828   3.9296067  24.4958043  54.0203762
   3.2520896  24.9429512  54.5275831   3.6997387  23.5684562  54.0788507
  50.9727966  19.2094141  16.6541484  51.6014587  19.8855502  16.4014534
  50.1696311  19.6910721  16.8520406   0.4151802   3.7911183  31.9565395
   0.7115012   4.6050435  31.5491680   0.7242375   3.8494116  32.8605941
  47.0855343  18.7070269  42.3103905  47.7306473  19.4140238  42.2960567
  46.9636857  18.4752650  41.3896990  43.5046577  48.9057446  44.2126703
  43.3913231  49.8561144  44.1990566  44.4514608  48.7782717  44.2721701
  28.3044672  56.3211476  22.7166561  27.6411694  56.8901812  22.3261884
  27.9279321  56.0549223  23.5554555   1.3151198  35.0503165  10.1559547
   1.7117219  35.7943875   9.7028593   1.1882644  35.3566176  11.0539106
  51.7809974  34.9008852  22.7032903  51.1504685  34.3028313  22.3020509
  52.2490250  35.2873618  21.9631437  23.6345076  12.9762131   4.9800495
  24.1394757  12.5152117   4.3101886  23.1888842  13.6770064   4.5040897
  55.2674567  18.5594649  50.6736708  54.5161020  19.0173239  51.0505819
  54.9579250  17.6642413  50.5358601   8.0493659  50.4735756  26.4930844
   8.0503243  50.9185266  27.3405814   8.2866931  51.1552429  25.8644104
  27.1173927  61.7890107   2.3961881  27.2007495  62.7193605   2.1870664
  26.8378809  61.3831746   1.5755800  20.0282590  60.3878229   3.0607516
  19.7803740  59.8519152   3.8141353  19.4594710  61.1557501   3.1155402
  11.9062387  62.9303300  34.0456394  12.1981501  62.9662764  33.1347469
  11.5760815  62.0387184  34.1563324  49.6384274  52.8193604  31.6257194
  49.4560277  53.2590258  32.4561790  49.2338311  51.9567406  31.7174820
  56.3145601  18.9201218  20.7973484  57.0354115  19.1533095  20.2123455
  56.7180072  18.3660227  21.4655117  30.4206060  18.6802012  12.8850416
  30.9650122  19.0546233  12.1924642  29.5792054  18.5088641  12.4620489
  41.2198180  29.9257493  55.8618879  41.6584319  30.2142572  55.0615072
  40.3419512  30.3027558  55.8031511   1.6974482  42.4365139  41.4703321
   1.9630745  43.2566357  41.0543060   0.9934620  42.6881981  42.0680666
  24.8528337  10.7896435  29.8636794  25.2769208  10.0931704  29.3623734
  23.9160800  10.6191564  29.7654080  66.8140029  30.5275017  26.1600784
  66.3965963  29.6802098  26.3153175  67.1206950  30.4810864  25.2545265
  36.8250852  24.3606526  21.8653730  37.3738407  24.1491848  21.1101392
  37.1644097  25.1981980  22.1809772   8.3879142  30.1334530  14.4192365
   8.0787235  30.8088070  13.8154796   9.1937595  29.8058564  14.0198329
  30.0097066  49.5754075  11.2037996  29.2499411  49.1050064  11.5468935
  29.7709816  49.7907793  10.3022150  42.8681039   4.7658402   3.9113096
  42.7768405   5.5945283   4.3816093  42.5427975   4.9530822   3.0307725
  28.6429053  44.0909106  18.6431411  28.4778672  43.8777262  17.7246908
  29.1939383  44.8729855  18.6122135  65.4074036  23.0633789   7.2463182
  65.3038143  23.9890725   7.4667600  66.3338064  22.9725033   7.0232729
   3.3143835  11.6188103   3.2146600   2.6046496  10.9774453   3.1805995
   2.8724366  12.4671656   3.1799463  12.9824889  37.7457213  27.9356670
  12.9612494  38.3241272  28.6980486  12.8450990  36.8695760  28.2958388
  37.1236729  19.4993597   2.6156477  37.4135839  18.7751299   3.1703332
  36.5864246  19.0841299   1.9409803  62.2718703  63.5499012   7.3336080
  62.4549853  62.8976309   6.6574100  61.9172251  63.0439341   8.0646757
  10.2760285  64.5302498  10.0355009   9.4796103  64.7589695   9.5562986
  10.1030558  63.6556708  10.3839592  57.1582304  24.7618491  40.8161071
  56.3219737  24.9800402  41.2275699  57.8040873  24.8699099  41.5142635
  33.7977529  49.4748640  23.4355807  33.0697417  49.0734816  23.9100552
  34.5361590  49.4242668  24.0425634  40.8548289  60.8449370  15.3577426
  40.9671574  60.5262286  16.2533048  40.6352597  61.7711073  15.4588846
  29.9656689  13.6049408  51.4690781  30.2571243  14.4750256  51.7415476
  30.3327786  13.4930748  50.5921841   7.3048120  29.3321663   6.5081314
   8.1833773  28.9541251   6.5461114   6.7213159  28.5761076   6.4438108
  19.3896210  61.7957973  45.3370428  19.6673846  61.6716385  46.2446022
  18.7258327  61.1208820  45.1952553  26.5174233  20.0767321  54.7139740
  26.2341985  19.9293704  53.8115883  27.0235738  20.8883090  54.6766376
  67.8666853  47.4703747  23.1475643  67.0258092  47.0315319  23.0187992
  67.6763987  48.1760508  23.7656597  27.5558212  62.1861684   5.3431085
  27.2331231  61.8673813   4.5002130  28.4958302  62.0066821   5.3231052
   8.0877322   9.6275515  19.0722764   7.3607128  10.2059073  19.3028784
   8.8724106  10.1416535  19.2625725  18.9281464  12.4406922  42.2245264
  19.6517980  12.8680539  42.6826954  19.3169248  11.6524887  41.8452930
  45.8966839  19.1166682  18.3557928  45.1179850  18.5682387  18.4511280
  46.4797484  18.6087508  17.7916217  30.0049543  11.6767115  53.7756062
  29.6651816  12.0564742  52.9653168  30.9370028  11.5417237  53.6044455
  49.2439984  28.7411267  11.4326385  48.4063994  28.3045441  11.5877346
  49.9020069  28.0783993  11.6425136  15.6388116  55.0773287  43.7098265
  16.0636532  54.6367216  44.4457626  15.6475985  54.4293928  43.0053139
  49.0645878  32.9599387  14.0343097  49.6764367  32.9510838  14.7703746
  49.6141141  33.1244809  13.2680324  57.0587062  43.1221348  13.3646205
  56.3827967  43.4836823  12.7913288  56.6094517  42.4404007  13.8642553
  56.2335967  31.5577990   9.7833828  55.4682421  32.1235901   9.6816543
  56.9598042  32.0713526   9.4296649  27.4291687  10.4157502   8.8214735
  27.7876311  10.2046782   7.9593900  27.7557783   9.7210795   9.3933061
  41.7465258  46.0706520  31.3007331  41.9823217  45.7959938  32.1868443
  42.3573923  46.7794847  31.0991573  44.9968707  39.5518308  25.2491668
  45.4777920  40.3328376  25.5229763  45.6727397  38.9542722  24.9292282
   7.1877413  42.3162562   9.5200113   6.5146714  41.7010600   9.8111204
   7.3397570  42.8811222  10.2776722  34.4581866  48.1398058  45.0719690
  33.6899018  48.5152578  45.5020952  34.4866705  48.5677958  44.2162561
   4.7875374   7.1950860  23.5534620   4.4384878   6.3235564  23.7401104
   5.7225436   7.0522065  23.4065580  25.0782328  27.4066693  10.5944541
  24.4819098  27.2264821  11.3212064  24.9932795  28.3479268  10.4426626
   3.0747005  60.3828716  27.6482749   2.8258979  59.4854021  27.4271846
   2.5073093  60.9295273  27.1047068  54.8460280  11.3690133  27.0219612
  55.6061661  10.7893080  27.0705557  54.4674098  11.3416857  27.9006720
  11.4115482  20.5800921  34.9306301  11.7983322  19.7139365  35.0587181
  10.4873972  20.4057366  34.7523693  63.0331241  34.0247780  28.9500907
  63.8719069  33.5636479  28.9560512  63.0317592  34.5299775  29.7631172
  64.5579587  28.9033610  20.1110652  65.0433361  28.4584004  20.8057931
  63.8739788  28.2821518  19.8610595  21.7121725  42.2655016   2.3946384
  22.0357924  42.2664172   3.2954696  21.4745026  41.3536602   2.2264532
  52.5489032  13.0481286  36.6841435  52.5522363  14.0052599  36.6730428
  53.3500683  12.8004546  36.2225986  28.2092552  59.2379672   0.8844379
  27.7719336  59.6493632   0.1389555  29.0433150  58.9279753   0.5316213
   8.8020687  -0.0943845   9.2967514   7.9966908   0.4198128   9.3533424
   8.9864474  -0.1482600   8.3590272  24.1272831  60.8003616  34.6897984
  24.3512917  59.8740625  34.7793365  24.2124581  61.1540413  35.5751729
  41.9525909  42.0502424  21.7250109  41.2411690  41.4709091  21.4520955
  42.4170351  41.5570641  22.4012494  55.3764736   0.2306647  33.1899381
  54.4317805   0.0929446  33.1205010  55.6433665   0.5066866  32.3131180
  66.8954109  25.5562407   4.5705703  66.3387631  26.2030035   4.1368965
  66.4597916  25.3869730   5.4059270  50.3321003  29.7220665   5.6604532
  50.7055866  29.5788819   6.5300754  50.0755539  30.6442458   5.6588415
  55.9024751  31.1473937  53.1471968  56.7143642  31.4237399  52.7221107
  55.4874527  31.9640536  53.4247684  14.4300120   5.2639771  14.3714145
  14.8381369   6.0785485  14.0779403  14.5588653   4.6557523  13.6436084
  45.3740656  12.3685784  40.0535297  45.6179296  11.4676184  39.8413110
  44.4391882  12.3228020  40.2538729  62.7319156  21.4700562   5.6455806
  62.8559052  22.1611935   4.9950508  63.1754135  21.7959315   6.4287475
  18.9958191  40.5171728  42.8321934  18.7176394  39.8512006  42.2034359
  19.5729649  40.0500250  43.4362698   7.5307708   3.9835030   0.7923416
   7.2874599   4.5019990   1.5592769   7.8125530   3.1422049   1.1515764
  53.4849035   9.0720076  33.8037753  53.9556348   9.3945069  33.0352449
  54.1346633   9.0873045  34.5064902  53.4796822  34.5264048  36.4697504
  52.7807319  34.4542880  35.8197522  53.1057369  34.1498084  37.2663522
  25.6078625  31.1088943  47.1822309  25.3597903  30.2107048  47.4011993
  25.5950499  31.5718961  48.0199051   1.3873959  33.5661674  24.1513824
   1.3409039  33.8091946  25.0760484   0.4740565  33.4594846  23.8855600
  45.9545235  16.1708695   3.0608705  45.5867395  15.7956129   2.2607759
  46.9011258  16.1550242   2.9197124  49.4217634  50.4027843  53.1328678
  49.6879339  51.0069370  52.4397707  49.7350597  50.8111382  53.9399147
  62.0907962  15.9545226  54.0139294  61.3529956  16.1107630  54.6033955
  61.8264353  16.3580317  53.1871700  58.9450919   3.3567137  31.9402695
  58.1901323   2.8260417  31.6859937  58.9009845   4.1245360  31.3704133
  67.5877619  58.5019493  54.5708561  67.9816771  58.9872503  53.8459110
  66.9636250  57.9096651  54.1514683  67.8950893   9.5413107  36.8828917
  68.5312139   9.6051354  36.1704969  68.2103550   8.8153023  37.4211788
   6.9768553  57.3510081   9.2908433   7.7259760  57.0169169   9.7842315
   7.3549395  57.9848677   8.6813310  10.9312086  13.4183604  35.1299861
  10.6548028  14.1591746  35.6694511  10.6737881  13.6606223  34.2404464
  62.6644611  60.6867743  45.9661770  63.3896041  60.0910044  45.7778740
  61.8918210  60.1224232  45.9938478  14.9755883  57.1717894   9.8897890
  14.1483223  57.1519148   9.4086793  15.4528057  57.9121577   9.5151571
   6.7639928  17.3008210  14.5870594   7.7107530  17.1603114  14.5755485
   6.6389256  18.0411011  15.1808408  15.5753719  24.5555682  33.2505894
  15.1462966  24.9563117  34.0065861  16.4884197  24.4539828  33.5193920
  52.4911642  59.0172815  33.1950283  52.4869633  59.9529076  32.9929852
  51.6063213  58.7219334  32.9804182  40.7610332  13.1844420  46.4715290
  41.6336941  13.5526032  46.3331366  40.5089259  13.4872097  47.3438835
  25.4987397   2.6248354  55.8535719  24.7232972   3.0311627  55.4665089
  26.2264227   3.1771845  55.5678797  66.4760828  31.8937278  52.5544024
  65.9201278  32.6673532  52.4613905  65.9019242  31.2309027  52.9381132
   5.4729777  27.1295506   7.0623306   5.7710939  27.5138527   7.8867534
   4.6789222  26.6486079   7.2955707  25.4824066  29.7101903  41.8821812
  26.2248850  29.7195864  41.2781334  24.7198677  29.8729682  41.3269567
  34.9910164  56.7398262  19.4040465  35.0409126  56.2662745  18.5736907
  34.2760897  56.3159943  19.8788953  56.2530016  25.4984528   9.8475889
  56.0856103  25.9945542  10.6488994  56.2988912  26.1626440   9.1598562
  36.9334941  34.4905955  16.3494447  37.7785998  34.1569811  16.0482362
  36.2869113  33.9769751  15.8653406  13.7003302  34.9236876  22.9980663
  13.5475849  34.4852978  23.8351539  13.9345478  34.2167622  22.3967079
  49.3977880  53.6045122  37.6676464  48.8191700  53.3550167  38.3881927
  49.9997473  54.2410421  38.0532646  54.4692718  -0.0837760  36.4631128
  53.7060272   0.4574341  36.6650558  54.5688021  -0.0127845  35.5137515
   2.5411528  16.8799204  51.2045765   2.8098076  16.1374659  51.7457056
   2.1821373  17.5123877  51.8269253  53.9644175   6.2478906  32.7002624
  53.4392058   6.3028389  31.9019130  53.7853502   7.0672256  33.1616214
  64.2457735  17.7068038  47.8246260  63.6648666  18.4560103  47.9567623
  65.0631153  18.0905528  47.5069571  52.1205263  29.3234259  29.3327716
  51.7440801  29.7178990  30.1194767  52.9123550  29.8341233  29.1641716
  29.8379755  52.0555830  44.9142027  30.1901507  52.4916363  45.6901312
  29.0957355  51.5473080  45.2412653  22.2451252  17.5543780  39.8763609
  21.7249942  17.0285792  40.4840088  22.0685236  18.4599013  40.1314497
  58.6511277  23.0656725   6.6373304  58.3644651  23.4039551   7.4856332
  59.0836905  22.2370869   6.8436626  41.2240171  49.2999887  48.6281872
  41.9737625  48.7692165  48.3591223  40.8566904  49.6289587  47.8077698
  27.7651024  37.0615888  48.4377193  28.0416965  37.9197240  48.1162739
  28.2981181  36.4379120  47.9446125  48.4483149  20.6772095  38.7274936
  48.0671962  19.9411828  39.2062858  49.3933268  20.5353552  38.7828258
  67.7760612  22.6617813  34.2584944  67.9701508  22.7590799  35.1907468
  67.4785787  23.5291791  33.9839792  17.5987589  27.5483847  40.2957153
  18.2262099  27.9053783  40.9242773  18.0161428  27.6732612  39.4434071
  45.6494182  25.8920503  31.3446283  46.3998765  26.0569167  31.9154716
  45.1140660  26.6820836  31.4186406  66.2476885  11.9970309   6.4404872
  66.5539896  11.6560041   5.6001857  67.0473682  12.1403491   6.9466547
  19.0517080  35.5064821  49.0909576  18.5597396  35.8111453  48.3284760
  18.9063048  34.5605326  49.1074800  27.1995859   2.7882534   6.1619905
  26.4888077   2.5758058   5.5571035  26.7662506   2.9133326   7.0062688
  20.0865039  46.7448043   7.7774290  19.2581921  46.4629590   7.3892358
  20.7086354  46.0572969   7.5396923  53.5099953  29.6552634  37.9329324
  52.6835662  29.2123079  38.1253791  53.8718372  29.1743541  37.1885991
  56.6300255  49.6809512   4.8370498  57.5670535  49.8763853   4.8409593
  56.2073118  50.5361801   4.7587574  60.0913328  18.2302892  48.8014317
  61.0411394  18.3437288  48.8365221  59.9680710  17.3548245  48.4345531
  56.3287467  54.7077131  38.8350511  56.6022771  54.0501499  38.1955004
  56.8211788  54.4911575  39.6267867  33.7997316   5.7576996  12.0538333
  34.4308447   5.8930212  12.7606681  34.0818833   4.9455697  11.6330389
  28.8029844  58.2256626  18.1637168  28.2595617  58.7637704  18.7393594
  29.6921438  58.3379012  18.4999180  60.6545543   1.8071920  19.4569591
  60.9692143   0.9973198  19.8586181  60.3904520   2.3544604  20.1965383
   4.8581970   5.3077120  38.7857199   4.4089010   4.4635463  38.7438941
   5.5521697   5.2424395  38.1296921  21.2263663  28.6713218   0.2076534
  21.7068409  29.3044728   0.7410387  21.3740384  27.8312364   0.6420282
  46.7336178  24.7971654   4.8776546  46.9324875  25.2516198   4.0590256
  47.3181581  25.1969409   5.5216449  42.8642499  61.7766511   0.4807285
  42.9580652  61.6101872   1.4186624  41.9218432  61.8802702   0.3489498
  67.3411185  53.8692408  36.5666771  66.5365678  53.3587211  36.4755917
  67.2053320  54.6324836  36.0052013  27.4255360  62.9270414  33.1203890
  27.1714867  62.0540451  32.8211069  26.6049707  63.3322779  33.4009004
  38.2760466  53.1523436  34.9553442  38.3932203  53.5942309  35.7963181
  38.7839181  52.3450237  35.0361729  66.0646757  28.6031651  39.5004630
  65.2706474  28.0808687  39.3866324  65.7850826  29.3525815  40.0262308
  64.2850211  21.8130136  28.4289503  64.8985502  21.7811322  29.1629791
  63.7245771  21.0468221  28.5517812   9.3909491  24.7896677  46.1903858
   9.0003503  25.3433137  46.8665075  10.0279797  24.2513566  46.6601133
  66.8729168  24.0305090  50.0475264  67.1724918  24.6630883  49.3945885
  67.6708013  23.5862589  50.3343296   3.7220746  40.6017542  35.6385469
   3.2233512  41.0632133  36.3127565   4.2553911  41.2820196  35.2273989
  48.1606549   2.5777906  15.6996632  47.7501839   1.9976538  16.3409019
  48.0223650   2.1415541  14.8589456  51.8708914  47.3039675  32.2513652
  52.6470393  47.2829914  32.8111744  52.2190505  47.3308563  31.3601351
  66.4200526  16.0639309   7.3549703  66.3667660  16.5516746   8.1768564
  66.9265943  16.6302478   6.7727903  37.5079679   9.7732300  39.5479798
  36.9924617  10.4885709  39.1754556  38.0155063   9.4344425  38.8105130
  46.4547271  61.7878312  45.4996010  47.2571487  62.3093170  45.4793915
  45.8979149  62.1788901  44.8263511  10.5880868   9.9894297  32.3362541
  10.5667543  10.3993225  31.4715195  11.4363301  10.2425730  32.7004433
  37.6757776  27.0103371   8.0479196  38.0142652  26.2878847   8.5768083
  38.1567311  27.7784869   8.3559135  55.7523650  21.6481471  16.7411220
  56.6939813  21.5491343  16.8817866  55.5958754  22.5890708  16.8211412
  31.4109515   5.5846054  24.7228149  30.7747411   5.3853351  25.4096607
  30.9952961   5.2807862  23.9158681  10.2252841  31.7985082  48.4503698
   9.6405399  32.4657655  48.8096380  10.0514126  31.8093252  47.5091553
  16.1678988  62.3947618  15.1569045  15.7178480  63.0985345  15.6242251
  17.0770651  62.6886026  15.0993717  36.0970509  44.8280322  11.3333515
  36.5391087  45.1617240  12.1140340  35.7426023  43.9806234  11.6026023
   6.3917769  58.7899595  21.5671206   6.9715274  59.1660022  22.2294760
   5.7693995  59.4895654  21.3685560  51.6021198  23.5565829  50.5410957
  51.6837901  23.9201498  51.4227867  50.6876844  23.7091660  50.3028584
  40.4252719  47.2661161   2.1730093  40.6421375  47.3397219   1.2436107
  40.9945607  47.9042375   2.6030639  40.2152061  20.6349969  32.5454998
  40.7394838  21.0764384  31.8772960  39.7285843  21.3400149  32.9725575
   5.6481409  39.7246361  10.0490761   5.5051953  39.7050476   9.1028118
   5.1689225  38.9647579  10.3794789  41.3603735  18.2913911  25.4935670
  41.7187595  18.7511754  24.7343636  41.0791588  18.9891768  26.0853815
   0.7586946   0.6008881  43.5433531   0.7355952   0.5438243  42.5881338
   1.2197165   1.4202304  43.7232637  31.5274811  18.9435136  33.0753922
  31.3247800  18.0386078  32.8381395  30.9893584  19.4719446  32.4859715
  50.3948342   1.6077005  12.3426965  51.2057936   1.5668261  11.8358377
  50.1736891   0.6924736  12.5149921  35.6469124  11.2803912  51.5745544
  35.9673089  10.5166566  51.0946703  34.7298783  11.0788727  51.7607546
  61.7829394  16.9673789   6.9335228  61.9037884  16.0749435   7.2578478
  62.4168962  17.0512784   6.2212789  15.9143901  11.2833023  32.8987575
  15.7888126  11.3707983  33.8436413  15.7772386  12.1664870  32.5561142
  31.6880202  16.1585200  35.9775043  32.0028090  15.8389473  36.8230891
  32.4232125  16.0201037  35.3803730  28.9500814  44.7165369   3.3340505
  28.5373175  45.5345237   3.6110977  28.2481151  44.0672540   3.3777193
  36.2841606  36.1787864   6.4736465  36.4127445  36.7932027   5.7510189
  36.2105870  36.7340034   7.2498897  15.5296409  11.7702711  28.1889558
  15.9417772  10.9601343  27.8888655  14.7185707  11.4848411  28.6095834
  15.4127746  17.2158288  22.4387649  15.0586068  17.7120947  21.7008546
  15.4090666  16.3065493  22.1397213  19.5776415  14.2925656  52.7120876
  20.3547144  14.8336947  52.8519821  18.9945912  14.8416770  52.1879148
   1.3905847  63.4669101   7.0066122   1.3673269  63.1184899   6.1153844
   2.3085725  63.6971318   7.1498970   5.9749776  26.6923904  41.8640327
   5.6963611  27.4247456  41.3142443   6.0582155  25.9561086  41.2580681
  56.8841487  33.9977551  47.1398258  56.5217632  33.9794040  48.0255890
  56.1420232  33.7874937  46.5730190  14.4252133  14.1215301  27.0531893
  14.8618412  13.2946646  27.2578406  14.0074265  14.3813980  27.8742599
  39.5581865  16.1224675  24.9401879  40.0577164  15.8828700  24.1596174
  40.0620031  16.8322492  25.3384495  63.5756847  24.8952508  43.2585669
  64.3032485  24.7247648  42.6603889  63.9001131  24.6181369  44.1154146
  36.5484834  23.9647651  32.3692393  36.2170386  24.3088770  33.1986737
  37.0357513  24.6936536  31.9851494   5.3319144  12.6718485   7.0013356
   5.2764827  12.8670740   7.9367745   6.2471235  12.4289978   6.8611676
  60.3666168  51.3483750   4.0291027  60.8527141  50.6716906   3.5578922
  61.0193186  51.7633581   4.5930198  46.9738326  42.5180297  43.3348179
  47.6678211  43.1248074  43.0770731  47.3164826  41.6529232  43.1102896
  55.4521185  41.8638420  42.6863146  55.0200587  42.7153778  42.7529430
  54.7339970  41.2310457  42.6760626  28.7529182  63.1745445   8.6721519
  28.0371332  62.6091563   8.9623598  29.2137837  62.6574695   8.0114940
  22.3285027  40.3855484   8.0939725  22.8604952  41.1786818   8.1584314
  21.4408105  40.6747448   8.3051590  49.9136508  55.1383667  40.2739763
  50.7609123  55.0115859  39.8470044  49.7769595  56.0856288  40.2584076
  49.3663203  29.7828821  53.3146862  49.6451914  29.6810772  52.4046901
  49.4377791  28.9038962  53.6868576   6.8304169  57.5585270  26.9389319
   6.6963691  56.8703938  27.5906515   7.1899748  58.2929230  27.4365401
  15.2834010  58.6104918  28.4579873  15.5856907  58.2420063  29.2880893
  14.5397282  58.0616856  28.2090020   6.4719534  38.0182624  51.6166544
   6.1158210  37.9442739  50.7312584   7.3942089  37.7790809  51.5246201
  59.1706044  62.0320765  20.6914639  60.0947899  61.7905705  20.6299162
  58.8581080  62.0160704  19.7868526  11.7588413  20.9712291   6.2855422
  11.1170900  20.4105473   6.7214602  11.2954223  21.7956209   6.1377168
  25.3075767   3.7804472  48.0822086  24.7799468   3.1911880  48.6212921
  24.8671055   3.7864619  47.2323942  50.6423927  58.6122154  36.4610600
  50.2087057  59.2984878  36.9681859  51.5338225  58.5846245  36.8086553
  52.3759520  63.3983671   0.9688858  52.0405375  63.0979955   1.8135742
  52.4924147  62.5968778   0.4587081  51.7581188  12.2061395   0.9911541
  52.5309646  12.2752416   0.4306463  51.5200960  13.1130397   1.1837915
  11.3374424  23.1386447  47.2993565  11.4422357  22.2657251  46.9208574
  12.1044612  23.2497859  47.8611040  11.3751459  34.4093800  37.3314238
  12.3151875  34.4199085  37.5115466  11.3136590  34.4507599  36.3770986
  10.5233032  33.6699103  55.8386442  11.1228199  33.8632579  55.1179313
   9.7085602  33.4093019  55.4090979  52.5622445  22.8333330  19.6951628
  52.6203054  22.4783754  20.5822182  53.3522469  23.3649683  19.5977378
  65.7193912  19.4565511  55.0095463  66.4482826  19.2775345  55.6035995
  65.2072766  18.6478674  55.0082779  11.8912685  27.1834808  47.6284313
  11.4199746  26.4163046  47.9533195  11.9326437  27.7750855  48.3797836
  55.7971114  63.4707977  28.3149672  55.6395287  63.4024251  27.3733068
  55.8527631  62.5635386  28.6149931  18.8567126   0.1838953  42.3348808
  18.1144905  -0.2776961  42.7251005  18.7742412   1.0826754  42.6536655
  13.2220662  37.7818775  51.7697287  13.5285187  36.8779588  51.8421698
  13.2369518  38.1125355  52.6678801  41.8102272  24.7004277  11.2031463
  41.8056046  24.9590308  12.1247390  42.5807621  25.1341444  10.8365444
  60.1980764  63.0501127  52.8570652  60.3182959  63.9960194  52.7731705
  61.0440552  62.7277946  53.1679726  20.1292019  30.1019675   4.6906618
  19.5761757  30.0363833   3.9121440  20.6119519  29.2756897   4.7118286
  11.0771644  20.4353976  46.3926077  11.1727726  19.6317935  46.9037914
  11.6821289  20.3259611  45.6589365   3.6922550  51.3965845  48.8927269
   4.6471500  51.3454819  48.9351034   3.4435460  51.8858385  49.6769476
  42.3237107  61.4419868  51.5993023  43.1752330  61.1969846  51.2372017
  41.8487689  61.8205049  50.8594465  40.2454090  49.8572277  11.0216001
  40.2861201  49.5943152  11.9410852  39.6810865  50.6303775  11.0183195
   7.8466380  29.9356389  19.1171312   8.6374921  29.8919940  18.5796595
   7.1266621  29.8841619  18.4884691  31.1925441  52.6879387   0.3033528
  31.0408622  53.6189251   0.4661108  32.0257014  52.6596635  -0.1670517
  61.0987174  41.9630885   7.4347976  61.6158783  41.1730307   7.5915912
  60.8394777  42.2568976   8.3081249   9.9405617  10.4389930  44.5929670
  10.1114869  10.4696846  43.6516523   9.9114537   9.5050788  44.8007870
  56.7086620  55.5461138  45.3954312  55.9332699  55.1158279  45.0350758
  57.3391361  54.8370355  45.5216977  62.4557358  24.8453403  33.3093357
  61.9115990  25.5016756  32.8741693  62.9095727  24.3985128  32.5947642
   9.8302501  40.3041315  29.0106416   9.9634624  39.3568659  29.0448666
   8.8866687  40.4175854  29.1247201  24.1568327  17.1033168  44.1094208
  23.3300996  16.6768229  43.8839293  23.9539075  18.0387199  44.1009235
  23.2775951   1.1066193  45.9637117  23.4178641   0.7267565  45.0963831
  23.8563726   0.6076712  46.5401649  63.1457663  19.8791707  39.1465116
  63.5102320  19.1497266  39.6478152  63.9114952  20.3494644  38.8167906
  32.9003012  48.6803376  27.4145988  32.2575557  48.8223803  26.7196563
  33.7369036  48.6058175  26.9554904  32.9206753  59.0938234  45.8245087
  32.5164628  58.3872414  45.3209400  33.3406758  59.6472740  45.1660776
   5.1929354  38.9075094   2.3689750   5.7747375  39.4875806   1.8777994
   5.5360519  38.9246499   3.2624010  51.6775221  28.8509536  40.2128601
  51.2237161  28.5223961  40.9889698  52.4817699  28.3337736  40.1687813
  40.4061901  37.0378810  14.0720466  40.2660131  37.5465977  13.2734302
  39.6410191  37.2282904  14.6147159   7.0463496   8.0514026  33.5810113
   6.4069968   7.6990700  32.9618812   6.9972372   8.9999342  33.4622359
  21.8406105  34.8352671  46.1919498  22.4129415  35.3552270  45.6277609
  21.1042500  34.5947647  45.6296682  67.3547530  17.8310418  23.7346530
  68.0289405  17.9818249  23.0721068  67.5837567  16.9859171  24.1213751
  12.3702002  18.1002522  36.0729289  12.6586950  18.1734216  36.9826794
  12.3184204  17.1579063  35.9131360  47.5261390  40.0779789  15.8921150
  48.4211719  40.4119807  15.8321861  47.5679671  39.2081820  15.4947046
  57.9763161   4.8235184  37.5852588  58.7853526   4.4147402  37.8928188
  58.1490122   5.7636887  37.6351551  63.6234075  36.7316818  36.6888261
  63.2243144  37.1298051  37.4624252  64.0563783  37.4588466  36.2416124
  58.9785915  20.3702021  50.5277395  59.8092443  20.2278852  50.9816027
  59.1407359  20.0726056  49.6325397  12.9558568   5.0995237  10.2374748
  13.0573325   4.5601803   9.4532255  12.7943116   4.4710308  10.9411338
   7.2721653  16.6970164  26.0699752   7.8493696  16.8241126  26.8229106
   7.6628189  15.9673172  25.5891803  42.2758662  46.4122343  12.1367839
  43.2200086  46.2691426  12.0708183  42.1550846  46.8227684  12.9930023
  26.8313956  14.8790956  35.3315258  27.7351904  14.7737586  35.6286645
  26.4388204  14.0138125  35.4472971  29.8021649  30.4511458   6.0219530
  29.7353743  29.5593077   5.6807855  29.5552503  30.3741461   6.9435504
  29.2540026  47.3246336  44.0932178  28.3621049  46.9977903  44.2112064
  29.4762444  47.7233458  44.9345684  47.0525646  22.3183489  36.1292315
  46.4398718  22.9862928  35.8215141  47.2495508  22.5713086  37.0311403
  18.3308101  56.0530090  52.1529055  18.3955479  55.3540325  52.8036499
  17.9920292  55.6200933  51.3692951  49.0714627  26.8833470  39.3839431
  49.3558794  26.8659854  40.2977467  48.2593399  27.3898602  39.3954492
  13.7243807  28.7975359  34.4258285  13.7058437  29.0215588  35.3562593
  13.9545667  29.6164036  33.9868522  20.2166247  42.0557022   4.8721793
  20.5930901  41.1901379   5.0312424  20.5961657  42.6108265   5.5533671
  36.6575849  57.7277803  50.3802443  36.2827343  57.0415866  49.8281050
  37.5040514  57.3768353  50.6569481   5.7989442  23.2313490  48.8855219
   5.0697672  23.5063267  49.4413280   6.5749228  23.3468390  49.4339323
  63.6307421  44.1099930  27.3371148  62.9555184  44.5561361  26.8259788
  63.3639181  44.2355871  28.2477546   9.6883881   1.3543410  29.7796321
   8.8596236   1.5950913  29.3656039  10.0022494   0.6069893  29.2705297
  39.3550944  45.5874943   7.1539072  39.7892951  45.5148351   6.3039545
  39.0234565  44.7069179   7.3295024   9.4983178  28.9497280  50.7925224
   8.8795060  29.6111536  51.1020708   9.3410194  28.1921887  51.3561058
  36.8963522  62.0909214  51.9287062  36.8762725  61.4578819  51.2110090
  36.0510987  61.9849873  52.3652315  27.0973611  29.6887350  53.0732727
  26.2124896  29.4728708  52.7789354  27.4396276  30.2717447  52.3956442
  28.5295510  15.5832124  41.4791059  27.9612207  15.9992659  42.1272850
  28.3160853  14.6518588  41.5360546  58.3528721  58.0445897   5.7243207
  58.9791166  57.9212176   5.0110010  57.4955761  57.9983127   5.3010801
  18.7120748   3.1097111  49.2729139  18.1174088   2.3864737  49.0740871
  19.5695007   2.8026938  48.9783096   7.5950223  26.6366720  51.1603975
   7.5717521  27.3179626  50.4884338   6.7736989  26.7450428  51.6398907
  24.1943295  63.3260452  23.7994531  24.8144453  63.5234534  24.5013908
  23.7500332  62.5293290  24.0894130   3.8392675  43.0177169  13.6394250
   4.2929400  42.9087549  12.8036380   3.9442504  42.1747690  14.0806139
   4.3285629   0.7054880  42.7221918   4.3955225   1.6171923  43.0059910
   5.1447219   0.3020703  43.0177736  53.8498932  27.7776742  52.4733400
  53.7760156  26.8603396  52.2101402  54.1317469  28.2325983  51.6797209
  14.6334636  41.7756176  35.3922772  14.2955589  42.6705265  35.3577733
  13.9299726  41.2694740  35.7986617  62.1696216  62.1991444  25.2758837
  61.3143260  61.8356759  25.0465536  62.0406455  62.5874069  26.1412454
  38.4979808  30.8011499  14.8748067  39.1630661  30.2190616  14.5072893
  37.8845393  30.9485924  14.1549543  37.6648366  57.6583778   4.7286657
  38.2006204  56.9549810   4.3620637  38.2113158  58.0435502   5.4136709
  46.3334912  60.6549168  25.6171107  45.9746808  61.2457466  24.9549913
  47.0392793  61.1549425  26.0270762   6.2396634  53.0197191  36.6543365
   6.1709315  52.0877504  36.4471006   5.3875178  53.3823681  36.4123392
  21.9013715  25.2130222  47.2031069  21.5157962  26.0747528  47.3611736
  22.4672294  25.3398561  46.4415646  45.4845923  18.4496546  29.4896531
  46.1037320  17.7750421  29.7685790  45.9512609  18.9371109  28.8108015
  12.1993625  34.4267130  17.6168931  11.3422644  34.1751075  17.9608524
  12.0622838  34.5155096  16.6737294  30.4952847   8.2442671  23.8188604
  31.2396227   8.2456500  23.2170394  30.7259726   7.5953418  24.4836238
  42.5932353  24.7388703   3.3437446  43.0123710  25.5698687   3.1201461
  43.2871511  24.2237097   3.7552312  14.7464824  46.3595009  42.5684834
  14.1820991  45.6739521  42.9258728  15.6228054  46.1359358  42.8820229
   6.8128181  19.1995823  47.3706102   7.6437670  19.6168578  47.5978470
   6.9988853  18.2612479  47.4043703   2.4324642  16.7028821  23.1956220
   1.6578826  16.7850411  22.6392889   2.3123340  15.8700967  23.6519861
  13.0661422  63.0436718   9.8678402  12.1792018  63.0222237  10.2271608
  13.2659232  62.1290576   9.6683458   0.7682330   3.2035765  28.4761000
   1.3467366   3.2165956  29.2385936   0.4782683   2.2936822  28.4109616
  27.0116805  16.3490588  31.1134628  27.2904967  16.8465144  31.8822483
  26.6701530  15.5289275  31.4698032  41.1027928  12.8005082  23.1395105
  40.3236656  12.8001791  23.6955646  41.8081330  13.0950314  23.7156919
   4.3430784  25.9040880  44.0095520   4.5762298  25.0009871  43.7944221
   4.7633740  26.4287686  43.3281612  44.1415050  63.5925362  44.2926073
  44.8228163  64.2527971  44.1657114  43.3798236  64.0888495  44.5921850
  14.2993701  10.4716027  45.6199121  13.6171377   9.8048353  45.6987333
  15.0747192   9.9883521  45.3343678  31.2203335  47.8941738  25.2825836
  31.5363520  47.0886981  24.8732284  31.0804539  48.4956240  24.5512012
  57.2620290  44.3893290  55.9300184  56.9491738  45.2318811  55.6006765
  57.6816827  43.9777517  55.1745558  24.5598393  15.9141313   8.5187868
  24.4997960  15.7131957   9.4527296  24.5350241  16.8701136   8.4773925
  52.7119863  62.1214449   9.5326904  53.4717047  61.5512978   9.6509794
  53.0829155  62.9993617   9.4437555  37.5237882   7.8193135   0.9233972
  37.5005280   8.7713570   0.8269551  36.9198214   7.6366610   1.6431849
  13.3120017  26.9183165  26.7394737  13.5594993  26.0104472  26.5640930
  12.7490001  26.8681294  27.5119689  65.1753866   1.8254525   3.4151271
  65.0173186   2.1240646   2.5195364  65.9162902   1.2240988   3.3398441
  65.9849150  35.1897097  37.0054626  65.1411652  35.6070089  37.1791816
  66.5890786  35.6059623  37.6202393  24.6440477  40.1469665   1.1449245
  24.6586565  39.7627872   2.0215229  24.8132224  39.4102388   0.5576900
  33.8326192  50.4120493  47.0036936  33.5320783  51.1784983  47.4920177
  33.5787082  50.5903053  46.0981655  10.5886745  29.3845924   1.3111928
  10.8025181  30.2646253   1.6211036  11.4337992  29.0014561   1.0762409
  44.3771827  34.1721419   1.7062906  43.9492976  33.3929949   1.3512186
  44.2408168  34.8451665   1.0394529  55.5917054  33.3224487  16.3817465
  55.8476180  32.4032283  16.3057518  55.7637352  33.6913729  15.5154145
  47.2575438  22.9676306   2.4147275  48.1809175  22.8615695   2.1858934
  46.8826901  23.4523361   1.6793493  20.1264381  58.8951588  34.9649525
  20.9097004  58.4184933  34.6901393  19.5124233  58.7858057  34.2388248
  15.4323328  38.7672925  45.8541775  15.9441245  38.5068011  46.6199780
  14.9384522  37.9821539  45.6177998  47.6408263  49.8584991  34.5657754
  48.4878445  49.5361572  34.2577386  47.8439731  50.6850474  35.0037050
   3.3150411  32.2001171  35.0870562   3.3261687  32.9581928  35.6713748
   4.0972245  31.7025042  35.3253889   1.0251980   4.8856288  12.4340108
   1.6230135   5.5598074  12.1110014   0.3833299   5.3655058  12.9574159
  68.0014919  38.2829386   6.9165185  68.6310004  38.7165505   7.4926523
  67.9666542  37.3810917   7.2353986  47.4914848  55.9603869  36.3237861
  47.3825585  56.2608087  37.2260669  46.6549384  55.5495798  36.1054901
  30.4428267  37.8703761  50.8735132  30.5222631  36.9439840  51.1009312
  31.2637639  38.0787754  50.4275703  54.9227542  48.9929056  37.8191423
  54.0279502  48.7185383  38.0198431  55.1003390  49.7016668  38.4374881
  24.6433783  29.3510365  39.0288877  25.5674529  29.1324449  39.1494560
  24.6457481  30.2778172  38.7894964  11.8449163  36.5133905  40.0003576
  11.3889027  36.6315889  39.1671038  11.7540741  37.3562837  40.4447794
  19.7034906   9.7776133  14.1317037  20.5937718   9.8855406  14.4663385
  19.4074582   8.9462048  14.5023302  64.6680724  60.8063269  24.8834229
  65.3983801  61.4246655  24.9066806  63.9339709  61.2882662  25.2642918
  35.6158590  50.5391550  39.3167877  36.0266447  51.3863277  39.4893575
  35.8236003  50.3543806  38.4008527  27.0511263  63.5674154  13.4576801
  26.3758531  62.8984105  13.5702423  27.8532057  63.1543099  13.7774375
   4.6440857   4.5443863  31.8659568   5.3174418   4.2885346  31.2355924
   4.6894902   5.5002017  31.8902111  66.5643894  12.2813410  27.7078509
  66.1329853  12.9528565  27.1794653  67.4398815  12.6316924  27.8721833
  66.5293226  40.9508753  26.0143137  67.3415362  40.9138250  25.5091739
  66.2299049  40.0425529  26.0533619  25.2457190  62.1533155  30.7051754
  25.8307171  61.4630556  31.0175085  25.1373696  61.9712496  29.7717166
  53.1219756  49.5268404   3.7463859  52.8598749  50.3221404   4.2101053
  52.8883850  49.6939837   2.8333000  11.7541646  60.4686319  10.9652713
  11.8033921  59.9111616  10.1887182  12.5089919  60.2099955  11.4940170
  40.2671945  53.5822355   3.2065252  40.2935695  53.1138670   2.3721603
  41.1829626  53.6365640   3.4797481  29.1819453  64.4799137  42.3304129
  29.4085312  64.1576767  43.2027960  29.6824765  63.9247179  41.7325354
  63.7322199  41.5344583  26.2341693  64.4813454  41.1300468  26.6717723
  63.6996901  42.4234545  26.5875248  52.5322633   7.2832138   5.9384874
  52.2711199   7.8768689   5.2344945  53.2489156   6.7699057   5.5654481
  11.2534988  30.4583216  10.4201376  10.8696699  30.2168417  11.2631059
  12.0523608  30.9337950  10.6481218  39.2619526  58.2787787  23.7120155
  38.5464167  58.6783277  24.2065910  40.0550758  58.5629284  24.1663793
  34.2638945  36.9489780  11.0405353  34.8553478  37.6574104  10.7864955
  34.8230230  36.1731189  11.0811428  60.4160160  48.9101553  38.4657097
  60.0690389  49.2665911  39.2835069  60.7152247  48.0304956  38.6957192
  62.3370480  27.2067934   5.8074096  61.9290518  28.0725819   5.7939056
  61.6007995  26.5952641   5.8215478  21.1882920  45.3090095   1.0867075
  21.6598480  44.5818924   0.6802991  21.7442376  46.0723328   0.9302000
  12.1618902  44.1195476  12.7523473  12.4251639  44.0527415  11.8344930
  11.7322027  43.2849633  12.9396204  19.9497712  45.2534676  52.9639578
  20.8996224  45.1998329  53.0695057  19.6600699  45.8139658  53.6837816
  15.1844931  52.6457453  21.0167527  16.1406684  52.6561880  21.0597897
  14.9045575  53.1349468  21.7904115  10.6033802  45.4538965  48.4908247
  10.4307592  46.3887739  48.6023617  11.2429452  45.4115772  47.7799129
  50.7475168  47.9352670  23.1189442  50.7419312  47.2167747  22.4865150
  50.1659832  48.5936182  22.7386498  16.2884956  28.1270462  20.6614545
  17.0446639  27.6527363  21.0071043  16.6674166  28.8274580  20.1303485
  41.2105131  17.9489469  32.9945949  41.4436256  17.9893028  33.9221004
  41.0268151  18.8570415  32.7540687  64.3167478  50.2147150   7.2309345
  63.8342997  50.9129333   6.7882514  63.7364411  49.9340105   7.9385245
  42.6659595   2.5944752  52.8991985  42.4985396   3.5225482  53.0631495
  42.0212674   2.1359534  53.4380531  22.6157784   6.3680619  44.0672541
  23.2138610   5.6570709  43.8369894  22.8475857   7.0790243  43.4697342
   3.4104851  29.0357447  24.1822457   3.7975115  29.1462588  25.0507092
   3.2595918  29.9285746  23.8718939  12.1563411   4.5805272  37.7970362
  11.5749836   4.3651155  37.0677543  12.8982306   5.0263655  37.3883057
  27.8175116  10.6227028  50.4792738  27.5098228   9.7413528  50.2676582
  27.3535824  10.8514071  51.2846899  15.6846511  21.8267775  45.0556231
  14.7654140  21.7193365  44.8113060  15.7160163  21.5865231  45.9816456
  48.1895675  15.0513274  21.0304836  47.7435387  14.2645127  21.3438753
  49.0475117  15.0250966  21.4541296  64.5312196  21.7035842  36.2116551
  64.8906171  20.8377147  36.0184360  65.3000656  22.2557735  36.3537645
   6.6238022  49.2681217  49.5392466   6.8507999  48.4752750  50.0251436
   6.3582122  49.8941040  50.2129269  43.7257921  45.4564928   2.2891763
  43.9970719  46.2913298   2.6708606  44.5154726  45.1183080   1.8669561
  63.3794247  12.0278651  26.2336257  63.0845844  12.0121724  25.3231052
  63.8484191  11.2012822  26.3477996  12.8475809  24.6410251  54.0469837
  12.7368963  25.5881643  54.1301107  12.1547139  24.3708920  53.4443283
   3.8015899  16.8940389  43.0978394   3.4453958  16.6023636  42.2586250
   3.3161646  17.6941240  43.2989836  12.5990181   7.6422149  26.8034843
  13.4642034   7.3376638  26.5297512  12.5590043   8.5504872  26.5040210
  46.8895340  61.7640018  41.5615940  46.3470984  61.0614920  41.9200230
  46.2623119  62.3901558  41.1999941  41.6031527   6.0315281   9.6239761
  42.2043844   5.5525166   9.0536216  41.0467224   5.3541070  10.0083164
  62.2841382  37.1696210  38.9186025  63.0326897  36.6550922  39.2205334
  61.9826239  37.6345444  39.6990967  13.2776695  55.4236757  15.5740789
  12.8469347  55.6260073  16.4045957  13.6274343  56.2629759  15.2749637
   7.7096200  50.0018406  37.8632212   7.1888691  49.7167397  37.1123791
   8.6087024  50.0263691  37.5356841   9.6644151   0.9128518  40.7350254
  10.3467583   1.2812371  40.1738405   9.6639084   1.4734120  41.5109158
  66.1106037  18.9858300   7.2230724  65.4881619  19.0136248   7.9497245
  65.5666398  19.0586430   6.4388326  17.2651589  32.8452420  44.0751648
  16.5582693  32.1999335  44.0858746  17.0639181  33.4085560  43.3278942
  52.3235243  32.2984695  55.5614471  51.9236082  31.9799876  56.3706875
  52.2799963  31.5526080  54.9630928  16.9820433  50.2968299  24.2165235
  17.7736666  50.2566003  23.6799148  17.1831339  49.7569048  24.9808982
  23.1428313  44.6403837  39.3742251  22.4958181  45.1611280  39.8500729
  23.9227939  45.1945686  39.3464780   4.0504271  28.0700994  36.2533021
   3.4335029  28.6945820  35.8716536   4.7613496  28.0150294  35.6147194
  34.6885644  23.8472039  11.2799076  34.5746254  23.6136204  10.3586629
  35.6226270  24.0384108  11.3647607  18.2020080  29.8019171  50.7229280
  18.8252497  29.4691133  51.3687134  17.5168169  30.2198291  51.2445545
  40.3904963  16.8636382  37.1652031  40.4086256  16.0073054  36.7378879
  41.1920309  17.2956407  36.8700004  58.8811790  10.7076270  20.1839021
  58.1366836  11.3022524  20.2754406  59.2468010  10.9123284  19.3232921
  53.7320768  48.9750874  43.1766132  53.2901465  48.2064855  43.5374263
  53.2325303  49.7188019  43.5136226   9.2364645   9.4173348  36.6216922
   9.4911337   8.5619646  36.2756896   8.9165097   9.8987252  35.8587217
  53.2887727   6.7449868  42.4196434  53.0969530   5.9117293  41.9893885
  54.1166121   6.5939945  42.8758383  10.0985038  13.4271228  31.9425702
   9.1511607  13.5641146  31.9451284  10.2779663  13.0103600  31.0997581
  11.1662167  37.4304616  32.5078395  10.7467478  38.2053410  32.8817943
  10.4457539  36.8198499  32.3518852  22.2732329  21.9918585  31.4510727
  21.3849092  22.1630263  31.7638254  22.3576880  21.0388160  31.4795041
  62.8180218  51.0501528  48.0328178  63.7260580  51.3520384  48.0566120
  62.6403379  50.8983374  47.1045876  40.0327646   1.4504952  15.1533806
  39.1860067   1.0587782  15.3673685  39.8130559   2.2898669  14.7491324
  30.7825446  61.4062548  36.8592715  30.5388212  61.2966299  35.9401345
  31.1115193  62.3034477  36.9144630  29.7244287  19.8626399  31.1291695
  29.6383190  20.0816035  30.2013373  28.8797712  20.1013803  31.5109944
   3.7166652   2.0192491  35.5152607   3.9728582   2.8995702  35.7902741
   3.0366525   1.7621928  36.1379457   9.1417682  31.2624049  38.0226755
   9.1257763  32.1764708  38.3063316  10.0696754  31.0694432  37.8885651
  51.9647896  52.5600802  21.0237268  51.3585245  53.2057893  20.6607727
  52.3430597  52.9910147  21.7901758  20.8873668  48.5468447  13.3614210
  21.7350390  48.2123184  13.0685428  20.3272002  48.4904801  12.5872949
  24.1959393  51.1615216  35.9185985  23.8485504  50.4060161  36.3926891
  24.7432354  50.7819271  35.2311328  46.0868901   5.8497077  36.0227251
  45.8928555   5.9426785  35.0900221  47.0015973   5.5690193  36.0502601
  29.1669732  57.2716486  44.3093780  29.3927806  57.1395075  43.3886341
  28.9148616  58.1934201  44.3642620  38.7588453  59.5153796   9.9533990
  38.2017970  60.1195800   9.4626192  38.3627831  59.4779670  10.8240131
  15.8162480   2.4455410  46.1788372  15.3046017   1.7653614  45.7408813
  15.3432803   3.2570583  45.9945110  60.2653246  61.1744987  18.3146909
  60.4720598  60.3218209  18.6973575  59.4549685  61.0279214  17.8267673
   1.6308126  17.8925526  45.8501482   1.5582569  18.3258116  44.9997044
   2.5694135  17.8891063  46.0378933  66.7691308  54.9338066   4.3379549
  66.2615066  55.4131567   4.9927619  66.1476570  54.7646844   3.6298612
  65.2933207  26.5417528  25.0065255  65.4440823  27.2220254  25.6628275
  66.1638999  26.1885262  24.8233461  22.1589380  29.5238742  13.2675603
  23.0742356  29.3643671  13.0373004  21.7547029  29.8192644  12.4517349
  57.8434819  36.5684557  46.3507509  57.5874358  35.7992363  46.8596458
  58.1083006  36.2162018  45.5010319  45.1744541  60.2683144  50.5670786
  46.1045424  60.4831391  50.6379175  45.0968551  59.4039308  50.9708786
  49.2682897   6.9198710  16.3454727  50.0670140   6.9871646  16.8686775
  49.2727899   6.0211712  16.0160020  42.7282083  40.9665346  11.2357620
  43.4555065  41.2964349  10.7080940  43.0530750  40.1450908  11.6044429
   7.5260484  27.5026441  15.2546608   7.6441592  28.4476304  15.1583230
   8.3026606  27.2116971  15.7326317  29.7260714  17.7694905  35.9399414
  30.5061507  17.2294557  36.0667181  29.2812181  17.3752964  35.1896429
  43.1658840   3.0745932  50.2118921  42.9428482   2.8583968  51.1172915
  43.1770182   2.2308767  49.7599506  60.2468806  26.3740826  36.4927816
  60.2733350  25.4961586  36.1122799  60.9225261  26.8603683  36.0202789
  24.1346264  38.4247971  47.9003859  24.4078612  38.4829640  48.8159180
  23.1783080  38.4485793  47.9338694  46.7123361   5.0744707   2.4556354
  47.5730564   5.2432543   2.8389171  46.9004269   4.6136171   1.6380361
  45.8324043  12.9761893  28.7280372  45.8791600  13.9299399  28.6617092
  45.6196081  12.6845938  27.8415111  56.4146661   4.0238744  18.3798221
  57.1223031   4.5272047  18.7824873  56.8538522   3.4610254  17.7422098
  52.8270089  47.8724074  29.8052696  53.3390319  47.1379506  29.4666866
  52.7796041  48.4885108  29.0742401  44.4474317  57.0156454  46.6498327
  44.5333453  57.4248325  45.7887793  43.6323685  57.3714315  47.0038366
  49.5560085  58.1104481  12.5581888  49.3728768  58.5066711  13.4100727
  49.1349971  58.6941325  11.9270805  13.6724102  34.6363187  38.8885546
  13.1459272  35.3109646  39.3173933  14.3583083  34.4284511  39.5230365
  12.0529735  45.0493956  42.2621775  11.7034757  44.1808891  42.0627356
  12.1908057  45.0403881  43.2093620  58.5617888  14.2882454  10.9621799
  58.8760632  13.4187233  11.2099600  57.6280635  14.2743361  11.1724091
  15.6835794  26.2467074  38.4036136  15.1845527  25.4299474  38.4139109
  16.0598660  26.3085675  39.2815733  26.5215707  32.9236078  53.3062267
  27.2431636  32.9033732  53.9348173  26.9045711  32.5986981  52.4913788
  14.0997565  16.2012386  29.3572712  14.0904415  15.9217131  30.2726984
  15.0265658  16.2071371  29.1180611   3.0970901  52.9917049  51.0835361
   3.5369331  52.6656246  51.8686771   2.1695083  52.8114891  51.2363338
   2.1164255  23.0949265  28.4709266   2.9242449  23.5056359  28.7790969
   1.4236837  23.5196454  28.9768413  12.6324713  60.1532412   4.4672638
  12.4102926  61.0813093   4.5418093  12.7257013  60.0041056   3.5263604
  60.8609163   5.2230019  52.7019644  61.2006556   5.5960555  51.8885517
  61.4108049   5.6023783  53.3874798  22.9224068  29.9809165  18.8441348
  23.4327364  30.6441493  18.3794641  23.5509242  29.5651145  19.4343066
  49.7649032  28.7164820  43.4902867  50.6312138  28.5897053  43.8771531
  49.2676196  27.9436434  43.7579879   4.0103459  40.5887567  15.0558618
   4.6726942  39.9361497  14.8286394   4.3207895  40.9690254  15.8775953
  64.1644751  35.7148081  24.5740989  64.2976188  35.3562409  23.6966423
  63.7928699  34.9890763  25.0755600  29.4204092  54.4105673  49.4810200
  29.7792554  54.5269394  50.3607464  29.1906929  55.2953529  49.1970825
  46.5534722  12.6653571  47.8530931  46.2844002  13.3141131  47.2027540
  47.4051535  12.3559803  47.5446177  14.8267269  23.4540033  39.8761606
  14.6864831  24.2073250  40.4498053  15.5770826  22.9985952  40.2580023
  26.0022545  63.4669113  48.5350227  25.6423497  64.2065811  49.0244961
  25.9569931  63.7410831  47.6190472  45.7143732  21.1046893  19.9840644
  45.7687569  20.5503470  19.2056182  45.1915784  21.8568999  19.7063926
  58.2310289  55.8152866  35.4753566  57.3484439  56.1317778  35.6679940
  58.0945653  54.9662924  35.0548649  49.7460382  49.8290068   3.6358789
  49.5242490  48.9209753   3.4297088  50.0126867  50.2066618   2.7977184
   5.0715475  57.3341471   5.4806808   5.1106243  56.3811976   5.3994945
   4.8341446  57.4870688   6.3952783   7.9550606  17.1193171  45.4392338
   7.0624077  16.7865789  45.5324364   8.4647626  16.3610089  45.1539230
  33.0505562  37.5715232  50.5174112  33.3781314  38.4644198  50.6253862
  33.1123090  37.1864009  51.3915396  57.9128402  36.1826944  54.0052223
  58.3492333  36.9900012  54.2773390  58.0348545  35.5843139  54.7423029
  17.1092677  38.7933302  48.0886507  17.8700113  39.2140985  47.6880789
  17.4672973  38.0258417  48.5347509  20.3339458  13.8880193  44.3840742
  21.1420941  13.6828196  44.8542070  19.6548283  13.4017146  44.8515558
  40.1817684  18.4427411   7.0957998  40.5339931  17.7463681   6.5415100
  39.7780721  17.9822213   7.8314498  38.9177155  61.2386417  39.2835140
  39.8067594  61.0515547  39.5849013  38.4826589  60.3860474  39.2769337
  56.7773580   7.3431665  10.4904846  56.8112658   7.8676659  11.2904743
  56.6462659   7.9825169   9.7902874  22.8966022  60.2960205  30.0783014
  23.2991385  60.8629274  30.7361865  23.0766463  59.4074583  30.3853393
  25.8416891  54.5922804  42.7109766  26.3599038  55.3954124  42.6593542
  25.0730252  54.8359442  43.2267427  57.3668444  56.5228855   7.8640321
  57.6191222  56.8883812   7.0160917  57.9309856  56.9699895   8.4949640
  17.4856496  23.9326668  41.3510704  17.3577285  24.5986199  42.0266294
  17.9551280  24.3877554  40.6519890  32.8159285  40.8408928  49.4207668
  33.1855083  41.4464664  48.7781715  32.3979592  40.1591492  48.8946867
  65.3625631  59.8977470  16.3085508  65.4796171  59.9740076  15.3616011
  65.6553417  60.7407570  16.6547382  51.5709829  44.4335032  43.7162209
  52.2171545  43.7944365  44.0167046  51.8626261  45.2639866  44.0923500
  13.2134545  20.1055074  44.8396635  14.0921342  19.8273921  45.0981331
  13.0393970  19.6267772  44.0292597   2.4808413  52.7221012  16.3365197
   3.1641251  53.3917522  16.3669944   2.2802216  52.6268196  15.4054427
  11.7238760  49.9349880  50.5124903  11.7228258  49.7350359  51.4485741
  10.9531760  50.4881287  50.3848648  61.3563489   1.4230520  12.4557355
  62.2369837   1.4867383  12.8254083  60.7739877   1.6249210  13.1880811
   3.4823292   6.8708128  45.9506273   3.7586230   6.3611454  46.7122936
   4.1864556   6.7502493  45.3135300  16.3518739  31.4602804  51.8507338
  15.5522978  31.8213511  51.4679289  16.8455911  32.2270131  52.1415854
  59.8636614  26.0552079   3.6212305  58.9160096  25.9437376   3.6971429
  60.0967907  25.5848843   2.8208068  24.4029593  27.2385406  42.0803213
  24.7628284  28.1238914  42.1340132  23.5340190  27.3088193  42.4755812
  23.0269194  53.6320210  47.1911955  22.6971602  54.3962717  47.6638651
  22.5767279  52.8891230  47.5932598  22.5365543  47.2657251  54.6623373
  23.1500506  47.0220327  53.9691782  22.2101307  46.4307404  54.9977303
  23.4470773  55.2900553  44.1521597  23.8606620  56.0416698  44.5767212
  22.8914952  54.9072170  44.8311281  61.1347121  23.1148672  49.8809481
  61.3102919  22.6785159  50.7146168  61.7634350  23.8360071  49.8509836
  42.1755945   5.5234999  21.2302637  42.8920614   4.9447627  20.9695506
  42.4383187   5.8587164  22.0874906  63.0117415   3.2535345   0.6872180
  63.0392062   4.0137273   0.1061967  63.0211400   3.6256296   1.5690855
   7.9017013  34.3438983  28.2778311   7.8130972  34.7246313  27.4040890
   8.7543392  34.6498537  28.5870767  42.2166347   0.9752793  30.8568239
  41.9028139   1.4875741  31.6020107  42.3759710   1.6234107  30.1706982
  23.6041117  59.8177195  43.6858654  24.3928218  60.3570032  43.6281061
  23.4918284  59.4623852  42.8041840  14.8644710  38.4963703  32.2401118
  14.8775089  37.5549603  32.4127603  15.4911447  38.8629770  32.8638983
  59.1379117   2.7274615   6.4073375  58.4475349   2.1337897   6.1120943
  59.9356531   2.3875123   6.0020259  21.3649058  54.1182232  37.3794985
  21.0899496  54.6561241  38.1219864  20.9903359  54.5558071  36.6150045
  56.4443600  42.4138927   3.8101820  56.7148983  43.1942534   3.3263639
  56.0555231  42.7544081   4.6158412  15.6051993  16.6363806  34.1477871
  15.5137825  17.5869269  34.2136908  14.8128825  16.2905020  34.5586801
  35.8509827  62.1429682  13.2729578  35.9354258  61.2192297  13.5092008
  35.0481272  62.4291658  13.7085533  19.1797667  41.9232804  15.9056142
  19.6049147  42.7049166  15.5527357  18.3726626  41.8397337  15.3978399
  55.9508597  63.1418764   4.6391634  56.0940372  63.8189041   3.9778284
  56.6150987  62.4788725   4.4509033  38.3876872  61.4743376  27.4311352
  38.1262422  60.6090403  27.7460074  38.1937599  61.4568472  26.4939475
   5.7329291  35.1374197  35.4410553   6.5461844  35.6336784  35.5336618
   5.8999336  34.5373964  34.7142029  29.7017198  55.0468623   6.4664081
  29.3331390  54.1657984   6.4023212  30.4007643  55.0621831   5.8126977
  29.2930770  32.4212098  53.7281656  30.0815630  31.8959618  53.5916567
  29.2090631  32.4843001  54.6795845  11.7157888   1.2402257  43.2258320
  11.8584013   0.9442583  44.1248846  11.8811190   0.4649136  42.6893711
  20.9206963  59.1218138  20.9705067  21.4403105  59.8232460  20.5777979
  20.2909160  59.5752335  21.5308809   9.6419096  40.1385117  18.5200524
  10.2729154  40.8562756  18.4664154  10.0907695  39.4624305  19.0276659
  30.7627821   6.8012756  41.9279480  30.1773810   6.3253874  41.3388252
  30.7537246   7.7004188  41.5997839  11.8283897   0.1970178   7.3229221
  12.6455431   0.6762201   7.4602607  11.1715560   0.8789498   7.1823219
  48.1812048  63.4311199  20.8349824  48.0770683  62.7332258  21.4817643
  48.9259338  63.9421892  21.1518812   2.8697806  22.2500283  19.4991592
   3.2647806  22.5887352  20.3025821   2.1707373  22.8714043  19.2955307
  65.8582251  32.9966068  26.5057278  66.2333454  32.1259451  26.3735723
  66.5362607  33.5986137  26.1989880  47.5580478  37.5758702  21.6669324
  48.5083144  37.5262219  21.7706588  47.3672064  36.9977194  20.9283165
  19.0030360  47.9544878  36.6314197  18.3234930  47.5216007  36.1146379
  18.5380256  48.6379194  37.1140361  15.8906573  63.9137899   9.6101478
  15.8968943  64.3756592  10.4485229  14.9624461  63.7905299   9.4115022
  32.1748197  50.6229066   1.7810491  31.8888437  51.4115333   1.3200477
  32.8098082  50.2173507   1.1906675  64.2720061  55.1095152  47.0392752
  64.2933762  54.7856760  46.1387730  65.1695233  55.3931665  47.2131634
   1.3315695  60.5828392  40.6925968   1.3653200  59.7146570  41.0942844
   0.7750815  60.4688203  39.9221710  58.9494693  10.3946776  46.3867760
  58.2446610  10.9314150  46.0242987  59.2786467   9.8951621  45.6395435
  23.8785291  55.3394270  32.7076888  24.8080850  55.4968500  32.5422311
  23.8664627  54.6323586  33.3527803  29.5338964  52.6339006  47.5938320
  29.5778847  53.3370113  48.2418537  28.6685038  52.7287149  47.1959162
  45.1145771   3.0966533  55.8001440  45.4874539   3.6456025  55.1103245
  45.8095648   2.4736035  56.0123486  21.7690420  55.5977058  48.8837385
  21.6063285  56.0084438  49.7328854  20.9532309  55.7200670  48.3982372
  41.3342619  42.0449448  51.0042620  40.7469273  41.4734125  51.4988518
  40.9299088  42.1131420  50.1393461  50.3269040  48.1521987  15.4854158
  49.5100486  48.3632993  15.9375385  50.1160418  47.3826491  14.9566797
  42.0821344  19.8355288  23.3955765  42.9302251  19.3948836  23.3426189
  42.2994363  20.7639212  23.4798646  43.3941423  11.4462180  51.7002392
  43.2551729  11.4580435  50.7532549  43.2120120  10.5424828  51.9577742
  47.4988502  44.2806768  23.6137509  48.2571834  44.6327066  24.0798402
  46.9639009  43.8769484  24.2971706  67.0326256  17.4906069  18.0825332
  67.2899221  17.1263319  17.2355798  66.8768453  18.4185511  17.9067949
  30.2572882   3.8803191  31.3618135  29.7690725   4.6241040  31.0087371
  30.9348416   4.2768092  31.9094896  56.4311718   4.0348250   7.6822570
  56.7212092   4.2793924   6.8034509  56.7903851   3.1579787   7.8176645
   2.1980734  44.9384403  32.3927045   2.7944189  44.7022486  33.1032085
   1.4963643  45.4280758  32.8217649  62.2765147  31.3192172  42.2293758
  61.7207705  31.2649245  43.0068254  62.7234470  30.4734606  42.1949053
  45.2328527   5.5932337  14.4600299  46.1612683   5.7850892  14.3278602
  45.0527639   5.8853275  15.3536085   6.2155533  64.1159010  55.8998680
   5.7563305  63.2823133  55.7975101   6.4288574  64.3832016  55.0058413
  29.8361873  29.9144226  15.4953865  30.4294144  29.7650486  14.7591785
  29.0139162  30.1878220  15.0887445   6.5927701   6.1640936  16.6331056
   5.7562785   5.7412416  16.4389137   6.9763689   5.6285173  17.3275379
  37.7938187   1.1156125  36.6990900  38.4329807   1.6385264  36.2150836
  36.9648897   1.2715096  36.2465358  54.5731675  23.9134879  31.8126917
  54.9078166  23.6530585  32.6708412  55.3495919  24.1927619  31.3275099
  13.7144917  14.1553111  52.5264359  13.7402600  13.2010455  52.5967455
  13.1809014  14.3239350  51.7498541  30.4368728   3.8685412  48.0399942
  30.8387726   4.4088978  48.7202311  29.5130360   3.8216061  48.2860708
  60.1196176  13.4426260  46.4233494  60.7662862  12.7716160  46.2047291
  59.6093470  13.5538888  45.6211805   4.5854771  43.0251169  54.5841026
   4.1255733  42.5381184  53.9003277   5.4777104  42.6789713  54.5658112
  25.3822660  32.8289604  49.2969513  24.8704934  33.2499862  49.9876451
  25.6725121  33.5511851  48.7398338  21.2730246  11.5033394   5.0731615
  22.1954422  11.3263232   5.2576593  20.8129244  10.7228714   5.3820423
  56.4043497   2.0802266   2.6305250  55.6168913   1.9974190   3.1683782
  56.1020683   1.9185502   1.7368177  23.5667157  57.1702623  47.5281525
  22.9218221  56.7464876  48.0945110  23.0782557  57.3969746  46.7367983
  44.1593948  36.8249089   0.0158742  44.4042603  37.3505217   0.7774547
  44.9821552  36.6843277  -0.4526707  31.9465756  39.0842533  46.9211102
  32.4657035  39.5808768  46.2885714  31.4196515  38.4912109  46.3854933
  30.0480771  50.1561451  48.4149122  30.2954698  50.5440521  49.2542887
  29.6910787  50.8864498  47.9094982  36.9977498  61.4258491   9.1378406
  37.1463608  61.9761693   8.3688835  36.4915025  61.9782531   9.7334865
  12.0152240   3.3174092  12.1713403  11.8235593   3.3290774  13.1090835
  11.5809088   2.5281078  11.8479112  22.2554945  53.9509546  31.1004070
  22.4667710  53.0724155  31.4162544  22.7336181  54.5375978  31.6864780
  34.4115245  60.3555762  26.3070587  34.8632252  61.0795056  26.7407993
  34.7544932  60.3602993  25.4134277  61.6567099  15.2723689  42.3197317
  61.9195902  14.3991894  42.6107359  61.0280048  15.1111741  41.6161823
   9.3340093  60.8828359  48.1497240   9.0964967  61.5642735  47.5208664
   8.9266855  61.1613529  48.9699364  38.4660602  62.6158476  48.4465742
  38.0715227  61.8385077  48.8419390  37.7265096  63.1987572  48.2747793
  21.9119721   9.0714699  12.0200923  21.4201432   8.3225542  12.3569444
  22.7879649   8.7254864  11.8493036  10.8217268   3.2713586  14.9786333
   9.8837142   3.0922371  15.0440458  10.8751707   4.2140800  14.8216251
  62.1375167  47.1370506  14.7176078  62.1197235  46.3862371  15.3110698
  61.9181287  47.8858447  15.2720550   4.2897039  17.7715784  18.7962869
   4.2953902  18.4412390  19.4802097   3.3804016  17.4748999  18.7591270
  62.6028263  35.2678400   5.1788572  63.4975075  35.2759224   5.5190233
  62.7031731  35.4098994   4.2375902   9.7940522   6.4467937   1.4967397
   8.9923101   6.7707211   1.0862354  10.2532988   5.9859473   0.7946352
  57.0054375  35.3195769  17.6128391  57.3894643  35.3573328  18.4888176
  56.7355131  34.4071394  17.5087837  47.6962769  35.1123428  29.1037086
  48.5318243  35.5741208  29.1733745  47.9324805  34.1850262  29.1265968
  47.7781522  34.6415805   5.2285436  46.9160974  34.9267670   5.5314640
  47.5911319  34.0117724   4.5324138   8.4891897  34.7765213  14.2981866
   8.4773093  34.9245125  13.3525709   7.7741342  34.1593081  14.4530252
  60.6976234   9.8967165  55.4306269  60.6231868   8.9600033  55.2482510
  61.6361606  10.0441355  55.5474615  52.6788807  41.7761898  27.8391409
  52.3308134  41.0675621  27.2979188  53.6281490  41.7148924  27.7325153
  -0.0038476  18.6517435  15.0362018   0.5582218  17.9935509  15.4449705
   0.0992875  19.4290692  15.5851654  50.8047724  60.4985428  50.3394842
  51.6137981  60.4731512  50.8504248  50.9562683  59.8851681  49.6204185
  30.9623295  56.8586051  23.5615924  30.0649911  56.8441069  23.2287172
  31.3951069  56.1307132  23.1153730  35.2178216  57.2863102  47.0236778
  34.3182111  57.2331047  46.7010260  35.2237558  56.7378235  47.8081274
  10.6835084  35.5501896   1.9290880   9.8650103  36.0260016   1.7880300
  10.6556254  35.2936560   2.8508476   7.6695603   1.2728734  28.0412173
   6.9739979   1.4295573  27.4025702   7.5204151   0.3767485  28.3427858
  57.5244772  27.3902004  17.7123550  58.1878173  27.3041909  18.3970550
  56.7289173  27.0284670  18.1028226  11.0159265  50.8559000  31.4424232
  11.4221036  50.5112385  32.2377018  10.5315148  50.1140963  31.0800651
  12.6638811   5.4720969  28.4951758  13.5637349   5.3560729  28.1901670
  12.3676508   6.2754530  28.0672693   7.7468949  33.8591725  10.1987651
   7.9698735  33.5755259   9.3121675   8.4290462  34.4907433  10.4268554
  10.7295852   1.2817174   3.3197883  10.5841022   1.5202767   4.2352966
   9.8625379   1.3348395   2.9177478  48.8545036  64.2391348  40.2472639
  48.1606150  63.6299801  40.4996252  49.1829205  64.5851803  41.0770988
  19.2269862   5.1650190  46.2673664  20.1812935   5.1328492  46.3344097
  18.9830220   4.3109554  45.9105921  22.6001816   9.7372824  15.2674535
  22.6637821   8.9631468  14.7080806  22.8501396  10.4651982  14.6983388
  31.6195083  42.8373432  53.8630056  32.3182845  43.3742142  54.2367887
  32.0075727  41.9668198  53.7745333  11.3819205  52.5884187  25.8906272
  12.1969640  52.1228325  25.7031063  11.6523385  53.3441936  26.4120773
  64.3773698   9.8714167  32.5623516  64.5308327   8.9812523  32.8790287
  65.1516448  10.3611189  32.8396991  28.7104416  40.9768152  43.9521027
  27.9780912  40.8533430  43.3482409  28.4930754  41.7760181  44.4319630
  64.8976862  64.1337335   5.8489517  64.1138708  63.6225879   5.6474689
  65.4831850  63.5132968   6.2830928  36.8511474  63.5954844   1.7533592
  36.3965547  63.4406530   0.9253458  37.2734737  62.7603781   1.9545320
  55.2836430  24.1322035  45.7347345  54.3540346  24.3219561  45.8614349
  55.4025781  23.2582945  46.1067009  57.2704231  11.6328579   1.6996244
  57.6712882  11.4631754   2.5521186  57.8446638  11.1925608   1.0730318
  21.4046335  46.8045092  49.4424820  21.9493222  46.2278509  49.9782181
  20.7048917  47.0878506  50.0309658  39.0063500  52.9877388  42.5518039
  38.3611178  52.5864303  41.9696907  38.6155867  53.8251101  42.8015045
  63.7798428  29.1480929   4.1384891  64.4318127  29.2941100   4.8239425
  62.9396712  29.1824681   4.5958332  22.5060969  10.0572592  21.8109611
  23.3842259   9.7368008  22.0169357  22.6551133  10.8418423  21.2832788
  32.9123902  47.9400873  47.5448895  33.7037969  47.4148798  47.4262953
  33.2316804  48.8384008  47.6304531   3.3827248  53.5965490  38.5744214
   2.6385278  53.1250143  38.2001829   2.9887900  54.3316936  39.0441155
   4.8690801  57.0996958  -0.0743100   4.6101957  57.3430163   0.8145145
   5.8234792  57.1728617  -0.0742909   7.9968601  43.4815788  33.8880920
   8.3010209  43.7152052  34.7650957   7.9802537  44.3114519  33.4113669
   7.5117803  52.2886324  32.0561624   8.1652331  52.9477882  31.8221879
   7.6620007  52.1222210  32.9867387  55.1616519  15.3553254  12.9264787
  56.0156905  15.2918011  13.3540491  54.7657846  16.1436182  13.2981208
   6.0610729  61.5400934  46.9611645   7.0091003  61.4970827  47.0861721
   5.9509367  61.7430115  46.0322285  58.6191653  24.3856436  15.8259157
  59.3308722  23.8636214  15.4555086  57.9183113  24.3302208  15.1763252
  63.3126593  58.2995510  44.9561119  64.2022991  57.9922533  45.1302814
  63.3345366  58.5926151  44.0451431  49.1669523  37.5090920  17.3834899
  49.9286758  38.0488955  17.5947240  49.1226971  37.5209718  16.4273838
  16.8411022  41.8509203  14.4954256  16.2855130  41.0854107  14.6422008
  16.2765818  42.4718386  14.0349725  59.1398155  35.2192397  40.9904814
  58.9097750  35.1399798  40.0647211  59.9877631  34.7814269  41.0649061
   0.4127472  36.1684699  21.7505145   0.3170794  35.4547305  21.1199236
  -0.3242189  36.7509551  21.5665960  66.8413543  41.8644959  45.7788280
  67.2168755  41.0190255  46.0245708  65.9251570  41.6710383  45.5803588
  15.0538992  22.9756732  19.8304701  15.8980023  22.7478404  20.2201056
  14.6989399  23.6524863  20.4068017  60.1926481  40.4469962  42.7554035
  59.3579351  40.6354613  43.1843233  60.7441079  40.0893206  43.4512377
  64.4910013   5.4152722  42.2915125  64.6425211   4.6032185  41.8079424
  63.7135279   5.2373595  42.8207731  27.0181435   5.3184695  43.1096649
  27.0108699   6.0456843  43.7320280  27.3864844   5.6920762  42.3090553
  23.2747917  62.0085246   9.4910530  23.5668688  61.3010222   8.9162830
  22.3518257  61.8166644   9.6570734  51.3555765  39.8027802  26.4346290
  50.9777451  40.3519726  25.7477045  52.0940924  39.3645477  26.0118032
  16.4755780  56.6358137  34.5754123  15.7587773  56.0055399  34.6474791
  17.0646054  56.4120531  35.2959704  25.0994520  40.8910471   4.2213586
  24.1940766  40.6693751   4.0036729  25.2710324  40.4223782   5.0381473
  63.2144880  46.8381548  45.6800175  62.4427795  46.9887829  46.2259197
  62.8599167  46.6443253  44.8122931  61.0930740  10.5243868  48.6190224
  60.7406604  10.5082936  47.7292061  61.0474884  11.4447350  48.8780880
  32.3864150  40.8579636  10.6452155  32.5716710  40.0159645  11.0610867
  31.9828105  40.6280708   9.8082668  11.9792109   9.8848826  20.6207946
  11.2399917   9.3189484  20.3983024  12.7450853   9.3141133  20.5584672
  17.0955825  63.8478565  28.6146998  17.8601229  64.0074778  28.0613184
  17.1664059  64.4974136  29.3141985  24.5301276  32.3072010  18.6622051
  24.4719820  33.2564932  18.5540727  25.1799946  32.1843201  19.3541626
  11.8185311  12.4181181   4.8789600  12.7269583  12.7161223   4.9256662
  11.4263921  12.7154976   5.6999496  13.4218173   1.4132482   3.1072668
  12.4782925   1.2602526   3.0564359  13.6471396   1.2198478   4.0172437
  11.9696987  48.8751125  23.5082531  12.9152286  48.7378931  23.5663533
  11.6964781  48.3459330  22.7588892   0.3192311  26.2164837  27.8298191
   1.0683804  26.7979390  27.6997570   0.6107621  25.5960089  28.4978393
  62.8649770  46.6969687   0.5254844  63.1280981  45.9321171   0.0136236
  63.3686994  47.4200684   0.1518253  68.0211064  23.0575919  45.4268503
  68.4661040  23.4818649  46.1604738  67.3346964  22.5303531  45.8356190
  36.0831671  13.2813794   4.1035083  35.4867869  13.6025483   3.4271863
  36.3356095  12.4076611   3.8049797  66.2464964  35.3554911  34.0024424
  66.0994589  34.6159262  33.4128165  65.6103432  35.2305216  34.7066593
  60.8453499   6.6230923  32.4052337  60.7063638   6.1136466  33.2035926
  60.3022062   6.1896569  31.7469314  40.4798985  53.9683056  22.2960162
  40.2872181  54.4242287  23.1153059  40.3144217  54.6199131  21.6146564
  65.2138721   4.5314736  53.6083841  64.9331295   4.2768282  52.7294207
  64.7512590   3.9295191  54.1913652  35.1428771  59.1190338  36.0227466
  34.7807789  59.0521622  36.9062877  34.4023681  58.9323616  35.4456568
  14.0393811  26.7272669   3.3545784  13.7095790  25.9165436   3.7421182
  13.4186392  26.9277102   2.6540569  29.5264702  22.8978020   4.6953252
  29.8101645  23.4203106   3.9451698  30.0651293  22.1076161   4.6542648
   1.6930539  56.1611319  17.0867360   2.0078141  56.9460535  17.5351298
   2.2417170  55.4545355  17.4272108   1.8198449  58.2885313  12.2152483
   2.2012288  57.8469038  12.9740274   1.5600544  59.1489697  12.5444734
  49.5994675   4.8722310  40.8835268  48.9986550   5.2469677  41.5276003
  49.8735201   5.6177992  40.3494310  33.0075150  34.2987400  20.2444604
  32.1142845  33.9556843  20.2705720  33.2358485  34.3017489  19.3148950
   7.2833638   2.4495632   6.4957098   7.4765640   2.2682721   7.4155143
   6.8500119   3.3029896   6.5056900   1.6301947  31.3698012  11.3357070
   2.3438459  31.8256766  11.7819217   2.0517497  30.9291369  10.5979112
  49.6941869   3.3282072   0.3462604  49.9644895   2.5108582   0.7647184
  48.8299512   3.5115105   0.7146743  19.2054110  17.5840241   1.7290643
  18.9995175  18.1913716   2.4396804  18.4037810  17.0748097   1.6093973
  66.8106852  62.0172977  27.5674105  67.3707498  62.4033785  28.2408357
  66.1879897  62.7102327  27.3475814  58.9261436  48.9961815  17.6199162
  59.0805483  49.4306278  16.7810774  59.2126036  49.6322298  18.2753670
  52.1989435  42.7166986  50.9524584  51.7841667  42.3423004  50.1752663
  52.7677852  43.4068584  50.6113863  15.6118315  42.4638171   8.8212067
  15.6185454  43.2672114   8.3008838  15.8193224  41.7707724   8.1944102
  25.0255442  64.5046854  45.9054375  24.9838018  63.7156820  45.3650951
  24.1347313  64.6146345  46.2379932   7.3819089  55.4693460  53.2913494
   7.7303553  54.5890617  53.4324551   7.8805059  55.8079433  52.5477171
   5.4377036  33.1517703  17.6281646   5.6255226  33.9035756  18.1900791
   5.3967910  32.4078661  18.2291368  46.7781210  41.7731142  25.5993891
  47.2970963  41.4561892  24.8601627  47.4262571  42.0867205  26.2301040
  59.5818566  31.5518385  21.2721303  59.1974007  31.1174971  22.0335582
  60.0275265  32.3181588  21.6331962  58.8151430  15.7752997  29.2060760
  58.6110829  15.1878220  28.4784416  58.8447522  15.2043778  29.9738029
   0.1143151  43.5715538  13.9765886   0.5497771  43.6138970  13.1252292
   0.8221798  43.6724860  14.6129659  36.6837418   4.0633721  46.5367794
  37.5000035   4.5167155  46.7475605  36.9613242   3.1992430  46.2327003
  65.1034653  33.8677210  51.4401960  65.6037580  33.8197608  50.6255531
  64.1882526  33.8396544  51.1612177  27.5192285  60.1778889  42.3759222
  28.3468080  60.4514599  41.9803190  27.7232575  60.0651741  43.3043098
  48.3425551  37.5878865   8.5226491  47.7569704  38.0888802   9.0903858
  48.0258065  37.7640015   7.6367096   8.4060353   6.7349000  52.2306585
   9.1506451   6.2016196  52.5088644   8.1112927   6.3281817  51.4158344
   5.0664240  45.2266502  43.8621330   4.7612244  45.8469820  43.2001114
   4.3657309  44.5773840  43.9230871  64.4064760  44.3440151  46.6096354
  63.7425852  44.8986769  46.1999559  65.2062988  44.8692465  46.5842342
  65.7669615  43.2465464   7.3534158  65.6902694  44.1994816   7.4009994
  65.2224659  42.9994637   6.6059497   0.6004111  43.1984615  35.2125955
   0.3344215  42.3834753  35.6383705  -0.1799792  43.4873295  34.7395444
  42.3783827  29.4706917  26.6387534  42.9448318  28.8930917  26.1271405
  41.7410374  29.8026466  26.0064387  66.6824484  42.7110767  48.5333109
  67.2704315  43.4467697  48.7043619  66.6801739  42.6228714  47.5801849
  35.4435491  40.8943694   6.3926128  35.8934283  41.4983665   5.8018306
  35.2670288  40.1215374   5.8561424  67.3441773  13.6365277  16.5179590
  67.9533654  13.8066632  15.7995037  67.8712159  13.1846339  17.1769336
  26.9460154  60.6843519  37.4321866  26.2073636  61.2594032  37.2323322
  27.6796699  61.2804079  37.5828409  43.3739185  33.8258910   7.5370729
  43.4568262  33.0518174   6.9801438  42.4363279  34.0185928   7.5413162
  33.5748267  18.7940020  20.6357002  34.4592666  18.4389395  20.7247734
  33.5564208  19.1734404  19.7571123  67.8881048  39.0089041   4.1560272
  68.0013894  38.2653672   3.5639480  67.6716446  38.6123043   4.9998764
  51.7698383  48.4589291  40.8238554  52.4946356  48.4572935  41.4490747
  50.9886551  48.5822582  41.3630915  52.3260784   5.9729178  52.5615000
  52.7884197   5.1535685  52.3850709  52.1831036   6.3582022  51.6970056
  59.8810875  17.9782195  40.3704262  59.1052806  18.0551333  39.8150516
  60.5788886  17.7122397  39.7716308   6.6705710  52.2558355  49.1304636
   6.5785796  52.9312563  48.4584665   5.8834130  52.3439264  49.6679163
  49.0497732  57.0412636  52.4397087  49.9611235  57.0254183  52.1474361
  48.5498953  56.7378902  51.6818666  56.0794067  60.4870605  16.5373302
  55.1666021  60.7662725  16.6084337  56.2127686  60.3404188  15.6008780
  35.0101280  63.9289856  41.6747999  35.6384516  63.2982349  41.3232470
  35.4070592  64.7830868  41.5039492  18.1326979  22.2938437  37.0418763
  17.9503744  23.0374617  36.4674044  17.3791521  21.7142958  36.9299269
  27.0894051  42.7614117  24.0206337  26.5496421  41.9781685  23.9137697
  26.5117240  43.3939505  24.4477248  20.0110703  13.9287144   4.7407583
  20.3879052  13.0489117   4.7538045  19.3502264  13.9165169   5.4331258
  59.8086262  46.3155556  17.2021103  59.6729279  47.2626019  17.1717119
  59.5474005  46.0081816  16.3340580   0.3410643   0.7468314  40.7714176
   0.0449437   0.3027625  39.9768448   0.4809492   1.6542286  40.5006886
  10.5600560  56.4575624  31.4845181  10.0444341  57.0650005  30.9540629
  10.4257774  56.7526436  32.3851442  10.9810453  22.8083950  37.1102146
  11.5667372  22.3156411  36.5354160  11.4025884  22.7730948  37.9688648
  52.0014524  54.0124416  44.5093250  52.4056005  53.7790108  43.6736155
  51.5990686  54.8663187  44.3505573  50.4541647  20.6664843  51.6157436
  50.5213129  21.4003081  52.2266722  50.1348483  21.0595221  50.8034706
  64.3599712  17.9317088  19.4721663  64.1989099  17.2184367  18.8544810
  64.8673784  18.5712904  18.9724624  57.9920542   4.1559739  34.2567849
  58.7426245   4.3883461  34.8034835  58.3793389   3.8028426  33.4558225
  61.5245628  45.9156418  38.4508967  61.0980415  45.1675606  38.8688612
  62.1436167  45.5246687  37.8343415  33.1837153  62.4957800  40.3311443
  33.7979364  62.8431749  40.9778929  33.6507463  62.5608778  39.4981527
  48.6952126   5.2158207  55.0943613  48.2145059   5.4833979  55.8776617
  49.5715868   5.5815405  55.2145720   4.5287245  62.1410834  35.5657104
   5.0453966  62.6386201  36.1995319   3.6477869  62.1189725  35.9394554
  54.2509174  50.5997610  40.7904196  54.2491388  49.9333000  41.4774799
  55.1571989  50.9058714  40.7560205  26.9216728  26.6041708  40.5205393
  26.2430000  26.8680811  41.1418152  27.2183084  27.4247551  40.1269913
  39.6046429  25.5753952  25.0625900  40.1487952  24.9664885  24.5632270
  39.1830187  26.1201626  24.3979934  49.3252116   5.0259072  19.1649345
  49.8239785   4.7509366  18.3956150  49.5159560   5.9597832  19.2528156
   9.0009993  42.1929640  50.6462955   8.5941809  41.5205569  50.0998545
   8.2785004  42.5530619  51.1606455  32.7998965  11.6462613   2.3902849
  33.6503999  11.7058469   1.9551710  32.9039399  10.9358025   3.0232624
  12.8849035  20.8274466   0.8140949  13.5832362  20.2044112   1.0150674
  12.1692758  20.5825383   1.4007143  42.6664900   6.4203734  43.4031296
  42.9349863   6.4422173  44.3216372  43.2912242   6.9923682  42.9573011
  18.6315262  21.4079279  39.8642325  18.4265032  21.8107981  39.0204930
  18.5602521  22.1241469  40.4952478  14.3675523  34.2270523  25.5898956
  14.7672515  33.3605582  25.6651023  15.0121169  34.8221928  25.9727577
  48.3588772  30.8012539  21.1868766  47.6533585  31.4472586  21.1529163
  48.1454163  30.1767880  20.4935459   6.0720234   5.0035602   9.4387058
   5.4746371   4.2841512   9.6431831   5.9462147   5.1607329   8.5029176
  37.9448915  61.0469294  24.8190522  37.1253562  60.8993196  24.3470311
  38.3426094  61.7983437  24.3792439  54.1109089  39.2210114   1.7569930
  53.7796191  38.3714116   1.4660079  54.9705247  39.2974770   1.3429362
  14.4137960  20.1909405  29.1176132  13.5439854  20.4881674  28.8505653
  14.4714194  20.4213625  30.0448803  47.1201224   6.6797120  25.4397968
  46.6164391   7.4078638  25.0760273  47.1170973   6.8346530  26.3843730
  53.4764624  36.7893338  29.3582249  53.2163239  37.5058842  29.9371195
  54.3714237  36.5789843  29.6247315  16.9280725  41.8071324  21.7770532
  17.3755675  41.2192398  21.1684803  15.9994345  41.6013771  21.6696886
  19.5025992   7.9514748  39.6306992  18.6665773   8.0312055  40.0899839
  19.4251955   7.1382415  39.1318083   8.3154707  51.6303259  14.0412572
   8.0312257  52.3401457  14.6170953   7.5399213  51.0783965  13.9406541
  46.7398750   4.8861784  42.2798395  46.2766873   4.3289036  42.9052496
  47.2966444   5.4442019  42.8228426  55.3094196  42.3011112  27.0298767
  55.8972836  41.5920925  27.2905278  55.6703281  42.6195288  26.2024784
  26.7818623   2.4943191  28.1664279  26.1735802   1.7638022  28.2785419
  26.6455345   3.0404860  28.9406017  64.8141014   0.8556075  45.2017975
  63.9021790   1.1222262  45.0854349  64.8907196   0.6658978  46.1368799
  16.7476564  25.1067025   0.6821540  17.0508151  24.6295029  -0.0902459
  15.8340149  24.8403698   0.7849220  21.8396883  10.1405722   9.5980695
  22.7874832  10.1709467   9.4677022  21.7313080  10.0276238  10.5423835
  63.9129066  45.6939697  32.7590728  64.0096855  46.3390112  33.4596372
  64.0087461  44.8483372  33.1971955   8.5593670  19.6749205  44.9038839
   8.3410757  18.7796778  45.1629639   8.9140194  20.0743956  45.6981564
  39.0403157  30.8573157   9.2385248  39.6296435  30.1145894   9.3700031
  39.0290385  31.3066346  10.0836376  48.8447332  54.3857527  45.5328512
  49.4285774  53.6869574  45.2378130  47.9643869  54.0468645  45.3704500
  56.7887722  34.3851429  11.5762237  56.2865352  34.4233757  12.3901800
  56.8415271  35.2952391  11.2843660  65.7880116  47.8693676  26.5008569
  65.0479698  47.9225063  27.1056271  65.5091000  47.2400093  25.8357668
  67.3529016  16.8319983  54.5307207  67.3200619  17.5755782  55.1325846
  66.4367926  16.5841860  54.4059753   2.8202721  33.2942438  52.8807592
   3.1968647  33.6285400  52.0667219   1.8842520  33.4798431  52.8055859
  46.8306124  -0.0040393  39.2121434  46.2027919   0.6649727  39.4850850
  47.4808061  -0.0230604  39.9143672  12.2781163  17.2005993  17.1093181
  13.2114773  17.4005133  17.0378974  12.1676140  16.3913781  16.6101411
  24.2076569  35.0027806  18.8056663  23.4270506  34.8970181  19.3494466
  24.0147333  35.7613331  18.2546524  14.4293170  12.8693348   5.1920179
  14.9204140  13.5920149   4.8011354  14.9746733  12.0979887   5.0376085
   8.0313176  40.5445051  40.6574011   7.1889770  40.9612131  40.8392000
   8.3823562  41.0297012  39.9106836  16.2525004   8.7383551  44.7048664
  17.1380537   8.5441060  45.0119400  15.8403891   7.8803248  44.6039534
  64.8049199  22.9311806  19.6055893  65.7068514  22.8243405  19.9078086
  64.2755019  22.8525025  20.3991607  49.4242012  26.0915083  42.0130253
  50.0664079  25.5864329  42.5117254  48.6795437  26.1851782  42.6071119
  38.4943199  48.1156731  38.2695293  37.7778697  48.3265495  37.6708102
  38.4015441  48.7447119  38.9850235  11.0307527  42.5597620  41.8287373
  11.7757547  41.9593096  41.8029976  10.2889204  42.0103073  42.0817566
  32.7582191  23.4809452  13.3098129  33.3947276  23.5954338  12.6041320
  33.2024192  23.8142735  14.0894321  27.2999215  51.0196924  51.4421558
  28.2224441  51.1238766  51.6752529  26.8681240  51.7825890  51.8265629
  13.9622140  62.4933004  49.7587872  13.3976138  63.0209732  50.3236008
  13.4068000  62.2611380  49.0145779  59.4152402  34.3677098   1.8536380
  59.9608587  34.0411145   1.1381916  58.6495005  33.7933642   1.8522934
  31.0386257  16.3641745  25.0969413  31.6698246  17.0480067  24.8729137
  30.9050780  15.8843857  24.2795089  45.8198404  30.5117750  15.2097642
  46.0288382  30.0339842  14.4071019  46.6418695  30.9350157  15.4574907
   1.1789620  28.9287699  48.3307334   0.7940805  29.4595421  49.0281424
   2.1221674  29.0669382  48.4173748  46.9493800  52.3113734   8.8272337
  47.2173338  51.9311243   9.6638015  47.5739270  53.0207163   8.6755613
  68.0509186  61.8391705  50.5351067  67.3202038  62.3045111  50.1279974
  68.7926245  62.4385071  50.4520512  19.6598002  19.3446059  30.4155588
  19.9784633  19.5024580  29.5268703  19.1578546  20.1300902  30.6330705
  55.8972370  33.9863867  39.2087531  56.5108788  34.5431227  38.7294650
  56.4505374  33.3324141  39.6358466  64.1202462  60.2022266  51.5719843
  63.1824672  60.1902485  51.7634487  64.2155444  60.8592653  50.8824539
  61.3908755  53.5652434  25.6746105  61.7908418  54.2369472  25.1222805
  61.9404280  52.7919423  25.5472187   7.2602277  21.8723494   9.4853071
   6.8672901  22.7061707   9.2273000   8.1979184  21.9929511   9.3355707
  32.2797364  14.8870749  45.8365679  31.3737553  15.1066441  46.0538816
  32.4066752  15.2387900  44.9554253  20.2138882  16.8834549   5.1783851
  20.1300793  17.6847559   4.6615366  19.3236285  16.5350491   5.2261642
  43.3351736  43.0713374   4.0749744  44.2268925  43.2756573   4.3566230
  43.2068043  43.5974795   3.2857135   6.9459170  12.5221438  41.6194773
   6.0922259  12.8319020  41.9219589   6.7496937  12.0023865  40.8400059
  23.2315092  47.0595938  13.0515531  24.1442805  47.0627362  13.3397678
  22.7532416  46.6548115  13.7751869  10.8175934  57.1695698  55.1045177
  11.4532030  56.4889610  55.3258888  11.1651075  57.5720871  54.3086263
  55.5919873   3.5672230  49.4764471  55.6934821   4.5149560  49.5643854
  54.8240768   3.4596295  48.9152241  53.0031948  39.6016032   9.2127374
  53.1260913  39.5073897  10.1573280  52.0609724  39.7318798   9.1056112
  32.7497136  43.2719099  14.0011505  31.9473463  43.7919330  13.9562706
  32.6512438  42.7477061  14.7959760  37.5636125  51.9161034  37.6795506
  37.5458646  51.0796928  37.2144389  36.7540503  52.3537636  37.4163151
  27.1114987   7.0725340  37.3762178  26.2823265   6.9575495  36.9120193
  27.4434775   6.1829705  37.4974608  68.4061669  47.5566393   4.7029260
  68.5096644  48.0390078   3.8826612  67.4804162  47.3141200   4.7230009
  34.4020962  62.3971736  17.7946857  33.6917328  62.5525009  18.4171728
  35.0805449  61.9603717  18.3096078   0.2357846  44.6791172  48.7867022
  -0.0590069  45.5834532  48.6794424   1.1253098  44.7564793  49.1316557
   4.1069895  62.1316481  29.8600888   3.7046045  61.4430952  29.3307400
   5.0439364  62.0559359  29.6794534  67.3661469   8.3975846  28.8709358
  67.4077486   7.7746111  29.5964721  67.6561855   9.2270523  29.2505268
  63.2421589  48.6896086  28.2486105  62.3996830  49.1260958  28.3748817
  63.2248783  47.9539299  28.8607478  21.5400009  26.1076075   1.5502361
  21.7435055  25.2033669   1.7893175  21.7701559  26.6181904   2.3264888
  24.9962750  20.1107497  46.1184931  25.3188329  20.9833712  46.3437033
  25.5056589  19.5173068  46.6703796  26.6306519  23.8150525  16.3392499
  27.0161536  24.6580761  16.1006454  27.2992745  23.3891951  16.8757394
  10.1548534   8.5661942  23.6996130  10.4184871   8.0877978  24.4856552
  10.3184467   7.9551703  22.9812053  14.5201957  54.8303461  34.5714140
  15.0066197  54.0079355  34.5142794  14.0629327  54.8968983  33.7331343
  15.0772351   2.9082961  40.0523424  15.8421534   3.4464259  39.8485041
  14.7835511   2.5780911  39.2032599   6.6214710  23.0402142  14.5326856
   6.7010145  22.3867852  13.8377479   7.5230675  23.3012730  14.7203163
  65.9131777  17.9606432  45.3038931  66.0636818  17.0977015  44.9180031
  65.0865423  18.2536311  44.9204016   7.0769375   4.1263957  41.1049271
   7.8831786   3.8884968  40.6470966   6.4774578   3.4018130  40.9264994
  18.2843380  34.8824030   2.4072698  18.7493687  34.0596157   2.2556165
  17.6028757  34.6590287   3.0412630   8.6989039  12.6809783  37.3938417
   9.1276329  13.4787459  37.7036691   8.8486737  12.0423693  38.0909657
  36.3567531   5.8243889  34.4838333  36.5817606   6.7232461  34.7239518
  36.7859053   5.6875224  33.6392474  24.6374779  14.9065215  29.2480091
  23.8349800  14.6331030  29.6923831  24.9941140  14.0985161  28.8789943
  41.5454721  45.3566170  48.4318829  40.7838440  45.7553482  48.0109739
  41.9975519  44.8977613  47.7238560   7.7019072  40.8714437  44.4384909
   6.7839849  40.6384373  44.5776367   7.8145576  41.6950178  44.9131155
  63.3054077  39.5733315  17.9863027  63.0205392  40.2865607  17.4149993
  63.5140191  40.0006443  18.8170389  16.7204822  50.8269585  41.3417431
  17.6376951  50.6524170  41.5526625  16.2501443  50.0579823  41.6637620
  27.9958034  54.1951418  36.9044113  28.1634188  53.3205223  36.5534377
  28.1004906  54.0975332  37.8508496  39.8087549  13.6092610  28.0158329
  40.5729830  13.1046290  28.2942867  39.0693283  13.0154652  28.1457734
  39.3453836  40.3382635  52.3227692  39.5184255  39.4373465  52.5959587
  38.7661076  40.2518940  51.5656614  19.3484764  23.6544758   1.3395790
  19.7810917  23.9414936   0.5354074  18.5224085  24.1378600   1.3528017
  18.2486611   8.2854945   5.6240562  18.7189560   7.9203850   4.8745540
  17.7293949   7.5549251   5.9599975   6.5123432  31.2392272  15.9543994
   7.4464815  31.2240792  15.7460836   6.4233654  31.9353777  16.6053108
  42.9687691  47.5109863  47.6122713  42.9905128  47.0814180  46.7571545
  42.4287987  46.9366121  48.1551838  16.3365965  11.5998513   8.5536912
  16.9828134  11.5481955   7.8494409  15.6114393  11.0515887   8.2540420
  48.7254035  59.5209300  15.3593114  47.9688465  59.8581850  15.8390144
  48.6004173  59.8346912  14.4636777  65.4877733  13.8424546   2.6124862
  65.9285115  14.6508795   2.8740839  66.1997770  13.2430273   2.3889593
  58.8794136  46.4499617  14.5274818  59.5348310  46.5115643  13.8326013
  58.3323479  47.2266245  14.4102633  63.8279152  57.7134037  41.1105871
  63.1873512  57.0040655  41.1630249  63.6014605  58.1817055  40.3070641
  31.1360197  17.3514897  18.2388881  31.9518738  16.8704945  18.3776763
  31.3007670  18.2161147  18.6150650  64.3553614   7.1909958   9.7264770
  64.8858141   6.7737919   9.0476612  63.8504898   6.4740569  10.1103166
  52.4310589  35.5779505  32.9214859  52.4048662  36.5292835  33.0240202
  51.7839050  35.2517486  33.5467958  44.7151434  29.5719809  46.1059761
  44.2993056  29.2489428  45.3066301  45.6470882  29.3934626  45.9801149
  43.8407707  59.6987581  37.9269385  43.0866718  60.2674770  37.7716160
  44.6002054  60.2639723  37.7854419  49.5087385  48.4124565  42.2038555
  49.6451092  48.2142448  43.1303263  48.7645245  49.0143633  42.1947193
  53.7896864  19.1423799  18.8393501  53.5030215  18.2306958  18.8929895
  54.4568913  19.2241574  19.5208124  29.4894581  24.2058236  14.8940662
  29.2537575  23.6222083  14.1729120  30.0720864  23.6828572  15.4447750
  32.5733542  18.1311083  10.8059132  33.1898928  18.8048744  10.5192947
  31.8272972  18.2213247  10.2130437  19.3623912  25.0865173  39.4873023
  20.1293182  24.5397234  39.3167973  19.5010650  25.8674121  38.9513874
   1.5992754  18.4660620  53.2037544   1.7418831  18.4418196  54.1499615
   0.6745547  18.6934371  53.1066561  52.3037850  18.3756251  52.0143795
  51.6955959  19.1075320  51.9111824  51.8842494  17.6488490  51.5539265
  18.7739265  50.5044460  18.7726355  18.6111546  50.5176353  19.7158027
  17.9085898  50.6149864  18.3786750  53.3947741  47.0954608  20.8887104
  52.7437126  46.5007889  21.2611583  53.0393707  47.9698467  21.0479930
   1.8948632  -0.1057349  25.8685136   1.6683750   0.0784101  24.9569058
   1.3154011   0.4604329  26.3783312  29.7793007  61.0339737  41.1669350
  29.7296286  60.5236483  40.3586483  29.9120259  61.9353151  40.8733368
  50.7435541  45.4734618  14.8437646  50.8903359  45.5441386  15.7870010
  51.6226100  45.4481751  14.4658092  40.4606247  46.4063168  39.1993999
  39.8047495  46.8644190  38.6738563  40.2028656  45.4855585  39.1547203
  62.0771348   1.8740410  44.9784994  62.0328843   2.5477023  45.6570721
  61.2210452   1.9074769  44.5516205  50.8332968  56.3222599  30.9557128
  50.3959417  56.9914532  31.4821482  50.9392500  55.5804157  31.5512609
  44.3565499  10.4975886  11.5172839  43.9746415   9.9947018  12.2366476
  44.8616802  11.1868281  11.9485843  35.7798987  34.7861058  11.9660047
  36.6957741  34.9853760  12.1601490  35.4098683  34.5171362  12.8068212
  48.3993464  20.3705126  19.2792133  48.9629536  19.7548586  19.7477726
  47.5374108  20.2590901  19.6803096  19.5211058  17.8100258  35.8615593
  19.7501879  18.4711176  36.5147880  18.9532643  18.2705075  35.2437118
  40.5463349  11.2372965  34.9015307  41.0178518  10.5259509  34.4680691
  40.9340095  12.0353980  34.5423985   4.5102907  63.7991541  52.1391505
   4.2879654  62.9176420  52.4387139   3.8416506  64.3610018  52.5309130
   9.9369753  53.4089745  53.7992122  10.3904260  54.2403210  53.9387795
  10.3297341  52.8120506  54.4361244  15.3232527  58.3750248  45.6742239
  14.7770691  58.9679766  46.1902905  14.7006571  57.8706169  45.1506042
  24.7348839  50.5020094  40.2089596  23.8633496  50.6398916  39.8379469
  24.7672039  51.0848331  40.9675789  20.4864764  59.2646646  31.8598676
  21.1434984  59.0792274  31.1889219  20.7183504  58.6881638  32.5879574
  67.8192055   1.3874001  47.9746914  67.7357876   1.6123051  48.9013481
  67.3964035   0.5321784  47.8967905  21.4830666  55.3011137  21.8033889
  20.7906037  55.9355933  21.6185812  21.1963539  54.8597342  22.6029018
  54.7559404  51.3742828  28.2064009  53.8832426  50.9893322  28.1261039
  55.0185347  51.5624762  27.3053694  27.1222687  52.8175926  46.1342621
  27.0219994  53.6036062  45.5972719  27.4246931  52.1464777  45.5223942
  11.4996200  33.4483868  20.7079795  11.5222888  33.2845217  21.6507724
  12.3964291  33.2865292  20.4151109   8.1656939  36.8751621  36.6018271
   7.8773695  37.7362370  36.2990856   7.6547724  36.7169333  37.3956513
  67.8854238  49.8441119  28.6544991  67.9230463  48.9884085  28.2271814
  67.0302021  50.1970286  28.4090042   0.2952021  20.6020541   0.3226592
  -0.1018125  21.3410468   0.7836398   1.1644762  20.5148310   0.7137948
  57.6474761  56.8714911  25.8142952  57.7806519  57.0230490  24.8785976
  56.6966473  56.8336874  25.9178546  46.0094786  64.1656065  52.9533863
  46.4055967  63.8724995  52.1327686  45.1150942  64.4087076  52.7142048
  31.5153199  30.6253916   9.4150594  31.3584643  31.1528927  10.1982406
  32.4603920  30.6814057   9.2738822   8.2049256  16.8156392   6.6962913
   8.5681157  17.6956707   6.5969471   8.5887175  16.4885765   7.5098995
   1.0689705  15.2565379  45.1633263   1.1386889  16.2111468  45.1730919
   1.8909806  14.9524064  45.5480814  53.7171870   5.5521662  47.2804752
  52.8464323   5.3047450  46.9693473  53.6814541   5.4142649  48.2270148
  65.1029980  20.2041049  14.3361211  65.9857761  20.5144686  14.5376372
  64.9328863  20.5244345  13.4502971  20.0435418   9.9207444  42.2707224
  20.7407397   9.9690241  41.6166401  20.4958647  10.0078387  43.1097984
  64.2774832  11.9380040   9.1637403  64.9225771  12.2085042   9.8171258
  64.6951687  12.1250481   8.3230358  25.0639361  29.4134898  51.2746620
  25.0460499  30.3686900  51.2155104  24.4902151  29.1189284  50.5673361
  63.3930922  61.0890150  54.6706820  63.9861727  60.5847788  55.2276659
  63.9721060  61.5970230  54.1024351  23.4042626  36.3396222  15.6526950
  23.2152300  37.2490221  15.8839849  22.6125317  36.0358769  15.2086929
  17.5704592  14.7186322  34.5667052  17.4062413  14.5067830  35.4856086
  16.8383997  15.2822155  34.3163157  57.3740207  48.4692389   8.5840324
  58.0497121  48.4004408   7.9095367  56.5493094  48.4652430   8.0981639
  46.6368114  11.2015719  18.5257375  46.5892517  10.2974839  18.2149291
  45.7308733  11.4320225  18.7316406   8.6712033  51.8651724  34.5728993
   9.0772873  51.2995195  35.2296782   9.3456894  52.5111771  34.3631768
  57.3581159   7.4396176  35.6933641  58.1670391   7.5195784  36.1988187
  57.6181614   7.6339001  34.7928858  32.8441644  61.3699579   3.6517003
  32.4419117  60.7071161   3.0903912  32.3492599  61.3234615   4.4697088
  30.7372504  16.5459687  15.6560949  29.7806673  16.5712601  15.6329444
  30.9689074  16.9898945  16.4718774   2.3457592  15.3451867  26.6689801
   2.6451081  14.7341485  25.9957361   2.9804009  16.0612292  26.6418147
  62.9434299  54.8306894  40.4381132  62.5324202  54.9041176  39.5767689
  63.7398052  54.3234062  40.2810240  67.8265333  40.8538103  36.0411811
  67.9312181  40.0365448  35.5539966  66.8952084  41.0609818  35.9641027
  61.5607737  53.1851107  10.7755617  60.7220673  52.7643305  10.9646467
  61.5246152  53.3813483   9.8393873  18.9446764  36.3268763  16.4625791
  19.4281273  35.5058962  16.3703445  18.8863783  36.4655930  17.4078802
  42.9828584   7.8875250  17.2582889  42.4249756   7.6572175  16.5153515
  43.5708582   7.1387572  17.3574555  12.4844628  21.4204890  27.3362354
  12.5453477  22.2880656  27.7360347  12.6625591  21.5715128  26.4079574
  19.2467034  47.6779032  50.9800005  18.4752584  47.1141624  50.9225464
  19.4943893  47.6514435  51.9042206  54.6355712  14.5936865  48.1305075
  55.4643142  14.5168347  47.6577330  54.3639171  13.6891598  48.2862759
  47.1801798  17.7052594  16.5251831  47.4713127  16.9553185  16.0064748
  46.6583054  18.2289124  15.9171775  57.8586518   0.8628459  22.6825595
  57.0693576   1.1736006  23.1260419  57.5415360   0.2094931  22.0590258
  30.4236763   6.8662495  44.7707415  30.3869313   7.0435805  43.8308287
  30.3850048   5.9120698  44.8361444  50.8412647  50.4615259  46.2198782
  50.0053978  50.9276772  46.2362576  51.4124012  50.9737206  46.7923260
  42.0560639   2.0657350   1.4699367  42.2850601   2.2842503   0.5665830
  42.7463238   2.4691392   1.9962791  16.0831183  60.4374594  41.3596535
  16.3671797  61.3513751  41.3768148  16.7127150  60.0016970  40.7852411
  67.8308594   2.5227446  50.9213543  67.6965391   3.1912846  51.5930986
  68.4351885   2.9268736  50.2986956  63.1344997   2.5659699  41.3182163
  64.0044891   2.2194905  41.1199856  62.5751650   1.7912097  41.3741255
   0.3390986  49.8508644  38.5992956   0.4878575  49.2137814  39.2980266
   1.1855656  49.9250221  38.1585884  42.0224047  30.2363229  23.8111424
  42.7448463  29.6099138  23.8550043  42.0703840  30.5956149  22.9252315
   6.4689129  19.5113463  32.2970676   5.7077092  20.0898833  32.2512412
   6.4522713  19.1637988  33.1887913   1.5581827  44.2672020   8.4332183
   1.4945107  44.3974215   7.4870590   0.6902342  43.9568287   8.6912206
  60.5600225  59.5916998   1.6421989  59.9575889  60.3098213   1.4482740
  61.4218366  59.9296820   1.3987306  22.5235634  57.7500922   5.2127698
  23.1738358  57.2333056   5.6884864  21.9254046  57.1006876   4.8430208
  45.5724573  44.4079065  53.9607334  44.7928286  43.8593006  53.8744831
  45.2528477  45.3006077  53.8296795   0.4439343  49.0962315  31.2148428
   0.3512898  49.9544477  31.6285038   0.3345532  49.2680931  30.2795720
  60.7925701  38.7784457  26.5835881  61.6036892  38.2722020  26.5385175
  60.9091616  39.4755840  25.9381151  32.7317166  36.1176658  13.9150441
  33.1300473  36.4216471  13.0994713  32.5840354  35.1822948  13.7753868
  17.1857851  18.1174941  15.7334173  17.9605168  18.6775870  15.6852305
  16.7274016  18.2711501  14.9072790  66.5197277  47.4132967  13.1171441
  65.6598377  47.8106117  12.9794478  66.3290024  46.5060520  13.3553958
  26.3844919  48.1026268  25.2583766  26.3689017  47.9335546  26.2003970
  26.9112873  48.8964939  25.1662064  20.6292944  52.6118380   7.6321987
  21.0058194  52.0522124   6.9530204  19.8174839  52.9422480   7.2474531
  33.3984261  26.2768036  15.7878498  33.0347948  25.9311062  16.6030124
  34.2103415  25.7860428  15.6606630  56.0421889   8.6902142  13.9874939
  55.7505457   8.0292607  14.6154407  55.4233782   8.6195661  13.2606414
   1.0107582  56.6710078  -0.0401637   1.7949313  56.1549651  -0.2272603
   0.7381171  56.3848888   0.8316377  63.2790709  36.9765592  17.3748255
  63.4326649  37.8891206  17.6195145  62.5860405  37.0186543  16.7159092
  25.9639287  57.4594879  22.3695421  25.2536774  58.0986786  22.3128963
  25.6431246  56.7010975  21.8815279  39.3852860  56.8271971  48.7673473
  39.7618920  57.5802469  49.2226744  39.0437657  57.1882010  47.9492617
  30.4350834  38.1652409   2.4915412  30.7959156  38.2967478   1.6147665
  31.0167532  37.5214821   2.8958515  23.3584803   3.3984847  53.8594294
  23.9930218   3.6446137  53.1863737  22.5270813   3.3277888  53.3903742
  32.1819239  33.6309487  14.1766313  31.6915875  33.2298094  14.8941902
  31.6935187  33.3908993  13.3891872  36.3323956  38.6655528  10.4024795
  37.2521620  38.4657771  10.2282623  36.1750918  39.4900948   9.9424699
  19.7606015  43.0150223  48.7568140  20.6272721  42.6395273  48.6015320
  19.3129587  42.9409409  47.9139900  56.6419458  47.3886585  17.7601671
  56.0854197  47.8419256  18.3934581  57.3708200  47.9902077  17.6081276
   9.7577149  62.2326422  50.7780027   9.0219599  62.5393867  50.2480936
   9.3930537  62.1289301  51.6569233  65.8302600  47.1257644  20.5304623
  65.2311606  47.4412673  21.2070489  66.3836033  47.8805511  20.3296137
  25.2687883  41.8539762  50.8599567  25.1904130  42.1863794  49.9657536
  25.7343483  42.5442839  51.3321447  33.1574631  15.1760364   8.3823055
  32.2347140  15.1593494   8.1283587  33.6333728  15.0242269   7.5657916
   7.8081661  61.9073980  14.3649295   6.9530857  62.1794407  14.0316680
   8.1078434  61.2445109  13.7428287  20.7110384  27.3161086   4.5853046
  20.0699293  26.6694974   4.2901710  21.5526995  26.8644452   4.5233491
  64.8652899  23.5525667   4.0899662  65.7492601  23.2103186   3.9569572
  64.9078142  24.0048187   4.9325183  19.6266162  48.0824148   1.1896328
  19.8457518  47.1590626   1.0646108  19.6854582  48.2165920   2.1355537
  58.3763522  23.0390215  39.6077704  59.0996110  23.4635067  39.1463137
  57.9004985  23.7592816  40.0213194  21.8762446  32.3355806  46.5612837
  21.9382368  32.1480040  47.4978754  21.9268538  33.2897384  46.5042469
  58.7872619  63.6295983  24.2154527  59.2570562  62.8706705  24.5612192
  58.2869012  63.2849618  23.4757924  26.6750336  55.0660515   5.3103888
  25.9949112  55.5962372   5.7258022  26.8641853  55.5198050   4.4890705
   5.2967418  52.1718579   4.4987583   5.9514034  51.4853530   4.6266723
   4.5737422  51.9236951   5.0748819   9.0115875   1.6040714  35.1434684
   8.1111479   1.3771603  35.3757429   8.9939785   1.7107469  34.1923952
  58.1248509  31.9058081  15.8465103  58.6879026  31.1457534  15.6998066
  57.8156101  31.8046068  16.7467121  23.4067799  35.6726244   2.8763011
  22.6355921  35.8437791   2.3357395  23.9596162  35.1103347   2.3336795
   5.0710583   9.5820147  47.2121620   5.3273392  10.1656675  47.9262352
   4.1155785   9.5502889  47.2599554  48.5210991  19.8173451  13.8313353
  48.6593103  20.0448370  14.7507787  47.5842667  19.6311224  13.7688875
  47.9746914  28.6939645  27.0328140  48.2276201  28.9688230  26.1514997
  48.2573032  29.4127607  27.5982285   6.3650006   9.9785340  37.6508069
   7.1347547   9.5676577  37.2572446   6.0635614   9.3465912  38.3035040
  42.9581630  52.8937017   1.9341377  43.0865848  51.9813859   2.1937898
  43.3009493  52.9392206   1.0415796  61.3636883  60.5362081  52.0807629
  60.5356796  61.0076570  51.9892862  61.2894781  60.0824856  52.9203239
  17.9104686  18.8778770  33.8935637  17.7187085  18.2292736  33.2162356
  18.1017327  19.6808720  33.4089494  19.0111554  12.2397947  47.9454088
  18.7821913  13.1456304  48.1534243  19.8336005  12.0876932  48.4109020
  61.8230891  16.2593246  31.8531227  62.1836090  15.5319786  31.3459492
  62.3975724  16.9984782  31.6534901  29.2958879   7.0798218  54.5354080
  29.5967197   6.2315995  54.2094517  29.0021443   6.9025278  55.4290056
  38.7107074  16.1458516  19.9555543  39.5426237  15.8888757  20.3531841
  38.9156305  16.9415044  19.4644550   4.0485623  13.3942056  50.5642986
   3.5490704  13.6503339  51.3396263   3.4086418  12.9609609  49.9994659
  19.5468557   9.5383686  18.7221348  19.9203384   8.6856401  18.9448357
  18.9445281   9.7310698  19.4406748  31.2998580  37.8710931  10.4405788
  32.1191167  37.4682104  10.7282117  31.3028758  37.7669584   9.4890646
   3.4135775  59.8612546  33.0744263   4.1698195  60.4288863  32.9256889
   3.7914051  59.0267252  33.3519908  45.0416779  29.7661787  20.6346369
  45.4309939  29.7015052  19.7625816  44.8184076  28.8642745  20.8647466
  27.5965452  12.1481645  22.0210600  27.9055214  12.8970301  21.5111923
  26.7643404  11.9079936  21.6136479  49.8582613  41.4329802   2.6004127
  50.4689967  41.0179680   3.2095054  50.3998196  41.6842681   1.8522123
  62.5795328  34.6534527   2.7017644  62.8158152  33.7914746   3.0443958
  61.8598115  34.4808581   2.0947650  21.6701173  32.0294451   1.1014417
  21.9811463  31.4611574   1.8061021  20.7669912  32.2364953   1.3417057
  10.2773142   4.2915347  49.0542793  10.5589175   5.0106490  48.4887648
   9.3423557   4.4454825  49.1898680  47.7538959  50.9144741  11.1078453
  47.7086932  51.4824980  11.8769610  48.5302899  50.3741472  11.2544453
  17.8210432  63.1750042  38.0850983  16.9353372  63.0497254  38.4257817
  17.6955253  63.6343276  37.2547388   3.6669120  24.9646568  32.9926538
   4.3664360  25.0694323  33.6375713   3.8656932  25.6122136  32.3163509
  53.0917806  57.2728568  40.3215122  53.0043203  57.8046667  39.5304608
  52.9187382  57.8815603  41.0396814  37.6435507  64.5666765   8.9555538
  37.4820733  63.6774814   9.2709726  37.3576445  64.5524244   8.0421609
  23.2919135  19.5817965  50.9250474  22.3447609  19.5638674  50.7878890
  23.6368933  20.0340181  50.1551666  58.7592727  59.3351113  50.5596399
  59.3116314  58.5731631  50.3848028  58.2878668  59.4824036  49.7396898
  56.3041109  25.2978826  51.1292219  56.4864534  26.1459613  51.5338755
  57.1232670  25.0581789  50.6959152  48.5054166  52.3645525  35.4949856
  48.5533557  52.9716878  34.7565269  48.8990206  52.8431886  36.2245154
   2.3245252  58.5773402  18.4223008   1.8172062  59.3890118  18.4152949
   3.2274163  58.8604664  18.5667157  46.1061612  53.6138373  45.0625896
  45.5734911  53.7894123  45.8382607  46.0416858  54.4142251  44.5415783
  37.1622562   4.9703425  52.1339464  36.4782095   4.6745232  51.5332794
  36.8041182   4.8032692  53.0057573  61.1435270   0.3827862  42.0644426
  60.5676126   0.5382840  42.8130245  61.7509365  -0.2928274  42.3658276
  11.6775668  60.1289990  51.1252403  11.1485851  60.6814723  50.5497551
  11.8476499  60.6758230  51.8922377   0.4806957   7.5803059   6.3751674
  -0.0805723   7.3896378   5.6235987   0.8253816   8.4560680   6.2006253
  46.7645795  38.6898141   0.1093484  46.7548123  39.4108110  -0.5201760
  46.0676203  38.9039093   0.7295449  30.4268807  48.2270359   2.0357517
  30.6758880  49.1247820   2.2554782  30.2157932  47.8240799   2.8779510
  19.5491732  43.3868843  34.0798259  18.9845455  44.0449172  33.6743379
  20.0696123  43.8771873  34.7162080  45.8354913  52.2617238  48.8581753
  46.7520033  52.0878916  49.0726995  45.6464994  51.6777306  48.1236935
  66.7886412  23.0693793  37.3094130  67.7419299  23.0176735  37.3786879
  66.5966335  24.0065694  37.3417068  25.1810444  58.7689476  52.5532579
  25.3372419  58.6111128  53.4843445  25.5805958  58.0188607  52.1128464
  35.8948660  11.8927491  46.6654444  35.6001425  11.0852802  46.2442970
  36.5986848  11.6141987  47.2513437  17.4325169  45.4537468  43.3386040
  17.5092495  46.0062950  44.1164446  17.6815880  44.5800274  43.6399508
  20.2425289   1.9479606  16.0132468  20.0344753   1.6467988  15.1287997
  19.7574186   1.3560148  16.5881371  26.2703692  39.0906006   5.9251026
  27.0758959  39.6071082   5.9491542  26.4189061  38.4473520   5.2319959
  18.6178725  25.5590057   4.2711786  17.9797077  26.0749965   3.7785009
  18.3396288  24.6516472   4.1466287  12.3141259  47.7163052  11.7318014
  11.5855759  47.1179926  11.8975404  12.5365036  47.5738394  10.8117536
   6.3632399  16.0260701   4.7556725   6.9773048  16.3362134   5.4212308
   6.9129694  15.5780447   4.1127864  67.9429490  33.3309846  43.6736536
  67.3653752  32.5764041  43.5585546  68.8180167  32.9522233  43.7574911
  56.2660027  28.0127716  41.8710041  56.5649414  27.7591300  42.7442360
  57.0582485  28.0013657  41.3339329  16.0920572   5.5338818   9.2954248
  16.3934791   6.2869263   9.8036581  15.1894391   5.3966630   9.5829690
  32.2245509  60.4055547  22.8620815  33.0420214  59.9936720  23.1419539
  32.4186403  60.7569274  21.9931173  49.6646929  20.1643586  10.8313406
  49.3445730  19.7117186  10.0510383  49.0300179  19.9442267  11.5132213
  23.4654260   7.7374375  48.3315992  24.3762803   7.4682337  48.4503746
  23.0401063   6.9759893  47.9372263  61.4827978  16.6570687  13.9863542
  60.7267105  17.2258079  14.1316036  61.3715422  16.3344597  13.0920509
  45.8258688  34.5560705  14.9023679  45.4928076  34.6320182  15.7965330
  46.7194879  34.2292448  15.0065902  41.5244773  42.6747303  31.0964870
  41.5325156  43.3174067  30.3871655  40.6162924  42.3752242  31.1380386
  62.1430463  55.2350985  42.9047966  62.4338645  55.0010955  42.0233774
  61.6603142  56.0534184  42.7883720  35.8652067  16.9357800  21.2647176
  35.9357214  16.4098239  22.0613551  36.6614819  17.4669302  21.2571263
  67.6432405  44.7998810  21.0225081  67.8404262  44.5806026  20.1118660
  67.2141681  45.6542397  20.9756279  15.2555937  61.2898630  52.8985405
  15.6630499  60.4326504  53.0226364  15.5306024  61.7984670  53.6613802
  12.2762513   9.3322814  38.5760403  12.4373972   9.6542287  37.6891279
  12.0210099   8.4175670  38.4561181  24.7337515  53.7396234  39.9038053
  24.2117387  53.2854312  40.5651999  24.3528134  53.4667664  39.0691400
  12.3995686   1.0428143  26.9265008  12.8270960   1.4059779  26.1508965
  12.1085811   0.1725230  26.6541958  54.5382386  39.8683119  37.6346946
  54.4810051  38.9166212  37.5496173  54.4737297  40.1933670  36.7366934
  55.6329590  37.3095232   5.2093506  55.5893749  38.2247096   4.9322844
  56.5331060  37.0446091   5.0201732  43.8808298   6.1975437  24.2902493
  44.4019747   6.9614542  24.0431070  44.4733667   5.4550791  24.1724277
  24.7955704  10.2343214  49.3344355  24.5855498  10.5625594  50.2087259
  24.6491361   9.2901123  49.3915224  40.7344878  62.9061576  42.7480364
  41.2244702  62.9523890  43.5690212  41.3981188  62.7228554  42.0830393
  54.2193616  44.9074703  18.5933244  54.2608571  45.4747861  19.3631709
  54.1802109  45.5119544  17.8521776   8.2050306  44.8449855  36.5794563
   8.3056218  45.7081156  36.9808531   9.0942032  44.5904034  36.3329029
  18.1835688  63.9782305  18.9294028  17.5477255  63.2629069  18.9451444
  18.5326851  63.9687932  18.0381894  31.5042872  55.1776462  32.7726531
  32.3933858  55.0415116  32.4452353  31.2886006  54.3626791  33.2260180
  63.4264309  63.2236516  37.4887037  63.5624785  62.9679947  36.5763664
  63.0227834  64.0900402  37.4370217  35.9422440  45.4320734  54.0482616
  35.8371479  45.2886873  53.1077147  36.6240037  46.1007505  54.1138935
  17.2567511   1.1371530  48.2850456  16.7811048   1.4558111  47.5179434
  17.5423908   0.2567446  48.0410767   4.6884331  28.0006194  19.9884439
   5.3205609  28.2736921  19.3235540   4.2225897  27.2661543  19.5887172
  18.1680745  45.7092153  14.4713834  19.0264767  45.4344129  14.7936586
  17.5433415  45.2222490  15.0087884   4.7137067  21.8188500  31.9033098
   5.3023803  22.5068879  32.2136307   3.8365775  22.1462417  32.1025372
  18.5778975  19.9603653  44.3595600  19.3772888  19.8610914  43.8425016
  17.8937769  20.1317334  43.7123823  45.7345808  54.2803054  12.7337468
  46.4758528  54.8739021  12.6137877  45.1794947  54.4327109  11.9689691
  38.1169868  26.5564656  27.0631123  38.7193918  26.3423586  26.3507223
  38.3693814  25.9685349  27.7750587  57.7114743  18.1501043  35.4540420
  57.4993259  19.0303683  35.1436234  58.6436200  18.0467892  35.2625680
  59.9814474  47.2920370  44.2581320  60.4351306  47.7228880  43.5337210
  60.5134767  46.5193605  44.4482517  11.9108713  41.4956570  30.2265930
  11.2639987  41.2335443  29.5715475  11.9850707  40.7377958  30.8065677
  46.0964602  24.5239115  52.4467087  46.5294069  25.3704977  52.5566101
  45.2152842  24.6584582  52.7955055  48.3526421  14.5277083  25.4388094
  47.4828482  14.2047513  25.2034688  48.3585405  15.4377985  25.1422715
  52.7511179  27.3506972  19.6154073  51.8470609  27.2368794  19.3222240
  52.7965533  26.8720447  20.4430917  41.1101431   5.7573766  40.6330585
  41.1070365   6.4326298  41.3114786  42.0080298   5.7552493  40.3013563
  23.5970426   0.8127767  42.9784822  23.5197711   1.6277584  42.4824333
  23.6070108   0.1263848  42.3114014  14.9417877  30.8952403  44.1644621
  15.5199814  30.2120972  44.5039320  14.2069614  30.9135795  44.7775888
   7.4602997  10.9960055  30.2446413   7.7125728  11.6619575  29.6050334
   6.5217942  11.1321449  30.3746629  65.6055319  54.7557938   1.6235403
  65.0457918  54.0588772   1.2811521  65.0854599  55.5528223   1.5210298
  61.4681047   2.5865531   9.5968175  61.2844932   1.6730484   9.3776649
  61.5301412   2.5959113  10.5519593  26.3307256  57.2918510  27.4900842
  26.2212187  57.6949965  28.3513117  25.8589548  57.8718691  26.8923855
  67.4505812  60.4227784  14.3949664  68.1686169  60.4357895  15.0278080
  67.4308259  61.3102489  14.0368640  63.0888807  16.3680410  25.9888271
  62.9546320  17.2180712  25.5697158  62.8303492  15.7297217  25.3240398
  26.6867649  48.0756998   1.1581663  27.0049473  48.3912599   2.0039848
  26.6731423  47.1227979   1.2477497  16.1294020  33.0590873  16.3291526
  16.4287699  33.7459283  15.7334518  15.3817142  32.6630097  15.8815849
  34.4048214   5.5310655  30.8732533  33.9809656   5.7983541  30.0576949
  35.2571821   5.1917434  30.6001711   9.4033897  12.3756742  51.5297318
   9.6453917  13.2142019  51.9228458   8.4505993  12.4159122  51.4472485
  67.3352033  45.6862431   1.2279096  67.9221708  45.2556198   1.8494123
  66.6361434  45.0497382   1.0782252  60.9002668  62.0990837   9.1948795
  60.5773670  62.3669640  10.0552320  60.1943654  61.5657365   8.8295376
  51.5582692  34.8957031  19.1372684  52.3210322  34.6912601  18.5963157
  51.5442717  35.8518475  19.1799787  67.4605833   6.6991717  35.0750685
  67.5433148   6.0335374  35.7579446  66.7892861   7.2972119  35.4036117
  59.4415092   4.3427119   8.7575054  59.0398598   3.8776386   8.0236000
  60.1263762   3.7513888   9.0697974  15.3710938   3.3588472  35.9301805
  14.7276425   3.2901308  35.2248573  15.2030492   4.2144012  36.3251758
   3.1048382  30.9966045  18.0783296   2.1955669  30.8562427  17.8142166
   3.5399831  30.1650458  17.8902113  10.5853308  49.1953974  25.7548428
   9.6826041  49.0410548  25.4764628  11.0746706  49.2922192  24.9378943
  43.9209478  51.5569418  45.0127268  43.2278908  51.9847005  45.5156469
  44.4495051  52.2784012  44.6716166   4.2790380  35.0769472  40.7368422
   4.2991602  35.0140882  39.7819185   4.6524891  34.2491221  41.0392857
  51.8702906   2.3803423  22.3473072  51.4316779   2.3235996  21.4984083
  52.2654456   3.2521367  22.3549318  18.3564115   0.3887185  52.4146843
  18.3000505   1.1527644  52.9885197  19.2851305   0.3243915  52.1920252
  50.1109552  11.4578259  10.2918458  49.8707104  11.1015594   9.4365168
  50.0063324  10.7224381  10.8955777  46.5756730  58.3622264  34.6563721
  46.7577196  59.3014788  34.6863127  47.1761007  57.9813349  35.2971840
  10.2670979  39.8967934  33.1874824   9.7617424  40.2427053  33.9231396
   9.9512500  40.3869534  32.4283957  61.7545742  40.0892120  29.9776602
  62.6089031  39.6582084  29.9534082  61.1228520  39.3710118  29.9409509
   3.7252987  59.3987157  15.6697643   4.3634308  58.9370208  16.2136889
   3.1875694  58.7040942  15.2895272  66.4436969   0.5180839  36.6352749
  65.7177323   0.8991954  37.1291995  66.3260001   0.8472046  35.7441759
   7.8193980  38.4230065  16.9132459   6.9124603  38.4808850  17.2138202
   8.2872373  39.0735197  17.4368775  65.2670545  62.4208766  53.2570696
  65.0150627  63.2385930  52.8280354  65.7742626  61.9499073  52.5958872
  24.9766243  63.0569092  26.4565396  25.2332724  63.8616700  26.9067860
  25.0864780  62.3694520  27.1134758  26.0140276  19.3191314  42.3557234
  26.0902381  19.1855383  41.4109612  26.7770553  19.8496878  42.5849152
  47.9297206  52.3472422  29.2120481  48.4310034  52.6937907  29.9501896
  47.0286429  52.3066860  29.5324326  10.2226627  19.5668101  24.9638534
  10.8674228  20.2672958  24.8646688  10.1497948  19.4405460  25.9098887
  28.1985474  39.6557593  50.8283615  27.9651642  39.9019289  51.7234373
  28.9898467  39.1257858  50.9243059  22.8207707   8.3076441  24.5413113
  23.5591102   7.7145708  24.4021964  23.2142997   9.1800338  24.5587564
  24.2001963  19.7041368  25.7684016  23.4760880  19.5713377  26.3801718
  24.2469788  18.8872361  25.2716947  22.7532820  51.5993773  23.0153326
  22.6734913  51.9153749  22.1153263  23.6649981  51.3176262  23.0903104
  68.0184218  24.9338913  43.2812643  67.9219915  24.4695020  44.1126966
  68.6980089  24.4486809  42.8133297  16.5049446  31.7548805  48.2148123
  16.8619311  32.3792487  47.5831795  15.6650818  31.4890819  47.8403616
  19.4385803  10.2701163  35.5923653  20.3938627  10.2097058  35.5879474
  19.2028522  10.2697289  36.5200853  40.1869917  11.9026518  41.1071587
  40.8744907  12.3188174  41.6271400  39.3749738  12.2997892  41.4220285
  20.6000543  37.9779434  54.8291302  21.1072612  37.4076533  55.4068327
  21.1377025  38.0602360  54.0414762   6.7636937  47.4930787   0.6117824
   6.4402216  46.6552066   0.2807621   7.6998585  47.4840426   0.4124263
  31.6732478   3.9631367  45.1422977  32.0941567   4.2577028  45.9499454
  31.1800718   3.1841493  45.3995657  41.0670853  58.1791210   2.1882972
  41.9381332  58.0225039   1.8236303  40.4701281  57.7498293   1.5754545
  41.0982513   9.8144877  44.0891886  40.2725077  10.2452290  44.3101931
  41.1315155   9.0505737  44.6650028  65.6751734  38.0097604  38.8871527
  65.6222218  37.8799129  39.8340249  64.8389339  38.4126902  38.6535192
  52.0834095  59.6408512  41.7689753  51.7528409  60.5107733  41.5449429
  51.6588957  59.4301724  42.6006222  11.9592762  50.7274389  39.2604542
  11.8225873  50.5600166  40.1929331  11.7322826  51.6503906  39.1470289
  12.9486227  23.5824561  28.7465906  13.1766474  23.2694244  29.6219468
  12.8861248  24.5329499  28.8408661  41.3711357  44.2202675   8.6215309
  40.8533215  44.9844789   8.3683876  41.3275909  44.2074763   9.5776514
  60.5889618  33.0875491  14.9006990  59.7987401  32.7429042  15.3166345
  61.1457478  32.3197975  14.7711662  62.6532669  24.7785473  53.4130385
  62.3324842  23.8773423  53.3789752  63.3317823  24.8169023  52.7389642
  45.3364731   6.8163115   1.0721639  45.6345434   6.1448723   1.6858057
  45.0420226   6.3257295   0.3047946  46.4262651  54.9050962   6.1595553
  46.7151442  55.1421266   7.0408028  47.1354142  54.3638998   5.8125031
  24.3752707  52.6922017  10.0675571  24.9138964  51.9025105  10.1175952
  25.0004375  53.3986407   9.9052531   3.5767608   0.1420671   4.0189174
   2.9062538  -0.4911893   4.2751173   3.0989700   0.9634859   3.9039424
  51.7998945  19.7798633  12.5515798  50.9810340  19.9530219  12.0871261
  51.5380585  19.2650711  13.3149055  48.6965036   7.8216881  36.9526935
  49.3790436   8.3732426  36.5703869  48.0006170   7.8116620  36.2955213
  56.4141417  17.7941918  42.6224899  55.7885885  18.1243241  43.2674122
  56.0049915  17.9768467  41.7766380   8.7511039  19.6618700  21.6812587
   8.7004620  18.7189245  21.5246677   9.5323479  19.7730744  22.2230387
  42.2342837  50.9181028  29.2083883  42.3122290  50.3315835  29.9608183
  41.5414381  50.5307012  28.6734891  54.6069867  56.0397743   6.8482542
  53.9870561  56.7586093   6.9715190  55.4285348  56.3664454   7.2151005
  52.2484303  23.9239097  40.3063774  51.9913340  24.0089750  41.2244701
  52.6945305  23.0782890  40.2599382  62.0976144  47.6419514  30.5541921
  62.2951395  48.5654824  30.3982878  62.2557801  47.5178617  31.4900422
  34.1224504   1.5937009  44.7474098  33.2283282   1.5126112  44.4154406
  34.4875526   2.3401707  44.2723131  44.8060745   4.6800342  46.4159441
  44.9272174   4.0864855  45.6748247  45.2856630   5.4711092  46.1701202
  19.2204398  43.7222480   2.3587612  19.7737187  44.4547331   2.0875028
  19.8228997  43.1113386   2.7830986  64.0911957  24.9847364  18.1625581
  63.4691095  25.3424144  18.7960458  64.3563324  24.1440701  18.5356760
  12.8512586   4.9000323  46.0942211  12.5363768   5.7901466  46.2516334
  12.9650200   4.5280445  46.9688156  22.3613358  10.1177156  40.6444407
  22.4682426  11.0516524  40.4639864  22.8087831   9.6809793  39.9196768
  47.1716439  58.4947955   8.6344198  46.5934240  58.9882099   8.0526689
  47.9627859  58.3465158   8.1164077  63.0591541  14.2957377  30.7963490
  63.9116031  13.9397156  31.0469699  63.1222159  14.4244587  29.8499417
  51.7898267  16.5692854  29.7536922  51.4359838  17.3861992  30.1053691
  51.3757771  15.8836615  30.2778244   6.6948229   1.4170869  25.3534675
   6.5641219   0.7130647  24.7182512   5.9083086   1.3968505  25.8986449
   6.5906632  55.8574455  29.1114306   6.7183126  54.9301934  28.9110780
   7.0345033  55.9846192  29.9499226  47.4150121   6.5997166   7.6564467
  48.1983435   6.3895030   7.1480834  46.8302834   7.0262570   7.0300406
  37.0792014  37.0890158  55.1265752  37.7059097  36.3664740  55.0891406
  37.5484426  37.7898681  55.5791790   5.6939853  47.3317175  20.5627847
   5.4186285  47.8265076  19.7910368   6.4511836  47.8120738  20.8976579
  15.7487488  27.2300267  44.0419006  16.1566591  26.5186024  44.5355797
  15.3846276  27.8084993  44.7119904  35.1984996  41.0247338  54.9863863
  35.7908613  41.5854865  55.4872810  35.6123979  40.1618516  55.0052032
   4.4978946  38.4501696  37.0286751   5.3969300  38.7782383  37.0103383
   4.0170434  39.0364075  36.4444351   4.9942566  53.5393017  46.2516138
   4.8409105  53.7962550  45.3423878   4.4313789  54.1206044  46.7629739
  35.1603293  40.7264834   0.7440618  35.7836043  41.4424359   0.8672336
  35.5602705  40.1735800   0.0728086  26.3808656  22.2263575  47.4191761
  26.3130999  22.7980208  46.6544247  27.2798181  22.3430967  47.7265692
  53.2600135  59.8836919  22.0758891  52.6975388  59.4530313  21.4321613
  53.1272239  60.8191048  21.9222617   2.1607459  58.0730390  51.4508009
   2.6132286  58.0135518  50.6094027   1.5552295  57.3317032  51.4500570
  48.7171597  56.3922256  49.6994719  49.1008897  56.2906402  48.8284590
  47.8918357  56.8519586  49.5454636   9.5401538  63.4629549  30.5503583
   9.1295851  64.2929470  30.7928014  10.4600513  63.6841850  30.4051733
   6.9685322  31.8686032  28.8477850   6.8083811  31.4879513  27.9842544
   7.5947148  32.5742793  28.6860776  51.5997267  34.4958663  48.4788275
  51.4476252  35.4390073  48.4190035  51.9113874  34.2478347  47.6084375
  40.2274353  48.7230413  54.6186209  40.5681503  47.9168134  55.0061035
  41.0062734  49.1944271  54.3229198  18.4078062   6.0318702  42.9780626
  18.3716643   6.8408835  42.4677467  18.0649424   6.2755400  43.8378906
   2.2695604  13.2501149  17.8651130   2.0524190  12.3242760  17.9742157
   2.9041645  13.4306240  18.5586011  43.1722736  14.6581316  46.7378283
  43.2648277  15.5878353  46.9459534  43.9908981  14.4284701  46.2981272
  55.5703449  30.9545875  22.9889083  54.6235609  31.0921693  22.9588294
  55.7543135  30.7548928  23.9067912  60.5849725  52.5371080  38.9101744
  59.6985692  52.3635452  38.5933232  60.6367082  52.0707350  39.7444701
   0.4285419   4.5339883  55.4078379   0.5055297   3.5869325  55.2921320
   1.3014687   4.8715509  55.2071359  49.7731972   7.6105136  19.4183016
  50.4681635   8.1151974  18.9957523  49.6533871   8.0332369  20.2687025
  36.3091946  27.0827818  44.8379850  36.9112968  26.9217587  44.1115046
  36.8779397  27.2976208  45.5773163   6.1781496  18.2270491  34.5983911
   6.4254582  17.8795242  35.4553008   5.5541360  17.5890851  34.2522097
  62.2555166  31.3068771  30.6305766  61.9391173  31.6002727  31.4850020
  62.7170092  32.0652938  30.2727222  21.4962053  13.1405950  13.6478865
  22.2572041  12.6894796  13.2823610  20.9076452  13.2599056  12.9025054
  35.3899259  54.0580863  45.1820990  35.6761653  54.9696201  45.2404686
  34.9925871  53.8768071  46.0338565  40.9491968  23.6598659  23.8351011
  41.8230152  23.4188676  24.1426587  40.4698706  22.8319573  23.8027787
  22.5673426  58.5016423  41.3568640  21.6141165  58.4732317  41.2745142
  22.8331173  57.5824111  41.3815832  50.6139755  42.7034712  46.2654305
  49.9505377  43.1656361  45.7530928  50.7120705  43.2286644  47.0596504
  13.8535584  53.1936281   5.4209137  13.0892504  53.4257274   4.8934698
  13.6827362  52.2967582   5.7084471  11.1688340  35.3532243  52.7743292
  10.7625842  34.5872307  52.3688030  12.1073031  35.2304935  52.6313496
  11.8373656   8.5930276  48.6749172  12.3769426   8.4866315  49.4583511
  11.4292359   9.4524455  48.7800884  66.9104473  17.0862412   9.9561876
  66.1984888  17.7234280  10.0139678  66.7847851  16.5171742  10.7155323
  35.0067115   6.7243326  45.6993341  35.8407044   6.2814730  45.8560562
  34.4072604   6.0229445  45.4444933  44.9084920  39.5656347  17.1044910
  45.3950995  39.9690604  16.3856769  44.0965885  40.0699234  17.1568334
  22.6812828  52.0096522  38.5857368  23.2160509  51.8112844  37.8170323
  21.9184864  52.4691897  38.2347393  19.5166099  27.7122498  38.2566500
  19.9656737  28.3581662  38.8019633  20.0973463  27.5872207  37.5060892
  10.0181413   2.4126473  26.1714149  10.7803512   2.1233450  26.6729832
   9.3414044   1.7652772  26.3693309  30.0632429   0.6559972  28.8601232
  30.6586123  -0.0873713  28.9558935  29.4352102   0.3756417  28.1943846
   4.8787106  60.7985010  11.3119245   5.3272164  61.4264237  11.8783045
   5.0924600  61.0823967  10.4231346  58.5654897  57.0500904  33.1584811
  58.3850533  56.7563259  34.0514421  59.0041191  56.3061821  32.7456427
  47.1438074   4.6028364  17.1371639  47.7178574   5.2733564  17.5074363
  47.7160788   4.0822724  16.5734661  51.0067194  15.1549488   0.3101018
  51.7116403  15.3292424   0.9337572  51.3836293  15.3689581  -0.5433413
  15.0753641   1.2402914  14.6680212  15.5404985   1.7944911  15.2947140
  14.2479444   1.0310026  15.1013875  60.4886192  61.1610620  36.6195226
  59.9477774  60.4323246  36.3151145  61.3658303  60.7881143  36.7069364
  56.8680989  16.4670431   4.0469841  57.4849188  16.4256846   4.7777751
  56.6763889  15.5516302   3.8432745  21.2114811  27.4675822  36.0433340
  20.8201027  26.5942645  36.0240650  21.9209409  27.3980594  36.6821361
   1.3174629  12.8276241  30.4634500   2.1644239  13.2665873  30.5421877
   0.8508336  13.3260238  29.7925639  40.9580374   7.2508007  19.6504688
  41.3377094   6.6631502  20.3037262  41.5954494   7.2589904  18.9364183
  38.9156640  44.3018179  28.0963230  38.5289246  44.7888749  27.3686957
  39.8599834  44.4045334  27.9782438  60.9969360  56.8222355  21.1170459
  61.0453362  57.6137661  21.6531134  60.9949631  57.1434008  20.2153349
  31.9730997  21.1153245  35.0405073  31.7764783  20.3647470  34.4799638
  32.9292059  21.1431766  35.0768375  13.0434859  16.1731017  47.3717499
  12.3316669  16.3258719  46.7502928  13.2595122  15.2466726  47.2654772
  19.3316042  14.9649060  11.5885961  19.4797599  14.5119131  10.7584882
  18.3982396  14.8448884  11.7636883  11.1233485  29.4856429  29.2199874
  11.3168299  30.4149485  29.0967393  10.3993249  29.3099809  28.6190176
  13.4671378  41.5842324   5.7061246  13.0766266  42.4009835   5.3952364
  12.7493095  41.1271023   6.1442855  39.5949531  18.0587220  30.2718329
  39.5478439  17.6070833  31.1144686  39.4849896  17.3648429  29.6217012
  65.9663374  49.6867114   4.2642716  65.2853638  50.2878469   3.9623719
  65.7469708  48.8504797   3.8533866  11.6535091   6.3472050  42.3091459
  11.8693185   5.4734129  42.6349449  11.1935484   6.7670184  43.0360746
  18.7317646  60.9542357  30.2038407  19.0264547  60.2804177  30.8165050
  19.1980303  61.7449819  30.4750395  12.4165751   8.0123657  45.9196677
  11.5273405   7.9393738  45.5730185  12.2961021   8.2114070  46.8481615
  50.2240574  39.5671594   9.4824127  50.1296722  39.4618064  10.4291061
  49.7149527  38.8475060   9.1093973  53.4202039  26.1326080  13.1507066
  53.0450141  25.6525850  12.4124387  54.0272366  26.7540127  12.7487138
  18.4718311   6.0381383  37.8500819  18.5584700   5.3812897  37.1592307
  17.8764784   6.6926992  37.4849272   3.1254924  46.5382855  41.5629911
   2.5790132  45.7650655  41.4225435   3.9830459  46.2916224  41.2165976
  50.8783054  27.6590753  23.2486153  51.7804480  27.9556775  23.3686090
  50.7195854  27.0703673  23.9864922  51.5372335  42.8034818  12.0458082
  50.7479298  42.5809907  11.5521148  52.2307384  42.8358316  11.3868431
  31.3946462  30.4628134  49.7637653  31.8044972  30.0429082  49.0075064
  30.5779767  30.8269310  49.4221544  29.5907617  19.8729300   3.0601957
  28.6480451  19.8023951   2.9100552  29.9507618  20.1230478   2.2092703
  26.0654712  61.8577480  40.4583406  26.5764165  61.1155462  40.7813025
  25.2538610  61.4670134  40.1345348  30.1925921  21.7894006  29.0848517
  31.0789657  21.8446565  28.7277508  29.6376753  21.6207147  28.3233762
  63.0442070   9.5648772   9.2266944  63.6208843  10.3250033   9.3034128
  63.5751759   8.8295609   9.5326570  62.4238836  37.9522162  23.9460853
  62.7168858  37.1627575  24.4012073  63.1995213  38.2602536  23.4773305
  24.2498816  55.8164161  12.3870873  24.8215950  55.8606982  13.1535172
  23.3794869  55.6459820  12.7470720  27.9026699   6.0459262  32.6790118
  28.1742835   6.6831070  33.3396602  28.5343504   6.1540413  31.9680095
  65.7216484  50.8309107  13.4759176  65.2946312  51.2895470  12.7523565
  65.0023812  50.5654924  14.0490139  55.1953655   4.4546312  38.3113360
  54.5651263   4.7954717  37.6766229  56.0501164   4.6877491  37.9489970
  36.6713428   8.8058698  13.6506033  36.3732934   9.2286539  14.4559920
  37.6234651   8.7645531  13.7399852  21.9099212  24.3264055  38.4127855
  22.6862502  24.4299150  38.9630866  22.2250962  24.4815183  37.5223708
  67.0206226  60.4468769  38.8319525  67.3038734  61.2535542  38.4015175
  66.2112940  60.6874651  39.2828807  34.2606139  19.2613578  33.0573487
  34.7348857  18.6678946  32.4750257  33.3488798  18.9756191  32.9996943
  27.9721522  20.7747626  38.5954142  27.4285197  20.2839303  39.2116761
  27.7077556  20.4527211  37.7336645   8.9558262  24.0949202  27.7366161
   9.1411316  23.2112002  28.0543160   8.2629865  24.4164658  28.3135176
  12.7108968  61.9545747  53.4736538  13.4642542  61.6650452  52.9590082
  12.6514638  61.3209140  54.1886187  31.9018722   5.5920708  49.5982599
  31.4853835   6.3050902  50.0823784  32.6336980   6.0076427  49.1422272
  22.8798389  16.7702949  55.3631258  22.0482349  16.8877149  55.8223438
  23.3353662  17.6046240  55.4754734  46.5518492  62.2561156   2.4997524
  46.6103953  62.6123774   1.6132501  45.6871622  61.8472492   2.5369457
   0.7471121  57.7129316  32.5868750   1.0490883  57.4439877  33.4544635
   0.0269998  58.3189874  32.7611423  15.6229627  16.5304220  44.1641426
  15.9205103  17.1411872  43.4898567  15.1478767  17.0772648  44.7898340
  22.8028250  16.8057501  27.6870251  21.9404364  16.7153060  28.0924129
  23.3611798  16.1997473  28.1740880  43.7286186  28.3184457  53.3258629
  42.9313660  28.3839750  52.8001881  43.6448574  27.4826455  53.7848330
  43.3230989  49.2248886  37.1198559  43.3922564  49.2961352  38.0718923
  44.1935859  48.9449971  36.8367577   3.0096978  30.2593374   8.7381834
   2.8430304  30.9675241   8.1161499   3.9522904  30.1041794   8.6775452
  35.7319927   8.5449946  50.2670956  36.0807109   8.2216078  51.0977840
  36.3679147   8.2571888  49.6121120  59.4378859  57.2583597  53.9460516
  60.2219493  57.7491783  54.1921711  58.7722308  57.9297089  53.7963057
   1.7612713  44.3005275  11.6263107   1.1299818  44.7929263  11.1016706
   2.2517794  44.9707710  12.1021369  21.1887348  63.2426564  31.2923121
  20.7291973  64.0744803  31.1777377  21.5090073  63.0234582  30.4173231
  60.9382069  14.6775734   8.2883600  61.2349307  14.1176974   9.0058044
  60.5936276  14.0680658   7.6356748  30.4740644  45.7697725  49.8498678
  30.1117516  46.6312122  50.0569487  31.4219189  45.9031630  49.8462534
  30.2059072  59.3005073  31.6971305  31.1218512  59.0645015  31.5502265
  30.2123415  59.7819435  32.5244239  34.8660779  22.9793048  39.0757036
  34.4630456  23.6209273  38.4907961  34.1804409  22.3285675  39.2262697
  13.0636024   6.0639954  33.5450840  13.9662898   6.1024064  33.8611722
  13.1363904   6.1803412  32.5977731  26.0055876  10.3620362  13.7428510
  26.3132572   9.6293545  14.2764699  26.7652702  10.9395635  13.6681759
  32.7202058  21.2833357  38.8004994  31.9554758  20.9608221  39.2773700
  32.6368928  20.9004474  37.9271817  21.0815876  52.9086816   3.8272813
  21.2721794  52.1180486   4.3320612  21.7385739  52.9125869   3.1311611
   9.8892558  59.3017458  24.0692353  10.2658165  58.5204624  23.6642289
   8.9737094  59.0717631  24.2277098  27.2966313  30.6423593  17.5585830
  26.8191695  30.6325507  16.7290246  28.1038165  31.1189127  17.3647296
   7.7598721  23.3858037  44.4584513   7.4395043  22.8803110  45.2054930
   8.2986337  24.0742040  44.8484182   3.1362217  35.9833648   4.0897563
   3.1830090  36.5538313   4.8569635   2.6279085  36.4827257   3.4506277
  62.5168615  19.4552839  18.2233858  63.1550777  19.2281449  18.8996398
  61.8201512  18.8066733  18.3240378  39.4309950  33.1886840  15.9320748
  40.0292873  32.8933573  15.2457345  39.2015147  32.3912382  16.4092028
  34.0810633  17.7945733  52.9703474  34.8385644  18.3789790  52.9404783
  34.2390227  17.1617246  52.2697878   6.4678741  23.2227826  53.6545658
   5.6577724  23.7226963  53.5542965   6.2374878  22.5104809  54.2510366
   4.5167118  46.5413046  29.0315318   3.9106518  47.1454144  29.4604611
   5.2539593  46.4708710  29.6379423   6.7688268  40.5712986  25.0066972
   6.9421250  39.8347688  25.5929756   6.0708034  41.0628748  25.4395366
  31.5078688   0.2231551  21.2642217  30.5567694   0.2503412  21.1598063
  31.8238878  -0.2065780  20.4694295  32.7621436  52.1256971  54.2756081
  33.6614966  51.8206739  54.3954229  32.5726247  52.6294470  55.0671577
  42.8067856  22.2178084   8.5339788  42.6581650  21.6750962   7.7596334
  43.5886174  22.7279383   8.3224634  16.8621910  46.6843033  35.2720380
  16.3735664  46.3573456  36.0274029  16.2420225  46.6321421  34.5447803
  35.6310606  62.5551748  27.1532750  36.3909388  62.5443649  27.7352524
  35.6048512  63.4483814  26.8101597  33.6412287  27.6104569   3.2049960
  34.0559173  27.4638247   2.3548403  34.2937565  28.0965710   3.7091115
  58.9859343  38.1325126  32.5669122  58.3342886  37.4633408  32.3576212
  59.7058773  37.9641676  31.9589829  60.3308773  45.7406235  23.0902362
  61.0685158  45.1903439  23.3535099  59.5570850  45.2630520  23.3892345
  52.7978611  56.7125225  50.0263214  53.5774231  57.1692133  50.3424644
  52.3436069  56.4351749  50.8219099  41.4681387  54.7447872  25.8198261
  40.6849766  55.2634192  25.6356764  41.2149382  54.1795063  26.5496063
  59.7662973   1.8273880  14.7192276  59.2776299   1.3778727  15.4086971
  59.7083950   2.7545139  14.9501300  36.9860435  56.6302776   8.6693788
  36.2615061  56.1355972   9.0522152  37.7025485  56.5292358   9.2959917
  67.3938858   4.5731301  18.7975311  67.7034294   4.7512621  17.9094529
  66.8519175   5.3304858  19.0186906  48.3209133  41.8603134  22.7414083
  47.7710581  41.2138748  22.2986794  48.0005980  42.7046967  22.4241614
  31.5219355  62.3750591  30.5129886  30.8801675  61.8041849  30.0905299
  31.0388803  63.1793785  30.7026005   5.3132015  34.8444802   6.9161180
   4.8515110  34.6008402   6.1138013   4.6924930  34.6495825   7.6182369
  26.2419373  41.1259079  42.4681282  25.7585389  40.3157091  42.3064613
  25.6385571  41.8211937  42.2059536  66.0917854  44.7448015  37.0336509
  66.2589312  45.6426477  37.3202848  66.5843964  44.2013979  37.6486945
   5.0872189  34.0345049  28.7710977   5.3428036  33.1745744  29.1049004
   5.9066397  34.4284892  28.4718347  29.6538621   4.6978659  26.6608381
  29.1879779   4.0676159  26.1113191  30.1491242   4.1582293  27.2770691
  12.8293551  31.7906321  48.7452706  11.9008148  31.9717825  48.8909688
  13.2099712  31.7698229  49.6232965  55.0085402  41.9221926  18.2465827
  54.9963808  42.8012705  18.6251354  55.4896069  41.3937950  18.8834560
   9.9577647  59.5824725   1.7538551   9.3106251  59.8223406   1.0905984
  10.6954913  59.2336279   1.2535528  45.5331230   8.2174927  10.6818080
  46.0774994   8.9924431  10.5427420  44.6445894   8.5619557  10.7717466
  41.1891603  61.2355232  33.1489873  40.6026220  60.5327034  32.8692555
  41.4548016  60.9875727  34.0345311  40.3037071  62.6635122   0.6820115
  40.2369928  62.1038151   1.4556533  40.1761389  63.5511255   1.0168213
  55.4403698   8.4928126  46.3889647  54.6670997   8.0094666  46.6799355
  55.1037418   9.3514771  46.1328173  29.4007367   8.7190432  38.0454397
  28.8046616   7.9720015  37.9920650  28.9551800   9.4158740  37.5636315
  46.5079939  12.8277058  21.0131407  45.7083880  12.3024315  20.9822750
  46.7804205  12.9031987  20.0986362  34.3016863  42.8170347  11.5754461
  33.8182998  43.1027174  12.3506582  33.7272453  42.1751261  11.1580682
  37.5425738   7.7883715  48.3921194  38.0567187   7.1501822  48.8866949
  37.8046721   7.6530594  47.4815035   3.2681483   8.1405015  16.5981829
   4.1514653   8.2939429  16.2628615   3.3242148   7.2945065  17.0424569
  24.8541379  54.8769665  17.1020710  24.0387845  54.5794010  17.5056672
  25.5426502  54.5314121  17.6702046  24.2458754  15.9744364  11.3608268
  24.6527367  15.6252200  12.1537641  24.5804005  16.8687779  11.2939266
  46.7609393   3.0096430   9.6625811  46.3333714   3.8010354   9.9898648
  47.6933157   3.2261366   9.6566612  15.7715755  37.0789629   0.2361110
  15.7853036  36.7286688   1.1268047  15.3734331  36.3842446  -0.2883717
  42.9238796  38.4385109  21.8236041  42.4447203  38.4379935  20.9949708
  43.8167572  38.1902122  21.5841222   5.5111891  29.1699982  46.3830662
   6.4559668  29.1327715  46.5321970   5.4229200  29.3137145  45.4408407
  35.8383727  52.0884991  28.0181146  34.9397230  51.7887354  28.1552410
  35.7988214  52.6031113  27.2119904  62.8667593  33.3969116  54.0924644
  63.0366278  33.1292415  53.1892872  62.9879856  34.3463922  54.0877104
  54.0415144  52.5866652  37.7309704  54.9662733  52.7329302  37.5318193
  53.6880541  52.1781111  36.9407916   2.2533959   4.9585480   2.7466258
   2.4091023   5.8593506   3.0304202   3.1264418   4.5695729   2.6944482
  26.9153422  20.4584498  31.5223336  26.3775938  19.8237319  31.0488439
  26.7484206  21.2908644  31.0802412  68.4501886  59.6075106  21.0158014
  67.5161219  59.7494221  21.1694384  68.5965729  59.9215078  20.1234937
  12.9305380   2.3102707  33.8326287  12.4601811   1.9055075  33.1038213
  12.5035828   3.1586785  33.9515662   1.7754418  64.1017580  50.6307364
   2.3978669  63.3815145  50.7310772   1.8033511  64.5611143  51.4700460
   0.5116778  32.2832209  15.0505212  -0.0711865  31.7979342  15.6344751
   1.2502270  31.6922099  14.9039415  10.0275999  62.1259308  15.9302068
  10.0455290  61.2979841  15.4501867   9.2437083  62.5718451  15.6094110
   7.1551615  50.8703518  42.3631859   7.0381743  50.0366545  42.8187037
   6.2676627  51.2140751  42.2610474  53.3743715   5.7038355  26.0610175
  53.7083673   5.7733256  26.9553590  53.2566929   6.6106838  25.7781577
   0.6785636  53.5861921  33.9132476   0.4069719  52.8916836  33.3131409
  -0.1420568  53.9505434  34.2449999  49.1662704   8.7018771  24.2801881
  48.8665163   7.9353756  24.7689104  50.0815904   8.8082070  24.5392513
  60.7639456  30.3546238  12.3690987  59.9493122  29.9027562  12.1490622
  60.7637453  31.1333728  11.8125188  57.9209458   1.9599623  48.8047409
  58.1918418   1.6446347  49.6669579  57.0626914   2.3567814  48.9536190
  34.7310424  59.8543072  40.9613371  34.4299507  59.5524979  40.1043129
  34.9433255  60.7782269  40.8289003  13.2601696  52.9611921   2.0994821
  12.7718502  52.2735214   1.6468456  12.6963192  53.2137537   2.8305864
  41.1419058  48.6886311  25.7655931  41.7428493  49.1531372  25.1830721
  41.5299797  47.8194571  25.8664155  47.7463007  50.2056694  50.7021189
  48.3947611  49.7965193  50.1291227  46.9449282  49.7036362  50.5537987
  17.3216980  24.4494814  35.5882454  16.7323511  25.1936430  35.7112527
  18.1910437  24.7969336  35.7875967  51.4394045  51.8633699   4.6759248
  50.9050226  51.1548281   4.3172717  51.2030840  51.8959427   5.6029212
  49.9780386  31.9251882  23.1770233  50.4262942  32.4798439  22.5385431
  49.3891734  31.3832525  22.6518825  24.8023777   5.8813769  19.3858245
  24.3830614   5.0751335  19.6864513  24.1152983   6.3443166  18.9064125
  25.0784278  60.0336313  46.1712790  25.0128651  60.9460974  45.8896065
  24.2028332  59.8187160  46.4928007  27.1745138  30.3878361  23.2808546
  27.6351576  30.1109034  24.0729049  26.3141280  29.9735886  23.3469537
  24.2765265  14.9138886   1.7800621  23.4450560  15.3881127   1.7812255
  24.9436503  15.6001717   1.7662481  28.3687764  12.6330286  24.4321064
  29.0538960  11.9746596  24.5478443  28.0716496  12.5134856  23.5300783
  60.3880978  41.6222858  47.5828600  60.4516506  40.7852840  47.1228409
  59.4479609  41.7920923  47.6423883   8.6604250  17.7630032  50.4664102
   9.4901336  17.4512566  50.1049885   8.0118001  17.5499142  49.7955069
  52.5072848  34.8661608  13.8234377  51.7850530  34.3658061  14.2032409
  52.0798838  35.5393023  13.2938695  39.6506262  50.4324484  19.3263984
  39.7783756  50.8748913  18.4872591  38.7251902  50.1879311  19.3297982
  51.0703611  49.7184849  11.4693630  50.8370256  49.8061323  12.3935401
  51.6230536  48.9377308  11.4348793  11.8789685  27.9261589  50.3210497
  12.0143819  27.3892355  51.1018229  11.0599959  28.3920240  50.4898262
  43.9399290  43.5352802   7.6595312  44.1719341  44.1881227   6.9990760
  43.0790854  43.8097239   7.9755390  53.1592655  58.2750082  53.6311913
  54.0142918  58.2330990  54.0594435  52.6251364  58.8136482  54.2149734
  32.6683068  19.3639994   1.3465220  32.5780249  19.2267871   2.2895244
  33.6135149  19.3844426   1.1968719  46.1394119  48.1190157  44.3558645
  46.8555021  48.5988235  43.9396477  46.5087080  47.8065395  45.1818228
   1.0122258  53.2587099  44.8520136   1.3712460  52.7982283  44.0935373
   0.8046681  54.1339254  44.5246792  15.3919041  63.4197378  30.8696556
  14.6217227  63.0442953  31.2963843  15.7079017  62.7252340  30.2916956
  22.7787285  50.9136206   0.6620840  23.6350756  50.6668574   0.3127769
  22.8876143  50.8754641   1.6123060  65.5785667  27.3858351  22.0338655
  66.4416992  27.0544714  21.7860270  65.4333364  27.0405859  22.9147410
  34.3225503  58.8077259  28.6900306  34.4239020  57.8906727  28.4351325
  34.2019677  59.2742777  27.8629756  46.4549255  52.5112724  37.2405028
  47.0349550  52.5253105  36.4791894  45.5805063  52.3824167  36.8730617
  31.5521555  34.6709639  11.3972715  30.7286768  34.6888882  10.9096292
  32.2241383  34.5420414  10.7279018  31.8198705  51.0369539  33.3425379
  31.6780257  50.7584381  32.4378061  31.6748023  50.2462339  33.8621020
  36.5919662  20.1121807  38.1050920  36.4606738  19.5389640  38.8603520
  36.0613990  20.8855939  38.2963037  17.4421995  14.9191947  50.4940939
  16.7707032  14.6095175  49.8862934  18.2514923  14.9076457  49.9830675
  15.0863474  15.5317683  31.8114686  15.4551333  16.0535140  32.5242186
  15.8133429  14.9846739  31.5141416   7.6913499   1.4427091   1.8443969
   7.4527882   1.4192201   2.7710918   7.1987389   0.7219315   1.4519170
  52.8864384  40.0863838  44.2526722  52.0028687  40.1889896  44.6062469
  53.1399727  39.1960788  44.4962025  56.8905640  24.7952485  30.6421113
  57.8266668  24.9001193  30.8122468  56.8485451  24.2058158  29.8890924
  64.2043459   2.5255675  12.0779216  64.2200005   2.7701134  13.0032229
  64.0712559   3.3521552  11.6139472   5.2381819  28.6912341  39.4929886
   5.9888619  29.2649550  39.6464777   5.4170292  28.2844347  38.6451912
   3.2401922  39.5376396  50.9788036   3.6153844  40.1811790  50.3777027
   2.8640920  38.8675475  50.4080534  38.7172246  44.0602493   2.9058164
  38.5040545  44.9879217   2.8047752  37.8820777  43.6081505   2.7859378
  53.0828190  60.1983118   5.7673228  53.1788301  59.6636772   6.5554714
  52.1384335  60.3267860   5.6786287  57.8101265  12.6264376  14.1615951
  57.2376739  12.5456995  14.9244916  57.3301374  12.1942229  13.4551728
  53.6125851  26.9317293  43.3397341  53.4575939  25.9872937  43.3239126
  53.8100481  27.1573019  42.4306917  60.1963902  59.5916176  33.5757065
  59.9105072  59.5712423  34.4889903  60.2023220  58.6732054  33.3060479
  14.8351723  43.7014580  32.2873759  15.2424008  43.1442356  32.9506207
  15.5568272  43.9556980  31.7122173  56.0645342  46.7102480  21.4051151
  56.2751579  47.6244593  21.5950751  55.1190329  46.7083025  21.2559342
  22.0788658  27.4649227  43.6695847  21.3906658  27.6141346  43.0212423
  22.0944298  28.2672728  44.1913351  47.1060753  24.8215103  17.3986697
  46.9199562  25.7544541  17.2928035  46.3993549  24.4981933  17.9574597
  21.8436867  57.1255684  34.0760446  22.6329190  56.6842031  33.7621260
  21.3653046  56.4488792  34.5550728  42.6886082  63.4676886  17.8808928
  43.1963634  63.6240053  17.0846665  41.7880344  63.3628559  17.5739467
   3.2067686  48.4134293  30.6945682   3.1449801  48.9427137  29.8994112
   2.3458487  48.4959793  31.1047316  55.9860169  12.3163123  52.0282030
  55.7479298  13.2409329  52.0962429  56.5561282  12.2716517  51.2606001
  38.4574395  31.6790873   0.1816133  38.3596974  32.1810872   0.9907344
  37.6853066  31.1139590   0.1556161  55.8464098  12.8950465  25.1067185
  55.4212236  12.3207498  25.7436085  56.5792418  12.3790324  24.7706890
  32.2881519   3.3751196  14.4571161  32.0467936   4.2925734  14.3295848
  32.8200948   3.3757920  15.2528977  38.9471131   2.4479681   4.3293670
  39.6490841   2.5279433   4.9751810  39.3447810   1.9705540   3.6012414
  59.0946971  16.7780692   1.2740329  58.4112297  16.1648852   1.0036520
  59.4656383  17.1006590   0.4527095  16.5242636  59.6644831  14.9457681
  16.2062585  59.1694498  15.7007802  16.2057900  60.5552244  15.0920069
  38.7542009  52.8621292  27.8466678  38.7816668  52.1524811  27.2048926
  38.1868815  52.5328207  28.5437560  64.4354916  16.6957760   0.7307472
  65.2566195  17.1414626   0.9389357  64.1522980  16.3148487   1.5619680
  43.5957241  45.5564880  33.8043785  43.1548405  46.2274456  34.3255949
  44.1794586  45.1176643  34.4231844  38.2876205  58.0847036  32.1738914
  39.2194402  57.9462349  32.3435119  38.2311391  58.1980526  31.2250999
  40.2284050  44.3303680  11.2823951  40.7975864  45.0704336  11.4935017
  40.0069952  43.9485788  12.1317756  58.0956459  35.2662420  38.2054186
  57.9636669  36.1667347  37.9088974  58.7240314  34.8990250  37.5837111
  31.8932033  49.5493984   4.2631570  32.3927021  49.8385572   3.4995335
  32.1374941  50.1633787   4.9556747  66.3449526  35.8511996  55.7791281
  67.0069933  35.1891303  55.5801344  66.4442158  36.5047979  55.0868940
  46.6399479  42.5772715  13.3987486  47.4839687  43.0287361  13.3923733
  46.1529589  42.9696560  12.6741064  16.4077813  60.8434868  10.3429818
  16.2078816  61.4135313  11.0854900  15.5973202  60.8197546   9.8342413
  67.1594048  62.2991467  24.1154671  67.1919584  62.1267653  23.1744790
  67.1190500  63.2531118  24.1829491  55.9198189  37.8560448  42.4428701
  55.5639935  38.2206678  41.6325188  56.8521786  38.0706048  42.4129295
  57.1931064  15.7781786  31.8031573  57.9610526  15.9992690  32.3300481
  57.4674522  15.0209231  31.2859273   0.8338278  32.5240893  33.8858867
   0.9090298  33.1641287  34.5936489   1.7120188  32.4811167  33.5075140
  20.6644891  19.5576281  25.4334736  21.1126768  18.7363333  25.2314138
  20.8814191  20.1352019  24.7016382  65.7611620   4.2852778   5.0378573
  65.3804171   4.2769808   4.1596809  66.1855804   5.1404662   5.1068276
  56.7227554  43.2277536  35.8875799  55.8059454  43.3065987  36.1511564
  57.2152948  43.3214951  36.7029595  18.3877039  44.1382885  20.8546400
  18.4734821  43.6831284  20.0169611  17.8621542  43.5483742  21.3950419
  56.9109404  13.1708235  45.8357716  57.1266067  13.7578911  46.5603876
  57.7297985  13.0812354  45.3482485   0.5236441  59.0851545  37.2377396
  -0.0357193  59.4405746  37.9284072   0.3290850  59.6240139  36.4709234
  43.6575317  53.9663219  17.0058453  43.1615639  53.3607578  16.4549065
  42.9980135  54.3751860  17.5662875  52.9510641  50.9056044  52.5343466
  52.8812933  51.8565416  52.4501848  53.6233377  50.7730007  53.2027006
  23.2073384  55.9864718   2.9984954  23.4847288  56.9020373   3.0306057
  22.6824599  55.9230811   2.2005514  39.5895171  37.3715734  26.6577244
  39.3623757  37.6493287  25.7703185  39.0667081  37.9365110  27.2267151
  47.2283351   4.5180888  21.1885500  48.0809485   4.5658488  20.7561111
  46.7216932   3.9080805  20.6524229  27.2822213  56.9891691   2.2432388
  27.4729609  57.4924755   1.4517015  26.3564801  56.7591953   2.1635662
   9.1328722  43.4219551  21.7897558   8.4448248  42.9141521  21.3596845
   9.2532927  44.1868544  21.2270331  51.5684902   8.0136199  44.1842604
  52.1955335   7.7142043  43.5259247  51.5716779   8.9672560  44.1018200
  49.6065366  46.3829035  20.0954747  50.1050746  46.1204619  20.8693075
  49.4047701  45.5599970  19.6501124   1.3594788  35.9267420  55.7891369
   1.6548508  36.5331454  55.1099730   1.2661618  35.0880713  55.3373003
   9.2613465  46.8055439  45.2318573  10.1522309  47.0902109  45.0281048
   9.2086655  46.8484354  46.1866426  48.0550909  53.8731861  51.1010170
  48.5188627  54.6443272  50.7746840  48.7136555  53.1785536  51.0980272
  28.5342621   1.5561862  30.8175683  29.0124392   1.1742157  30.0815797
  28.9862143   2.3812003  30.9945345  63.7391090  56.0595608  30.7920718
  64.4368982  55.8510113  31.4132214  63.1318092  56.6075516  31.2891936
  26.7294722  41.7334849   8.9415983  27.2100811  41.1092717   8.3978990
  27.3405724  41.9608933   9.6423629   5.7563437  43.3023727  48.3654365
   6.7120755  43.2496250  48.3707639   5.5636538  44.1883934  48.6721435
  26.6063851  29.1289420  44.3150043  25.8799904  29.4646735  43.7897778
  27.3683518  29.6240801  44.0141964  16.1610573  34.7135729   4.3261895
  16.3698023  35.3452200   5.0144345  15.3625124  35.0539965   3.9228573
  33.9687729  62.5939941  44.1076851  33.1815600  63.0901098  44.3321800
  34.2524052  62.9608536  43.2703114  53.0880153  32.3957247  42.9248142
  53.4572374  31.5176959  43.0195856  52.2453510  32.2558589  42.4928570
  54.7001636   3.5232634  11.8206608  55.5544865   3.9547820  11.8329740
  54.5339143   3.3475441  10.8945310  46.2472927   9.8726458  39.5968127
  46.1296474   9.0700955  39.0885758  46.1615383   9.5935912  40.5084085
  33.3180683   9.4221062  41.4826012  33.9587468   8.7387938  41.2854958
  32.9268473   9.1512341  42.3131466  13.1191307  55.4593563  31.7716789
  13.5598427  56.3076878  31.7232585  12.1992356  55.6569576  31.5957093
  32.5351179   9.0816820  44.1968473  31.6783798   8.6549843  44.2096361
  32.5899637   9.5340813  45.0386068  64.6741688  13.9093203  15.5678582
  65.6014120  13.8381333  15.7945502  64.6708214  14.0977187  14.6293879
  61.3282889  29.3837733  36.3253593  62.1149557  28.9385695  36.0104275
  61.5429991  29.6445651  37.2209716  34.7400408  61.2050635   1.4062503
  34.1817122  61.6952998   0.8027891  34.3017941  61.2815672   2.2537855
  56.3013887  51.6300583  30.2555227  55.7146788  51.3535976  29.5515537
  56.7168617  52.4255085  29.9225402  43.3383219  13.7635995   3.8789991
  43.9408819  13.6850072   4.6185783  43.5958473  14.5773221   3.4456733
  55.4522085  37.5551629  17.7961910  55.9702873  38.3469534  17.9407656
  56.0994196  36.8520045  17.7421725  52.6315737  39.7950816  22.9494309
  53.2351446  40.5027294  22.7232289  53.0662823  39.3285155  23.6632752
  52.6907575   1.5106768  37.6634502  52.2779166   2.3152251  37.9772925
  52.0656454   1.1503071  37.0344830  58.4261763   4.8990387  51.9104290
  58.4682691   4.6097369  50.9989643  59.3414485   4.9746031  52.1802425
  19.8452633   4.8348183  16.1611903  20.0976771   3.9115424  16.1519015
  20.6744355   5.3103299  16.1102760  66.2529575  34.4539065  19.5300841
  65.9307682  35.2769560  19.1626430  65.7370865  33.7774939  19.0912437
  52.2682726   1.4187378  10.5448794  51.7261111   0.9413428   9.9168777
  53.0980002   1.5574212  10.0882065  28.6763781  14.0459532  20.5798793
  29.5479697  14.0602059  20.9752989  28.6630028  14.8089737  20.0020766
  43.6913889   7.2105593  34.5148826  43.7999838   6.7825360  35.3641367
  43.9615649   8.1161828  34.6668100  40.3451233  60.7380301   2.6090101
  39.6052294  60.6739241   3.2129005  40.6226187  59.8320681   2.4731830
  25.3654949  12.3541070   0.2552751  24.4372790  12.5852395   0.2202848
  25.8001606  13.0288220  -0.2663084   2.7187210  18.9987743  33.4219193
   1.8074852  18.7231755  33.5215378   2.8911406  18.9213753  32.4835634
  65.0915091  30.4796506   1.5264085  65.5143635  31.3315583   1.6344646
  64.4052069  30.4665662   2.1935323  13.4959989  23.8580805   1.0926965
  13.7254386  23.7248045   2.0123867  13.4404831  22.9743248   0.7291988
  54.0909910  51.1765623  17.7305305  54.9898052  51.3711405  17.4650013
  54.1577768  50.3558588  18.2186079  37.8256528  10.5348969   0.3228429
  38.5206620  10.6224061   0.9751752  38.2880227  10.3732682  -0.4995438
  13.3968055  58.8901138   1.9257842  12.7621818  58.6402750   1.2541705
  14.2449677  58.8376284   1.4852190   9.9058646  30.7014365  34.1543269
   9.8391550  30.3182406  33.2797170   9.4560021  30.0775713  34.7241068
  56.3481652  21.5524573   6.1865258  57.0383346  22.1742720   6.4172822
  55.5560481  22.0861907   6.1239302  60.0524788  53.4782988  14.5977548
  59.5116692  52.8048903  14.1851238  60.9514408  53.2259375  14.3869976
   4.8765248  26.8831057  52.1536064   5.2056616  27.3376078  52.9290628
   4.6560591  26.0055441  52.4658775  41.6483736  44.4715452  27.8441095
  41.8895388  44.9436665  27.0471334  42.4457455  44.4725704  28.3736682
   0.4846245  49.0918159  35.1807022   0.7673365  49.9956179  35.3201413
   1.2992484  48.5938072  35.1128364  15.8208471   8.2053418  10.9262860
  16.3557583   8.9990897  10.9347034  14.9240583   8.5196442  11.0412550
  55.5933779  21.1193175  40.7810688  56.2650603  20.8551592  41.4097929
  56.0747069  21.2787909  39.9692059  42.4024510   4.1226906  47.6933670
  42.8412044   4.0030522  48.5356331  43.0518114   4.5636601  47.1455431
   3.2081181  32.2944140  32.3553634   3.9592844  32.8305268  32.1012640
   3.2882553  32.2045803  33.3049631  17.7410180  62.5834560  41.1636829
  17.8512246  62.8128576  40.2409410  18.5028511  62.0412636  41.3683367
  39.7429484  14.2058272  48.7932730  40.0251311  13.6729617  49.5366812
  39.9381369  15.1054425  49.0556240   3.4927338  21.4623446  23.1772232
   2.6395195  21.7298312  23.5188532   3.7101429  20.6705088  23.6691189
  53.5858690   3.5926814  51.8809605  53.7196695   2.6454873  51.8470335
  54.4692289   3.9604325  51.8551064  57.6827145  42.7751923  20.1809025
  57.5543928  43.6727667  19.8740971  57.1854544  42.7277803  20.9974289
  40.9312773  59.3595505  12.9087949  40.1654625  58.8057947  13.0608070
  40.9286499  59.9777985  13.6395466  26.4299887   0.2741236   2.2540088
  26.3115757   1.1393208   1.8620266  27.3787611   0.1495261   2.2772422
  30.5498045  23.2326407  41.4019394  30.9841936  23.9656062  41.8381739
  31.2268132  22.8513426  40.8429193  19.9598854  22.0520205  12.0404100
  19.0683001  21.9681067  12.3784459  20.5155104  21.7185492  12.7449024
  33.3126789  57.7524281  34.3056297  33.3783871  57.8907013  33.3607507
  32.3756367  57.8118229  34.4917965  36.8910551  47.8730345  30.1134324
  37.6608372  47.4302673  30.4706788  37.2482896  48.5973883  29.5996952
  59.2266929  10.0575633  35.1646471  60.0503790  10.4239363  34.8428726
  58.9714467   9.4200224  34.4978428  36.4050024   4.0712304   1.6823834
  37.1280974   4.4162697   2.2061375  35.7147902   4.7293992   1.7639706
   2.6747805  56.5968275  20.3079987   2.3423058  57.3134613  19.7675145
   3.3184010  57.0097399  20.8837485  41.6257429  49.6951056  20.9118080
  40.9301519  49.9411821  20.3020334  41.5734768  50.3472090  21.6105676
  38.7056237  43.0053526   7.3738674  39.4120245  42.3611409   7.3267416
  38.4871559  43.0535847   8.3045534  56.8167019  26.0510492  26.6974902
  57.7113056  25.8168912  26.9446540  56.7570877  25.8230853  25.7697463
  62.5964844  36.1934752  54.2936325  62.2645819  36.6893477  55.0420856
  62.1782553  36.5982241  53.5337019  58.0215418  13.5775370   8.1645823
  58.6840403  13.6308283   8.8534123  57.1973407  13.7758154   8.6091119
  52.9848862  60.3972816  51.8706274  53.8924694  60.5635881  51.6159487
  53.0420971  59.6895361  52.5125408  27.9674368  50.0629527   6.8354181
  27.4934130  49.4093615   6.3212684  27.6786070  50.9032446   6.4794353
  50.9678583  21.3732296   5.4474548  51.2317829  20.5023200   5.1506618
  50.5062180  21.7515856   4.6991447  50.1547801   4.8740716  29.4512582
  49.3896043   4.3648476  29.7185206  49.9374902   5.1905961  28.5744286
  10.1672667  12.2198672  23.8834858  11.1017149  12.3341841  24.0566158
   9.9241322  11.4418549  24.3852949  28.5851412  40.3589016   7.7484325
  28.8833504  39.5844704   7.2714046  28.9328652  41.0970789   7.2480205
  56.4630537  35.1550871   0.1361803  56.3058930  34.4755465  -0.5193802
  56.1500101  34.7736126   0.9563736  59.1521406  42.1551228   3.7834412
  59.3344402  41.4020777   4.3455076  58.2075644  42.1185398   3.6329004
  55.0190532   6.4653153  15.6231034  55.2693378   7.0695967  16.3219845
  54.9480092   5.6145949  16.0560715  37.4569035  52.2097445  45.0709438
  36.7763376  52.7640247  44.6890688  37.9381371  51.8678713  44.3174362
  44.0222979  43.2896805  31.7344427  43.8812160  44.0517855  32.2961569
  43.1409740  42.9893112  31.5124607  35.1848971  22.0648951  27.3253179
  35.6893920  22.8234477  27.6191044  34.6332371  22.4027915  26.6198182
  45.3804970  48.2347631  31.4254475  45.4541063  47.3279142  31.7228317
  46.1434841  48.3648157  30.8622694  24.2118864  46.3606459   6.3941244
  24.9250775  45.7340723   6.2716630  24.4038086  46.7811734   7.2323135
  21.3284092  21.3606602  23.3620266  22.2801953  21.3667923  23.2605318
  21.0059004  20.9297949  22.5704626  10.0288159  56.7723083  38.4053063
  10.9287030  56.4865208  38.2479692   9.7593218  57.1792603  37.5819016
  34.6361780  45.2306843  14.8378754  34.1795802  44.3897438  14.8138630
  33.9777923  45.8518982  15.1490819   5.1009768  32.1697802  54.5230055
   4.7290200  31.9890875  55.3862762   4.4739216  32.7647013  54.1117811
  16.2019938   0.5992169  50.9151268  16.9967812   0.5919976  51.4485073
  16.5083998   0.8030314  50.0314951  47.3419809  37.9051781  25.3686643
  47.9584789  38.4697223  25.8349776  46.8113136  37.5081253  26.0592985
  17.9749279  29.3676907  14.0968612  17.6843720  30.2716500  14.2179588
  18.3949356  29.3642956  13.2367376  39.3234062   1.6266198  52.0632267
  39.9103677   1.1565537  52.6554632  38.4881126   1.6588730  52.5295687
  12.4395495  39.0161759   0.3084758  12.2898655  39.9557120   0.4138139
  12.9789191  38.7737042   1.0611490  21.1195773   8.1180377  45.9177971
  21.3490790   7.3888964  45.3416777  21.9235104   8.6333746  45.9837723
  16.8454892  38.3307433  30.1708698  16.0576397  38.4721756  30.6957579
  17.5072342  38.0500889  30.8029819  11.0299605  25.1440520  44.1160154
  10.3608244  25.2630324  43.4419727  10.5348795  24.9808497  44.9188137
  24.7571906   0.5732865  10.8243370  24.3117490  -0.0897985  10.2969575
  24.0487319   1.0592837  11.2463880  50.3002917  53.3670008   9.4143251
  51.1700165  53.0393254   9.1853288  50.1256382  52.9980289  10.2801136
   6.3007957  46.4867830  25.2003932   6.2640399  46.1828041  24.2934871
   5.6327462  45.9718037  25.6528735  33.6423254  59.1579723  38.5463047
  32.7772689  59.3072987  38.1647110  33.7799335  58.2141447  38.4658146
   3.0358189   5.6896491  55.5866575   3.8594359   5.6963534  56.0743475
   3.2543057   5.2724642  54.7533178  63.6638594  35.4616094  31.7810321
  63.7833500  34.9795222  32.5992894  63.6108589  36.3789845  32.0490766
  52.6958847  38.2939887  33.8263011  51.9580698  38.6801696  34.2982388
  53.3546543  38.1333113  34.5019031  15.2934224  44.3261433  24.1952419
  14.9968010  43.9373112  23.3724070  14.4894081  44.4779253  24.6919823
  13.5849786  55.6143665  20.7099366  12.8266990  55.3687859  21.2399697
  13.9051914  54.7864151  20.3518915  23.8815361  49.8334646  26.9496679
  23.4491021  50.6663465  27.1381831  24.4591481  50.0253153  26.2108898
  56.5433943   2.3422331  36.4326811  56.8259894   2.9078002  35.7139993
  56.1443412   2.9398198  37.0650434  52.2653036  54.2432124   3.6337904
  51.7704563  53.5354525   4.0466360  51.5977269  54.8655039   3.3451274
  57.8365946  59.9345112  23.1237602  58.0005360  59.9747562  22.1815634
  57.6139450  59.0183878  23.2892156  25.7670582   2.3366607  32.8964159
  25.9932983   1.4270413  32.7024051  26.2747515   2.5478614  33.6799165
  43.8767385  51.2930107  11.6186190  43.8396978  51.1149931  10.6788480
  44.8084402  51.4113665  11.8034267  68.1149408  55.3388596  38.8531613
  67.4769595  56.0137987  38.6215019  68.0743385  54.7127008  38.1303120
  62.0228236   0.0309373   4.6356729  62.5873987   0.7327367   4.9596504
  62.0624296   0.1123048   3.6827615  52.8769768  12.0807875  49.0117433
  52.0742023  12.5980413  49.0768650  52.7946556  11.6145361  48.1798383
   4.4336670   5.4844279  52.0438194   4.3924778   6.4404387  52.0196724
   3.5929983   5.2177901  52.4158478  23.7928313  19.7170062  43.7350512
  24.4803398  19.7983737  43.0740356  24.2633026  19.6935172  44.5683193
  16.7066532  49.1315222  32.9356313  17.1468312  48.3666563  32.5648856
  17.0214230  49.8671007  32.4102020   6.6794794   4.2282958  18.7312341
   6.3425940   4.7244925  19.4772410   7.5327414   3.9071412  19.0228462
  41.8560338  13.3449072  33.5881877  42.3546922  12.7335972  33.0460882
  41.7174422  14.1063494  33.0249572  60.0550747  46.4921284  19.9861610
  60.0169802  46.4967203  19.0297294  59.3549538  45.8954859  20.2508879
  62.0416784  59.0283442   5.2078503  62.8517962  58.5310793   5.0952744
  61.4583778  58.6932755   4.5268774  62.7333069  37.4882102  12.0512378
  63.5782576  37.2728729  12.4461114  62.6532269  38.4359646  12.1588480
  33.0001307  52.2339821  49.3219137  33.5641384  53.0042601  49.2526770
  32.4577188  52.4027538  50.0923252   2.2493893  61.9243240  36.9702530
   1.7263800  62.6770401  37.2461319   1.7797476  61.5702009  36.2150908
  18.3771771  40.1326174  19.8586607  17.9558867  39.9263186  19.0242827
  18.9366406  39.3768782  20.0378036  17.1690994   5.4650885   6.8779901
  16.9016605   5.6802660   7.7715257  16.5253191   4.8206502   6.5839151
  66.0570889  45.0337893  14.1128114  66.6680699  44.2974287  14.0863088
  65.4981594  44.8541600  14.8688272  66.1051655  63.5598946  49.3542910
  66.0542297  63.2817173  48.4398222  65.2068281  63.4880781  49.6768808
  57.4316883  62.8762960  42.0569849  57.4830723  61.9302225  42.1931076
  58.1893778  63.0809355  41.5090227  67.4344110  30.7578945  34.9055719
  67.9621077  31.3501239  34.3698168  67.0222473  31.3264608  35.5560231
   7.0006937  33.8521755  51.5811318   6.6195959  34.5078362  52.1651747
   7.2519202  34.3446053  50.7997048  12.0132882  31.9044590  28.9568543
  12.9225212  31.8656373  29.2535377  11.9743019  32.6862192  28.4058928
  12.9529333   2.7865834  29.1845989  12.7659195   3.7125201  29.0300202
  12.3895418   2.3218913  28.5658216  25.4183626  52.6270247  48.1564808
  26.0357237  52.5844431  47.4262190  24.7357249  53.2281160  47.8582716
  50.2461720  52.3283625  51.1890554  50.9212351  52.9664373  51.4201164
  50.7190943  51.6358614  50.7275152  60.8426380  46.0640192  12.6202250
  61.4719057  46.2932396  13.3041215  61.2185335  45.2915621  12.1980321
   0.3651112  18.6194224  28.6166120   0.8495634  19.2419619  29.1588259
   1.0030526  18.3181853  27.9696798  28.0946785  55.4703331  11.3747072
  29.0315491  55.5831194  11.2141323  27.7717930  56.3560152  11.5406764
   2.3334473   7.4307436  49.5004845   1.6121786   6.8486971  49.2612505
   2.0338887   8.3022351  49.2416430  28.3300167  32.4317336  11.6687655
  28.7623650  31.8975735  11.0024452  27.4029213  32.4059296  11.4319754
  18.4337920  24.4120879  30.3272510  17.6137131  24.3302817  29.8404145
  19.0590208  24.7530550  29.6876717  39.6901249  10.0119824   2.2237769
  40.2665519  10.5893750   2.7243584  40.2841258   9.4064850   1.7801945
  50.0453072  15.4224783   7.3104003  50.6703596  15.6810099   7.9876808
  50.2651959  14.5112139   7.1168188  15.8921128  15.5937535  15.5124477
  16.0613113  15.1602036  16.3488916  16.2999420  16.4550549  15.6022981
   6.5438497   0.6494436  35.2556491   5.6165868   0.8630234  35.3595686
   6.5734929   0.0781201  34.4882250  17.4497831  58.9061832   3.5813618
  17.1052564  59.6412178   3.0741581  17.8627050  59.3133264   4.3429133
   1.4465225  52.4889641  36.5235901   0.5612004  52.6738399  36.8370485
   1.6384447  53.2015436  35.9139776  18.0324830  52.5314706  47.8779342
  17.5200767  51.8478530  47.4462637  18.7614117  52.0633668  48.2850882
  42.3740459  64.5615758  29.7256732  43.2564074  64.3891840  29.3971133
  42.0203582  63.6954470  29.9280524  34.6767229  50.4269867   3.8409522
  35.1579601  50.2183764   3.0402502  34.7765500  49.6492248   4.3899083
  66.6191530  11.7674625  37.5384951  67.0236874  11.0280252  37.0848250
  67.2146225  11.9586980  38.2631207  12.5901646  16.6519159  53.4032490
  13.0402995  17.1468454  54.0878339  13.2574583  16.0584515  53.0586469
  25.9796095  23.3408880  28.7623906  26.0221195  22.5291395  28.2569289
  25.6641316  23.9950514  28.1388712  26.2030911  16.4777803  20.8474374
  26.4407349  15.8617675  21.5404630  25.6517887  15.9687126  20.2531743
  23.0998683  16.8288636  16.7818189  23.6193013  16.0659313  16.5281320
  22.5822210  17.0356715  16.0036778  51.7099237  18.9174795   5.3414524
  52.3893690  18.7214005   4.6963650  52.0817471  18.6308253   6.1756045
  66.5936906  63.4024388  14.4628751  65.9242398  64.0196821  14.1677809
  67.4159915  63.8864259  14.3866611   2.2016562  59.4312330  46.2504578
   2.2921193  60.0730749  45.5461216   3.0374229  58.9646827  46.2581444
  53.4553731  60.0224685  17.5579202  52.6880658  60.4238429  17.1500349
  53.5896737  60.5247452  18.3616066  59.6950049  35.8035093  35.6921554
  59.1587955  35.1967698  35.1816869  59.4447548  36.6706949  35.3734159
   0.2103341  40.7532387  11.1413860  -0.4893553  40.1618748  11.4187992
   0.9917057  40.4251962  11.5864468   0.1774332  10.6436932  40.2920151
   1.0565763  10.8615923  39.9824047   0.1423508  10.9964585  41.1811495
  38.1537819  54.7527587  30.5778956  37.9693544  54.9079596  31.5042496
  38.5329962  53.8742297  30.5530953  54.8183102  59.2906874   3.5715905
  54.3502385  59.2944103   2.7366495  54.2553383  59.7890296   4.1640002
  53.0931902   8.3092040  20.3247905  53.6708593   8.9117789  19.8563540
  52.5766182   8.8721824  20.9013700  65.0464341   3.8399801   7.7809829
  65.0872338   3.8943744   6.8262005  64.7720373   2.9402232   7.9581159
  61.2451095  57.8313594  29.5566010  62.0683915  57.6651555  29.0974569
  60.5847079  57.3716383  29.0381813   2.2644955  29.3375230  43.4680176
   2.0019394  29.2029572  42.5574207   3.2207543  29.2992425  43.4497166
   5.5117155  51.0456520  51.6110643   4.8445536  50.8656698  52.2734341
   6.3357569  51.0567254  52.0979556  17.6272535   3.9884540  39.2648745
  18.0891299   4.8227444  39.1820407  17.7398622   3.5667360  38.4129906
  18.4243286  37.6455646  32.2840786  18.8591612  38.4720212  32.4941349
  18.3887566  37.1751862  33.1169724  31.8423820   0.1588179  26.4645696
  31.9231296   1.1038711  26.3357830  31.3427639  -0.1443903  25.7064939
  58.0361242  14.8989457  50.3051176  58.3426780  15.7931274  50.4557696
  58.3796878  14.3999165  51.0461741  22.5171984  48.4170800   3.3297530
  22.2691811  48.2980268   2.4129400  23.0009544  49.2429560   3.3417070
  60.7052058  47.8624170   1.5423952  61.4590913  47.4851530   1.0890076
  60.1721746  47.1070068   1.7903188  27.5877089  42.6801365  46.3063469
  27.8314991  42.5043577  47.2151371  26.7580397  42.2178680  46.1872294
  64.0320003  13.1533039   5.5726683  64.7230720  12.6093209   5.9504706
  64.4531143  13.9975917   5.4112023  55.8651799  55.7442939  30.2195454
  56.2907714  54.9711233  29.8489904  56.4697177  56.4627372  30.0335169
  53.0119700  58.9488029  24.6973348  53.0619228  59.3001460  23.8083506
  52.9460609  58.0014717  24.5771194  63.9768715  35.1727885  39.9333962
  63.9804239  34.6075997  40.7059130  64.8799867  35.1515236  39.6169123
  67.9406172  53.5476916   0.2941281  67.3762781  54.2852014   0.5261440
  68.7872082  53.7612193   0.6864546  60.6088466  57.6511854  45.1691445
  60.3911490  57.8722638  46.0746631  61.5607853  57.7402061  45.1230856
  49.6775389   6.4419997  27.3369122  50.2527285   6.6748106  26.6080856
  48.9992952   7.1174198  27.3319578   3.7167603   3.3199522  48.0850506
   3.0570990   2.8637415  47.5626040   4.5235831   2.8270966  47.9355145
  15.8375657  62.6654459  55.1261806  15.7552064  61.8520554  55.6240225
  16.6144360  63.0908153  55.4891777  32.8478760  46.0269170  23.8085365
  33.7084240  45.9890931  23.3910942  32.3707348  45.2826732  23.4415627
  54.9185014  55.9221040  25.7838559  54.1562891  56.0542440  25.2201176
  54.5828146  56.0411888  26.6723180  64.0522356  54.1463798  44.5634040
  63.2595796  54.3617743  44.0719446  64.5076580  53.5073250  44.0152856
  25.4485178  34.4400096  15.5885506  25.1590323  33.5736823  15.8747458
  24.7025442  35.0127530  15.7666600  64.0950758  29.1301542  50.3423214
  64.2836231  30.0632768  50.2425003  64.1423852  28.7797504  49.4528198
  32.1825124  52.5095337  17.9891035  31.8713296  51.7336613  18.4553858
  32.1331758  52.2688287  17.0639774  27.1495676   6.7813176   5.2898711
  27.2708917   7.3975432   6.0122132  26.9834471   5.9410650   5.7172018
   2.3875923  56.1562627  54.1301767   2.1073885  56.0926860  53.2171177
   2.1331162  55.3188127  54.5176735  46.3541365  12.2264671  15.5340028
  45.4977417  11.8729997  15.2934182  46.7100286  11.5904498  16.1545312
  56.5088076  56.6582936  42.0542487  56.9373173  57.0972055  42.7890727
  56.3971514  55.7539910  42.3475083   4.5315987   1.9084308  50.4010487
   4.4988352   0.9797513  50.1714563   4.3425328   2.3646808  49.5810938
   1.1276728  23.9567304   5.2286190   0.3741413  24.3380356   4.7780371
   0.9855992  24.1656899   6.1518645  17.4166514  37.2263413  54.3661174
  17.9569841  37.8558796  54.8435592  17.3363234  37.5974834  53.4874636
  20.3259016  21.0293251  54.7870236  21.0747934  21.0879689  54.1937619
  19.6002031  20.7484239  54.2296305   9.0801972  37.2308874  14.9899161
   8.4638721  37.5321317  15.6574690   8.8386208  36.3176227  14.8355711
  41.2671844  54.6095031  13.4909403  40.5147329  54.6477246  12.9005265
  41.7402229  55.4257845  13.3292258  59.4532287  31.0154200  39.6137524
  59.1204816  31.2163281  38.7390256  59.1673946  31.7522168  40.1538086
  17.6730025  18.1193483  24.0558767  16.9090033  17.8395164  23.5516620
  18.3801627  18.1671119  23.4125447  53.6408127  55.5529707  46.7137432
  53.1462592  54.8585134  46.2785673  53.6200810  55.3167414  47.6411057
  48.9928646  14.5824510  45.9810194  49.4019456  14.2006856  45.2043995
  49.6769924  15.1287108  46.3680586  25.8046005  47.0199531  54.6509936
  26.6248248  47.5133139  54.6587099  26.0532353  46.1375922  54.9264036
   3.0336273   2.5261272  39.0308889   2.1870173   2.8359426  39.3526026
   3.0731500   1.6097844  39.3047222  55.8169800   5.2361286  52.3927575
  55.8138580   5.1620377  53.3470808  56.6913993   4.9461592  52.1328723
  40.9631348  22.6290083   5.1125795  41.4813709  22.0747423   5.6960624
  41.5885735  22.9369044   4.4566381  25.3085017  12.9807770   7.3723757
  25.9816217  13.1099212   6.7041951  24.6441960  12.4423659   6.9422096
  55.9615618  59.4617599  13.7402987  56.1642951  58.7123042  14.3001628
  55.4244721  59.0969621  13.0369592  35.6146312  47.2057104   9.7071105
  35.6654334  46.4242172  10.2574944  36.4554167  47.2320509   9.2503631
   3.5661138  55.4484456  47.5481367   3.8185990  56.3518905  47.7385855
   3.0832851  55.5034613  46.7234659  18.9718998  55.5922812  32.9712081
  19.0787399  56.3882416  32.4503779  18.2427252  55.1309680  32.5568080
  14.6892482  44.3654912  21.0800695  13.9938289  43.8155036  21.4408159
  14.6880824  44.1692977  20.1431918  62.1059906  22.9430770   0.2800945
  61.4363706  23.1960195   0.9155944  61.6302049  22.8510755  -0.5453726
  55.9430416  58.1860303  54.8559821  56.7031200  58.6382436  54.4899017
  55.7303865  58.6783384  55.6488511  39.4068313  25.8287644  17.7868938
  39.2676044  24.9410009  18.1166232  40.2489805  26.0926127  18.1575727
  53.9255464  53.5751884   5.9672242  53.4302831  53.8205736   5.1857305
  54.1154719  54.4068634   6.4013648   9.0068604   9.2283481  51.0827705
   8.7830044   8.3902114  51.4873015   8.1718613   9.5711130  50.7641404
  48.7926912   1.5899926  32.5586843  48.5136271   1.0791738  31.7988038
  48.5354328   1.0585749  33.3121061  16.5118647  23.9780474  28.5743189
  16.6537333  23.0317259  28.5983562  16.2809765  24.1625714  27.6638937
  63.5915381   4.8497358   2.6914814  63.3092034   5.2579105   3.5099632
  64.4428727   5.2465731   2.5071418   8.5106616   6.2272150  14.3066314
   7.8246718   6.8917328  14.2428735   8.6691933   5.9590250  13.4015516
   3.0495501   5.3300452  41.2109518   3.9624986   5.5210453  40.9958315
   2.6736200   5.0051588  40.3928089  18.0245602  28.4725499   5.7969558
  18.9311981  28.6562371   5.5509889  17.6804435  27.9514837   5.0714874
  52.7175951  11.3833380  22.7810621  52.0344687  11.4437997  22.1132946
  52.3021460  11.7103338  23.5790014   4.1575230  34.8547893  37.9644775
   3.4149683  35.3522449  37.6218677   4.7451127  34.7551446  37.2154498
  58.2373255   2.3021705  41.1783600  58.6624026   2.3233177  40.3209829
  58.5962266   3.0585644  41.6423512  35.7106066  23.6898565  35.0752425
  35.6602359  22.7447701  35.2184391  35.2024412  24.0682387  35.7927561
  56.2229151  62.1624356   7.2655571  56.5882188  63.0177235   7.4919808
  56.1387259  62.1827068   6.3122821  44.2459888  22.9823810  50.2419629
  43.6608905  23.5946911  50.6880208  45.1050992  23.4029692  50.2775487
  31.9317436   0.2779251  14.3862104  32.8524423   0.4475255  14.5856678
  31.9506264  -0.4607083  13.7776911  45.4643345   9.2123568  15.7433045
  46.1504793   9.0368009  15.0993967  44.7664928   9.6330482  15.2410376
  21.9227970  60.2022492  37.8517818  21.5754402  59.3303048  37.6639342
  21.1463202  60.7531168  37.9510689  23.4730768  54.3350029   6.0244334
  23.7273407  53.4140778   5.9654468  22.5451350  54.3427849   5.7897061
  37.8641963  15.0792003  31.0309529  37.7910829  15.8371353  30.4509354
  36.9888496  14.6918988  31.0304523  28.1650019  23.8340712  40.4447794
  28.0161500  24.6261406  40.9612131  28.8944960  23.3959413  40.8830881
  28.6763334  31.7811608   3.7596565  28.8300180  30.8919787   4.0789798
  29.2636704  32.3279166   4.2815062  45.5463982  12.8251982  12.9646552
  46.0489130  13.3791375  12.3672783  46.1109495  12.7258742  13.7312376
  59.0181536  43.7319761  53.8507236  59.1459293  42.8824109  53.4286527
  59.5510621  43.6875671  54.6446191   1.8129326  37.1808272  53.3367677
   2.6035048  37.7152532  53.4117138   1.7550064  36.9681614  52.4052906
  10.5252421  15.7164753  36.7200347  10.1130999  15.6686962  37.5826415
  10.2886332  16.5829647  36.3892051  64.3130941  50.8256786  43.2481861
  64.8036379  50.0904375  42.8807402  64.4825811  51.5510159  42.6470280
  19.8091066  51.1119824  52.2113037  20.2886808  51.7500298  52.7396393
  20.4846037  50.5222290  51.8764448  19.7391331   7.4130708   3.3863726
  19.9033415   6.5465373   3.0143684  20.4415083   7.9610634   3.0362225
   6.4474953  63.8350301   2.5234589   7.2822679  63.4036931   2.7060351
   6.0074533  63.8743502   3.3726051  46.4972043  59.4308691  29.6411037
  46.5834706  59.2482256  30.5767488  45.6665578  59.0247946  29.3933916
  19.6002877   3.0991888  29.4149637  19.6656239   3.6517036  28.6360621
  20.1499367   3.5362387  30.0654292  23.5767687  48.8691049  29.7907734
  23.6274040  49.1886263  28.8898993  24.4689692  48.5899430  29.9963927
  20.4209501  52.3356312  45.8682108  19.8697716  51.6903668  45.4254103
  20.3659183  52.1020537  46.7948437  32.9377699  32.4179482   2.8442833
  32.7618504  31.7456460   3.5025319  32.6866984  32.0122027   2.0144852
  43.0198050  13.7410688  15.8783281  42.1131563  13.9282966  16.1215723
  43.4728575  14.5780838  15.9802210  55.8062601  15.0312221  43.7867403
  56.4578676  15.7126415  43.6214924  56.1595488  14.5361924  44.5259047
  67.2571618  63.5987662  17.0795190  66.6216618  63.0052333  17.4796295
  66.9993288  63.6403119  16.1586344  48.4068108  17.3333788  27.3298907
  47.9857397  16.7917776  27.9974246  48.0126238  18.1986856  27.4398637
  49.5694208   0.5062552  21.5915632  49.6980476  -0.0282502  20.8079863
  49.9046755   1.3697183  21.3501811  17.8442991  35.0571781  40.9115982
  17.1161092  34.4738966  40.6976938  17.9099215  35.6444555  40.1585817
  49.3856716   3.9803699  11.8319333  49.9001026   3.3298373  12.3098457
  49.5202303   3.7617499  10.9097981  31.7724013   2.9630834   7.5516331
  31.4597201   2.4795818   8.3162820  31.3466334   2.5365326   6.8079877
  15.3813159  10.1034868   4.6619022  15.1853192   9.2838973   4.2079306
  15.4345298   9.8587626   5.5857581  58.7967014   5.5849612  48.7817478
  58.6378765   4.8303729  48.2146454  58.3228302   6.3033926  48.3627796
  39.6943736  38.4533906  11.8920565  39.2096686  39.2317677  12.1666873
  40.1515007  38.7244058  11.0959291  15.6401754  33.4774674  40.6366345
  15.3860880  32.6189926  40.2979740  15.0990606  33.5967797  41.4171394
  28.1239004  48.3664375  53.8243588  28.5820515  49.2058021  53.7819796
  28.8034804  47.7138394  53.6554855  48.1244457  61.9568153  18.5062551
  48.6712301  62.3720875  17.8393137  48.2444847  62.4989224  19.2859614
  61.0126800  49.9168032  29.0620685  60.2977473  49.2860203  29.1470027
  60.5788201  50.7436471  28.8515306  15.6070983  11.3770485  35.6693673
  15.6405985  10.6568587  36.2989974  15.8931971  12.1433413  36.1665320
  21.5585829  45.7777637  21.4699027  21.5099503  46.7126185  21.2701222
  21.9211460  45.7405358  22.3550006  66.0433722  25.3217936  38.5919905
  66.3146782  26.2371945  38.6602879  65.0917816  25.3605342  38.4960651
  61.6145444   7.9957330  44.3126154  60.6645584   8.0812234  44.2323017
  61.9062739   7.7350712  43.4390163  26.1762714  14.4976830  23.5628557
  26.7848110  14.0291548  24.1341662  26.3316226  15.4225338  23.7545586
  11.4404619  10.8089554  12.7877474  11.1839437  11.6592419  12.4307561
  10.6235647  10.3121650  12.8336751  39.5336289  37.6483410  53.0632832
  38.7500412  37.1170059  53.2043735  40.2256818  37.0117140  52.8843981
  41.0911942   6.8868983  15.6462646  41.4760256   6.3407248  14.9608231
  40.4309273   6.3276941  16.0556233  54.5472479  15.9003866  50.5201006
  54.9898911  15.5264604  49.7582102  53.6329985  15.6351209  50.4200363
  26.7952180  18.5966730  29.3716741  27.6797080  18.5945666  29.0057468
  26.7845011  17.8548992  29.9765611  37.0395541  11.0775340   2.9111516
  37.3267245  10.7996118   2.0413679  37.4326921  10.4407835   3.5079962
  40.1559603  37.2490829   4.5428804  39.7460341  36.7218655   3.8571456
  40.8438944  37.7373444   4.0905765  34.0096211   3.6846888  16.3430047
  33.9674115   3.7296638  17.2982156  34.8451591   4.0953383  16.1205804
  25.8315063  20.6999874  17.7508700  26.7350221  20.4130292  17.8833282
  25.3013325  19.9392092  17.9882884  43.4368181  10.3727531  18.4792101
  43.5159111   9.4940877  18.1078327  43.2527208  10.9351087  17.7268159
  65.6920329  38.5108232  35.8109117  66.2149005  38.4199262  35.0143075
  66.2639713  38.1944466  36.5102124   4.4846619  40.4392963  20.4517221
   4.5960486  41.0578256  21.1736965   5.3694380  40.3064256  20.1115036
  68.4909963   5.2609974  16.0468343  68.1730317   4.8098380  15.2647975
  67.7991866   5.8872563  16.2599805  36.3137531   5.7315707  16.4542866
  36.4435172   6.3856590  17.1409893  35.7468891   6.1640263  15.8156323
  16.9292581  14.8703587  12.8091264  16.8939626  13.9141202  12.7847648
  16.6853642  15.0962448  13.7067461  43.6030710  56.1720144  25.1905012
  43.9695585  56.5429478  25.9931993  42.7597368  55.8070969  25.4585624
  19.0513599  13.1174839  37.8688931  20.0045109  13.0445910  37.8196859
  18.7570429  12.2427559  38.1227851  11.1172557  19.4901466   2.5145561
  10.3317440  19.6557319   3.0358860  11.2408423  18.5421503   2.5621104
  62.3618126  19.4787252   7.8218323  62.1603298  20.0423241   7.0748425
  62.1581841  18.5946345   7.5166273  46.9230854  50.4886901   5.3914646
  47.4941933  50.0390863   6.0142997  46.0737764  50.0587594   5.4917911
  44.2017746  50.6221962   8.7121421  45.1306534  50.8501816   8.6742353
  44.1750479  49.6897793   8.4973782  18.2577503   0.9907234  35.1214075
  17.5824738   0.3227807  35.0027227  18.5654414   1.1803754  34.2350721
  36.5975738   9.8178798  24.6058083  37.1503711   9.8142040  25.3872395
  37.0115876   9.1873044  24.0165734  13.2099689  56.0119247  44.3829441
  12.5725616  55.3903305  44.0314293  14.0469826  55.7319491  44.0124655
  22.2176320  32.8298851  10.9901861  22.9919360  33.0103148  11.5232233
  22.1719052  33.5642462  10.3779319  46.0940380  31.1902664  29.1172406
  45.4490657  31.2691264  28.4143707  45.5729193  31.0261235  29.9031946
  62.3970222  42.4766731  31.2471867  62.1603680  41.7764044  30.6390333
  63.2346392  42.1989584  31.6179967  54.0851362  37.1383714  51.7977616
  53.1791599  36.8813037  51.9691008  54.0139969  37.8820275  51.1993080
  39.6383649  51.1152642  25.7645965  39.9602962  50.2723139  26.0840106
  40.2241540  51.3366430  25.0406647   2.7979733  44.7605997  49.3897941
   3.5307528  44.1460723  49.4301280   3.1386448  45.5655044  49.7800538
  44.1306210  42.5484419  16.8335843  43.2414913  42.5334358  16.4793944
  44.2874384  43.4679842  17.0482457  15.8774722  57.8699415  17.4497426
  16.7483318  57.4741232  17.4838400  15.2979625  57.1521484  17.1944535
  64.3265981  57.5797528  51.0411405  63.5438890  57.5662035  50.4903081
  64.2840213  58.4202617  51.4971709  46.6470046  27.3799211  53.3497300
  45.8070631  27.5239190  53.7856125  46.9546861  28.2583910  53.1264489
  17.9989088  53.0964368  20.7655382  18.2271708  53.2194310  19.8441267
  18.4968365  53.7707453  21.2277150   2.6519960  21.7338824  47.8018904
   2.3684035  22.6398611  47.9244041   2.4401438  21.5379333  46.8892288
  38.3477783  23.5387969  19.4239867  38.7348747  22.6723814  19.5493484
  37.6471353  23.3982277  18.7871420  47.9823894  48.2177728  53.9753610
  48.6794705  47.5735348  54.0989072  48.4053273  48.9431315  53.5157854
   7.1324707  60.5790418   0.8098170   7.4281765  61.1016077   1.5552803
   7.2652269  61.1474317   0.0511738  17.8007591  63.7772763  32.2356200
  16.9960082  63.7696199  31.7174053  18.4793509  64.0546077  31.6201234
  25.7589317  50.0724011  49.4700345  25.4824759  50.7839411  48.8925263
  26.2384153  50.5082911  50.1745376  10.9799695  25.9619355  27.8774047
  10.3706050  25.2238536  27.8893256  10.8565342  26.3881588  28.7255383
  42.3948944  60.2982455  27.5135994  43.2181347  60.7502960  27.6984167
  41.7252768  60.9774276  27.5945926  17.9401565  32.3675656  13.5453260
  17.5189328  32.4039650  12.6865602  17.8284049  33.2477927  13.9044154
  15.0541520  22.5564146  51.0862350  15.2219999  21.6917348  51.4609146
  15.8046913  23.0848575  51.3576603   3.8367904   7.7656591  53.5786065
   3.9573777   8.3762491  54.3058404   2.9051483   7.8258551  53.3672982
  31.8603134  13.0831003  25.1500607  31.0651064  13.4495747  25.5368114
  31.7852640  12.1401477  25.2964807  53.8701773  12.8192174   6.7062551
  54.2763853  13.4099555   7.3404902  54.3899441  12.0171583   6.7589355
  43.8364410  27.9364800  29.6832418  44.4259357  27.9741120  28.9300442
  43.7835169  28.8411736  29.9914026  33.1300914  37.2680950   1.1122087
  33.6110532  36.4485463   1.2273077  32.9946088  37.3355853   0.1670507
  31.6352404  62.3965750  47.1180296  31.9938648  61.5214496  47.2656012
  31.7639530  62.8516308  47.9502487  44.6755362   9.9298286  35.1805711
  45.6013393  10.0296664  34.9588680  44.5651960  10.4393613  35.9833360
  38.6263073  52.3811465  11.4481390  37.7245415  52.6171618  11.2305462
  39.1540134  53.0938368  11.0878205  16.2497414  54.1903525  13.4475851
  16.8937362  54.8793977  13.2841229  15.8186996  54.0601080  12.6029122
  36.4022779  15.4586363  40.5017376  36.9101667  16.1748219  40.1204777
  35.5045056  15.7895553  40.5287361  66.3572931  19.6087635  27.4347281
  66.1245728  20.2612805  28.0952549  67.1440506  19.1875756  27.7809143
   4.4050134  63.1428031  22.5583839   4.2652452  63.1488172  23.5053062
   3.5279978  63.2354339  22.1862364  24.9857736  12.3229790  41.8521214
  25.7373905  12.0519447  41.3250160  25.2689576  12.1937776  42.7573013
  48.7630803  44.0286022  19.0433729  48.2462117  43.2312208  18.9282036
  49.0270535  44.2731219  18.1563783  26.6908014  48.6778825  27.8966665
  27.6262510  48.5053533  27.7899075  26.4157427  48.0834299  28.5946631
  22.7759218   6.1825269  16.0728157  22.7645802   5.3175724  15.6629908
  23.3717108   6.6975564  15.5287457  35.7955885  10.4215169  31.8633127
  35.4620981  11.3181436  31.8961477  35.1543093   9.9092704  32.3558521
  25.4948020  23.0895376  19.4065535  25.8092880  22.2928119  18.9792848
  25.5340600  23.7590504  18.7235868  46.1102980   4.5830002  23.8986874
  46.4126199   5.1133138  24.6359801  46.8664807   4.5325029  23.3139920
   2.7438542  49.6533918   9.3597931   3.5468018  50.1415300   9.1775060
   3.0438834  48.7697268   9.5727348  34.5235003  56.0033619   9.7209144
  34.3022621  55.3438842  10.3784657  34.1825855  56.8228107  10.0794017
  21.9379557  45.5708056  24.3810272  21.2529886  45.5218237  25.0478458
  22.6695240  46.0042506  24.8205352  51.0594463  27.0899749  14.2888367
  51.9384241  26.8369412  14.0066993  50.8333158  27.8335309  13.7300718
  31.3650179   4.7320324  52.3815203  31.1922121   4.7180995  51.4401531
  30.5243278   4.5116422  52.7826452   4.8038271  16.3157690  21.6442728
   4.5995992  16.9711566  20.9771967   4.1402519  16.4482653  22.3212838
  42.0772171   5.5901796   1.5191203  42.6339769   4.9257192   1.1132388
  41.2216282   5.4699779   1.1071062  48.4994793   9.6705455   8.7123024
  47.8925657   9.0020162   8.3945692  48.5606337  10.2996159   7.9934406
  26.0479505  12.5175852  55.0729411  26.0387666  11.6004962  55.3469747
  26.7189605  12.9246039  55.6209510  49.0363968  59.2438393  25.9817672
  49.1908396  58.2991939  25.9866405  48.5553062  59.4036906  25.1698351
  10.7563150  57.4687951  16.6821086  11.1881054  56.8685298  17.2899497
  10.4957760  56.9167309  15.9448314  21.2806821   1.4139499   8.5079831
  21.0896444   1.1353265   9.4035864  22.0213652   2.0137578   8.5965931
  46.7854977   7.1709102  21.2874103  47.1493578   7.4647212  20.4522395
  46.7473412   6.2176144  21.2099290  38.7217546  14.3848586   4.4932333
  38.7951970  14.2333126   5.4355025  37.9230905  13.9231420   4.2379171
  10.0291884   5.3663611  18.4625447   9.9814409   5.3724843  17.5065565
  10.1391864   6.2863773  18.7027597  54.8018360  10.6037605   3.5731992
  55.7465363  10.7422888   3.6409232  54.7101736   9.8724806   2.9624134
  36.2938356  11.2964845  22.0892620  36.4194512  11.0370076  23.0020165
  36.6771722  12.1718419  22.0341778   7.0655429  24.6193552   8.3239698
   6.1234403  24.7699928   8.4013230   7.4549764  25.4896784   8.4082919
  36.1762571  10.7958448  35.7861161  37.0472050  10.5796158  36.1191726
  36.3325167  11.4753211  35.1302767  27.8749776   8.9056462  11.8938351
  27.4068618   9.7353476  11.9870782  28.7825489   9.1601157  11.7271197
  14.3760550  17.0838070   4.6932539  14.9744594  16.3392901   4.6313018
  14.6565998  17.6753330   3.9949527  23.0445231  61.6968542  53.0861616
  22.2752893  61.8467750  53.6357355  23.6767519  62.3552512  53.3743191
  19.5303380  14.6602702  22.6658916  19.8810709  14.4781089  23.5376930
  20.2984786  14.8850632  22.1408582  50.8620739  21.2445617  46.2330246
  51.6555929  21.5327573  46.6841316  50.8786011  20.2902436  46.3054085
  40.7859362  64.1006966  33.8924265  40.1639879  63.6955029  34.4967675
  41.0394848  63.3931963  33.2996440  49.1891689  35.2308309  37.3395010
  49.9472041  34.6466210  37.3571583  49.3057127  35.7975304  38.1020626
  32.6302075   2.3042580  22.8011155  32.2122765   3.1426990  22.9975390
  32.0035362   1.8504712  22.2375655  65.8083851  55.8012276  32.4553156
  65.7354647  54.8468625  32.4452448  66.5260846  55.9929847  31.8516850
  67.5983858  21.4906263   7.0998073  66.8388414  21.0061073   7.4231684
  68.0890417  21.7211318   7.8887033  10.7405306  41.4428484  53.2842429
  11.5453745  41.4801287  52.7674603  10.5899168  42.3474449  53.5585622
  60.5363321   5.2032906  34.8543382  60.9089088   5.4700905  35.6947184
  61.0857916   4.4729757  34.5697927  61.5603370  42.6055294  50.1277256
  62.4615747  42.7355891  49.8326159  61.0490162  42.5536709  49.3202019
  32.8244436  64.3999143   6.9872397  33.3861578  63.9279067   6.3724899
  33.2870377  64.3469144   7.8235567  46.7299557  19.7899818   7.7827787
  46.5000629  19.1283011   7.1304297  45.8886051  20.1404357   8.0752486
  44.1844332  25.9242749  10.2766613  44.7587501  25.2431970  10.6266979
  44.7143685  26.3671261   9.6138767   0.7127720  25.2424502  39.0072727
   0.4942232  25.6473899  39.8466134   0.8985669  25.9803128  38.4265232
  28.1798983  10.8728874  33.9380169  28.6974335  10.7990253  33.1361866
  27.2717476  10.7997441  33.6445189  44.7293806   0.3495152   2.2364810
  44.8280144   1.2592526   2.5173378  45.5841064   0.1167942   1.8738316
  34.0674686  39.0357733   3.0196035  34.6195841  38.9179850   2.2466046
  33.1792927  38.8609767   2.7084437  27.5284833  57.5096905   9.1734272
  28.2815105  56.9188660   9.1838872  27.3645932  57.7051752  10.0960088
  47.5066460  52.0516401  14.0312982  46.7335070  52.4470692  13.6286521
  47.6124895  52.5212484  14.8586416  53.9695120  23.9894962   9.1918617
  54.0395832  23.6316800   8.3068258  54.8499346  24.3072629   9.3921411
  34.2721069  39.8508697  17.1466899  34.0723265  38.9959817  17.5281119
  34.9983204  39.6815687  16.5465355  46.1211872  28.8807964  13.0033755
  46.5448427  28.0624199  12.7445221  45.1841879  28.6917138  12.9532933
  41.0039234  30.7429457   6.4293545  40.5092669  30.6556559   7.2441733
  40.4144382  31.2142563   5.8406210  63.9345980   3.6976966  24.5941114
  63.7941456   3.3799931  23.7021637  63.7207937   2.9493684  25.1513600
  41.1339617  17.7197289  11.3484430  40.5813932  18.4989798  11.4090073
  41.6953230  17.7634251  12.1225178  59.8158096   9.3940789  15.0372175
  58.9749085   9.7185141  15.3594926  60.3218030  10.1847750  14.8501161
  34.0854603  55.1919013   1.9638862  34.3166417  55.6163829   2.7900839
  34.7461027  54.5082008   1.8528099  26.2081790   6.3184553  48.1213331
  26.5338945   6.3213706  47.2212601  25.9187078   5.4180020  48.2683802
  40.0329835  55.4023570  54.4460165  39.5009751  54.6266717  54.2685060
  40.3717107  55.6616896  53.5891367  27.1908188  27.3828387  21.2577987
  28.0274153  27.8479600  21.2589836  27.4266529  26.4661121  21.1155725
  44.5158112  53.2460343  22.0386652  44.4593751  53.2820475  22.9935220
  45.2627861  52.6734435  21.8643096  23.5611653  24.7693610  20.1372623
  23.8788843  25.4848599  19.5864928  24.1534424  24.0412688  19.9493217
  28.7025809  30.7611871   8.6338300  28.6589909  29.8842907   9.0151215
  29.6391964  30.9468341   8.5665846   7.3797316   6.4530361  55.3314345
   6.7437548   6.6990650  54.6596998   7.3742480   5.4958594  55.3273460
  18.7274796  11.3985312  32.5247765  18.8566262  11.3932920  33.4732103
  17.7769715  11.3867295  32.4124169  53.2387418  45.2979821  33.9478847
  53.1832714  45.1215774  34.8870536  52.7382035  44.5905822  33.5413381
   1.8099365  16.0168254  19.0854907   1.4463940  16.5729225  19.7745669
   1.6517302  15.1233697  19.3903518   3.7580258   3.8767102   6.1071503
   3.1675106   3.7247512   5.3692907   3.6988264   3.0770615   6.6299212
  61.1281985  62.3386600   0.8327955  61.0212785  62.9000815   0.0649375
  60.8941371  62.8983627   1.5731871  25.3285063   4.6101153  52.4011704
  25.7028759   4.7441233  53.2718719  25.2668798   5.4898322  52.0289671
  17.1587384  12.8057480  17.1831667  17.4780107  11.9089484  17.2833991
  17.5444305  13.1067491  16.3604438  55.6704456  51.1755090  44.9181938
  54.7765375  51.3259678  44.6107531  56.0643727  50.6191402  44.2462540
  37.5031853  20.1491141  16.0361516  36.6474700  20.2405453  15.6170750
  37.8566122  21.0384631  16.0555756  35.7398386  53.3435815  32.3746392
  36.5747649  53.5351580  31.9475218  35.9371335  53.3741540  33.3107873
  39.2638183   8.7167495  14.6604919  39.8995018   9.0045518  14.0052748
  39.7614408   8.1395084  15.2396262  47.4535084  15.1159787   6.3748646
  48.3906412  15.1669431   6.5630579  47.3733139  14.3940246   5.7515013
  65.9434319   5.0700563  38.6892557  66.7099428   4.9481568  38.1290436
  65.1966476   4.9594465  38.1007791  42.6822359   7.5089639  46.0661086
  43.4564609   8.0162948  46.3098779  42.2507567   7.3156351  46.8983838
  14.1923767  14.6429229  10.7927346  14.5440346  15.3967476  10.3191197
  13.6306244  15.0246346  11.4672434  67.0330667  14.7023225  49.9862862
  66.2179899  14.2022514  49.9437094  67.6587868  14.1059077  50.3973770
  41.2743282   3.2703745  25.0680852  41.4561558   2.4857005  24.5509243
  40.7683372   3.8321811  24.4810820  30.8863330  12.3367810   9.8061240
  30.0454235  12.0237899   9.4727516  30.9815073  13.2125008   9.4315743
  20.6845307   5.0000238   3.1220558  20.2353859   4.9290144   3.9643496
  20.1751924   4.4450215   2.5314808  33.4720874   8.5223472  24.9220324
  33.3652186   8.5931456  23.9734554  34.2339969   9.0674174  25.1185656
  25.7767797  11.8924117  19.6319652  25.0265908  11.4658689  20.0461054
  25.7857203  11.5473366  18.7391746  20.7257641  57.9748946  37.4433851
  20.4524267  58.0138444  36.5268683  20.4322517  57.1150129  37.7445221
  50.9086639  58.6941522   9.4482011  50.8134389  59.6198785   9.6722436
  50.2241147  58.2541101   9.9521726  65.3416449  61.9349919   8.7554938
  65.9676916  61.2111192   8.7729448  64.4840926  61.5107470   8.7846619
  52.2587204   6.2372732  14.8873591  52.1928358   5.4378533  14.3650377
  53.1935549   6.4428818  14.8936808  20.2960337  42.3393875  41.1050177
  20.0364769  41.7705374  41.8297768  19.8506868  41.9725352  40.3412628
  38.4698093  63.7025626  20.8932519  37.9609430  63.1551147  20.2952695
  39.3693483  63.3896295  20.7976437  63.0517870  16.1583352  35.4003143
  62.6124841  15.8731151  34.5991325  63.5869458  15.4084027  35.6600046
  18.9301997  29.5112044   2.3281196  18.1032353  29.9732453   2.4655012
  18.7479620  28.9014393   1.6131309  36.8921089  49.4346332  19.7533706
  36.1910557  49.3865489  19.1034130  36.5034830  49.9057483  20.4904274
  29.0397024  56.6726303  13.8678157  29.2638326  57.4912596  13.4252715
  28.2806945  56.3410282  13.3880484  14.1463089  20.6702518  14.6436059
  14.4084656  21.5386224  14.9492812  13.5820854  20.3318429  15.3388488
   6.4066750  43.4556437  30.7223153   5.5400378  43.7605429  30.4536033
   6.2308604  42.7905607  31.3878846  47.7238846  11.6587961   2.8201488
  48.5026789  11.1502802   2.5940424  47.7331448  12.3955166   2.2090930
  18.7006117  47.3715848  31.6835424  18.3153225  47.6452642  30.8511468
  19.6386314  47.5295263  31.5767142  64.6629620   9.7446513  25.6083536
  65.5863619   9.8647410  25.8300328  64.5350599   8.7961161  25.6207681
  53.1104607  29.8563029  54.1553998  53.5883255  30.3912780  53.5216176
  53.1239838  28.9745873  53.7830737  15.2537477   6.1068141  44.8394251
  14.7820628   5.8556002  45.6335497  15.3729916   5.2858734  44.3618584
  17.6999241  34.9907684  14.4549668  17.9767949  35.4318285  15.2581108
  17.9460102  35.5937934  13.7535155  45.8137321  14.0390491  24.3784714
  45.0507593  14.4586372  23.9809132  45.9756422  13.2697177  23.8324428
  47.9680938  19.5700520  52.4412417  47.5810642  20.3539556  52.8310278
  48.8055153  19.8677712  52.0858278   2.2083438  56.8082403   6.6263288
   2.4647272  56.3093268   5.8507097   2.8315390  56.5389621   7.3011243
  49.3067122  21.8487215  34.8242521  48.9300394  21.5551567  33.9946938
  48.5606861  22.1864414  35.3198504   4.2028481  57.5006437  25.1890850
   4.9374539  57.6424742  25.7861352   3.5761887  56.9865704  25.6982565
  33.1306446  54.1315740  29.0173531  33.2903994  53.5030048  28.3133578
  32.3915661  53.7648945  29.5026827  38.8251674  55.4161107   6.8891147
  38.1432473  55.9221279   7.3308900  38.8559687  54.5873200   7.3670152
  33.9628887   5.4621089  23.7815356  33.6666441   6.0078311  23.0530739
  33.2067466   5.4121447  24.3663287  41.2121487  42.9185581  15.6703317
  41.2912273  42.2785711  14.9629438  40.8904839  43.7113953  15.2411759
  33.9617336  62.8374758  15.1515877  33.9540375  63.7935602  15.1060331
  34.1419209  62.6429579  16.0713303  31.9055510   4.1048446  39.5772171
  32.6480889   4.5759475  39.1991544  31.9830108   3.2166213  39.2289472
  51.9123899   1.1687417  25.2227092  51.7085993   1.6775269  24.4379568
  52.0941603   1.8264002  25.8940339  64.4228572  61.9243497   3.0770397
  64.2260296  61.8086361   2.1474695  65.2808684  61.5161272   3.1928107
  14.1978229  15.8246220  39.8833391  14.1854561  15.8237637  40.8404585
  13.6803926  16.5915716  39.6378097  37.3596883  19.6074700  29.9050355
  38.2118249  19.2989635  30.2131224  37.3838782  19.4715154  28.9578485
  41.8340635  18.0770206  39.5023894  41.2620020  17.3098302  39.4824815
  42.6936388  17.7287591  39.7391963  45.3867626   2.8040731  44.4265938
  45.8641863   2.1996769  43.8582611  44.4662094   2.5730193  44.3023920
  54.4580746  23.8581276  14.1125405  54.0806341  23.1680989  13.5669839
  54.1308928  24.6720982  13.7296093  66.8290997  48.2399559   9.5112091
  66.8191051  48.3327246   8.5585678  65.9401751  47.9637814   9.7343022
  64.2122746  32.5292897   3.9399886  63.5185719  32.2692084   4.5460942
  65.0243711  32.3406601   4.4102576  44.8521029  38.5309451   8.4545330
  45.7278263  38.9028125   8.3493904  44.9542319  37.8666198   9.1360572
  26.3811326   9.8642474   0.7089446  25.9680772  10.7130492   0.5503483
  27.1699572   9.8767340   0.1668821  31.9583964  40.7379389   0.2822308
  31.3095951  40.0362587   0.2280203  32.6993203  40.4194117  -0.2333309
  50.2470493  27.0273232  17.0569575  50.7052612  27.3169088  16.2680244
  50.6589079  26.1926436  17.2803819  45.2234507  32.6617742  24.9488401
  45.6930351  33.4387779  25.2521324  45.9121084  32.0644093  24.6570659
  65.9840995  58.3403509  25.7933331  65.8389527  58.3167856  26.7391729
  65.4717249  59.0902155  25.4909992  35.8816242  50.9876490  21.6473484
  35.7716179  51.0658789  22.5949836  34.9937940  51.0578871  21.2965560
  55.2718353  37.1678829  20.6887007  55.5266476  38.0838490  20.5777526
  56.0419512  36.7500401  21.0741377  13.6479117  60.2560133  36.9388958
  13.2667614  59.4339555  37.2474047  13.1206537  60.9364599  37.3574897
  65.5472565   8.4737307  35.8829260  64.7804689   8.9860356  36.1394548
  66.2938404   9.0105581  36.1487532  28.6936092  51.2788105  27.2397184
  29.1728616  50.7921886  27.9103494  27.9725361  51.6930485  27.7137399
  60.7156897  34.3960333  48.6656618  59.9775219  33.8843465  48.9965868
  60.7917404  34.1399217  47.7465010  54.0741682  27.3767304  40.6647873
  54.4070339  26.6469812  40.1423931  54.8588848  27.8456783  40.9485817
  52.4229002  26.8210673   3.1705016  52.6357555  27.6737952   2.7913171
  53.0687332  26.7005587   3.8666424  28.1966436  12.5345028  48.4043416
  28.7549389  13.2105721  48.7883660  27.8698719  12.0387686  49.1551390
  54.7970957  53.7279552  54.9991661  54.9678607  53.1722921  55.7596345
  55.3566665  53.3695906  54.3101906  58.0549002  33.6689281  29.5477962
  57.6609468  32.9381013  29.0714288  58.8048744  33.9274979  29.0121555
  51.1325788  45.8253765  17.5584185  50.9184170  45.6918144  18.4817421
  51.5127754  46.7032051  17.5252843  59.1845512  25.8815479  42.3690891
  59.6050453  25.5914307  43.1785631  59.3531370  26.8231964  42.3357821
  54.5669889  58.5268116  11.7058551  53.8799477  57.8685856  11.6012514
  54.8174429  58.7559271  10.8108628  58.1742048  28.1713128  37.1814704
  58.9278269  27.7333617  36.7858863  57.7400732  27.4872875  37.6912498
  16.9739014  21.2921786  28.4635925  16.1229473  20.9789824  28.7702322
  16.9862610  21.0774136  27.5308776   5.8658081  25.7458973  16.6228449
   6.4187008  25.5439878  17.3776805   6.3764769  26.3750958  16.1133766
  60.4799957  56.8475002  50.0461647  59.9501128  56.5554994  50.7879126
  60.9510345  56.0631579  49.7648111  46.7663288   8.1797260  18.1610537
  46.1039448   8.3598500  17.4939442  47.4470663   7.6922321  17.6971769
  40.3620100  51.0136414   5.4000038  39.8705268  51.8021631   5.1699942
  39.7182798  50.4448223   5.8222461   8.7029040  38.4224594  45.8406362
   8.2630170  37.6084221  45.5955395   8.2461679  39.1007221  45.3430530
  37.7062368  26.5146184  42.1304178  37.1424627  27.2876191  42.1010876
  37.3060417  25.9027171  41.5126371  57.9932737  34.1525578  34.5777655
  58.1181335  33.2087111  34.6767282  57.0435047  34.2710257  34.5893455
  58.4342718   9.0521878  12.8432238  59.1494846   8.9163953  13.4647226
  57.6393890   8.9357930  13.3636510  30.7682991  55.8136320  11.2113476
  30.7332253  56.2995529  10.3874040  31.4237022  56.2755728  11.7341220
  44.5574427  27.7502704  18.2189751  44.6100855  27.2197723  19.0139806
  45.3489876  28.2881927  18.2371354  29.4492364  24.1688132   2.1674426
  30.0186181  24.9278903   2.0415933  28.5638046  24.5101547   2.0420380
  59.5383167  10.3713107   0.7615888  59.9024439  10.7985020   1.5369283
  60.2463341   9.8124003   0.4413330  25.3317356   8.3409441   7.7815431
  26.0626698   7.9500371   8.2602483  25.7436943   8.8059986   7.0533639
  17.3043514  63.4170168  44.3679651  18.2269693  63.3965820  44.6221158
  16.9790960  62.5411910  44.5762214  20.1779985  22.8287482  27.0892930
  20.4056549  23.6319733  27.5575137  20.8195353  22.1856117  27.3910165
  45.6822634  57.3872280  23.7563729  45.0222683  56.7986774  24.1227722
  45.2799225  58.2546997  23.7993383  31.1557484  55.3936958  41.6160727
  31.9559503  55.3397799  41.0935783  30.8790040  54.4838572  41.7249012
  14.8447978   7.3930979   0.9570641  14.9843633   8.3400679   0.9576762
  14.0789664   7.2635055   1.5164745  10.8798605  24.0131211  12.0835507
  10.6403262  23.1022167  12.2541559  11.8360955  24.0054131  12.0411670
  56.4493460  36.9434631  24.5089599  56.3483769  35.9988630  24.3915936
  57.1724469  37.0317209  25.1298996  47.2404665  12.2601069  51.4112860
  46.6903719  12.2277010  52.1939593  46.9169769  13.0167521  50.9223348
   9.0626437  39.6725202   2.9282746   8.9193541  38.8571405   2.4478009
   8.9920479  40.3577375   2.2636491   1.3881422  48.1102043  46.7270675
   0.5981375  47.7692455  47.1464446   1.4980675  48.9853281  47.0989611
  50.7567406  36.0340071  29.0538096  50.7759094  35.3045058  29.6732402
  51.6410065  36.3990498  29.0862417  12.7144897  27.4427879  54.7089856
  12.3808706  28.0234898  55.3928818  13.6634911  27.5655783  54.7324346
  24.6685827  16.8396414  38.3770081  25.0189341  16.1749113  38.9699837
  23.8734901  17.1512116  38.8094207   1.6630083  63.6453247   4.0590185
   1.3596207  62.9812527   3.4399858   2.5903899  63.7601900   3.8516447
  41.6969967  18.1653821  16.0586369  40.9167862  18.3326304  16.5873468
  41.3584518  17.8018486  15.2404296  47.2101068  26.6811442  11.6516793
  46.6833925  25.9297156  11.9239938  47.1157122  26.7073464  10.6995058
  59.3334621  25.8369136  27.7249360  59.4672042  26.6977167  28.1216216
  60.1701289  25.6332183  27.3069286  40.4017544  25.9252334   4.8792693
  40.9592438  25.5683351   5.5706924  40.9148979  25.8176684   4.0784284
  47.0449305  16.9311905  52.3868704  47.1565390  17.8789985  52.3131418
  46.3421583  16.7241418  51.7708540  68.0753040  11.5954900  42.9189539
  67.8642750  10.9657764  43.6082697  67.3311806  12.1974874  42.9084969
  10.3961903  45.5366325  26.0010886   9.7529465  44.9791861  25.5632305
   9.8736864  46.1118555  26.5599585  23.9893556   6.1424494   8.8810647
  23.9382362   7.0981520   8.8969284  24.6293259   5.9255409   9.5590180
  49.1245079  29.7233081  24.6991396  49.4844532  30.5853248  24.4903421
  49.8634672  29.2375088  25.0654292  43.1152201  41.3764811   6.1598212
  43.2313299  41.8123770   5.3155768  43.5317659  41.9628429   6.7914099
  44.3621016  28.5625124  43.5602808  45.1334906  28.4403872  43.0068588
  43.6371279  28.6589479  42.9427528  57.2212029  31.3544989  34.7236323
  56.4150620  31.7124581  35.0954294  56.9520855  30.5312610  34.3160915
  60.0274897  37.9759908  30.0527501  60.4498434  37.1202111  30.1268625
  59.1499662  37.7822566  29.7231174  52.0313019  50.1943260  50.2254679
  52.8740210  50.0332969  49.8010555  52.2599287  50.5265957  51.0935464
  28.4214573  18.8658816   6.9723514  27.5255280  18.9551836   6.6474393
  28.9212351  19.5159441   6.4785150   6.4339894   3.0485991  11.7078745
   5.5354190   3.3773965  11.7342436   6.3786143   2.1698791  12.0833969
  45.3139193  57.6573502  16.5880835  45.3603785  56.8578713  16.0637677
  44.9651372  58.3170199  15.9885681  13.2588613  30.1331234   7.9027230
  13.3431935  30.3694677   8.8264441  12.9716682  29.2200971   7.9143590
  44.0643644  27.3428130  39.5293093  43.7777138  28.2128429  39.2516184
  43.2679224  26.9189692  39.8491073  41.3251019  38.7006307  19.2950237
  41.8108320  38.0533957  18.7837684  41.0914326  39.3795252  18.6619878
   2.5663376  38.4018111   1.6849919   2.1114355  38.9153314   2.3525184
   3.4888244  38.6339283   1.7916287  67.4695551  24.2889291   1.5821985
  67.2748482  24.7910881   2.3734954  67.2152721  23.3919781   1.7991022
   5.2343995  18.5079432  53.6850977   4.7455031  17.7117264  53.4771347
   5.5185038  18.8435113  52.8348589  40.4254961  20.6591511  27.1752524
  40.6206417  21.4340377  26.6482806  40.6057453  20.9300780  28.0754423
  34.5145154  14.5407593  16.9436502  33.8454175  14.2982757  16.3035393
  34.8794556  15.3603041  16.6098857  44.3598413   0.6164236  27.2223043
  43.5723400   0.3568895  26.7440677  44.7145987  -0.2046853  27.5631261
  22.4434948  44.3057394  11.2744176  23.3167100  44.1223574  10.9278667
  22.6043081  44.7143412  12.1249557  67.6843948  55.9512871  25.1902482
  68.5664768  56.3094181  25.0907179  67.1210546  56.7209762  25.2706071
  42.3771334  32.5322032  17.8852189  42.1112633  33.2481003  17.3081255
  42.4430799  32.9345608  18.7512386  21.9778061  14.9375308  18.8293910
  21.8023252  14.3009341  18.1364381  22.3566318  15.6892526  18.3737183
  28.7330866  50.5816555  20.6027055  27.9482245  50.9777212  20.9813285
  28.7167835  49.6756554  20.9111333   9.9677837  24.3459964  41.1167860
   9.2943406  24.5541883  41.7643690  10.2936649  25.1983070  40.8276463
  64.6761656  54.3513393   6.9558084  65.4105186  54.0096045   7.4658793
  64.3176508  53.5846043   6.5088040  51.9557322   7.9653538  50.2178660
  52.0145834   8.6796606  49.5834085  51.4270294   7.2986091  49.7795155
  26.6458393  54.3830913  50.3177711  26.4700914  53.6598342  49.7159031
  27.2278286  54.9651974  49.8292335  39.8031044  14.8100567  12.1506882
  40.1817226  15.0937259  11.3185763  38.9056826  14.5587945  11.9322121
  60.3109461   9.3769301  21.9586750  60.8711738   8.7355316  21.5216586
  59.8376197   9.8064364  21.2461301  28.0593527   9.0018642  42.4470433
  28.6619509   9.6936596  42.1740564  28.2190693   8.2878149  41.8299052
  57.1817398  25.4993320   2.9138681  56.5761328  26.1619854   2.5816616
  57.2651005  24.8702717   2.1972334  13.0379499   5.3876794  54.0280591
  12.1165550   5.1314176  54.0679714  13.4980310   4.5882333  53.7722440
  47.4582672  20.5957103  24.8462939  48.3047152  21.0360551  24.7697759
  46.8767738  21.0928702  24.2710257  54.5052576  48.0503750  52.7703619
  54.8681211  48.9340878  52.7102470  55.1980972  47.5345135  53.1827879
  27.7665830  16.4024305   7.8409666  26.8245149  16.3050377   7.9797328
  27.8790450  17.3212063   7.5971729  40.2353048  54.9478579  40.3127003
  40.5578709  55.7531977  39.9082136  39.3057442  54.9215698  40.0858545
  47.0625114  36.8453050  31.7277098  46.5077591  36.3395262  31.1338496
  46.4467144  37.3485804  32.2603774  57.2560919  59.9968874  34.4422174
  57.3441637  59.0682059  34.2276788  57.3322523  60.0306910  35.3957820
  62.6926613  26.3285089  29.2656755  61.7556238  26.4339733  29.4302130
  63.0862904  27.1358538  29.5965552  10.9044779  62.3606170  26.4818597
  10.3496755  63.1404648  26.4656019  10.3191364  61.6450369  26.2337661
  53.1754780  22.3062587   6.8966001  53.3105946  21.7337871   7.6517493
  52.4399710  21.9132710   6.4266849  24.5935274   8.7936395  54.2940932
  25.3906752   8.6938613  53.7736760  23.8926245   8.8689989  53.6465707
  29.9290693   0.4000915  39.9759289  30.6281269  -0.0220811  40.4752501
  29.9662197  -0.0147020  39.1140708  32.9576707  15.8520532  43.2835054
  32.2464323  16.3221240  42.8483009  33.7465358  16.3409078  43.0490971
  53.0675173  21.3801527  40.9297752  52.7060652  21.1650157  41.7896032
  53.8824606  20.8804607  40.8806992  34.6376181  35.6374145  25.4105973
  34.4899774  34.7713017  25.0307536  33.7815499  35.8995342  25.7492304
  12.9275644  13.3022249  31.6816398  12.0729721  13.7259806  31.7612454
  13.5580934  14.0182007  31.7593738  19.8227930  26.5005398  24.0466237
  19.7013664  26.7682481  24.9575686  19.9548888  25.5535316  24.0908647
  40.8278370  15.9718311  22.5223351  40.8983183  15.5749798  21.6541338
  40.6502199  16.8963683  22.3493767  12.5848318  39.4852406  54.1663482
  12.4178530  39.5817655  55.1039160  11.9923616  40.1123839  53.7517379
  37.8977156  33.7575674   2.2115837  38.3671689  34.5898485   2.2677249
  37.0480847  33.9867496   1.8349738   7.1658195  56.5459078   2.5130332
   6.2260807  56.7164122   2.5766951   7.4147571  56.8931424   1.6564757
  49.0580416  30.0753236  14.2384911  49.3783569  30.9606457  14.4112051
  49.1905022  29.9518061  13.2985806  51.6168070  41.2303066   6.8793398
  51.9638062  41.3897848   6.0016209  51.5481901  40.2775145   6.9402957
  51.8561340  55.7570141  52.4720665  52.2355438  56.2970155  53.1653770
  51.2799431  55.1466197  52.9321271  10.7093066   6.4492602  15.9859502
  11.2354725   7.1316952  15.5692267   9.9371689   6.3668770  15.4262614
  16.7875458  55.0216240  39.1853019  16.0401655  54.9307388  38.5942062
  16.5628315  54.4785160  39.9407944  22.1085715  26.3195539  10.5715406
  22.2688556  25.5128527  11.0612082  22.3314667  26.0990667   9.6671426
  64.0608043  50.5215937  51.2932971  64.4177456  50.2476138  52.1381390
  64.3005914  49.8165148  50.6919673   1.1800486  20.8056784  30.2316308
   1.5643984  21.4495945  29.6367550   1.2384802  21.2131238  31.0958099
  40.6217296  59.0363926  49.8991498  40.0515432  59.2694944  50.6318041
  40.2693600  59.5262855  49.1561350  20.4253996  62.5873133  38.6838484
  19.5055140  62.7311169  38.4616733  20.9090841  62.9169699  37.9264808
  22.6003338  44.9832398  47.5352284  22.1422363  45.6886548  47.9921397
  23.2812334  45.4275960  47.0301047   8.4985901  57.9007929  36.0529431
   7.9349114  58.6101597  35.7442388   8.5973812  57.3258489  35.2940556
   0.1000553  34.8764944  15.4097450  -0.0416034  33.9303875  15.4420650
   0.8125645  35.0332999  16.0294044   9.1207558   0.6946916  13.8605082
   8.4150893   1.3112482  14.0557706   9.4703061   0.4514337  14.7177541
  10.3507638  18.8398981   8.0972302  11.0879171  19.3183553   8.4765923
   9.9591827  18.3768344   8.8378167  67.4444694  23.5699194  56.0493242
  67.7475996  23.9214617  55.2122087  66.6746587  23.0471766  55.8249125
  50.6372851  13.7165368  38.4363031  50.1552969  12.8919637  38.4995365
  51.3556689  13.5283434  37.8323674  33.0170870  14.2828870  37.6163650
  33.9152193  14.5079005  37.8591776  33.1047988  13.4988654  37.0742893
  54.3756056  34.5799351  21.0839438  54.9706793  34.3377423  21.7934942
  54.5508099  35.5084229  20.9308243  26.3874691  53.6625635  12.3441270
  25.5692452  53.8189756  11.8726686  26.9750565  54.3543469  12.0401434
  61.5667152  11.2167966  11.9762719  62.2208166  10.5238819  12.0671201
  61.1898088  11.3066244  12.8515470  36.8288875   9.3474358  28.5704994
  37.0828199   8.9534670  29.4050860  37.6281762   9.3295151  28.0441475
  22.4909199  62.7730646  33.6558080  23.0844677  62.0256840  33.7289858
  22.2485912  62.7967272  32.7300906  18.1035650  62.6005595   3.2425517
  17.9456270  63.3332612   2.6472062  17.2372115  62.2216187   3.3911031
   6.1564172  50.0149696  14.6360636   5.9880913  49.0798944  14.7523904
   5.6529773  50.4373556  15.3320312  12.1264279  12.8276694   8.9964896
  12.6604998  12.7212048   9.7836769  12.6302612  13.4255409   8.4442812
  13.0290043  15.4679275  34.6691108  12.2183204  15.6148970  34.1818500
  13.3689797  14.6420074  34.3248677   3.9391750  21.1204672  27.0709801
   3.6533982  20.5952954  26.3234782   3.3506727  21.8753815  27.0722938
  20.4422045  24.7807622  14.9937725  20.7748508  25.3166699  14.2737854
  20.6621361  25.2762890  15.7826424  51.7371464  38.5649133   6.1599964
  52.3567343  38.3772707   6.8650740  51.1428261  37.8145742   6.1574107
  20.5165648  28.3580160  19.8877430  19.9126673  28.3248830  19.1458249
  21.0735965  29.1157603  19.7095096  55.4114408  57.3586148  50.5455765
  55.9464640  56.9176715  49.8856130  55.8552642  57.1771282  51.3740182
   0.5317408  19.4768107   8.7824166   0.9403759  18.6450028   9.0218872
  -0.3803724  19.2516029   8.5992289  37.3951364   2.9679629  20.2125096
  37.0930481   2.5473109  21.0175109  38.1128120   3.5355449  20.4936218
   6.3806635  11.8881655  16.7422891   6.0385662  11.5427339  17.5668359
   6.7677599  12.7312577  16.9780505  29.1746645  17.3512846   4.3827442
  28.2316952  17.2983605   4.5384315  29.3293743  18.2690722   4.1592220
  25.1225567  36.8157840   7.0530164  24.5019913  37.0147586   7.7541149
  25.4510522  37.6705241   6.7741954  21.3335538  26.7152429  16.8866289
  21.8572021  26.9544101  17.6513672  21.9710541  26.6260982  16.1781955
  17.5936377   1.5894620  30.2658749  16.8580890   1.7689931  29.6802402
  18.2897842   2.1716596  29.9614763  44.2066908  11.9449997   1.0927462
  44.5139790  11.0386074   1.0766376  44.3441439  12.2284734   1.9966161
  16.0337883  24.4797230  17.4011719  15.7502419  24.0623355  18.2145739
  15.9657532  25.4181457  17.5771415   1.1909939  47.8142220  43.9521691
   1.2177301  48.1353599  44.8534938   2.1102024  47.6968390  43.7123641
  52.0834494  34.1804338  10.6662571  52.0954990  35.0665355  11.0280752
  51.4515495  34.2233515   9.9485576   0.1076752  27.5328922  23.7975168
   1.0449129  27.4587131  23.9772797  -0.0249332  28.4591436  23.5957646
  45.7539558  24.9851203   1.2352982  45.7503033  25.0418425   0.2797873
  45.1601505  25.6802940   1.5187721  61.1606359  19.2305923  37.3674655
  60.7521439  20.0523567  37.0953059  61.8802595  19.4985795  37.9389167
  16.2430871  15.3704250  52.7539962  15.3774322  14.9649084  52.8032958
  16.5955127  15.0811375  51.9123664  58.3063555  43.5840368  38.2233000
  58.5060883  44.3219519  38.7993360  58.0321264  42.8845739  38.8164139
  18.4977234  26.6899813  51.0877478  18.4026325  26.9246662  50.1646486
  17.9343975  27.3094309  51.5516242  67.3790180  33.2836146   9.7613567
  68.1461298  33.5642333  10.2603805  66.6337120  33.5297484  10.3092337
  43.5992336  27.9063821  13.5980988  43.0804968  27.1022081  13.5770524
  44.3646955  27.6838374  14.1279840  51.9262505  26.6483521   9.0646487
  52.0385313  26.7683887   8.1216657  51.9227505  25.6989479   9.1865015
  15.6766535  40.0445646  51.1428758  15.4632355  40.5740851  50.3745702
  16.0210205  39.2274195  50.7824364  62.7389949  30.4852128  17.5240576
  63.3581805  29.7975349  17.2792268  62.1669680  30.5749106  16.7618430
  29.0524721  12.6562834   0.3381004  29.6267915  12.6434660   1.1037531
  29.5182920  12.1396196  -0.3193956   0.6645220  60.8596754  18.3704245
   0.8761047  61.2960672  17.5451815  -0.2857330  60.7473755  18.3452141
  49.7246933  22.3722267  20.7040834  50.4612637  22.7479792  20.2218962
  49.3426514  21.7356491  20.0998926  37.8598642  17.4381769  36.1033154
  38.7448716  17.1762216  36.3570309  37.9305315  18.3751059  35.9205532
  31.4045704   8.3522356  33.3717843  31.6293324   7.5648606  33.8675233
  30.6514395   8.7196863  33.8343975  35.9143138   8.0629438  10.9626591
  35.9800696   8.5315323  11.7947245  35.7858396   7.1479237  11.2125850
  51.3050652  23.8584828  14.7998619  51.1244154  23.4197593  13.9685261
  52.2467756  24.0289521  14.7810388  48.2435417  24.7388911  33.2921195
  49.1129255  24.9262857  32.9381680  48.4128189  24.2420983  34.0926027
  23.0086363  59.2691695  27.3086548  23.3601893  60.0431912  27.7485776
  23.7217606  58.9695399  26.7448235  31.1467320  13.2546270   5.3898960
  30.3723294  13.8078785   5.4920906  31.8851429  13.8506269   5.5154520
  58.5941029  35.0366235  19.8949373  58.2992506  35.5455494  20.6501102
  59.4691896  35.3748655  19.7050738  14.3163311  54.4194889   7.8497070
  14.1928542  53.6677837   7.2701204  15.2587032  54.5859861   7.8285617
  51.4422989   2.0229983  15.2623069  50.7990980   1.8714203  14.5698106
  52.2829294   2.0547794  14.8056245  23.6128211  53.3705044   2.4950431
  23.9882946  53.2717228   1.6201185  23.6128116  54.3150091   2.6504347
  -0.0238783   7.8634114  39.6787691  -0.0373108   8.6488099  40.2257633
   0.6608551   7.3157782  40.0627804  43.6276293  49.3119097   1.4405306
  42.7685118  49.6498585   1.6933855  43.9561892  48.8791513   2.2285694
   7.5128323  42.2653818  19.7075081   6.9078928  41.6956186  20.1825309
   8.1533104  41.6670227  19.3228233  53.6329126  14.3752551  29.5514154
  52.9901505  15.0842643  29.5713019  54.4804668  14.8200011  29.5607615
  40.2758265  48.9399958  13.7714636  40.7983685  48.3861876  14.3515337
  39.9546695  49.6427441  14.3364727  53.6465931   7.1985734   8.4360623
  54.5357466   7.3752975   8.1287998  53.0809832   7.5979888   7.7751678
  68.3093214  43.0372572  43.6473846  67.8752089  42.3730612  44.1827536
  67.7440405  43.8067150  43.7153912  14.3880141   7.6690853  54.7117540
  13.7567914   7.0269144  54.3870909  14.9865759   7.8087247  53.9779573
  48.0721521  31.5696144  16.7937577  48.1625128  32.5039673  16.9809878
  48.9608812  31.2227106  16.8715525  18.5987211  58.7013310  28.5499665
  17.8595472  58.2629674  28.9714977  18.6525894  59.5521062  28.9852926
  22.7994728  21.8099904  28.3128476  22.8660393  22.1005273  29.2224574
  23.6896825  21.5464330  28.0798411  17.0775390  48.5045481  29.5481229
  17.7840519  48.2858419  28.9404702  17.0662701  49.4614744  29.5678949
   2.9456383  63.7238741  14.2042911   3.2510859  64.2438173  14.9476588
   2.0154101  63.9366579  14.1292775  27.2518183  63.5142582  53.4847448
  27.9527403  63.9072770  54.0048198  27.4596335  62.5800079  53.4698554
  59.2693949  27.9960561  24.4496059  58.6328602  28.3153415  23.8099861
  59.5680904  27.1594238  24.0931559  46.0647249  18.1762385  14.0598094
  45.2706861  18.4297419  13.5892022  46.1923599  17.2545731  13.8351452
  66.7406178  52.0404673  15.8697522  66.5377903  51.9872952  14.9358010
  67.2562122  52.8421354  15.9576154  21.8467862  43.0807495  26.5515041
  21.9630581  42.6683903  27.4074650  20.9176690  43.3087063  26.5196943
  61.7539549  28.2269812   0.9820923  61.7479801  28.0341387   1.9196469
  62.6363516  27.9922009   0.6948948  12.6834631  26.4337087  16.8515742
  12.8447163  27.1364045  16.2219334  13.5558712  26.1166954  17.0853174
  20.2348477  39.5393038  16.1054754  19.9147660  40.4327440  15.9807909
  19.4479329  38.9955950  16.0683286  31.7131108  54.7384965   4.5356372
  31.4769286  54.9276339   3.6275199  32.6576584  54.5854365   4.5105651
  57.7370739  15.4172027  14.4364500  58.1059170  15.3873968  15.3192282
  57.8632689  14.5322561  14.0941405  35.6180323  56.7522781  44.1735411
  34.7631729  56.9533920  43.7927532  35.7421053  57.4189007  44.8491573
   7.5987125  39.4577801  35.4386136   6.8917395  39.8364037  35.9611722
   8.3570982  40.0113100  35.6248495  27.1589458  26.8733824  53.6557822
  27.9347790  26.4138973  53.3345496  27.2077740  27.7387465  53.2495924
  63.4644032  49.6848583  10.0313926  63.7798977  48.7903690   9.9026060
  62.5141048  49.6195698   9.9370623  63.2294416  42.7759266  16.7433345
  63.1132555  43.7194872  16.6318548  63.2234478  42.6442289  17.6914120
  35.1571846  46.0172510  22.2670364  35.6020951  45.1769400  22.1567464
  35.8547926  46.6687870  22.1957827  33.5046387  12.1621943  21.1788702
  34.2534947  11.7484212  21.6081023  33.8024998  12.3273730  20.2843189
  43.6286592  19.6168506  31.3280797  43.8274288  20.5282331  31.1133575
  44.3061399  19.1116464  30.8786130  17.2048068  46.5732241  10.1544440
  17.2150373  45.6303310   9.9898797  16.6658390  46.6735792  10.9390926
  45.5335283  35.8016276   6.0696048  44.8113871  35.7192636   5.4467440
  45.1927042  35.4279041   6.8822539  49.4692993  50.1058531   0.9818429
  49.7008467  49.2972898   0.5248480  49.3615055  50.7526493   0.2845157
  46.6117382  28.4022546  40.7542562  45.8716631  28.1328607  40.2102470
  46.6357565  27.7581859  41.4619493  44.9418449  47.8505039  13.7347388
  45.7162285  47.7595472  14.2899728  45.2926970  47.9754019  12.8529584
  30.7424229   1.2492222  47.2765064  30.0652331   1.1100335  46.6144800
  30.5531901   2.1167750  47.6339674  52.7220917  17.4642396  42.8183365
  52.8840876  17.1702409  41.9219255  52.6344347  16.6558564  43.3233786
  52.9472876  49.6114540  24.2305923  52.2902536  49.0624905  23.8025975
  52.4687862  50.3983212  24.4915605  63.6341524  31.3367057  20.5988884
  64.0894747  31.7356658  19.8574424  63.7320518  30.3945255  20.4612470
   8.2843775  49.2604149  40.3790542   7.6130385  49.6302689  40.9524151
   8.2637591  49.8136318  39.5981881  32.7729702  39.3277621  20.6037712
  32.0968485  40.0050163  20.5834365  33.5182548  39.7196150  20.1485419
   6.8136566  23.1194396  32.6554990   6.6490191  22.7187724  33.5090756
   7.6463908  22.7429480  32.3708105  61.8045473  26.9568777  55.2477503
  61.6363573  26.1008954  54.8537493  62.5835609  27.2800255  54.7950315
  52.8484583  63.9100599  17.6279652  53.1057501  63.1044054  18.0762446
  52.5213242  64.4782162  18.3253992  23.8186699  27.5354648   6.6875309
  23.9566571  27.9004121   5.8134574  24.5019585  26.8716049   6.7805094
  30.4133738   9.2540825  40.6231388  31.2790192   9.4503105  40.2648243
  30.0167549   8.6644304  39.9818632  64.0690195   0.7888360   8.0767286
  63.6660015   1.1680264   7.2956884  64.4395554  -0.0409894   7.7761883
   5.4390627  25.8524585  48.2187414   5.5293185  24.9519110  48.5303450
   4.5578820  25.8900261  47.8467989   7.1996743  56.5265846  20.2128530
   7.3657614  56.0511398  21.0268545   6.9753796  57.4133539  20.4949188
   5.3701693  18.5784066   3.8104689   5.3203732  18.9621568   4.6859619
   5.9901291  17.8547525   3.9010608  66.5263033  21.3665223  30.1087952
  66.1286020  21.1838746  30.9600902  67.4682188  21.2982082  30.2648687
  43.0602407  38.6302757  12.3018956  42.3546314  38.1383443  11.8819547
  43.6679125  37.9592514  12.6128507  65.2551460  39.7932363  48.5088062
  66.2051535  39.8331547  48.6189032  65.0549269  38.8573360  48.4934235
   4.3663115  20.3344334  35.4475996   3.6057372  20.0146282  34.9623391
   5.0492377  19.6857393  35.2771732  13.5836560  23.5109329  12.2425151
  14.1913659  23.6782408  12.9628801  14.1467720  23.3797789  11.4796686
   1.3394505  33.4660769   4.9763235   1.9447523  32.9484415   4.4453850
   1.5697247  34.3751240   4.7843835   8.4664739  25.6325853  42.8409656
   7.8631366  26.3428486  42.6224729   7.9366935  25.0147808  43.3448383
  14.3390042  60.6210661   8.2921827  14.6401268  59.8242855   7.8554887
  13.8567501  61.0970831   7.6161122  24.7288817   2.1467394   5.2749151
  24.4660443   1.3245816   4.8611435  24.2757099   2.1461386   6.1180466
  31.7337251  45.3939390   9.6111542  31.9753528  45.5812073  10.5182266
  31.6561365  46.2554312   9.2012197  56.2474060  19.3568754   7.8325045
  56.2577820  20.0531912   7.1757942  56.5843439  19.7716045   8.6266738
  61.7888165  14.4202924  15.3742504  61.6801453  15.2525687  14.9141014
  62.7308178  14.3544292  15.5308795  54.1274214  13.7912345  11.2143850
  54.6304512  14.3602729  11.7969584  53.2850075  13.6814880  11.6554368
  29.8861235  14.7959084   9.1998035  29.5263165  15.6501812   8.9610893
  29.1437119  14.1956276   9.1310281  11.2182099  47.1276188   5.8106118
  10.8464819  47.9043818   6.2285721  10.4640395  46.5634298   5.6398678
  28.0467499  13.2715452  44.9990007  27.5906170  14.0370787  45.3484735
  28.1215036  13.4449900  44.0606185  12.1199566   0.7082423  14.8334515
  11.6669947   1.4389607  14.4126070  11.8257195   0.7364464  15.7438707
  26.8324590   4.6652728  17.9393768  26.9464517   5.5892617  17.7169311
  26.0447145   4.6451578  18.4827805  30.1950264  47.7159262   4.9409014
  30.3845882  47.8113174   5.8742821  30.8356667  48.2798481   4.5075375
  63.1466246  41.6110754  10.1810801  62.8403234  40.8530188   9.6833289
  64.1012526  41.5574503  10.1358962  47.5120276   8.2547755  27.9129505
  46.9062727   8.9744753  27.7359533  48.1367033   8.6165804  28.5415196
  35.5053067  33.2596564   4.6994758  35.0909758  33.8961530   4.1168654
  34.8263407  33.0420923   5.3381491  42.5490559  50.9288435  54.8513699
  42.3781527  51.8614703  54.9826384  42.2247828  50.5112856  55.6493187
  21.5953374  53.1395817  10.1956606  21.3980532  53.1845856   9.2600936
  22.5515032  53.1277752  10.2385151  65.1647568  38.1424618   8.9954436
  64.4112444  38.7317824   9.0293169  65.6352425  38.4005642   8.2028174
   0.0055367  37.7755260  34.5074177  -0.1794332  37.0220113  33.9468551
   0.9332663  37.9606104  34.3614864   0.6774366  54.0068095  41.1640167
   1.5757359  54.3154638  41.0455942   0.2290929  54.2591994  40.3568506
  34.8291195  13.8499773  32.9335472  34.9517382  13.8063038  31.9852373
  35.5562151  13.3415020  33.2927367  28.2518053  62.9173374  25.3488445
  28.6494780  63.7673044  25.5376601  28.3545184  62.8096008  24.4032907
  37.0558667  13.5602152  20.1280212  36.7229676  14.4506383  20.2400899
  37.9307199  13.5810041  20.5158734   3.2475430  25.5042243  23.1293869
   3.0891138  26.4419365  23.0206251   4.0589053  25.4554486  23.6349010
  20.5824542  60.4811478  12.0045602  19.9583125  60.4033899  11.2830114
  20.0413847  60.4508924  12.7935839  17.2701413  54.5679140  31.1849117
  16.4823395  54.4546413  30.6531501  17.8782708  53.9058495  30.8561420
   8.0043227  39.2757082  12.0505178   7.4188477  39.3238997  11.2947857
   8.8822419  39.3635845  11.6793489  63.2169056  60.3834915   8.9573532
  63.1803751  59.9042416   9.7851318  62.4371004  60.9385014   8.9673096
  14.7421891  50.2435350  22.0459986  15.3595024  50.3153896  22.7740026
  14.7376496  51.1144924  21.6489625  21.9385201  48.8940954  22.8767347
  22.0091111  48.2650280  23.5947347  22.2163254  49.7263765  23.2593131
   7.3305386  16.4991278  30.0661469   6.4252346  16.7799849  30.1994896
   7.7963990  17.2994608  29.8239326  36.8431878  42.3647928  26.2716246
  36.3851452  43.2028770  26.2079811  36.9426227  42.2170019  27.2121048
  63.7812101   3.1660838  14.7987378  64.7266066   3.2044644  14.9435937
  63.4910118   4.0755171  14.8690617  50.1033115  41.2450457  53.1560564
  49.8332644  42.1632338  53.1714106  49.9081230  40.9528446  52.2656918
  11.9394452  40.0413418   7.5029451  11.6032463  39.4421387   6.8364954
  11.1916500  40.5957985   7.7256739  65.2402496  38.7943888  29.8328328
  66.1877060  38.6930346  29.9238515  65.0007677  39.4263864  30.5106664
  48.0916166  53.0040741  19.0726590  47.1871281  53.3169270  19.0566874
  48.6181831  53.7982559  19.1633987  30.3683126  19.7192562  42.8293857
  30.4672087  18.7998140  42.5822517  31.1131514  19.8941076  43.4046039
  66.8299627  46.5297318  43.2494450  66.1766386  47.1595192  42.9448605
  67.6687479  46.9709396  43.1152725  43.4238911  22.2682595  26.7460847
  43.2765913  22.7653241  27.5507331  43.5520554  21.3668418  27.0414686
  61.4383621  51.4998978  51.7919746  62.3493571  51.2884027  51.9959071
  61.1111636  50.7284385  51.3293480  61.3986814   4.4794602  37.6045132
  61.6500103   3.5570521  37.5573397  60.8798134   4.5456309  38.4061551
   6.9928795  48.5054302  43.9292479   7.9200274  48.3543348  43.7454033
   6.8905646  48.2722378  44.8519516  65.7303083  11.8860043  49.5542183
  65.3341997  11.2103022  49.0039888  65.3867949  11.7129267  50.4307291
  40.3277826  31.8059802  25.1263738  40.9849024  32.5015759  25.1025462
  40.7495546  31.0631514  24.6944666   3.7347466  41.7204237  28.2750273
   3.5939223  42.6069736  28.6073351   3.6106974  41.1560774  29.0381503
  53.9026451  57.2832298  28.3972120  54.0701294  56.5637732  29.0059519
  52.9600859  57.2451115  28.2348680  56.2941403  50.2362102  52.4057039
  57.1279854  50.4475063  52.8255692  56.4800281  50.2812940  51.4678099
  13.9476323  44.5155287  35.6055832  13.7450588  45.2612495  35.0407028
  13.3879316  44.6370077  36.3725328  52.9572344  44.1888714  14.1014862
  53.4061050  43.4304237  14.4749892  52.2755527  43.8133049  13.5442686
  46.1354446  44.4723701   0.7925671  45.6037807  44.1362762   0.0710341
  46.8705654  43.8622904   0.8528119  18.9921797  18.7224615  41.4121458
  18.1417263  18.7517059  41.8504461  19.0337837  19.5395554  40.9152922
  39.4206834  59.4035101  53.0359650  39.5435858  60.2604437  53.4443712
  38.4716344  59.3128490  52.9504299   2.8511780  48.2739634   5.5195463
   1.9335097  48.1827445   5.2630335   3.2857722  47.5163168   5.1279664
  59.7938347  16.9711292  18.4659982  59.3515968  16.2443221  18.0273521
  59.4323826  17.7555418  18.0533469  46.7330408  34.6427417  26.0436511
  47.5664759  34.1731024  26.0761166  46.5020466  34.7844386  26.9616890
  10.1993823  13.2012641  14.6825874   9.8291796  12.3443806  14.8945570
   9.9572653  13.3471966  13.7680852  25.1745444   3.0742318  13.1891969
  25.6527787   2.8853113  13.9965585  25.5291968   2.4558026  12.5504497
  25.9735334  20.9614742  51.9891828  26.8505753  21.2539757  51.7412409
  25.4267490  21.1766708  51.2335726  66.3501263  17.2339976  37.3282504
  67.3049164  17.1735847  37.2972059  66.0597897  16.3421333  37.5193381
  65.2698278  44.6521997  11.3222814  65.4807425  44.6228313  12.2554922
  66.0138607  44.2277575  10.8950937  52.5321722  31.2239313  16.4941633
  53.4054422  30.8981109  16.7120278  52.3517704  30.8635163  15.6259525
  63.2379455  47.7295226  53.3393436  63.6662168  47.0160287  53.8123595
  62.4477739  47.3331755  52.9722386  26.8846488  61.1655235   7.9208577
  26.9275522  61.7223072   7.1434349  26.4973855  60.3477192   7.6086813
   5.4255539  37.2093534  30.0558114   4.9548966  38.0362725  30.1602817
   5.3298622  36.9948721  29.1278696  24.0373886  19.0505064  13.8267228
  24.5124758  18.6047686  13.1254097  23.1751431  18.6349190  13.8336607
   7.8055912  17.1414793  53.3975363   7.7529007  16.9967008  52.4528170
   7.0711333  17.7237201  53.5919523   0.7560162  60.5370951  30.2023077
   1.2680571  60.5966616  31.0088420   1.3895565  60.7009792  29.5037389
  44.8401260  38.8853145   2.1303801  44.9818516  39.8149252   2.3091811
  45.1833820  38.4376264   2.9036751  40.4111624   3.8604298  10.7237351
  40.8146334   3.1276715  11.1890411  39.5979238   3.5006323  10.3695846
  60.6263304  21.6461658  20.5377078  61.4008188  21.8637538  21.0564113
  60.3038168  22.4906683  20.2230120  56.5788937  38.4909534  12.3208082
  56.8036318  38.1434727  13.1839311  57.0536375  39.3202806  12.2654510
  31.1576366  29.5640945  22.4911523  31.7714143  30.0642681  21.9532537
  31.1647320  28.6863828  22.1093082  67.5106430  51.2436342  49.1522503
  66.7292356  51.0814476  48.6237383  68.1996918  51.4225292  48.5123777
   7.3620087  39.4529247  20.3618383   7.9479796  38.7773228  20.0206208
   7.4770457  39.4125366  21.3112426  21.9899678  23.7053394  12.0170891
  21.2060618  23.1581903  11.9686139  22.6422095  23.2359529  11.4970028
  10.2665860  37.0833516  18.4840941   9.4158131  37.4365640  18.2239842
  10.5157191  36.5040517  17.7639711  37.0552158  57.0145702  29.4271064
  36.3251710  56.8284988  28.8366485  37.3498654  56.1531067  29.7225547
  66.2842512  27.3691607   7.9848123  67.2414446  27.3723912   7.9861116
  66.0419130  27.9017973   8.7423074  19.8977345   0.0826783  26.9148207
  19.3259972   0.6384511  26.3852334  19.7756832   0.3979344  27.8103352
  19.3404633  55.6085491  26.4243269  19.8845250  56.1333990  27.0114923
  18.4511906  55.9318638  26.5688658  56.6836071  42.4890709  16.3394082
  56.9552135  43.4065628  16.3136184  56.1876440  42.4089146  17.1541619
  10.1273125   3.3841938  51.7772913  10.0286263   3.8870139  50.9687948
  10.4915827   2.5453419  51.4946890  27.4934262   0.7110352  10.0849557
  27.9665869   1.3655467  10.5987310  26.6442030   0.6334013  10.5197203
  62.9386663  44.8000002  30.0699258  62.6591444  44.0117884  30.5355716
  63.0649519  45.4528379  30.7584620   6.0757042  56.3081902  37.0768568
   6.0943438  55.6421536  36.3896319   6.9776131  56.6246503  37.1282240
  37.2419680  63.6228318  23.2857800  36.4073504  64.0826477  23.3764124
  37.5384272  63.8367146  22.4011350   9.3356806  60.9890223  40.2833033
   8.6269385  60.5716991  39.7936535  10.1356942  60.6295395  39.8999214
  33.9678896  -0.0058853  46.9025513  34.0366018   0.4614151  46.0700014
  34.4474400   0.5412257  47.5245902  11.1180092  63.4646195  54.9203038
  11.6131283  62.9558581  54.2782367  10.7673956  64.2028755  54.4220243
  13.7715680  40.8938360  38.6471581  12.8671605  40.8153677  38.3436275
  13.9066368  41.8351078  38.7566710  10.7999998  26.9055295  30.4565215
  10.8106762  27.8587484  30.3699732  11.6077811  26.6986418  30.9265399
   0.0210625  12.9230988  13.1527591   0.8635861  12.5301039  13.3806586
  -0.5745643  12.1788955  13.0654502  56.2115479  30.6585670  14.2080033
  56.7766047  31.1389351  14.8131394  56.7620945  30.4995489  13.4412932
   5.8345610  11.4802742  24.1978550   5.1715046  10.8310342  23.9631796
   6.6443211  10.9765744  24.2803717  39.3450284  50.7319164  34.8470187
  39.7707009  50.1885891  35.5102158  39.8001504  50.5167150  34.0329027
  54.0017951  22.7991570  53.7517030  54.3556261  23.2462156  54.5205817
  54.6277994  22.0972956  53.5735364  45.9777784   9.3583518   6.6729742
  45.7880402   9.6848255   5.7934034  45.2271891   9.6354461   7.1983927
  65.4708672  53.1212902  32.8691030  65.4745293  53.0664587  33.8247228
  64.6116543  52.7858496  32.6132393  41.9428825  31.7725658   3.6717296
  41.6981649  31.1094785   3.0262387  41.1136675  32.1787381   3.9240289
  55.2145898   8.2679362  28.8191915  54.6719038   7.5031752  28.6271811
  55.7072675   8.4205575  28.0128384  12.9773194   5.1441991  16.9469690
  12.0669419   5.3451335  16.7300177  13.3975369   4.9930140  16.1003351
   0.6479174  25.0792789  11.9816577  -0.2036852  24.9303365  11.5707767
   0.4381901  25.3631496  12.8714132  40.6964445  23.9663124  26.9494104
  40.1306915  24.4127750  26.3194680  41.1586618  24.6734738  27.3994231
  27.1503067  52.5939989   1.3330102  27.7793622  52.0141983   0.9036438
  27.6868463  53.2883501   1.7154104  25.2885777  25.4702568  13.4024978
  26.1260563  25.5418396  13.8604760  25.0979096  24.5322537  13.3971846
  61.3551235  38.9804029  36.7746902  61.4353132  38.2680345  37.4089885
  60.4126215  39.0713429  36.6345334  51.1346222  46.4975506  51.9141483
  51.0612179  47.2974342  52.4347528  50.3645111  46.5101605  51.3458144
  56.1147356  42.9396248  31.0646296  56.6396618  43.7375069  31.1283612
  56.3634109  42.5558519  30.2237320   7.9731995  41.8059254  13.4579217
   7.8546912  40.9073830  13.1500030   7.4095541  41.8712378  14.2288077
  34.4003582  59.2842340  18.5806406  33.6945915  59.1004896  17.9606700
  34.7546816  58.4230995  18.8022912  36.3866782  20.9596348  11.4217317
  37.2106266  20.8703542  10.9428084  35.7172990  20.6665587  10.8034515
  66.3199491  62.3144740  46.8938508  66.0453148  61.4093917  47.0409408
  65.8842725  62.5677222  46.0800430  18.5362606  40.3058344   9.3244175
  18.8449221  41.2070090   9.2303613  17.9486494  40.3315073  10.0795845
  23.4038712  60.8430284  40.1246985  22.9728914  60.7774514  39.2725321
  23.1899525  60.0205797  40.5652102  16.6902173  27.3702979   3.5109299
  16.8476844  28.0782866   2.8862816  15.7462728  27.2177315   3.4670728
  42.6217842  57.7484131  48.9190340  42.9446697  57.2783709  49.6878242
  41.7474318  58.0462313  49.1701365  37.0941984   4.7574086  41.1757421
  37.8779935   5.1855273  40.8313417  36.6706418   4.3779463  40.4057789
   5.5206793  29.2426867  11.3777840   5.7193154  28.3169455  11.5184212
   5.3216379  29.5802969  12.2510731   2.1457773  16.0326153   3.9345411
   2.6895552  15.8393008   4.6981958   2.4618988  16.8810660   3.6240057
  57.6922035  35.6730175   8.5114437  57.8877068  35.7945609   9.4405496
  58.3949518  36.1367869   8.0561495  45.8868408  30.5107021   9.4018435
  46.6516638  30.2036262   8.9150363  46.2503099  30.9079790  10.1932323
  48.7997580  46.6525412  12.4257267  48.8844204  45.7011223  12.4878454
  48.3762217  46.9092989  13.2448268  39.7152162  28.4704781   5.9175611
  40.1213264  27.8055191   5.3615636  40.4390478  29.0407634   6.1765552
  16.4633204  48.0813342  48.6342689  16.6745258  47.3688036  49.2375281
  15.8507992  48.6332279  49.1205445  57.1645546  38.2704163  29.7295022
  56.8335247  37.3840427  29.5846152  56.7757320  38.5381699  30.5621839
   3.5319668  23.2340407   4.2162776   2.8723532  23.3763242   4.8951739
   4.3685824  23.3351851   4.6702343  32.7823091  41.9004488   2.6371691
  33.5379076  41.3154936   2.6930964  32.4436474  41.7702341   1.7514019
  64.7135496  29.6876287  44.4796085  64.6726036  29.3355203  45.3687525
  64.9215603  30.6143785  44.5983410   1.0385186  34.9099898  12.7581275
   0.4995352  34.7920465  13.5403156   1.7973668  34.3447614  12.9026973
   4.7656668  12.2490538  48.1263163   5.5841005  12.6215971  47.7982798
   4.7648776  12.4579275  49.0604487  60.6780375  18.1064356  34.8540350
  61.5552652  18.1416882  34.4726416  60.7835424  18.4734905  35.7317420
   1.2801367  23.1699944  37.5396299   2.2142702  22.9626894  37.5652647
   1.1983353  23.9712644  38.0568385  51.3818169  26.6918063  28.5851645
  51.0643578  27.2751236  29.2745066  52.2251081  27.0634866  28.3264303
  16.2996632  27.0553613  15.1115525  16.7265850  26.3672471  14.6011949
  16.5533501  27.8690434  14.6758926  25.2557141  42.7532244   1.2276271
  25.0247246  41.8430710   1.4133625  25.4747158  43.1239891   2.0824975
  56.6703499  33.9594162  55.6044375  56.0265339  34.4336451  56.1305951
  56.2693728  33.8931406  54.7378029  57.0514679  33.8228464  23.8580275
  57.9844427  33.8720798  23.6497831  56.8926382  32.8943157  24.0278435
   5.5017085   9.6604384  44.3648728   5.3390021   9.7711027  45.3016302
   4.7294993  10.0357140  43.9416799   1.8188673  44.9135494  46.2445831
   2.2506482  45.7016706  45.9149313   2.1403939  44.8216534  47.1414709
  24.6400469   6.4850516  36.2345243  24.8281735   5.9931893  35.4352045
  23.6968249   6.3833947  36.3619065  40.0951576  22.5733185  29.9519563
  40.6777716  23.1614733  30.4324436  40.5723143  21.7445540  29.9107099
  34.1143816  16.8846793  39.4247389  34.3247717  16.8126006  38.4937334
  33.2928055  17.3753256  39.4473433  25.0054711  12.7112956  27.6996970
  25.3043955  12.0868678  28.3607292  25.3685635  12.3819346  26.8775558
  10.1788777  21.9324679   8.8618863  10.4660910  22.7487082   8.4526229
  10.9904784  21.4647479   9.0588003  15.3245514   6.7279191  26.7607546
  15.6577986   5.8307166  26.7462921  15.6902235   7.1319575  25.9738207
  65.8724076  63.0002689  40.7624102  65.5684143  63.4678602  41.5403461
  65.1008755  62.5273085  40.4505014  25.1420086   7.5149102  31.1912537
  24.6259755   6.7455859  31.4322495  25.6751269   7.2236008  30.4515529
  24.8721081  39.0487766  17.9924500  23.9281136  38.9136600  18.0752981
  24.9673802  39.9898291  17.8455579  31.0208004  13.7340493  30.1029086
  30.7410210  13.3952231  30.9532905  30.2353066  14.1405196  29.7368336
  53.4043014   0.8231492  51.9367933  54.3325126   0.6628079  52.1069288
  52.9525125   0.1011843  52.3737001  49.7983932  44.3407345  31.5870285
  49.5265198  43.5649967  31.0965729  50.2459812  43.9920092  32.3579288
  47.9888344  61.9523525  23.2921100  48.1119728  61.0222816  23.4819388
  47.0491886  62.0971203  23.4032202  53.4477091  63.5924959  12.0770752
  54.1180182  63.4899664  11.4014995  53.9293957  63.8885784  12.8494334
   5.6147307   3.2781834  15.7745051   4.8517435   3.1978793  16.3468981
   5.2476471   3.4702439  14.9116063  36.4584279  20.5155873  25.3184414
  36.5780878  21.3643551  24.8924041  35.6696343  20.6234288  25.8498597
  56.2533236  43.3676577  24.7734904  56.4699507  43.0418825  23.8998914
  56.7239904  44.1982555  24.8428941  18.3688038   1.6120619  25.1791215
  17.4609154   1.9128651  25.1405597  18.7997597   2.0570797  24.4494200
   8.1064862  10.0863070  24.8087573   8.7824791   9.6074337  24.3292356
   8.1429880   9.7283787  25.6957674   8.4255761  21.6317458   5.5243200
   8.9261454  22.3390669   5.9309596   8.2737463  21.0072608   6.2336832
  48.8905287  54.5940590  15.5679762  48.0106401  54.6752453  15.9359825
  48.8087988  54.9301004  14.6754372   0.5745989  29.4811463  17.3576522
   0.6147868  29.3745637  18.3080506  -0.2818721  29.8772502  17.1970630
  20.5279606  10.1313586  27.4210787  20.1524466   9.9219651  28.2762837
  21.3203734  10.6289763  27.6227856  56.5862417  42.4221373  40.1223803
  56.2325144  43.3100462  40.1746559  56.3408089  42.0171833  40.9542513
  12.7927769  15.0337542  42.4449715  13.2152927  14.3819988  43.0043694
  12.5098956  15.7204378  43.0488535  45.1084518  11.2455833  23.3131671
  44.2805099  10.9388113  23.6828089  44.8652554  11.6401267  22.4756575
  67.1924324  55.7707351  34.7575232  66.8447179  55.8117717  33.8666555
  68.0075855  56.2710661  34.7197553  18.3071135  13.7454225   2.5966981
  19.0049933  13.8941098   3.2347301  18.5194586  14.3297959   1.8689302
  60.9155226  56.5351439   0.6326238  60.1860619  57.1176910   0.8441856
  60.5226898  55.8426952   0.1011873  59.9829102  56.8238688  27.1923590
  59.1215515  57.0524549  26.8430257  59.9551821  55.8725357  27.2945046
  16.7062491   9.3837733  27.9512453  17.3192042   9.2359347  27.2310638
  16.2687224   8.5407776  28.0702496  12.4027079  12.8198046  16.1399460
  12.7787178  13.6388487  15.8174300  11.5873926  12.7206177  15.6483591
  41.7389441  48.7622452  17.6710093  41.2122154  49.3538284  18.2084274
  42.6034880  48.7713289  18.0817592  65.8691406  30.2139115  31.0770178
  66.2889433  29.9282169  31.8884206  66.4348698  29.8759556  30.3827786
  27.7474678  39.5278013  46.9736483  27.8143347  40.3120888  47.5183102
  26.9988621  39.6966255  46.4015331  39.8323649  12.5131363  38.0517817
  40.1304167  12.4465985  38.9589596  39.5026797  11.6390318  37.8432679
  27.9514712  41.6937441  48.8457108  27.7780121  41.0613436  49.5429993
  28.7640398  42.1250243  49.1102123   0.5867821  41.1457300  49.6600246
   1.3216454  41.4330578  49.1181326  -0.1528495  41.6742754  49.3603325
  20.6950301  13.8893742  24.9960542  21.3133114  14.5748229  24.7428393
  21.1097782  13.4564538  25.7422423  13.4398907   8.9789767  11.4432812
  12.8113478   8.3436198  11.1005187  12.9140395   9.7545189  11.6388524
  50.8317852  29.8156714  26.8820620  49.9756050  30.1809168  27.1051788
  51.2295294  29.6043873  27.7266836  16.2273365  32.8131604  19.0068603
  16.1601883  33.0865335  18.0919898  17.1587616  32.8924346  19.2127728
  29.6833639  42.3323780   6.1854986  28.9494305  42.6930958   5.6880525
  30.3717737  42.1989590   5.5339483   3.7268597  48.6737251  15.8138406
   3.3895451  48.8314199  14.9320340   4.4511515  48.0608749  15.6871736
   8.2313562  61.9248074  53.1317585   7.6558996  61.5066522  52.4912697
   7.6498390  62.4835318  53.6474090  65.0665628   2.2898192  38.3869886
  65.1906645   2.3561663  39.3337870  64.4074070   2.9537720  38.1847215
  24.1286839  46.1920918  49.9336662  23.9333332  46.9004429  49.3202266
  24.3563259  46.6378153  50.7495930   1.8284547  27.1621615   6.5401033
   2.6967942  27.4614912   6.8095974   1.5893685  26.5030962   7.1917919
   5.4502314  29.7924895   8.5880256   6.2691706  30.0539393   8.1670570
   5.6819933  29.6724791   9.5089579   7.4389845  39.8577309  49.7221041
   6.8016344  39.7625923  50.4298925   7.1453339  39.2416525  49.0509510
   7.2618109  15.0888205  22.3969126   6.4260441  15.5554247  22.3982048
   7.8750140  15.6969738  21.9841576   9.7596699  33.6636996  18.6685872
  10.2394349  33.6243939  19.4959402   8.8976771  33.3018279  18.8741457
  66.2470961  27.9273820  27.4548268  66.9901371  27.3446059  27.2983360
  66.5326643  28.4920144  28.1730676  21.2726944   3.4913535  52.0103025
  21.5457409   4.0971179  51.3213015  20.3626078   3.7274022  52.1899176
  24.5682705  38.4627998  50.8460712  24.6901215  39.4096792  50.7767763
  25.2132166  38.1852949  51.4966637  27.1870732  51.4431286  17.1062541
  27.2568989  52.0255709  16.3498676  26.8946671  52.0107031  17.8194106
  15.3801125  24.4676489  23.3560395  16.2013882  24.7148222  23.7810588
  15.0625819  23.7212557  23.8642669   6.0616404  57.6035786  33.8834882
   5.2778155  57.1742249  33.5406971   5.7674271  58.0335522  34.6864796
  41.3372707  47.8561783   7.2015476  40.6248045  47.2902679   6.9042844
  41.2188864  47.9122639   8.1497413  24.8117405  21.6171098  49.5132589
  25.5047947  21.7150736  48.8603306  24.0329796  21.9813371  49.0924215
  43.0704021  13.5675836  25.7181621  43.0693722  13.9727199  26.5853977
  43.7535334  12.8988695  25.7670116  58.5126448  55.4263020  51.5032053
  58.8968468  54.7301292  52.0360947  57.6498079  55.5754042  51.8898678
  10.4214590   6.2697548  22.2407293   9.8814648   5.5262322  22.5087070
  11.2211912   5.8728690  21.8955564  56.2837237  24.2071337  17.1712649
  55.7293909  24.3343157  16.4013541  57.1779078  24.2726130  16.8360400
  15.0131863  20.9681029  17.9546416  15.7731360  20.9970564  18.5359037
  14.3858212  21.5731520  18.3503163  50.3666210  13.1459582  43.9888477
  50.9364891  13.9043832  43.8612938  50.9024286  12.3971009  43.7274075
  55.1672150  48.2918638  46.4152214  55.9739185  48.6640376  46.0589256
  54.4837833  48.5762924  45.8083865   3.8137394  47.2353411  23.3561754
   3.5848814  48.0084467  23.8720918   4.6139676  47.4843121  22.8937006
  39.6675575  34.9400318  55.6299689  39.2277515  34.0917337  55.5734710
  40.0654305  35.0614298  54.7678827  22.5677460  23.6256976  43.3288336
  21.8509596  24.1515536  42.9739714  23.0876368  24.2444796  43.8417244
  28.0089360  19.2826802   0.0551847  27.3356276  19.9530751   0.1711610
  28.8360100  19.7542101   0.1543668  55.1579666  30.6452942  27.4538374
  54.3628216  30.7901478  26.9410086  55.6240034  29.9543095  26.9831133
   3.8422102  18.8791407  24.0368101   4.2515082  18.5426558  24.8339864
   3.4173865  18.1159866  23.6452147  65.6868124  62.4474096  44.1755581
  65.3481817  61.7133284  43.6630297  65.1630688  63.1976461  43.8943720
  15.1807553  43.5249949  38.9838982  15.6358773  43.6515141  38.1513786
  15.8807141  43.4817934  39.6353698  66.2936914  44.1666830  34.2610809
  66.4147413  45.0561035  33.9286515  66.2217558  44.2732323  35.2096077
  53.9326531  31.7555070  13.2086349  54.3740517  32.5413179  12.8863013
  54.6319252  31.2309146  13.5985744  31.4517182  17.6333518  47.8048515
  30.9715050  17.0894141  47.1805429  32.3459738  17.2928137  47.7809143
  65.5449390  35.3637290   5.8132136  65.8169842  35.3988862   6.7302668
  66.0217381  34.6172333   5.4503912  10.5649573  54.6337414  14.5456600
  11.3125664  55.2159023  14.4100165   9.8171431  55.2231359  14.6437693
  57.6670372   5.5021138   4.1115746  57.6811182   4.9784655   3.3104363
  58.5844910   5.7262606   4.2673615  60.3283584  19.9219603   5.3118372
  60.2843201  19.3789095   4.5248294  60.8567202  20.6768794   5.0526679
  44.1570950  62.2050619  41.1651087  44.2889452  62.6709175  40.3393841
  43.8315344  62.8735447  41.7679119  20.4503906  61.6686853   8.9762777
  19.7579754  61.1110791   9.3310577  20.1564873  61.8811830   8.0904466
  10.3312862  53.0806642   7.1209276   9.5817364  52.9025679   6.5528703
  10.4034532  54.0350955   7.1300614  21.2041164   6.1376232  33.2605144
  21.6462542   6.0904807  34.1081711  20.4467894   5.5595678  33.3529231
  32.1312380  14.1656208   1.1623686  31.2431955  14.4761801   1.3389069
  32.2515154  13.4299803   1.7628673  49.7575087  48.7537676  36.7686841
  49.9790973  49.0979975  35.9034463  49.2458005  49.4504624  37.1797797
  22.4816072  62.3272028  12.8479207  22.0159185  62.9727741  12.3163140
  22.0204247  61.5045657  12.6841855   2.0480693   0.2928484  29.8079416
   2.7667320  -0.2785217  30.0786659   2.3054827   1.1626638  30.1135394
  50.2127380  41.6414469  41.4178928  49.3748231  42.0434677  41.6470441
  49.9792475  40.7762372  41.0815510  12.0614064  19.9493492  16.9598782
  11.7245531  20.1838493  17.8246164  12.0980680  18.9928901  16.9684112
  67.3963136  23.9392882  26.7717549  66.6646928  23.7433058  27.3570320
  67.7836961  24.7372585  27.1314904  43.7728453   3.8997623  39.5069647
  44.6666288   4.2213699  39.3888330  43.8683987   2.9506996  39.5868492
  26.8130672  52.4502354   6.2041694  26.5286243  53.2655852   5.7912147
  27.2877062  52.7309101   6.9865841  22.1146917   5.8645350  39.3257976
  22.8575706   5.2704793  39.4328666  21.6698098   5.8468467  40.1731443
  15.1660895   5.9605515   4.4625494  14.3049705   5.8146936   4.0708467
  15.0795770   5.6360018   5.3588837  51.0239161  55.5211144  26.6827059
  51.0870445  56.4031475  27.0491266  51.5372456  54.9765294  27.2794914
  55.8619899  60.9793943  29.7634384  55.2758379  60.3367752  30.1630589
  56.7200918  60.5552643  29.7663471  61.6364056  58.6403709  12.7750242
  61.0036511  58.4981834  12.0710099  62.2889823  59.2287552  12.3953140
  59.8860491  30.0641518   9.3101674  59.9990309  29.1141563   9.2789918
  59.1933382  30.2439552   8.6745113   8.3160669  39.7440219  22.9919648
   9.0570867  40.3317213  23.1393886   7.6325005  40.0688076  23.5780406
  41.5255810  53.0241388  37.6204618  40.6347633  53.3187073  37.4309560
  41.4654614  52.6213282  38.4866950   0.8270289  28.6880457  40.0838813
   0.3121592  29.0012994  39.3402335   0.3850962  27.8850904  40.3599116
  46.1340988  64.0714792   5.6300753  45.6218946  64.8710753   5.5095589
  45.4812372  63.3726484   5.6705487   2.4040181  11.9816029  14.2357767
   2.6097638  12.1843112  13.3231926   2.6585919  12.7676809  14.7190011
  10.7097042  49.7458320  14.9583161   9.8197544  49.7224634  14.6066380
  11.2733901  49.7293036  14.1848707  29.9106682  50.1016455   8.6637610
  30.1702631  51.0098582   8.5088670  29.1909302  49.9504500   8.0511045
  47.4376316  36.1340639  35.3757664  47.6374192  37.0693290  35.3358289
  47.9131550  35.8201977  36.1449203   7.4272972  32.2601151  12.9625499
   7.6165682  32.4973392  12.0547318   6.8140274  32.9310298  13.2625484
  59.6348858   8.7533689  50.1088905  60.2286100   9.4616389  49.8597383
  59.0246916   8.6829430  49.3747663  24.2118538  47.7186935   9.0991682
  25.0368345  47.2911435   9.3290305  23.5405434  47.1942657   9.5356888
  23.8661802  50.5666523   3.5987014  24.3998659  51.3063102   3.3083296
  23.4868229  50.8561593   4.4284636  36.1367483  60.2536100  46.9479850
  35.6039841  60.5372590  47.6909104  35.8491344  59.3570965  46.7754283
  57.8412814  59.5705288  53.2515719  57.5951523  60.4917139  53.3356531
  58.2114381  59.5008725  52.3715916  60.1823407  57.5392062   3.5635999
  59.4089203  57.0951182   3.2159809  60.4706936  58.1104762   2.8517488
  49.0824127  43.5088730  16.1615610  49.7295666  44.1534901  15.8753848
  49.2894411  42.7217293  15.6577992   0.4942490  26.0772878  49.2347344
   0.0036932  26.4434987  49.9705818   1.0742975  26.7862719  48.9570257
  65.5034065  19.5499039  24.6887779  66.1280155  19.0017426  24.2137933
  65.9036922  19.6792269  25.5485892  14.2654241  62.7396061   1.5587877
  14.1600621  63.6814734   1.4245608  14.5717562  62.6591914   2.4620733
  57.6932902  60.1742452  42.3391410  57.2495265  59.4330615  41.9268855
  57.5791139  60.0294846  43.2784173  35.7484603   3.4527132   5.6168038
  34.9363637   3.9592984   5.6066471  35.6532955   2.8625822   6.3644141
  18.5180498  14.4753772  40.3954860  18.9018656  13.9066499  41.0629209
  18.2879044  13.8830763  39.6796342  23.7995028  15.7743347  35.8207560
  24.1887832  16.1919832  36.5890408  24.5094538  15.2530146  35.4460216
  33.4338797  46.7703288   7.4663490  33.9714563  46.7884892   8.2581264
  33.2804287  45.8398550   7.3023224   1.2305952  58.5864204  43.1300434
   2.1064306  58.2484501  42.9431793   1.3848473  59.3889087  43.6284920
  59.4218750  47.4307769  26.0843131  59.3813319  47.4381882  27.0406243
  58.5154099  47.5596851  25.8051487  48.4620190   5.8701491  32.1284008
  48.7190723   5.2404946  32.8019667  48.1035137   5.3325033  31.4222550
  48.5135317  30.7357597  28.6258292  47.5907326  30.8765364  28.8376284
  48.9507055  31.5363264  28.9160109  47.3455782  47.0660645  26.9985577
  48.0490250  46.8281537  27.6025363  46.6782136  46.3927835  27.1310350
  44.2519922  48.1624275   4.0769192  43.5427422  48.7363416   4.3664357
  44.9847502  48.3773595   4.6540734   7.8239256  19.9726570   7.4241161
   7.5506598  20.6174779   8.0766201   8.7444168  19.8037815   7.6251471
  28.1147164  35.5824220   4.4854406  27.3506039  36.0160082   4.1054824
  28.0053776  35.6890356   5.4303793  62.4302811  39.3705904   8.4341094
  62.0125408  38.7502545   9.0315243  62.2424192  39.0259212   7.5611016
  37.2938926   6.4153207  55.3235953  37.4920137   7.0368100  56.0241168
  36.4779790   5.9969133  55.5982774  23.7056768  42.1669846  13.3201623
  23.8613260  41.3661247  13.8207924  23.6366261  41.8721920  12.4121082
  45.8009089   5.4574693  49.2057976  45.3325260   4.9436749  49.8637214
  46.6133154   5.7184637  49.6395167  10.3487975  14.6483707   6.5839493
  10.2169711  14.5905328   7.5302625  10.5434138  15.5720413   6.4252460
  45.8937878  31.9844222  21.8080112  46.1888952  31.3971625  22.5039050
  45.3567643  31.4319226  21.2400481  40.5114317   9.4113785  24.0110469
  39.6315122   9.6629256  23.7305260  40.5567503   8.4702682  23.8422585
   5.6510103  63.9065879   5.1821327   4.9303830  64.3782330   5.5998397
   5.4272235  62.9822876   5.2908570  19.0536572  52.9461950  42.6063165
  19.9807335  52.7200812  42.6813766  18.6371161  52.1460217  42.2862455
  39.2878199   3.4895062  32.0944953  39.9188280   4.1759706  32.3108959
  38.8953733   3.2514822  32.9344749  48.8791162   0.4050804   9.4038719
  49.2070716   0.4350826  10.3026366  49.4373113   1.0174596   8.9246625
  34.2646761   6.8812030  48.3549955  34.3371732   7.0611399  47.4176600
  34.8252530   7.5374454  48.7689182  45.6644005  55.2419227  42.8336474
  45.1319093  54.6112007  42.3490068  45.0459904  55.9216446  43.1015595
  59.0047497   3.6368740  54.5729712  59.0498919   4.5647467  54.3422167
  58.2216067   3.3165825  54.1253881   9.2593742  58.3121532  47.5961968
   9.9689270  58.0249947  47.0214757   9.3957449  59.2546767  47.6925405
  63.2245642   6.2406052  25.3302022  63.5081584   5.4729450  24.8337099
  63.8098747   6.2659061  26.0871717  39.6834124  46.7379373  17.6004863
  39.3260372  46.7156749  18.4881926  40.3635061  47.4107306  17.6328909
   0.3542877  53.7028116  29.6140691   0.5074478  54.0533584  28.7366339
   0.0370861  54.4515127  30.1191017   4.6395171  54.5059841  23.4497428
   5.0753987  53.9398997  22.8127289   4.4548333  55.3117668  22.9672074
  18.3551175   3.8590720  19.8375642  17.5252301   3.5987562  20.2372479
  18.1524331   3.9575940  18.9072728  12.3012091  40.4897076  43.2668766
  11.3530899  40.3585744  43.2768938  12.5930382  40.1939052  44.1291818
  59.2270136  39.2017388   7.8734136  58.4094715  39.6225905   7.6074451
  59.3315363  39.4418693   8.7940896  54.8141252  54.9830234   3.4271768
  53.8972985  54.7117674   3.3815816  55.0127065  55.3048121   2.5478271
  19.7323251  21.2949014  21.0305858  19.1579616  22.0338154  21.2314439
  20.1266837  21.5202117  20.1880002  49.9724674   3.7872794  33.5209942
  49.3197870   3.2051107  33.1319928  50.7488585   3.2380608  33.6296391
  21.6862035  19.1186905  32.7522993  21.7152548  18.3388972  33.3066559
  21.2801409  18.8192809  31.9388509   1.6638774  18.6638618  26.1557460
   2.1588781  18.0931425  25.5679655   1.1509579  19.2223322  25.5715752
  24.8927093  14.6084213  15.7996941  25.5571198  14.4178987  16.4618802
  24.2657876  13.8890827  15.8755362  10.0965918   7.7563894  19.5948979
  10.2288211   7.2512544  20.3971359   9.2293609   8.1480253  19.6986577
  65.0642008  42.7626925  32.1812963  65.6141764  42.6074820  31.4133978
  65.6164843  43.2749968  32.7718544  41.5576971  58.8662594  25.2476025
  42.2183502  59.0309893  24.5748258  41.9857014  59.1100156  26.0683489
  37.1037602  26.5674758  16.3195431  37.8653479  26.4227676  16.8810344
  37.0351958  27.5196552  16.2496281   6.1808230  31.5426884  48.8207098
   5.4018522  32.0837645  48.9498415   6.7262007  32.0480164  48.2178524
  26.0679865   9.9729210   5.7050538  26.3435149  10.8729553   5.5311155
  26.3124657   9.4907016   4.9151635   4.9382168  51.2176037   8.8895291
   5.0003153  52.1628904   8.7523931   5.8397204  50.9048748   8.8138813
  27.5682974  21.2141943  22.7066469  26.9840527  20.5166078  22.4095631
  26.9807076  21.8983579  23.0274177  38.8196993  34.2641616  25.2920866
  38.1281710  34.2260504  25.9528208  39.0951228  33.3542132  25.1808810
  24.4530678  11.0246420   3.2908607  24.5967507  10.2952552   3.8938391
  25.0211525  10.8338320   2.5444666  28.9065636  23.6787403  18.3927556
  28.9799822  22.7615870  18.1288048  29.7035587  24.0891016  18.0571386
  53.8706064  49.9857283  14.3389499  54.4224119  50.6641817  14.7281063
  53.0056477  50.3900862  14.2713511  34.2703808  17.9192532  41.8987283
  33.7450779  17.6811779  41.1347839  35.1526726  18.0501259  41.5513643
  56.6677952  10.6686139   9.7209817  56.1658144  10.7011080  10.5353451
  57.5440645  10.9643686   9.9677998  49.7903585  26.5905094   5.4888755
  49.6438503  27.5252414   5.3438169  49.0286398  26.3040543   5.9928232
   9.3276608  29.8279624  31.6039085   8.4321106  30.0187831  31.3249683
   9.7805417  29.5756917  30.7992411  16.2146962   8.0455101  52.8508171
  16.9062007   8.6790407  53.0423656  16.4256228   7.7177346  51.9765716
  57.7121353  54.6750927  14.8531306  57.5574732  55.1142979  14.0168238
  58.5884619  54.2995548  14.7679794  21.2404705  59.5927661  49.7090968
  21.0744644  58.6660546  49.8819550  21.9748999  59.8153108  50.2812126
  35.9781718  14.2295516   9.2809188  36.0039830  14.8899245   9.9733591
  35.2608204  14.5075822   8.7114120  30.6411148  63.5990304  40.3199264
  30.7065798  63.9057153  39.4155535  31.5457655  63.4251851  40.5799612
   1.5867573  22.4658227  32.3175550   0.9546811  22.6105165  33.0216718
   1.7583519  23.3396077  31.9664335  31.5131891  46.1475032  55.8565521
  30.7862509  46.5521877  55.3832388  32.2970665  46.4635807  55.4072618
  41.0760534  61.5640225  10.9242976  41.1981237  60.6685125  11.2395620
  40.3689898  61.9143888  11.4660895  27.4722630  42.2992086   4.3785089
  27.9978901  41.5080690   4.4970322  26.6355378  41.9821501   4.0385231
  20.6070095  21.9025946  35.6541324  20.0075871  22.0389199  36.3878536
  21.4300877  21.6359901  36.0636282  51.0913826  60.5746263  30.0525161
  50.4426457  60.0614255  29.5708653  51.4768864  59.9538153  30.6707522
  67.6132745  38.0984574  49.6477571  68.3246774  37.4583393  49.6280673
  68.0355282  38.9179641  49.9053284   8.4257025  58.3516847  29.4467688
   8.7670988  59.2413741  29.5369458   7.6670260  58.3260243  30.0298524
  54.2980385   0.0196304  12.5097358  54.1433668   0.8928952  12.1495712
  53.8042593  -0.5667643  11.9365382  65.3985691  12.1678042  40.2991819
  65.7901525  12.6639497  41.0180235  65.9569597  12.3574126  39.5452070
  55.0825394  61.7578375  34.2532897  55.6277454  62.4022915  33.8020015
  55.6503809  60.9942573  34.3568993  34.8326576  17.6607216  36.5067979
  34.6014393  17.2978533  35.6517550  35.7840622  17.5682247  36.5569004
  20.6510086  52.3854536  14.1199204  20.1287753  52.6922053  14.8611447
  20.0341243  51.8903512  13.5808846  51.4812679  22.3572856  36.7749461
  51.1581034  23.2508480  36.8904563  50.9551401  22.0031148  36.0580179
  51.7762804  17.5022268  14.2739332  51.4356327  17.5445879  15.1674628
  52.6372433  17.9172838  14.3259108  20.5970836  39.2008090   2.2442114
  19.6662593  39.3850231   2.3701583  20.6381607  38.7347674   1.4091374
  43.9944954  19.7842258  38.1916603  44.7203512  19.3645829  37.7298531
  43.5997529  19.0807253  38.7069246  53.4443569   9.6069545  16.0320199
  53.9016438  10.2908444  15.5427158  52.7306557   9.3358469  15.4546475
  37.4236532  49.4382333  51.9229501  37.3861166  48.6795294  51.3405507
  36.6011949  49.9019289  51.7655414  34.2358541  17.2837353  26.9385886
  33.7250328  16.5457082  27.2711658  34.0833735  17.2741020  25.9936619
  37.0336063  53.1985944  40.2737590  37.1250529  54.1513008  40.2589532
  36.8783779  52.9586547  39.3602129  48.6361635   5.7259882  45.9601667
  49.5824659   5.6452025  46.0793975  48.2803286   4.9079550  46.3072070
  59.0455055   5.7624793  21.0432005  59.8904324   6.2122709  21.0385847
  58.8341093   5.6403834  20.1176548  56.5929622  51.6037255  40.1039633
  57.3087473  52.2111147  40.2909538  56.1733265  51.9616443  39.3216380
  50.4508705  40.2203667  49.4459447  49.5083565  40.2858507  49.5995959
  50.5319447  39.6143871  48.7094339   7.4839693   6.7517853  22.8409123
   8.0220229   5.9824497  23.0275989   8.0880314   7.4904925  22.9160833
  49.7017527  22.9654050   1.2396057  50.2666664  23.7380505   1.2284615
  49.6360159  22.7034974   0.3212835  41.4087517  52.4400228  40.2702817
  42.0453722  52.5477809  40.9769186  40.8235759  53.1923884  40.3583034
  54.8689127   6.6344696   4.5186818  55.7869673   6.3685107   4.5704362
  54.7776318   7.0110822   3.6434317  25.4484678  27.1628481  45.9123167
  26.1561705  26.5390980  46.0745605  25.8128525  27.7783885  45.2762636
  30.3251291  62.7038687  53.2262967  29.8544432  62.1854752  52.5736436
  30.0467135  62.3405307  54.0669535  56.2211275  20.5479074   3.3350030
  55.8899975  21.4018416   3.0568257  56.4054346  20.6548929   4.2681786
  54.2933655  43.6198425  37.0336819  54.1756153  43.3674669  37.9494739
  53.7404108  44.3936443  36.9254923   8.1454838  21.3421715  42.6869413
   8.1813705  20.6584871  43.3559092   7.9775489  22.1475065  43.1762942
  55.1332033  34.4728284  33.5660386  54.2815054  34.8251944  33.3078170
  55.0729263  33.5367566  33.3753395  49.9934328   7.2361124  39.3144247
  50.1140821   8.1270731  39.6428510  49.4129026   7.3355473  38.5598847
  58.1404543  21.6342211  36.0224414  57.8454351  22.5366378  35.9006333
  57.8189182  21.1706734  35.2491546  37.2532248  45.6326294  14.3572569
  37.2989535  46.5663433  14.1515458  36.3330555  45.4794407  14.5718670
  59.9913187  30.2688509  18.7794944  60.9301848  30.3032070  18.5962411
  59.9012894  30.6690535  19.6443435  10.6082320   1.0993609  11.2830901
  10.1534081   0.6871986  10.5485904  10.0948203   0.8517709  12.0520759
  56.6822047  22.4110949  20.6476351  56.6165013  22.0295662  21.5230485
  57.1744365  21.7650407  20.1411220  16.9806916  60.9174347  33.5614133
  16.4296299  61.0209227  34.3372107  17.5440365  61.6912985  33.5628152
  57.2735578  54.1394859   9.3031138  57.6924950  54.9072825   8.9142543
  56.5366179  54.4946884   9.8000878  10.2879673  47.5248909  39.6416569
   9.8385817  46.9996643  38.9795232   9.5891672  48.0192947  40.0699997
  25.0308872  38.7880879  43.1925734  24.5408369  38.0701661  42.7917334
  25.3643919  38.4223413  44.0118619  36.7496991  23.1523824  24.5967817
  37.1471715  23.4408593  23.7751818  36.9900680  23.8290453  25.2296972
  66.8823261  51.8097752  53.0742189  67.3555536  51.5900665  52.2717124
  66.2615032  51.0905820  53.1907090  44.9476814   2.8861660   2.8743654
  44.7331142   3.5370588   3.5425952  45.3875875   3.3853903   2.1862599
   5.3960949  48.8869095  18.4195733   6.0192353  49.5831871  18.6272335
   4.6053749  49.3485451  18.1404853  44.9679411  63.4781799  38.7122869
  45.1874006  62.6091694  38.3762956  44.5493258  63.9215579  37.9744434
   2.6681448  40.2975964  45.9095040   3.1185223  39.4821077  46.1294320
   1.8773295  40.0176626  45.4485473  58.9507627   5.8377922  30.5599451
  59.0729713   6.2113923  29.6871805  58.2431602   6.3548547  30.9448838
   0.9012295  50.0575667   7.2268101   1.3259150  49.5857328   7.9432246
   0.0528313  49.6260601   7.1255299   4.7836977  21.4862585  17.1990323
   4.1021496  21.4801025  17.8711057   5.4763848  22.0359874  17.5653934
  62.5914705  16.3154352  46.1165633  61.8635500  16.1895979  46.7252728
  63.3156336  16.6127670  46.6673877  53.9723862   1.2799538  55.2720037
  54.6453465   1.3790739  55.9454519  54.3558586   0.6744969  54.6374934
  53.7649245  25.0229090  52.0044151  53.6746115  24.1618293  52.4126029
  54.7084326  25.1353729  51.8887606  31.2274492   1.1592663  32.2471544
  30.3597296   1.1581743  32.6512524  31.3598097   2.0647681  31.9664809
  38.9942265  20.6145597   0.4146542  38.4576249  21.3254309   0.0640097
  38.4309769  20.1841569   1.0578763   8.5397173  43.7714845  48.3387211
   8.8817335  44.6598369  48.4391442   8.9939667  43.2626110  49.0102389
  64.6166658   6.8302512  33.7696433  64.5945644   7.2404838  34.6341968
  63.9409781   6.1533648  33.8083768  33.3121801  45.9474069  49.8816928
  34.0059687  45.4687291  50.3352961  33.7025429  46.1989993  49.0447053
  54.8149061  29.8896432  16.5357709  54.5490074  29.0495992  16.9097435
  55.0565672  29.6840310  15.6326914  24.9892307  62.4265522  37.1556016
  25.6955744  63.0653995  37.0597824  24.4084240  62.8085512  37.8136059
  59.9935436  19.4418573  42.5744104  60.0663948  18.9552677  41.7533398
  60.1381254  18.7851584  43.2556391  38.5248780   6.0029906  43.2158089
  37.7852678   5.4155058  43.0606604  38.5443878   6.5718967  42.4462652
   4.9371029  29.9780339  43.6677834   5.7687403  29.9269397  43.1966123
   4.7532917  30.9154699  43.7282618  51.4938063  42.0882547  36.6657957
  52.1925182  42.7265602  36.8093142  51.5761180  41.4748090  37.3959609
  36.6176785   0.5515469  53.1765809  36.0132635   0.4595173  52.4400743
  36.6655291  -0.3250181  53.5581243  65.7018328  27.6717186  11.1643279
  64.9072123  27.5274706  10.6505132  66.0432291  28.5080576  10.8477557
  22.2563482  22.8930706  48.7730512  22.0830990  22.0421487  48.3703735
  22.0629383  23.5281801  48.0835136  23.3555819  63.1709641  42.0347377
  23.4055019  62.7322429  41.1854669  22.4934555  62.9339188  42.3764655
   7.4169505   1.1905182  38.2391664   7.4087728   1.2628830  37.2847411
   7.8863228   1.9707072  38.5345062  11.5085328   0.8821858  51.5465462
  11.0464418   0.1540721  51.1311462  11.4880074   0.6768263  52.4812325
   4.2013556   0.8450572  32.9522371   4.2705065   1.1379480  33.8609004
   5.1072747   0.7943261  32.6473403  16.8680245  13.6817813  31.2513471
  17.7492386  13.8867521  31.5638995  16.9601685  13.6165690  30.3008270
  19.5047606  63.1411531  21.4800167  20.2934349  63.6532771  21.6587877
  19.2266357  63.4257004  20.6094337  50.4448242  24.3754560  38.5082253
  51.1069436  24.1820085  39.1718575  50.2469105  25.3039068  38.6308655
  55.8999033  62.5738042  50.8989104  55.6680960  61.7056078  50.5691686
  56.3378210  62.4041647  51.7329859  30.6944502  32.5093227  16.3349366
  30.6117666  31.5601831  16.2425876  29.7947300  32.8191596  16.4385664
  49.7339249   3.3403569   9.0671408  49.4183636   3.3556792   8.1635815
  50.4636860   3.9597049   9.0765131  61.2305307  22.4626327  52.8872299
  60.5099106  22.0350480  53.3499527  61.8492746  21.7560625  52.7024508
  64.5225000  15.9426486   5.1974207  65.2629375  16.0139823   4.5950115
  64.8915386  16.1494279   6.0560739   0.5723673  22.2688961   9.3881088
   0.4670674  22.4336743  10.3251207   0.8166176  21.3450027   9.3333566
  17.4402739  53.9785021  45.5036947  17.4878622  53.3616179  46.2340518
  18.0645729  53.6390465  44.8624023  27.1018434  21.8410420  10.5158043
  27.8771496  22.2952175  10.1858699  26.6550827  21.5276361   9.7294116
  48.7390995  17.0527470  12.2844446  48.0980492  17.3294270  11.6296625
  48.4447861  17.4647021  13.0967903  65.9650345  52.6783913  19.4435927
  65.8080358  51.7861897  19.1344615  66.7921228  52.9317993  19.0337869
  31.4865471   8.3323234  49.8203137  31.5741898   8.6348647  48.9164224
  31.1960579   9.1052526  50.3044924  16.6094279  16.5815270   1.5306944
  16.3712645  16.3848960   0.6246889  15.9784412  16.0898006   2.0563293
  19.0783728   6.4768351  52.6276657  18.5381401   5.9492720  52.0394000
  18.4525669   7.0271528  53.0985692  31.2885046  21.0755229  23.1182766
  30.6882930  21.7220879  23.4896612  31.7551970  20.7197952  23.8745093
  24.3180108  58.5554695   2.2946414  24.8215556  58.6440229   3.1038576
  23.5906148  59.1692209   2.3967952  64.1662407  31.4981484  10.3533649
  65.0862217  31.3663363  10.1242435  63.6812925  31.0122490   9.6863157
  11.2313486  58.0442375  52.5612929  12.0404984  57.5823277  52.3418635
  11.2363316  58.8173741  51.9969639  18.5255909  29.4333076  16.8999040
  19.4352424  29.1460776  16.8207514  18.1077373  29.1302967  16.0937929
  19.1182190  31.6247797  46.1225510  19.9751431  32.0462823  46.1877489
  18.7229973  32.0056725  45.3383636   5.5583292  39.2341232   7.0794809
   6.1584860  38.6129260   7.4919838   5.9598500  39.4287705   6.2326479
  64.4148863   3.7498916  47.5007638  63.8708628   4.2869676  46.9247225
  65.2891863   4.1331208  47.4303647  59.3074131  12.4662840  17.6040232
  58.7610435  11.8642914  17.0987296  60.0961065  11.9625354  17.8050876
  45.6338692   8.3972722  23.5935712  46.0269737   8.3232009  22.7239680
  45.1132250   9.1994947  23.5535216  31.6028631  17.9616583  39.0099701
  31.1371267  17.8810824  38.1776043  31.1879337  18.7062300  39.4454941
  44.1597557   0.7727420  39.6452641  44.0627527   0.1523676  38.9227962
  43.5196590   0.4845551  40.2960014  23.3158958  17.9793776  21.6870972
  22.4136770  18.1986511  21.4543935  23.5997284  18.6994112  22.2503230
  15.3001524  49.2228263  35.5715295  15.7883526  49.2078227  34.7483250
  15.6407095  48.4770626  36.0655853  33.8252831  15.8355093  19.2015815
  34.1920900  15.3652191  18.4529078  34.5575666  16.3474131  19.5450199
  20.7241774  20.1519156  28.1007981  21.5783668  20.5553198  28.2552481
  20.7379723  19.9088120  27.1750855  10.6154944  59.6646994  42.6274976
  11.2943674  59.6350735  43.3016523  10.0486113  60.3898853  42.8901442
  51.5831852   5.6912488   8.7448955  51.1196947   6.4023906   8.3025295
  52.5088310   5.9202641   8.6614722  51.6773224  39.1656017  17.3575711
  52.2112465  38.8685203  18.0943882  51.6887712  40.1204872  17.4231279
  33.6802745  17.3872232  24.2978430  33.1017494  17.5054300  23.5444713
  34.5196462  17.1289682  23.9170671  63.2641792  20.2317548  33.1737280
  62.4934196  20.6571078  33.5495377  63.9567804  20.3786421  33.8179040
  57.2223468  58.3472770  48.2219198  57.0910520  57.4114603  48.0694738
  56.3838119  58.7474054  47.9917338  54.9264450  40.5030811  50.5273065
  54.0975160  40.0311196  50.6070706  54.6854181  41.4258796  50.6084290
  43.8116837   5.5902141  12.2957754  44.4719362   5.7844245  12.9610419
  43.6511421   6.4299691  11.8653452  29.2820538  48.2337754  27.2666264
  29.9687994  47.9606324  26.6583490  29.7333563  48.7859540  27.9051042
  29.5391250  20.2225280  21.1282158  28.7938428  20.6654310  21.5339541
  30.2872348  20.4630828  21.6747451  20.0053573  36.9147182  28.1697559
  19.8862076  36.3897252  27.3782897  19.3911564  37.6419950  28.0694723
  41.4195108  29.1346073   9.0137863  41.5655708  28.6088276   9.8002046
  42.2596550  29.1183925   8.5553867  68.3254719  37.8776932  15.2024102
  67.4567080  38.1498957  15.4980171  68.2050323  36.9766855  14.9025536
  66.0928726  15.9748948  29.1434073  66.0362959  15.9553933  30.0987339
  66.6453028  16.7326999  28.9516115  51.6848040  32.0975924  33.6432385
  52.5199127  32.1799254  33.1827521  51.9284058  31.9704080  34.5601439
  35.6151080  18.0782533   0.7822378  35.9467030  17.3421443   1.2964568
  35.9553933  17.9270005  -0.0995563  23.1449914   2.4580024  32.9690599
  24.0998936   2.4094421  33.0141640  22.8429747   1.9198734  33.7007952
  41.2071301  48.3569974  51.5100208  40.7027699  47.5435477  51.5224179
  41.2728191  48.5839683  50.5824431  32.5075871  41.9432306  16.5444589
  33.0466133  41.1556768  16.6182482  32.7950627  42.4989605  17.2688603
   6.6099257  12.6342047  51.3446775   5.6919283  12.8796518  51.2295091
   6.7971796  12.8311337  52.2624957  63.7149614  20.8319080  48.7111064
  63.1987316  20.6272352  49.4907525  63.0679757  20.9157551  48.0106702
   5.0367838  44.2663097  19.4265175   5.0840813  44.9101114  20.1332831
   5.6750161  43.5958433  19.6701622  55.2069950  28.8519764  29.8729730
  54.8898029  28.5548878  30.7258248  54.7389317  28.3071399  29.2402816
  44.5651197  21.5213871  11.7745268  44.6626616  20.5903387  11.5748644
  44.1016245  21.5395117  12.6118290  63.8453073  58.6471480  37.9339525
  63.6409683  59.0999549  37.1157559  63.3512945  57.8287643  37.8846189
  29.1139591  -0.0209462  36.9302186  29.4520319   0.7831419  36.5360376
  29.7644127  -0.6876575  36.7096802  56.8002052  44.8872143  52.0180186
  57.4454493  44.4308251  52.5580191  55.9545178  44.6194726  52.3776856
   9.0490449   5.8846129  30.8472678   9.7681225   6.2255085  31.3792011
   9.4300283   5.1435745  30.3761574  53.5775280   4.5230675  40.4994106
  54.3263435   4.5622087  39.9044514  53.8479137   3.9121091  41.1848688
   9.3826974   4.8206604  45.6920942   9.5546973   5.4105628  46.4260313
   8.4505260   4.9344051  45.5067595  50.9403086  50.3893232  14.2140007
  50.7024002  51.0819578  14.8303580  50.6347752  49.5832014  14.6299887
   6.6154028  59.2499178  42.5924357   6.3525129  58.4262794  43.0032155
   7.5387026  59.1243261  42.3734018  20.8617676   2.4653924  47.2579196
  20.2445829   2.2400511  46.5618345  21.5346325   1.7862452  47.2105351
  49.7391796  32.6714873   6.2183857  50.4564571  32.9563284   5.6521595
  49.1980267  33.4529781   6.3308907  53.7403345  19.8776531  24.8891258
  53.7253857  19.3029571  24.1237950  54.2486286  20.6383061  24.6075726
  47.3701377  60.3958815  47.7187553  48.1245179  60.8945435  48.0325630
  47.0014281  60.9345025  47.0186314  47.1129167   1.3780255  42.5628757
  47.9292857   1.0368819  42.1976423  46.4714109   0.6857533  42.4033117
  64.4459581  47.1734858  10.1660025  63.5943413  46.8382025   9.8857099
  64.8930740  46.4122868  10.5359960  59.6190834  54.8423338  20.0198269
  60.0016785  54.6196795  19.1711330  60.2041006  55.5095959  20.3786325
  25.1131970  28.9931631  20.2030015  25.7649857  28.4795380  20.6800723
  25.5587727  29.8153830  19.9989092  58.7283230  31.2408423  36.9429469
  58.9008808  30.3174496  37.1267986  58.2548237  31.2350082  36.1110806
  65.2993793  41.9275951  35.5028292  65.7432623  42.5574654  34.9349686
  64.5925731  41.5745348  34.9624511  11.5395886  16.4912438  23.7144899
  11.7220074  16.1567211  22.8363943  11.8239552  17.4048030  23.6866212
  17.6447642  32.0381737   7.2643721  17.9703462  32.3978591   8.0895114
  18.4345329  31.8428373   6.7600495  18.2752377  26.3377428  21.4623904
  18.7689549  26.9064689  22.0531774  18.9400631  25.9453440  20.8964825
  38.6699986  20.9627604   9.4363248  39.5125461  21.2922454   9.7490287
  38.4244275  21.5630412   8.7323427  68.3264208  14.3288672  53.0391216
  67.9936886  15.1388156  53.4257746  67.5453806  13.7957633  52.8907824
  46.3923597  52.7812052  26.5668297  46.0862207  52.7281380  27.4722004
  46.6482115  51.8852615  26.3476038  59.6552813   3.1595320  21.5243721
  58.9186203   2.7100749  21.9385600  59.4163119   4.0860362  21.5512204
  58.6214828  50.2372503  26.6133547  58.4932470  49.6595573  25.8609843
  59.0703058  51.0025167  26.2539768  61.8426550   8.6364687  34.2354223
  62.1283758   8.1306255  34.9961564  61.5928782   7.9762877  33.5888883
  28.8464028  16.3034809  26.4565969  28.1807286  16.0515571  25.8165622
  29.6568734  16.3583434  25.9502721  47.2103441  53.7987316  53.9085023
  46.5556038  54.4041622  53.5606539  46.8634356  52.9295052  53.7076616
  56.8187046  48.0833530  25.1428819  56.3606548  48.3271790  24.3385386
  56.1502934  48.1399727  25.8257127   1.3862986  24.1828001  47.5639322
   2.2308440  24.5646608  47.3248610   1.0085482  24.8062647  48.1842801
  66.3415928  54.0415782  54.8798162  66.3011474  53.1930417  54.4387026
  65.5850620  54.0429729  55.4662377  28.5723675  21.5514172  50.9285444
  29.1681040  21.4438475  50.1870879  29.0679110  22.0725287  51.5602973
  50.4312038  29.1731119   8.9298451  50.0463724  29.3945932   9.7778344
  51.0453176  28.4647918   9.1231811  55.1234472   2.2670782  41.6191527
  56.0630119   2.3359335  41.4497217  54.7895515   1.7284382  40.9017893
  21.3432557  50.6029606   5.1978105  21.4668995  49.9377489   4.5207283
  21.2972981  50.1070452   6.0152382   0.0468069  21.2795448  16.7637181
  -0.3189796  22.1003461  16.4339936   0.7602269  21.5503049  17.3416030
  55.7324350  47.5622123  29.2303228  55.6338442  46.8785422  29.8929739
  55.3974665  47.1661335  28.4258676  57.2952175  28.7344337  33.6493468
  57.3094702  28.4156394  32.7469063  58.2164812  28.7640119  33.9074898
  14.1086632  61.0058784  31.6495872  14.8292786  61.4063501  32.1359777
  14.2067868  60.0666809  31.8061543  31.1056631   5.9386630  20.0128961
  31.7259520   6.2828440  19.3702352  30.4756230   5.4388136  19.4938278
  25.6955612  10.0301636  43.7393078  26.1458529   9.9478138  44.5799538
  26.3587893   9.7996605  43.0887481  66.6683912  38.5325789  11.4442098
  66.1213636  37.8816700  11.8838763  66.1154890  38.8750839  10.7419145
   0.4770344  15.4787774  13.8807642   0.1270645  14.6138567  13.6670649
   1.2070006  15.3018708  14.4741321  33.4409023  64.2674297  29.6851512
  33.1019188  64.4906777  28.8182684  33.2104040  63.3458251  29.8024079
  13.5867179   2.9420150  52.6297873  14.0969265   2.2247208  53.0058282
  12.7258003   2.5599111  52.4593451  60.1571846  27.3122907   8.2745349
  60.5319691  26.7261672   7.6170969  59.2127609  27.2667789   8.1254423
  50.2863575  49.2304414  34.0502616  50.5353523  48.3507746  33.7666842
  51.0104824  49.7878653  33.7654063  39.5235944   4.5867380  46.5478706
  40.1796246   4.4034085  47.2203588  39.8640847   4.1638815  45.7595253
  57.4465609  10.8527899  24.0222359  57.9658079  10.0512373  23.9580011
  57.8226995  11.4353538  23.3624101  54.9614477  39.2008328  14.8204994
  55.5227947  38.4374809  14.6847856  54.0862370  38.8348603  14.9481750
  44.1903305  14.9487317  19.6637559  44.9970865  14.4973660  19.4154799
  44.1458559  14.8538172  20.6151986  26.7169255  27.9104366   1.5861133
  26.1328858  28.2576960   2.2603086  26.2654322  28.0914375   0.7617143
  16.2644602  28.7795052  48.9628532  15.4483105  29.0375742  49.3912550
  16.9528986  29.1237396  49.5318791  34.5534599   4.6063865  50.5994114
  33.6710156   4.7547138  50.9393012  34.6389759   5.2272928  49.8759517
  14.1015452   1.0715622  37.3635387  14.3843287   1.6625590  36.6656947
  13.8810271   0.2565903  36.9125128  35.0915360  22.4285531   1.9182451
  35.4887342  22.3584247   1.0501741  35.4320359  23.2503271   2.2717626
  63.5938787   4.4783995  10.1077497  64.0860653   4.5290732   9.2883492
  62.8644276   3.8900092   9.9129975  49.3071079  18.3189929  30.4407811
  49.6065617  18.5945594  31.3071680  48.8875914  19.0971124  30.0736713
  60.0817966  39.2121339   2.4402922  60.2768421  39.2925239   3.3739555
  59.5189190  38.4403706   2.3787774  53.2024276  12.0150179  14.2192411
  52.6313531  12.4676318  14.8399222  52.6480209  11.8567986  13.4551525
  61.4012527  41.5635633   0.8342233  60.9004307  41.0494471   1.4675426
  60.7765293  42.2077894   0.5011733  28.7259365  33.5998876  47.2878179
  29.5056368  34.0594724  47.5993999  28.2029749  34.2781028  46.8603065
  50.7020473  11.4236403  35.0248599  51.2688541  11.9024837  35.6295681
  50.9209013  10.5030954  35.1695395   6.0921932  60.2033037  36.0824939
   5.3580690  59.9439233  36.6392824   5.7627846  60.9518665  35.5851265
  12.3963887  45.0671482  17.4269021  12.2619873  45.0723076  16.4791989
  13.0976445  45.7021141  17.5728178  28.0855233  33.0200076  16.6845596
  27.8494889  33.6182356  17.3935318  28.1751305  33.5832119  15.9157920
  66.2468624  32.8699207  32.2231698  65.8697510  32.4934363  31.4280128
  66.1030817  32.2036004  32.8951645   6.3452441   4.7493586  29.5868278
   6.1486107   4.4241437  28.7083030   6.8243033   5.5647111  29.4387364
  53.1434488  25.7981372  21.8644261  52.5168896  25.0761127  21.9127607
  53.5998774  25.7758856  22.7055025  61.6568661  12.1857524  22.2297621
  61.8249083  11.4346409  22.7988195  61.7476988  12.9462624  22.8038740
  29.6273875  27.9562378   4.7115338  30.2180767  27.2034311   4.6869981
  29.6513987  28.3086157   3.8218796  60.3538036  59.0268612   7.5512284
  61.2420559  59.2947340   7.3156679  60.1032591  58.4027958   6.8700528
  36.1536074  40.9943628   9.1414082  35.7533622  40.9647751   8.2724082
  36.7871761  41.7099619   9.0890527  65.5747700  24.7185564  31.8534040
  64.9181509  24.0230036  31.8175721  65.4318190  25.2243257  31.0534072
  46.9686460  34.8666334  19.7212362  47.6023912  34.4196391  19.1601741
  46.1882448  34.9590445  19.1747320  46.7286091   1.3026935   5.1160053
  46.7534428   0.9379417   6.0006336  46.4256983   2.2026783   5.2364305
  35.8940208  13.4720505  49.8055639  35.3110254  13.7867058  49.1146668
  35.4899776  12.6586760  50.1078996  61.7235899  48.9617109  16.6963649
  61.5701389  48.8906813  17.6385105  60.9578323  49.4298029  16.3635933
  23.3423573  38.1322193   8.8325852  23.3895832  38.1445312   9.7885400
  22.9987961  38.9944625   8.5986286  23.5144806  46.9505835  36.3383198
  23.6450529  47.6012516  37.0281148  24.3717694  46.5380955  36.2327671
  64.7568583  24.7005224  51.6608810  64.8804858  25.6441116  51.5579748
  65.5263448  24.3114138  51.2452888  39.3178671  12.2404027  25.1026082
  39.0927690  13.1228912  25.3971887  39.6591991  11.8066335  25.8846378
  12.4030197  45.1064587  46.2696934  12.0029557  45.7592821  45.6952381
  12.9165459  44.5525694  45.6817007  45.8343643  47.1809912  48.8907576
  44.9810046  46.9385099  48.5312891  45.6281131  47.6947784  49.6715975
   0.9528542  27.2051191  45.0985527   0.7671975  26.6223884  44.3622208
   1.5557981  27.8573227  44.7417355   3.4606642  15.2259493  39.2250896
   3.0022600  15.8583176  39.7784519   3.0434579  15.3111374  38.3678198
  50.2835566  40.2707577  45.1549673  50.3435093  41.2072754  45.3435755
  50.4860073  39.8452067  45.9881258   7.5246221  28.8953924  48.9653921
   8.4391141  29.0871048  49.1731977   7.0627409  29.7158575  49.1378212
   7.8665155   5.2763110  50.0488710   7.3297405   4.9231440  50.7583618
   7.2472626   5.7484913  49.4922733  14.8462975  54.5793247  10.9922779
  14.6139061  55.5067205  10.9457350  14.8705041  54.2923689  10.0794244
  39.2532575   3.0527682  35.4526806  40.0665700   3.3333630  35.8722329
  38.6553895   3.7907595  35.5716634  26.5592694  16.7905612  43.1644630
  26.7238527  17.7147383  42.9772425  25.6366470  16.7580218  43.4173298
  66.5579523  47.8527451  52.0614624  65.9478339  47.8450584  51.3239479
  66.2670945  47.1322060  52.6204395  39.2770136   5.7096732  50.2391156
  39.6762854   4.8506320  50.1017901  38.5925687   5.5543840  50.8900001
   9.6410083  62.2348535  11.3665441  10.3837847  61.6427242  11.2486557
   8.8709831  61.6716635  11.2883810  35.2080083  60.1555109  43.5435057
  34.9968457  61.0644674  43.7566662  34.8908377  60.0396442  42.6478434
  49.9236711   6.6461855   5.8886198  49.6143793   7.3728234   5.3477243
  50.8305555   6.8712765   6.0962919  67.0275163  43.8937330  24.9244976
  67.7011724  44.0877819  24.2727566  66.2578174  43.6528587  24.4089651
  21.1715359  64.1978371  11.0389522  22.0731768  64.5047342  10.9436086
  20.9060502  63.9552128  10.1518873  27.3486519  60.6880903  31.5780854
  27.7724981  61.1692095  30.8673739  27.7043247  59.8018217  31.5128160
  63.4668589  52.6109171  53.8941479  62.9459220  53.1060600  54.5263577
  63.8435808  53.2775784  53.3198023  27.6368707   7.5170559  26.5701103
  27.0749661   6.7533917  26.4385223  28.4661948   7.1535677  26.8804812
  16.9047647  36.3215136  18.6866859  16.1463862  35.9709283  18.2195858
  16.7347234  36.1179092  19.6063951   4.8316962  52.1962786  31.6677237
   4.6565771  52.1115446  30.7305026   5.7598841  52.4246359  31.7182636
   3.7066942  29.5603472   5.3858141   4.1904145  29.5771462   6.2116245
   2.7883320  29.6370942   5.6445602  41.8267607  25.3982932  14.0203050
  40.9756501  25.1850802  14.4029048  42.4545606  24.8912531  14.5350984
  53.1547694  31.2123305   7.4140361  53.7309020  31.8457514   7.8419212
  53.0089407  31.5736395   6.5397266  46.2375015  14.9623728  46.1692619
  47.1933693  15.0098681  46.1863470  45.9894436  15.4171765  45.3643703
  43.6649286   9.9097819  43.8171816  42.7088940   9.9477047  43.8453102
  43.9021790   9.3166346  44.5300055  62.4743604  13.3217484  19.3141035
  62.1983193  14.2115647  19.0944198  61.9670235  13.0994421  20.0947574
   8.2462317  21.8715549  37.3340702   7.8195977  21.7142248  38.1763649
   9.1579002  22.0579338  37.5584698  12.5711351   5.7499129  20.4431251
  13.2485919   5.0808340  20.3450635  12.2149449   5.8611041  19.5616487
  16.4681936  45.9558612  50.1448795  15.5891396  45.6021780  50.2805426
  17.0545478  45.2652496  50.4538729  56.5222132   2.0492215  44.7202015
  55.9182965   1.6955704  45.3732300  55.9543502   2.4073596  44.0379238
  22.9291153  41.3183117  54.6002531  23.5635042  40.6030750  54.5531797
  22.1388221  40.9647560  54.1920042  51.5232247  37.0860362  42.1471834
  51.9332272  37.4000001  42.9531336  51.1897343  36.2171364  42.3708630
  15.4127407  10.8912940  50.8717060  16.2938159  11.2462801  50.7537127
  15.0022399  10.9783644  50.0113916  10.4573405  60.2422285  37.6634526
   9.8077053  59.5626831  37.8435087  11.2181056  59.9911261  38.1872988
  29.9751568  33.5553265   5.8917552  30.7675791  33.0186057   5.9068960
  30.2140474  34.3204188   5.3684962  10.1139057  49.6010303  47.6376057
  10.9611320  49.9107313  47.3174095   9.8294890  50.2759743  48.2538748
  45.7405984  18.2264513  25.0784421  45.5571401  17.8042120  24.2392230
  46.4324057  18.8582987  24.8824859  27.8024936  50.3484869  44.7288179
  28.3479524  49.7705793  44.1952229  27.2284627  49.7556019  45.2137995
  20.6723690  51.7542982  48.7010241  20.2571893  50.8921099  48.7231588
  21.3772893  51.6973114  49.3460608   6.1998785  45.2279032  52.8356891
   6.1979926  44.3954313  52.3632285   5.3996265  45.2072800  53.3604772
   2.2124565  36.7312574  36.9906378   1.4784861  37.0764112  37.4989557
   2.6178479  37.5051427  36.5994954  15.3088081  47.7472544  20.8115101
  15.3502464  47.6899099  21.7660928  15.3317761  48.6861706  20.6267476
   7.3221982  56.7335224  46.2706804   7.7654546  55.8962393  46.1338758
   7.9004967  57.2171116  46.8605471  60.0328427  53.5342169  28.2496953
  60.7715332  53.4955311  28.8572073  60.4290116  53.4333611  27.3841834
  25.0284695  22.1196085   5.0736335  24.5903825  22.1726233   5.9230474
  24.9516152  21.1994082   4.8215250   2.8138551  64.2075586  39.8380828
   2.0044312  63.7130117  39.9664927   2.8625560  64.3458223  38.8921738
  41.5053171  54.4457436  43.4764719  41.2649506  54.7566891  44.3492651
  40.7575577  53.9181805  43.1958199  60.2158462  17.8769022   3.5503105
  60.9639000  17.2924048   3.6728290  59.8017036  17.5700385   2.7437404
  24.8955988  21.7364270  12.2888330  25.7899474  21.8121106  11.9561962
  25.0014733  21.4701230  13.2021240   2.8112226  47.3147017  11.2698558
   3.0166750  47.1720225  10.3459171   1.8559676  47.2709280  11.3123325
  24.7532261   2.4255652  25.3779435  23.8470062   2.1356148  25.4824638
  24.6884664   3.2372708  24.8747802   8.6826831  53.0433178  25.8332276
   9.5897418  52.7376080  25.8375669   8.6389726  53.6531067  25.0967002
   1.6726013  41.7153978  37.9515338   1.3898577  42.3531246  38.6069679
   0.8608946  41.4196539  37.5393414   0.9634125  20.1915545  49.2402124
   0.1944553  20.1738352  48.6704540   1.6581976  20.5584330  48.6934900
   0.8374638   5.2962810  46.0543919   1.5045460   5.9618419  45.8862782
   1.1765225   4.5058638  45.6342602  47.3914021  56.3631582  39.1639829
  46.7148274  55.7087755  39.3379498  48.1650156  56.0356236  39.6227598
   9.1498106   2.4304862  32.0919895   9.3189686   2.1885294  31.1814547
   9.9621886   2.8433079  32.3849988  16.7854273  34.4979477  31.1978006
  16.7004263  33.5695362  31.4147258  17.7295423  34.6453094  31.1415696
  13.9522027   6.3490242  22.8871512  13.9188009   6.5901179  21.9614124
  14.7999495   6.6751475  23.1891489  58.9047325  62.0550203  32.7447557
  57.9764515  62.1634817  32.5379634  59.0360445  61.1071253  32.7667880
  58.8629543  62.2507703  12.7906230  58.2470500  62.9707872  12.9265216
  59.4807279  62.5836718  12.1396545  38.5134673   7.0203013  45.9372091
  38.8757526   6.2288231  46.3353777  38.7483310   6.9519181  45.0117922
  28.1012815  20.7260031  44.2159653  28.8833391  20.6978697  43.6647654
  28.3776420  20.3333849  45.0440407  62.8244316  13.9883704  28.1666183
  63.4129106  13.4229178  27.6664305  62.5813591  14.6826405  27.5541306
  46.0369142  30.8019787   4.1225198  46.6466034  30.1061446   3.8768962
  46.3552125  31.5749508   3.6562208  19.8741921   0.0651640  29.6656537
  19.1272836   0.5932374  29.9476075  20.6402972   0.5548138  29.9649143
  15.2273190  54.6861839  53.4323406  14.7259104  53.8962603  53.2302475
  14.8149586  55.3724051  52.9076576  42.0778130  20.8576828   1.2409357
  42.3117184  19.9599844   1.4768508  41.1255317  20.8890397   1.3326362
   6.7513328  21.4636666  12.2537235   6.1862021  20.6921536  12.2134164
   6.8936138  21.7044264  11.3382867  31.4394127  26.7247206   7.5140623
  31.3263868  26.2681681   6.6803840  30.7131945  26.4166552   8.0562213
  34.1263591   4.8071701  37.9499820  34.9189137   4.3980414  38.2974056
  34.3886410   5.1501972  37.0957187  39.3357985   5.5928117   0.9663156
  39.1208320   5.1575929   1.7913059  38.8186609   6.3982016   0.9785512
  39.6879034  31.1600024  18.8645414  39.7987740  30.6844384  19.6878150
  40.2413999  30.6906229  18.2403949  42.4212756  22.7053219  21.0040906
  42.6365911  22.1967751  21.7859176  43.2443305  23.1282717  20.7592968
  31.6766411  18.4490199  52.0086098  32.5877743  18.4229846  52.3008251
  31.1677026  18.5138316  52.8167009  12.9570830  46.5288877   9.3294632
  13.1876993  46.3323832   8.4214801  12.8396821  45.6711388   9.7377717
  24.3927646  34.4628286  54.9635267  24.4060659  35.3496623  54.6035480
  25.3117371  34.2628121  55.1416016  44.6506155  19.5526034   5.6455711
  45.4472044  19.9553639   5.2999452  44.8361194  18.6135537   5.6421474
  35.1685893   2.1332020  40.2900553  36.1024022   1.9458956  40.1944447
  34.9172282   1.6903109  41.1005449  14.4548261  40.1049328  20.9656549
  14.6474898  40.2577162  20.0405765  14.5358360  39.1573215  21.0738492
  37.0376158  56.0041809   0.4500412  36.6816735  56.6549110   1.0550936
  36.6758680  56.2465811  -0.4023755   9.8223877  23.9538002  31.6850281
  10.6734645  23.6203265  31.9690967   9.9184394  24.9058938  31.7078781
  60.8257753  46.8527174  50.1090574  60.5301559  46.2431669  50.7852888
  61.7524254  46.6454411  49.9882793  63.7889156  26.9714093  40.1335621
  63.1333363  26.3338637  39.8507500  63.5660291  27.1554089  41.0460854
   2.8609729  49.1271162  13.2679105   2.8720322  48.5193014  12.5285411
   1.9485760  49.1358042  13.5571992  46.4634239   3.8911337  33.2905889
  46.0123932   3.1637425  33.7191987  45.8220136   4.2389721  32.6710463
  30.0886226  41.2512302  17.6769733  29.4863987  41.2305498  16.9332469
  30.9456253  41.4224911  17.2865248  17.7794981  57.5989962  46.7124844
  17.9991949  57.7291870  45.7899761  16.8239152  57.6472092  46.7402315
  60.2289945  60.7797909  14.6447408  60.6268769  60.0954103  14.1066515
  59.7781426  61.3455105  14.0179038  34.3202376  54.7468459  16.5651277
  33.4616672  55.0994336  16.7991594  34.3283390  53.8666856  16.9412712
  29.3988472  19.4428050  15.6385759  28.5462379  19.0808892  15.3971056
  29.9926787  19.1337835  14.9543956  36.8777060   3.8926596  38.4392285
  37.5526010   4.5114464  38.7182426  37.2726774   3.0310673  38.5729790
  53.3529383  63.8531923  51.1268425  54.1735846  63.3710146  51.0254622
  53.5503882  64.7325230  50.8043242  57.2347098  47.5861883  36.9674230
  56.7440337  47.6007748  36.1456847  56.7443365  48.1666374  37.5495315
  46.5836553  37.7131230  18.3530954  47.5281398  37.7339941  18.1990007
  46.2080755  38.1705576  17.6008132  61.1972952  47.6276922  55.8575392
  61.8601036  48.2970333  55.6875420  60.9392643  47.3200035  54.9886417
   8.9742225  44.8502874  43.3694601   8.9443284  44.1474771  44.0186119
   9.1170353  45.6450987  43.8833761  23.4300685  25.5563951  44.8572016
  22.9714942  26.2924170  44.4519711  24.2888117  25.9086919  45.0910425
  31.1020922  13.3993525  49.0058470  32.0253717  13.3351988  48.7615681
  30.8373153  14.2718405  48.7144852  28.2542413  36.2344559   7.1581510
  28.7841415  36.9629847   7.4816993  27.4490115  36.2763696   7.6739791
  16.1468297  60.5765902   1.7360023  15.6348156  61.3663041   1.5615753
  16.2665867  60.1739537   0.8759025  49.4685274   7.7900261  30.5032539
  50.0774866   8.2091136  31.1113358  49.1144949   7.0474238  30.9925723
  16.4199519  61.7601156  46.5934372  15.9821093  62.6096201  46.6469479
  16.7281568  61.5929890  47.4841166   8.2594996  19.8602444   3.2941011
   8.2156139  20.5326611   3.9739278   8.1266051  19.0364605   3.7630895
  39.4811701   6.8817717  26.7663864  38.9524012   6.1593801  27.1051887
  40.3731911   6.6780430  27.0475009   7.4995375  56.9122744  31.6929793
   8.0423599  57.6302719  32.0186424   6.9803065  56.6420078  32.4503326
  51.9203192  20.2199554  43.3809519  51.8847686  20.5597401  44.2751074
  52.2273189  19.3186688  43.4792519  45.9522861  21.7150426  33.5186410
  45.2161401  21.1046052  33.5597539  45.6573576  22.4795890  34.0133309
  59.7484761  11.9967353  41.6924953  59.8015159  11.4881647  40.8833122
  60.6605285  12.1498454  41.9393730  49.6759934  57.6962095  41.0602236
  50.1072142  58.4356909  40.6319189  49.0779999  58.0994069  41.6895628
  17.0934451  51.7287397  51.4501190  17.3677230  52.6438904  51.3909197
  17.8389609  51.2806320  51.8496656  61.3717455  57.8509437  38.9025497
  61.2159354  58.5803347  39.5025015  60.7689470  57.1673160  39.1949868
  61.1111592  26.8327910  32.1490100  60.6278514  27.3829466  32.7654270
  60.8362662  27.1417910  31.2857727  65.3219211  28.0136108  36.5393710
  64.7982809  28.7992644  36.6967821  64.8442343  27.5398397  35.8584976
   3.5892391  29.1739655  55.4175949   3.3125451  29.8280430  54.7758389
   2.9645672  28.4563160  55.3127384   1.7545473  13.8562011   2.5234941
   1.1921250  14.0579092   1.7756752   1.9034373  14.7019934   2.9462198
  29.7628111  11.0930884  28.2945085  29.0454167  11.3429320  28.8768792
  29.8245114  11.8138254  27.6676416  16.9450986  11.9704247  54.6779299
  17.3915637  11.7921758  55.5056524  17.6124167  11.8194771  54.0085030
  37.8969240  46.5541697  49.6316147  37.4780083  45.6936836  49.6490049
  38.4593654  46.5311384  48.8574266  23.2945137   8.3874279   5.1457027
  22.8023176   7.6167566   5.4286150  23.9736395   8.4956080   5.8115295
  55.0451451  31.6214871  30.0165701  55.3449827  32.1506238  29.2774224
  55.2016526  30.7176137  29.7431660   7.0668811  37.9386830  33.4651971
   6.1273825  37.8309631  33.6134243   7.3459190  38.5594583  34.1382575
  16.6862965  20.8797431  20.5814934  17.1219456  20.0294614  20.6403375
  17.2329378  21.4656806  21.1050344  49.0403610  45.8829355  40.7463217
  48.8386041  46.3235950  39.9208832  49.5374840  46.5293074  41.2476206
  62.8404074  63.9951670  14.0602687  63.1212097  63.2245671  14.5537857
  61.9929486  64.2271053  14.4400743  57.7404052  27.3564315  49.2918730
  58.1593054  28.2166839  49.3186378  57.4118882  27.2222400  50.1808596
  44.3442505  49.4271326  21.5739870  44.3892687  48.5225153  21.8836164
  43.4074658  49.6185923  21.5291309   4.0136725   4.0169242  13.4202445
   3.2271105   4.3359810  12.9778028   4.6715969   4.6924746  13.2559323
  27.7726746  29.0069008  47.2167349  26.8369818  29.1362262  47.3716116
  27.8571510  28.9869595  46.2634802   1.3221075  50.7737541  24.0832186
   0.6025382  50.1512146  23.9788342   1.1966220  51.1402988  24.9585056
  30.9879398   8.8433808  47.0104313  30.5556917   9.5889664  46.5938997
  30.6409097   8.0783606  46.5515757  65.8458336  32.9518008  45.4352427
  65.2878106  33.4552050  46.0280561  66.0936080  33.5751534  44.7524023
  59.3626219  27.8282285  12.2915149  58.9592343  27.8837061  13.1577897
  60.1977646  27.3860812  12.4440694  66.3324933  61.5258455  19.5480192
  65.8400367  61.4631319  20.3664231  65.6663400  61.6844273  18.8791966
  33.0032026  45.5166351   0.7275394  32.8800129  44.8100101   0.0937084
  32.4438744  46.2248337   0.4084161  62.0154427   0.7565767   1.5682748
  61.1303209   0.4002696   1.4918664  62.0310067   1.4925534   0.9564546
  67.6673174  51.7072248  31.9986892  66.7835741  52.0710421  32.0522380
  68.0390934  52.0966387  31.2072515  27.5417760  42.3545014  16.3608888
  27.6170924  42.0973026  15.4419759  26.7878654  41.8625897  16.6862730
  22.6331925  51.3455676  12.2778181  22.1301362  51.8635964  12.9061607
  22.4118266  51.7214786  11.4258102  12.7418792  14.0170121   2.6316217
  12.5694811  13.1587458   3.0187771  13.6832082  14.0167475   2.4580377
  17.8276467   2.9042573   4.4921014  17.9428744   3.7259860   4.0149009
  18.1793558   2.2350163   3.9050359  58.6022556  48.5384989  28.7794423
  57.6993340  48.2268333  28.8413262  58.5810310  49.1978788  28.0858994
  58.6645698  59.5805645  16.7927659  59.1459429  60.0931692  16.1433458
  57.8146452  59.4147253  16.3848972   5.4591805  55.7973528  39.8000550
   5.5084288  55.9554577  38.8572884   6.0252541  55.0393391  39.9456835
  12.2541285  26.9883919  13.0367899  12.6480663  26.9827509  12.1644282
  12.7707613  26.3566232  13.5369778  58.6705351   3.5080957  46.5388250
  58.5022336   2.8580332  47.2209740  58.4764016   3.0518499  45.7200575
  50.4386562  19.7874749  28.2756925  50.2183121  19.0143895  28.7953281
  50.5759805  19.4499433  27.3905683  28.6715048  34.4456510   0.9939388
  27.9834592  33.8658270   0.6673959  28.2027822  35.2147430   1.3180212
   3.3423429  21.3361889  11.3508991   2.4546914  21.1968285  11.6808799
   3.5466986  22.2407919  11.5878967  64.3145573  51.0627413  30.1034021
  64.9000752  51.0536528  29.3462253  64.4214558  50.1977968  30.4992318
  17.2069204  39.2472887  12.1855772  16.4244163  39.7155595  11.8946469
  17.6295495  39.8463106  12.8010368   5.2399033   5.8003032  49.0395546
   4.3920821   5.4308528  49.2864084   5.1583111   6.7349339  49.2293930
   0.1821973  44.8169756  54.2767572   0.2371799  44.7643185  55.2309275
   1.0687775  45.0461578  53.9980459   1.3858242  10.3757644  23.6048603
   1.1448990  11.1062002  24.1746402   0.5994545  10.2075100  23.0856824
   5.2014464  49.7608566  32.6917481   5.1161832  50.6417608  32.3271012
   4.6630889  49.2123175  32.1212125   0.7994019  52.8912818   7.1942905
   0.8227407  52.8838312   6.2374071   0.6162011  51.9835293   7.4364809
  48.6538095  61.0726303  54.7453373  48.3574767  60.3716892  54.1647324
  47.8894896  61.6401547  54.8451499  25.6818313  37.7842939  45.7554367
  26.4127785  37.2989357  46.1380270  25.2115876  38.1420696  46.5084961
  64.9873793  40.8547258  42.3808479  64.5032391  41.5723801  42.7892828
  64.7390765  40.0803852  42.8857946  67.9204565  47.5383889  15.4236892
  67.2738724  47.3107790  14.7555927  68.3791500  48.2977402  15.0642208
  52.1135872   3.2765290  26.6466570  51.4348167   3.4785733  27.2906137
  52.3878783   4.1302991  26.3118839   7.5853122  14.2223442  31.5129086
   7.5635732  15.0782955  31.0849973   6.8507278  13.7437857  31.1287233
  50.1529235  37.5550437  53.3930874  50.3860456  37.3389840  52.4901962
  49.5875531  36.8352628  53.6732721  61.1010188  59.3579435  22.1010089
  61.0158360  60.0126171  21.4079165  60.4306882  59.5978642  22.7407956
  65.6194376  58.5079009  13.3933738  65.1850902  58.0564219  14.1170743
  66.3842153  58.9215666  13.7936500  11.9377172  37.0689797  20.8348989
  11.7840743  36.1709785  21.1285353  11.8638790  37.0251799  19.8815560
   9.9608392  49.8044109  35.9512925   9.7520846  48.9983273  35.4791880
  10.8959365  49.7341633  36.1433649  11.7315423  32.7520537  23.9601159
  11.1418736  32.2015190  24.4753170  12.5219107  32.2226310  23.8539982
  45.0158644  17.6987743  50.7574272  45.2930450  17.3196566  49.9233580
  45.1275396  18.6422288  50.6405735  23.7735891  47.9371405  42.0471716
  24.0205836  48.1232357  42.9530382  22.8209758  47.8469944  42.0723438
  36.8637835  12.7327389  53.5186005  37.6758646  12.5963873  53.0305815
  36.1722731  12.4702925  52.9110098  55.5061167  18.4708405  11.6666675
  56.0633725  19.2393124  11.5435803  54.8035639  18.5792923  11.0256612
   7.2680384  31.8256974  34.1016555   7.1928507  31.9167471  33.1517673
   8.1384003  31.4514709  34.2382479  10.6893807  -0.0069731  36.7637828
  10.0651818   0.5426055  36.2898925  11.4636951  -0.0295275  36.2015060
  66.8221734  25.7478476  17.7848780  66.9300383  26.3031149  18.5570681
  65.8853415  25.5531716  17.7588332  17.1457308  38.6955970   7.4266342
  17.5848746  39.0170335   8.2140735  16.6552329  39.4503009   7.1009544
  14.6627444   0.8862109  41.8507290  14.5594090   0.1580710  41.2380600
  14.8140543   1.6490979  41.2927485  53.1499606  52.3477364  12.0445013
  53.6505312  52.6287365  12.8104639  53.6753350  51.6465425  11.6590917
  49.9579181  10.1927096   1.7997983  49.9605822   9.5801646   1.0642627
  50.5163615  10.9149176   1.5120653  55.2356869  43.7514305   5.8593512
  54.9016899  43.1033897   6.4796072  54.4532746  44.0977716   5.4302716
  49.0622341  59.1545855  28.8656047  48.1693708  59.0113866  29.1794876
  48.9541566  59.4427072  27.9592136  68.1906127  24.2547703  29.9590039
  68.0713603  24.3297815  30.9057784  67.3169526  24.3987942  29.5954013
  55.4773044  16.3895709  29.4989399  56.2047218  16.2872559  30.1126388
  55.8705138  16.7971236  28.7272457   3.9584556  62.1195984  42.0574617
   4.1199428  61.3718748  41.4820814   3.5197407  62.7612877  41.4988947
  31.1046075  43.4379565   4.3272832  31.6905963  43.2554328   3.5927537
  30.4128026  43.9828228   3.9521030  50.4774940  62.6841199  28.0227855
  50.9705150  62.1694838  27.3837951  50.6372034  62.2451984  28.8582901
  13.5924471  11.5932882  53.1504711  14.3781627  11.2415207  52.7319717
  12.8929270  10.9950150  52.8878384  15.4288065  39.6635151  14.5662618
  14.5251453  39.5428967  14.8579454  15.5311012  39.0461922  13.8419127
   7.1942061  39.9259138  29.0117478   6.4028943  40.0963068  28.5008430
   6.9273460  40.0654459  29.9203444  45.3197507  63.3576997  33.3716440
  45.8274707  64.1682108  33.4106803  44.4506317  63.6040285  33.6881661
   7.1593589  57.5990963  54.9773264   7.9333735  57.1038151  54.7093201
   6.5389234  57.4816561  54.2579556  37.1897530  -0.3254610  46.7127466
  37.4254286   0.3464455  46.0730362  37.3741352   0.0767750  47.5615358
   8.4299809  29.4616914  25.9922910   8.3232999  28.9155483  25.2134609
   9.2113203  29.9847102  25.8128738   8.5675651  44.6133757  29.9921656
   7.6336980  44.4088125  30.0398874   8.8227582  44.3620300  29.1045070
  43.3912026  22.3025126  30.4554343  42.6388764  22.6653189  30.9229898
  43.9005911  23.0683703  30.1904511  33.5024595  22.0103335   7.8045863
  33.6912441  21.5720177   6.9748437  34.0618873  22.7870107   7.7978873
  52.5790411  37.7197433  15.3572166  52.2962862  38.3764291  15.9936476
  52.4845236  36.8850994  15.8162034   5.5130148  42.3470545   3.2740110
   5.0469059  42.1323633   2.4660003   4.8216999  42.4618340   3.9260399
   9.2074084  15.7542086  55.4947901   8.8424975  15.9343195  56.3611794
   8.8343835  16.4327097  54.9320078  31.4417838   2.7200896   0.5828622
  30.6203770   2.2826702   0.3588394  31.3769721   3.5793573   0.1661018
  62.5537467  47.3412991  42.7183628  63.3264661  47.9050350  42.7549839
  62.8378880  46.5777826  42.2158289   1.1619472  35.9393764  32.3343229
   1.0490383  35.4735136  33.1628489   2.0917012  35.8411050  32.1290612
  58.0728644  53.4525061  54.4034147  59.0091288  53.5313654  54.2205954
  57.7022105  54.2881775  54.1196871  42.8862913  24.6598059   6.6409210
  42.5620459  24.3818289   7.4975589  43.5696681  24.0249688   6.4259580
  59.7873831  31.2238455  29.3741107  59.2411619  31.1443329  30.1561284
  60.6825274  31.1146259  29.6950769  18.8135195  37.9494238  51.2562704
  18.8779914  37.0694280  50.8852148  19.6995401  38.1467986  51.5599871
  11.8542838   1.2211169  31.3526082  11.2131059   1.4740796  30.6884313
  12.6992321   1.4660797  30.9753966   3.0494242   7.7810532   0.1661638
   3.2851534   8.6775500  -0.0724884   2.9700809   7.8000671   1.1198762
  51.9032448   6.1040795  30.9091568  51.3949019   6.0906798  31.7201066
  51.3211876   5.7170713  30.2551937  67.4403560  62.8059149  37.2519374
  67.1178257  62.6840210  36.3589954  67.0325054  63.6208725  37.5447512
  60.5585319  11.1726260  39.0126872  60.8295888  10.2551472  39.0442133
  61.3768846  11.6612482  38.9244819   5.1607668  37.1927094  27.0372152
   5.9049052  37.7481914  26.8049860   4.7696242  36.9527745  26.1971736
   6.5610945  53.5890579  15.9296584   6.1062503  54.3187475  16.3502574
   5.9086925  53.2063341  15.3430367  16.0405004  53.4750319  41.4421034
  16.4870584  52.6364040  41.3258219  15.1090860  53.2579327  41.4024830
  41.6090029  55.7349634  52.0900536  41.9286531  54.8866272  52.3972702
  42.3948949  56.2773991  52.0239592   7.6681012   4.6854582  33.2747126
   7.7120882   3.7727615  32.9896140   7.8015161   5.1931149  32.4742651
   2.5143874  44.9749547  52.6639891   1.9193066  45.0864261  51.9225836
   2.6079047  44.0267473  52.7555895   5.1039093   2.9005427  44.8182583
   5.7369583   3.5619444  45.0975895   5.6101769   2.0896000  44.7703028
  47.9301256  46.9318771  38.3558488  48.0076736  47.8770590  38.2260227
  48.0593008  46.5589428  37.4838042  26.9296193  47.7010632  48.8269329
  26.4299846  48.3522844  49.3193865  27.7417922  47.5972128  49.3227339
  67.8759628  63.9772188  21.8703893  68.2903009  64.8266231  22.0222620
  68.4777480  63.5185921  21.2840894  23.5841495   8.7324894  42.9115054
  23.3209926   9.4278324  42.3086139  24.3808633   9.0636766  43.3259865
  25.0769502  17.2770155  51.3980347  26.0074276  17.4213112  51.5701496
  24.7276432  18.1506432  51.2219983  40.0210661  16.6451073  14.0656328
  40.0701183  16.0037446  13.3567739  39.3577331  17.2716117  13.7763047
  18.1263136  50.7173323  28.3877853  17.9855516  51.4859342  27.8349117
  19.0204611  50.4396331  28.1887439  14.1092324  36.4739966  17.4006510
  13.3387947  36.4133215  16.8358696  14.0963376  35.6643915  17.9111457
  28.4361118  44.0656977  22.2753835  27.6040274  44.5096200  22.1116781
  28.3052320  43.6107259  23.1073117  55.9782731  14.0362793   3.4265235
  55.1681702  13.8616950   3.9055685  55.9554099  13.4281689   2.6876644
   6.3421738  56.7165327  43.7548780   5.8491087  55.8961868  43.7671041
   6.8878132  56.6797543  44.5404720  10.0821066  51.8254232  41.3253689
   9.2145360  51.4864635  41.5459538   9.9498898  52.3098850  40.5104733
   5.3462946   7.3815632  10.0536430   5.7492459   7.7411175   9.2633373
   5.5932975   6.4567930  10.0489438   7.9051621  49.6587163  53.5871893
   7.8337044  49.7289580  54.5391304   7.2416217  49.0130395  53.3441892
  58.9111417  21.4139247  30.8191609  58.1700343  20.8846879  30.5243731
  58.8535893  22.2164965  30.3007007  22.2023142  38.9550000  18.0370128
  21.5212238  39.4438797  17.5751233  22.1767033  38.0814438  17.6465321
  10.1510882  14.5051765  53.3001852  10.9780633  14.9403989  53.5073662
   9.5349181  14.8387635  53.9523220  50.3013474  56.4084291  46.5863705
  50.6704396  56.5096807  45.7090187  49.6380371  55.7251167  46.4897776
  19.5039868  53.2550144  23.1632853  19.0064526  52.8852844  23.8926601
  19.5648873  54.1889668  23.3639359  61.0774708  16.7335272  38.1048703
  60.7889169  16.1951756  37.3678851  61.1061454  17.6237965  37.7543998
  45.4361975  15.6574685  26.5826610  45.4762752  16.4589745  26.0609249
  45.7850610  14.9782473  26.0054496   5.5720305  34.5180893  19.8645365
   5.4567689  34.9881196  20.6903791   6.0647398  33.7327480  20.1026750
  62.7016491  50.9240675  25.3910971  63.5710910  51.0863256  25.0250721
  62.8631514  50.7272005  26.3138080  63.4353340  63.6735964  22.3327231
  63.5736894  63.3814955  23.2337046  62.5536555  64.0462494  22.3344731
   1.1171987  30.7988143  27.3485947   0.2340569  30.6870365  26.9967437
   1.2895374  31.7370486  27.2695470  49.9108135  11.1061234  50.7362413
  49.3448150  11.2004418  51.5023851  49.4556319  10.4753775  50.1783848
   7.1880425  12.0533884  54.0587470   8.1212819  11.8439520  54.0966202
   6.9318307  12.1717823  54.9733896  57.1240705  44.8627281  43.8350630
  57.6285249  44.0550709  43.7378645  57.2233373  45.0975561  44.7576857
   3.6899301  64.0748978  31.7348933   4.4856989  64.5462799  31.4883447
   3.5406944  63.4633255  31.0138273   4.7761201  53.2723414  13.9309267
   4.9142420  52.5884902  13.2755617   4.3985307  54.0020191  13.4397796
  30.9252285   3.2910389  28.5043621  30.6185591   3.5290236  29.3793178
  30.5598098   2.4196810  28.3512640   9.1789358   1.2047047  55.2323771
   8.4100550   0.6351037  55.2569389   8.8392371   2.0747704  55.4417086
  59.3807065  13.6150259  34.5042634  59.0605914  14.4567770  34.1798878
  58.9473235  12.9648108  33.9514279  12.4524486  20.3123736   9.0089977
  13.0908048  19.9906766   9.6455848  12.9760873  20.7878327   8.3640367
  56.8327486  19.9199099   0.0930466  57.1680915  20.2488608   0.9270573
  56.7243540  18.9791865   0.2327728  50.4499900   8.5491080  32.8324127
  49.8827803   8.5035796  33.6021090  51.0873401   9.2310233  33.0445671
   8.5507786  62.6531839  33.2706094   9.1420597  63.0634546  32.6395011
   7.7789307  63.2192373  33.2787156  25.5290842  40.8232069  45.6381655
  25.2772307  40.6546736  44.7302008  24.7675157  40.5541754  46.1518431
  49.3367159   1.0992951  27.2214603  49.6538269   1.1369843  26.3191009
  48.8149273   1.8950123  27.3253965  41.9533253  28.2818174  18.6772752
  42.8898287  28.1773424  18.8454306  41.9106579  28.7808371  17.8615594
   0.7744162  37.0021081  46.6382980   0.2458179  36.6497612  45.9222889
   0.5524541  36.4548945  47.3916388  41.2078762  58.3234978   7.3506385
  41.1588240  57.7628851   6.5763366  42.1456814  58.4347248   7.5067872
  38.0599284   9.6959586  43.7017536  37.9957807   9.1189188  44.4627666
  37.4060261  10.3765149  43.8614035  15.4668456   1.2905688  53.8843203
  15.7928234   0.6413741  54.5076275  16.1322844   1.9786257  53.8851309
  55.6855398  10.3012848  53.6450720  56.2170809   9.7433197  53.0772924
  55.6489712  11.1418355  53.1886005  21.0102874   0.8854241  35.2151132
  20.0578159   0.9144444  35.3056049  21.1631785   0.2892203  34.4820404
  32.5497514   8.7516016  15.6328535  32.7060091   8.9082760  14.7015810
  33.1351625   9.3627591  16.0800779   7.1594799  30.6345057  39.9258566
   7.4128723  31.4181066  40.4136992   7.7446175  30.6242847  39.1683984
  11.3670957  10.3277058  52.2350931  10.6710946  10.8484787  51.8343353
  11.2140440   9.4380278  51.9168568  13.9890647  54.9292707  25.8522391
  13.4624672  55.4171467  25.2190685  13.4261334  54.8513699  26.6224790
  38.6709046  43.3872700  51.1033869  38.6023140  42.5622988  51.5839481
  38.3985639  43.1686592  50.2121639  27.5565305   1.5850920  40.7117939
  28.3825170   1.1262316  40.5587387  26.8825578   0.9234995  40.5559397
  67.4199487  35.4700565  30.1030350  66.7607856  34.8414207  30.3972340
  68.1321911  35.3845096  30.7367730  17.8342271  38.2990694  41.5761423
  18.5497797  37.6945853  41.7731571  17.4248731  37.9375577  40.7900333
  37.5983166  46.8540055   2.9657606  37.4640094  46.9018656   2.0192388
  38.4257405  47.3119408   3.1137231  65.8642815  56.3606930  53.6323452
  66.2880961  56.2384796  52.7828264  66.2720093  55.7064438  54.1997480
  39.6976757  62.6303625  45.6282139  38.9882231  62.8465509  45.0230885
  39.3111849  62.7351141  46.4976263  19.0734363  44.8022556  38.1669402
  19.4689941  43.9337111  38.0935025  19.6595383  45.3749657  37.6722503
  36.7670274  55.4695892  36.7580938  36.5843320  56.0932159  36.0552812
  35.9035850  55.2203941  37.0876360  14.4740140  61.5428686  28.5655642
  14.8032653  60.7560635  29.0000248  14.9546218  61.5787029  27.7385426
   6.2966788  42.9665279  37.6146030   7.0613974  43.4080601  37.2451615
   6.0484076  42.3224354  36.9514775  27.1644235  55.3039885  45.2112532
  26.6063356  56.0710335  45.0831366  28.0564976  55.6502247  45.1877356
  36.0107069  31.2199217   2.6250127  35.5307387  30.5152422   3.0600885
  36.0271644  31.9301373   3.2665351  39.1430044  59.7729921  47.7887297
  39.7632360  59.7845697  47.0597506  38.3004236  59.5686626  47.3830938
  10.7107151  43.8238371  54.8513485   9.8936737  44.2949713  54.6879126
  10.7263148  43.6931742  55.7994601  57.1781820  57.8056669  39.6306658
  56.6748398  57.6927280  40.4369688  57.8837925  57.1622515  39.6966910
  61.1742055  12.6519382   3.4513941  60.5243385  13.2967389   3.1718639
  61.0710877  12.6044893   4.4018400  14.0361297  29.1178507  29.3540859
  14.1956973  30.0613970  29.3763852  13.0833512  29.0350623  29.3939734
  58.9289647  32.6356006  11.4614654  58.4622872  31.8679953  11.7919624
  58.3349740  33.3673596  11.6286039  12.9226339  34.8564566  50.5481127
  12.5201571  34.9655617  49.6865210  13.8072718  34.5422876  50.3611758
  61.9580250  62.2182214  20.6042150  62.1331530  62.8524672  19.9090198
  62.6302105  62.3930895  21.2628654  60.6966358  57.9298115  18.5858095
  59.9429864  58.2185268  18.0711377  61.4535600  58.1298923  18.0351150
  57.9332238  64.4845486  21.0499096  58.4307551  63.6816454  20.8948565
  57.2194475  64.2160654  21.6284180   8.6745506  10.3113419   7.7445081
   9.3126302  10.0677401   8.4151367   9.1737824  10.3117758   6.9278053
  12.8536516  16.1414248   0.3436807  13.6326795  15.6517798   0.0798753
  12.4763518  15.6254775   1.0561946  42.2573221   5.2271975  53.5634109
  41.4503575   5.6222618  53.8935068  42.4550876   5.7175458  52.7654892
  23.7119268   2.3168225  49.7218752  23.4357191   1.4056201  49.6236324
  24.3499323   2.2981209  50.4351997  10.7436781  24.8983771  18.4337047
  11.3482862  25.2598339  17.7856067  11.1288028  25.1335103  19.2778734
  60.0773198  59.6724530  41.0937881  60.5538458  60.4953184  41.2035513
  59.2217726  59.8363706  41.4905262  67.8925167  29.3393993  37.5288939
  67.1044266  28.9232421  37.8781199  67.7151674  29.4414687  36.5938210
  26.1754417  45.1675415  12.6164174  26.4972210  44.2992687  12.8588831
  25.7493472  45.4948854  13.4085798  63.6960998  26.1457634  48.0311680
  62.7766454  26.1279225  47.7656174  63.9366537  25.2238989  48.1235409
  20.4041052  61.8611050  26.2194180  21.2724257  61.8374920  25.8173084
  20.0217032  61.0080147  26.0138965  21.6829330   6.5665144  53.0643129
  20.8131754   6.7385954  52.7035618  21.5431745   6.5094037  54.0095282
   0.3457201  62.5139044  12.5316691  -0.4181802  62.9814445  12.8694487
   0.3861678  62.7577243  11.6069269  63.5732856  37.2818375  20.1793456
  64.2105463  37.2344589  19.4666851  64.0307206  37.7480459  20.8790851
  14.3092620  51.8290234  33.6210012  14.6436834  51.4481401  34.4329882
  14.8961341  51.4974213  32.9414034  25.7082014  37.0745427   4.0778020
  25.2370196  37.0262391   3.2460025  25.1586228  36.5889460   4.6929363
  27.9370241  37.4199730   1.7494539  28.2234984  37.2956997   2.6542858
  28.6887484  37.8209549   1.3131527  59.0285849  60.1531363  28.8145113
  59.2067826  59.8015928  29.6868038  59.5653236  60.9438658  28.7607098
  38.0398178  18.6453242  24.0575314  37.8581750  17.7310652  24.2751980
  37.5782930  19.1476531  24.7290182  47.0143080  49.5252466   8.2558244
  47.2315741  50.3941011   8.5936350  47.3258400  48.9213610   8.9299923
  31.0929251  53.2710075  30.4604316  31.0938430  52.3690748  30.7809734
  30.1977897  53.5765409  30.6074643  65.0543933  12.1845955  30.4207039
  64.5964485  11.3458151  30.4752016  65.4491907  12.1857161  29.5487118
  24.4893050  31.6829157  55.6597424  24.4931817  32.6241589  55.4857349
  23.6517787  31.3782334  55.3105259  33.9479703  56.4853371  52.6259651
  34.6493370  55.8352554  52.5845244  34.1600615  57.1109856  51.9332826
  63.7587330  50.8664703  15.3242671  63.2206416  50.1216364  15.5924344
  64.1139868  51.2124062  16.1430192  67.7229849  46.4620399  32.1625066
  67.2351464  45.9309721  31.5330505  68.0831866  47.1799612  31.6418576
   6.7207002   9.8293871  49.9161243   6.5801489  10.4129977  50.6616926
   5.9690868   9.2368502  49.9307537  33.1530630  22.1028800  16.2293375
  33.7734258  21.7807192  16.8832409  33.1705451  21.4424033  15.5367410
  14.4406974  57.6863194  14.8620260  14.0561450  58.5628653  14.8573840
  15.0034201  57.6675463  14.0879309  54.9731082  57.3270655  21.7098832
  54.4569939  58.1163549  21.8738365  55.2295285  57.3953152  20.7901978
  13.3483827  37.4961567  34.9835920  12.6952994  36.8069386  35.1048064
  13.8120198  37.2487617  34.1835499  11.2623107  24.6977091  51.4440441
  11.9473076  24.5567608  50.7904768  10.9697807  23.8168931  51.6781855
  59.9133955   6.7330986   1.3400320  59.7145306   5.7981783   1.3911108
  60.2349161   6.9576341   2.2132114  55.3877890  34.7135348  13.9412618
  54.4313347  34.7470946  13.9239061  55.6520426  35.5772490  14.2581069
   7.8069729  44.7094822  40.9700680   8.3992416  44.1912937  40.4251575
   8.0698425  44.5079756  41.8681383  65.7950172  41.1683702  23.0760932
  65.2557284  41.9095707  23.3518147  66.3837439  41.0126925  23.8146019
  62.5719201  21.7788977  10.1345968  62.8160011  21.4623065   9.2648721
  61.8698132  21.1917777  10.4148841  23.5447501  32.0730502   4.0914014
  24.1777061  31.6764790   4.6900085  24.0451859  32.2463185   3.2940486
  23.3593508  14.4294924  24.2299271  23.1781972  14.2618651  23.3050942
  24.3125471  14.3778128  24.3004799  55.4091597  50.9882689  35.2574658
  54.9938059  50.2602768  35.7197785  54.8269415  51.1663198  34.5188498
  27.4589726  25.3163046  11.4726770  26.7311283  25.9341616  11.5414953
  28.2374507  25.8695120  11.4080811  21.5346599  62.2974396  28.6163998
  22.0017505  61.5836000  29.0505552  21.0361624  61.8691635  27.9204750
  10.7033718  20.7567823  54.3317575  10.4274548  20.0378407  53.7632294
  11.5919412  20.5226601  54.5998334   4.1106809  12.8961933  54.3055044
   4.8993362  13.1372822  54.7914375   3.7275732  12.1793879  54.8111223
  11.9933248  50.0652266  27.9797125  12.7872765  49.5386124  28.0721593
  11.6206586  49.7915936  27.1415734  48.9838129  44.0423441  42.9272795
  49.1518861  44.4963312  42.1015215  49.8496884  43.9305878  43.3197117
  30.5856436   4.0668005  22.5246668  29.6809428   3.7572283  22.4809027
  30.7816278   4.3604035  21.6349363  49.0991055  11.5852828  47.3965788
  48.8480699  10.9596962  48.0761766  49.9836647  11.3215155  47.1431780
  44.4726372  58.4941673  40.3396702  44.1934252  58.8112259  39.4807506
  45.4286528  58.5309458  40.3093863  41.2325966  49.9336671   2.7247194
  40.2900278  50.0044798   2.5737909  41.3495302  50.1977121   3.6373237
  47.8410953  42.5363779   8.5537100  47.6449269  42.2954512   7.6483345
  47.0083111  42.4344778   9.0144879  58.9472245  31.2430769   1.0907749
  59.6966790  31.5125519   0.5598024  58.2251500  31.7896325   0.7807449
  55.1724023  60.0763023  50.0574585  55.4446167  60.1805389  49.1457215
  55.1741439  59.1299618  50.2012387  11.8145871  54.2130470  22.1742320
  10.9446681  54.6121168  22.1594095  11.6644251  53.3230591  22.4929881
  12.6168919  50.3081369  46.6779089  12.9752767  51.0712862  47.1311140
  13.3712673  49.9130154  46.2408400  64.9064699  38.4137487  22.8403234
  65.0112453  39.3540525  22.9855275  64.9325460  38.0315685  23.7175298
   9.5623952  54.9337530  18.7968564   8.8982266  55.6123781  18.9176047
   9.0615439  54.1361523  18.6259425  20.5884957  19.8688293  50.7834005
  19.8933160  19.9673390  50.1328230  20.1886511  20.1515388  51.6058540
   1.9728386   7.2874112  35.8698678   2.3125874   7.9184956  35.2354097
   1.2545430   6.8506474  35.4121304  67.1052627  56.1810207  17.1493793
  66.8924120  56.9063616  17.7365780  68.0588696  56.1100960  17.1922231
  67.8565262  26.6481018  41.2602091  66.9538690  26.9037247  41.4502048
  68.0788180  26.0232115  41.9503784  64.3083492  57.0209599   4.2869580
  64.9449009  57.3815107   3.6696756  64.7995216  56.9121122   5.1012880
   9.0880793  60.2460241  26.7833591   9.9622458  60.3789711  27.1499515
   9.2456985  59.9943781  25.8733797   8.7878036  34.1920280  21.9441628
   9.7030860  34.4254088  21.7891669   8.3605784  35.0230622  22.1517563
  37.7459263  19.0398497  33.1903720  38.6969506  19.0833373  33.2898402
  37.4323725  19.8842520  33.5142684  37.8224909  54.5066750   4.5802072
  37.9738080  55.0558388   5.3494648  38.6411797  54.5550405   4.0866092
  32.1391082  58.1865740  17.0088243  31.6769600  57.3518658  16.9319320
  31.8419504  58.5488701  17.8434920  15.1205611  20.2933311  47.9471254
  15.2548265  20.9552550  48.6254025  14.3431544  19.8129094  48.2318449
  43.7038326  55.8364058  40.1784658  43.4338570  55.7944107  39.2610908
  44.0863085  56.7084455  40.2758980   8.8945990  15.8783633   9.1024688
   8.8689523  16.3573271   9.9308208   8.1507259  15.2778346   9.1499046
  14.4998145  54.0524006  23.0894899  13.5434651  54.0707445  23.0535531
  14.7153139  54.4459105  23.9350319  14.4256866  59.2265511  55.0307989
  14.9331355  58.6991930  54.4138575  15.0737822  59.5573616  55.6527090
   3.2100349   5.0903732  16.7646984   2.8672080   4.1975314  16.8038372
   2.5253039   5.5906063  16.3206914  16.2758387  18.7144363  42.4311992
  16.2523521  19.6649302  42.3205801  15.5245936  18.3963955  41.9304856
   9.7439640   4.6259446  54.2690659   8.9318913   4.1310973  54.3781328
  10.1365631   4.2693371  53.4722424  60.9166753  32.5590897  35.5830598
  61.1876142  33.3128858  36.1070967  60.1867902  32.1779633  36.0711622
  14.3824148  33.1049538  46.6355419  13.9112651  32.9867053  47.4603271
  13.8357711  33.7079597  46.1317635  26.5230465  55.1133156  54.2380095
  25.9726453  55.6632900  54.7955179  27.1144152  54.6709728  54.8469877
   1.5961501  54.5060921  49.1040611   2.1437749  53.7515497  49.3208694
   2.0686358  54.9506092  48.4002161  47.3272049   2.3957247  52.5474834
  48.0812585   2.5289196  53.1218481  46.7369282   3.1200261  52.7553034
  51.6976416   0.5780119  28.7841964  51.5244901   1.2049384  29.4864893
  51.0037100   0.7373423  28.1444263  18.9210033  60.0962305   5.7549554
  18.7997270  60.9759760   6.1121213  19.4677007  59.6487808   6.4008224
  45.6606408  18.5905415   1.6159156  46.2657153  19.3307787   1.6624502
  45.9612055  17.9921490   2.2998861  24.8750424  23.1075239  53.6280966
  25.2023625  22.4009967  53.0713987  23.9240527  22.9990888  53.6183882
  57.1475714  26.0372281  45.0235796  56.8235606  26.9329357  44.9289513
  56.3946444  25.4862976  44.8095465   0.8033591  13.7713677   7.1507839
   0.8916335  14.7214657   7.0749286   0.6947952  13.6150462   8.0888704
  56.2455374  45.2073050  15.9886503  56.2636012  46.1176491  16.2839162
  56.2322098  45.2655888  15.0333202   6.0683322  50.1704264  35.3809929
   6.8404543  50.7268333  35.2786756   5.4785299  50.4479551  34.6800327
   4.4655197  -0.2735429  37.6758409   5.0435418   0.4811425  37.5636864
   4.0777033  -0.1515108  38.5424089  50.8382088  47.5402880   0.3446951
  51.4384991  46.7991114   0.2638112  50.7577163  47.8816128  -0.5459513
  15.1570165  63.1694221  42.4355602  15.2986109  64.1093636  42.3228884
  16.0377610  62.7949953  42.4535751   3.1851387  48.4326601  34.6937728
   3.6697322  48.5030317  35.5162382   3.8289562  48.6437559  34.0176272
  25.2310785   9.6850390  38.5472870  25.1939751   9.3753333  37.6423359
  24.8680222  10.5700345  38.5126352  28.4999585   2.5272507  11.7425287
  28.9421451   3.2291789  11.2650359  28.7213373   2.6854558  12.6602411
  66.3818458  47.7503204  37.6490307  67.2877187  47.7540350  37.9582429
  66.4512187  47.6006365  36.7061567  20.6949091  40.9965897  52.7998304
  20.2618337  41.7163086  52.3408222  21.0532618  40.4484510  52.1017170
  67.8138787  18.7240398  51.2582457  67.1532494  18.1417931  50.8830201
  68.3895761  18.9377773  50.5239972  37.2077608  59.6083021  29.0592599
  37.2822690  58.6548662  29.0996957  36.3854337  59.8035526  29.5085764
  42.7942597   6.8690772  48.7855864  42.6237606   6.5640873  49.6767330
  43.6577761   6.5153164  48.5724592  65.8437020  45.8045900  53.9123152
  66.7290217  45.4433048  53.9560651  65.3416080  45.2847946  54.5399693
  33.0729973  13.1688351  53.9919996  32.6650899  13.7659401  53.3648539
  33.2229220  12.3648781  53.4945917  63.2582435  59.7329092  35.6992221
  63.8655156  60.4209423  35.4270744  63.5523143  58.9535952  35.2275991
  58.3554338  22.0347983  24.7109798  58.8269388  22.6616007  25.2596477
  58.8096665  21.2040907  24.8517898  61.7169922   7.5701602  54.6494767
  62.4520492   8.0187876  55.0673923  61.5437531   6.8169386  55.2141742
  38.6961138  62.4738109  11.8570808  37.8796267  62.3071443  12.3280386
  38.6513292  63.4002292  11.6204885  11.9692600  60.0249947  55.3739737
  12.8614247  59.6791065  55.3992229  11.4569080  59.3354595  54.9517543
  52.8835297  54.1006470  28.3372664  53.7551165  54.0574360  28.7305808
  52.3627138  53.4740877  28.8396668  64.7368681  21.8597216  43.3946705
  63.8564407  22.1305460  43.6549282  65.3058302  22.5637240  43.7059402
  31.5742302  62.9133797  23.3603716  30.6299901  63.0246735  23.4710908
  31.7243314  61.9796801  23.5083532  11.8389683  28.9202696  15.4374937
  12.7773958  28.9755017  15.6178621  11.5760331  29.8229748  15.2579883
  65.0272256  59.6992445  47.7630901  64.3183771  59.0915155  47.9738808
  65.7757147  59.3778038  48.2657576  65.8638248  50.2089357  18.0793118
  66.5806112  49.7652292  18.5327172  66.2975283  50.7639360  17.4311566
  39.6253705  54.3367290  50.0455427  39.3021750  54.9821758  49.4169140
  39.8216391  54.8458004  50.8320236   8.2274823   8.0053526  10.9348825
   7.2824769   8.0729824  11.0713533   8.5970478   8.7125260  11.4636186
  65.8746287  57.7099276  44.6447468  66.2379470  57.2238207  43.9045238
  66.1582167  57.2190523  45.4160118  51.0580492  44.1607475  39.5359302
  50.7606888  43.3019447  39.8363829  50.7529593  44.7688866  40.2092218
   6.4393425  47.3058796  41.4892626   6.5036434  47.7631712  42.3276997
   7.1533298  46.6686392  41.5086222  28.1228709  10.0421250  55.2490711
  28.8013864  10.6543112  54.9643326  28.4090829   9.1933900  54.9114847
  27.4744907   7.3342652   8.9902651  27.4769437   6.7617602   9.7573805
  28.3999931   7.4515337   8.7759626  40.1762562  21.6649777  19.9000839
  41.0000699  21.9691855  20.2809003  40.2971469  21.7658907  18.9559272
   3.1634489  43.2741690   4.4406769   3.1606773  43.0498695   5.3712213
   2.4696030  42.7342701   4.0620995  12.4347568  47.8085709  48.7969637
  12.3861086  48.6311722  49.2839909  12.4479115  48.0749273  47.8776646
  19.3775725  47.6319695  27.8804421  19.8722506  48.3011913  27.4075079
  19.3748581  46.8762445  27.2929859  23.4561491   6.3112986  28.1382990
  23.7833381   6.9660819  28.7550950  22.7005053   6.7284936  27.7245593
  59.3718368  14.9559772  16.6817164  60.1950341  14.8932302  16.1973202
  59.3475348  14.1624701  17.2164965  26.7429724   8.3522267  52.6305866
  27.6978179   8.3131547  52.5760365  26.4499390   8.3304829  51.7196035
  31.1851311  24.9515724  11.1366272  30.5219531  25.5559969  11.4699411
  31.5280294  24.5176625  11.9178927  11.5938580  16.8415809  30.4149795
  10.8829963  16.9776738  29.7885728  12.3444557  16.5934777  29.8752761
  19.3728590  29.2841339  53.3892107  18.7101769  28.6343193  53.6233568
  19.9005949  29.3842387  54.1814899  18.4592891  36.3971472  46.5380096
  19.3271852  36.0895610  46.2765169  18.0097961  36.5763164  45.7121229
  43.6264107   0.4563600  14.0603927  43.7722947   0.9633976  13.2617286
  43.9133366   1.0347539  14.7670511  61.6516483  57.3530960  32.1599984
  61.5430605  57.7387238  31.2906718  61.0257172  56.6292095  32.1807957
  17.3891580   7.0903630  55.7223177  16.5983331   7.0515389  56.2602043
  17.0882159   7.4258227  54.8778439  56.1778063  55.7979954  48.3124157
  56.8193692  55.0884522  48.3467730  55.8238513  55.7580460  47.4239614
  41.2630236   6.5828795  23.8457918  42.0164430   6.3765139  24.3989682
  40.5922520   5.9532160  24.1100311  21.5793014  20.2055383  40.2642155
  21.5439582  20.3452516  41.2105036  21.0898685  20.9406948  39.8951221
  62.1148455   5.3601498  15.3636169  61.9954693   5.0012106  16.2429023
  61.2274014   5.4341979  15.0126266  38.8261544   5.9301657  38.9049053
  39.4536876   5.6086583  39.5522618  39.1592490   6.7923445  38.6560583
  46.5114271  58.9321625   3.1659082  46.7615044  59.1686642   2.2727350
  47.1586501  58.2785570   3.4307340  61.7417609   6.9035775  21.5132717
  62.4482178   7.3810202  21.9482425  61.9504141   5.9809882  21.6599897
  21.2790435   3.6188168  19.9779654  21.5866340   3.0285639  19.2900527
  20.3667575   3.3662600  20.1200223  30.3609640  50.3440648  51.4424610
  30.6454665  51.2575906  51.4700651  30.6669468  49.9728065  52.2699738
   5.7986998  36.3936812   1.0669187   5.2810644  37.1382624   1.3733200
   5.3330873  35.6257636   1.3981918  44.1620970  49.2665911  39.8053789
  43.4354401  48.8501644  40.2688360  44.9164629  48.7073994  39.9910402
  25.8356803  15.5197329  26.8058109  25.7394036  15.6584210  27.7480054
  25.2107584  14.8242039  26.6010094  15.6101912  58.5657115   6.9790995
  16.5079420  58.2730288   7.1359891  15.3613013  58.1445593   6.1563516
  47.8981196  31.8272776  51.1413527  47.5237429  32.7068800  51.1900187
  47.9180228  31.5248675  52.0493078  55.0992453   4.0510602  34.1412973
  56.0551440   4.0291686  34.1860914  54.9069392   4.6493525  33.4192896
  48.7258720  58.8373613  44.0952635  49.5201492  59.3537092  44.2321777
  48.6093664  58.3554697  44.9140692  14.7039759  53.8579750  30.3158498
  14.0892065  53.5454130  29.6520758  14.1938901  54.4713306  30.8448458
  40.5833197  39.2940545  28.8674855  39.7229266  39.5292807  28.5201716
  41.2046623  39.6875668  28.2548571  35.6868731  17.6090140  31.7127347
  36.4683568  17.9034991  32.1804881  35.7843375  17.9708762  30.8319473
  36.9511342  63.4554338   6.5607196  37.5853634  63.5995054   5.8584177
  36.2004495  63.0505991   6.1261898  53.4135282  62.7807581   5.7209066
  54.3076741  62.8535377   5.3870872  53.2899463  61.8437325   5.8723739
  40.5133938  15.6670184   9.6461046  40.9981644  15.6615157   8.8207567
  40.7236850  16.5128703  10.0417554  36.9379341  16.9639010  27.4456239
  37.1826529  17.8882880  27.4025297  35.9814655  16.9673628  27.4083853
  47.2331518  28.8668394  45.9028530  47.7928918  28.7186122  46.6650534
  47.3853987  28.1060314  45.3422976  43.5388622  33.8615424  13.4475854
  43.1996520  34.6859223  13.7962535  44.2517633  33.6257130  14.0412048
  29.7228085  15.7304091  46.9159698  29.4183379  15.5305237  47.8011656
  29.0155738  15.4290671  46.3456678   1.0336512   5.8553643  29.7403336
   1.4933794   5.9662861  28.9081192   0.4015368   5.1562161  29.5734406
   3.1212967  17.4757857   7.3363686   2.5536936  18.0282397   6.7989224
   3.4358567  16.7999072   6.7359757  43.1672049  60.2647972  47.8056479
  43.8144493  60.4801559  48.4771585  42.8057241  59.4228840  48.0826664
   6.2946480   8.2267518  13.7213242   5.8267611   9.0554327  13.6183476
   6.8011731   8.3360953  14.5261288  58.8820213  50.7702541  53.4841681
  58.6679369  51.6941929  53.6135435  59.6499896  50.7800579  52.9128885
  51.5587151  24.1887087  42.8076458  50.9963643  23.4539027  43.0527067
  52.0397508  24.3994612  43.6079073  10.9719741  52.8969431  51.2706900
  10.3704536  52.3689413  50.7456923  10.5824220  52.9056168  52.1449900
  32.7123070  46.6762972  11.8870795  32.1306443  47.2109079  12.4275327
  33.5710216  46.7634058  12.3009038  36.7152481  31.7736775  18.5163454
  37.6618128  31.6503626  18.5873130  36.5031081  32.4017865  19.2067865
   1.7817884  37.5066287  12.2605184   1.4258747  36.7141110  12.6623491
   1.3103180  38.2231146  12.6854900  39.1132384  24.4826609   9.7026685
  40.0602227  24.4381577   9.8348669  38.9736061  24.0956789   8.8383916
  18.7437167  17.5029654  46.2618589  18.5816311  18.2228179  45.6521225
  18.1886604  16.7906470  45.9444523   7.9816758   6.2710232  35.7226920
   7.9364442   6.9407410  35.0402951   7.9487311   5.4413075  35.2465439
  52.0818388  19.1406435  48.7160540  51.6045510  18.6004920  49.3458700
  52.0119059  18.6630721  47.8894567  37.3675274  15.9582991  49.7852087
  37.3366558  15.0435347  49.5050621  38.2530653  16.2467284  49.5641613
  66.4155113  15.0993866  19.6637356  66.7949640  15.7375807  19.0596163
  66.3901197  15.5528540  20.5063248  13.9562052  12.9371018  44.4007587
  13.8276642  12.1411032  44.9166059  14.8157090  12.8234334  43.9950991
  43.0535030  53.3412743  52.5106382  42.9036713  52.6890421  51.8262625
  43.9413691  53.6597109  52.3477697  57.0159995  10.8502669  29.7029924
  56.2920439  10.6821961  30.3062129  57.0525419  10.0702090  29.1494489
  62.7995633  46.6776663   5.9184936  63.6602758  46.7255312   6.3345626
  62.9772948  46.3475186   5.0377897  39.6544628  56.9802672   0.3998617
  40.2740269  56.7922598  -0.3051373  39.0058832  56.2786585   0.3421739
  39.0596115   5.0315804  16.0516942  38.9162635   4.0947527  15.9173918
  38.2053363   5.3682608  16.3220513  23.1064200  51.7744493  44.9329948
  23.8051367  52.3159170  45.3002024  22.2998381  52.2351885  45.1640272
  58.8747817  43.5773516  10.4530644  58.4273672  43.6792803   9.6130264
  58.6041653  44.3410254  10.9627771   7.7344089   9.0886694   2.1693805
   8.1465702   9.9454504   2.0585445   7.7834659   8.6853653   1.3026813
  68.3756549  63.5175884  54.0919759  67.6252920  63.2183064  54.6054110
  67.9983598  63.8006867  53.2590676  62.6547944   7.1163172  36.4362359
  62.8970921   7.9124207  36.9092464  63.0716860   6.4090485  36.9283772
  47.7522802  61.4786482  27.7918172  47.6959848  60.9911680  28.6136603
  48.6599779  61.7800951  27.7538371  64.1566431  14.4173474  44.6751213
  63.8200724  13.5954232  45.0320435  63.6325895  15.0957865  45.1009464
  13.0646800  31.6294856   5.7462376  13.0245637  30.9304327   6.3988858
  13.9950352  31.7066187   5.5347633  10.2331877  42.3518467   5.9182346
  10.8714104  42.6321316   5.2622294   9.4537830  42.1232557   5.4117697
  45.9497690  62.9374695  48.1456757  45.3196335  62.3656178  48.5840225
  45.7910442  62.7976847  47.2121382  59.8484373  51.8205214  41.5463305
  59.4105244  51.0459518  41.1934805  60.4465532  51.4762020  42.2096062
  35.3604423   9.5174784  45.4397535  34.8239791   9.2312283  44.7004986
  35.6763112   8.7050480  45.8352470  38.5439944  51.7251778  30.5787992
  38.2811689  51.0484171  29.9549794  39.2114234  51.3048506  31.1211085
  24.6216224   9.9959702  17.0348644  23.8874790  10.0178618  16.4210355
  25.2995842  10.5265517  16.6164315  13.9251809  14.6331126   7.5423101
  13.8947730  13.9775282   6.8455223  14.7933655  14.5287281   7.9316572
  15.1740396  61.9575405  19.9738955  15.0518084  61.6805792  20.8819628
  14.8407805  61.2264776  19.4535911  40.0577509   5.7924790  54.8692942
  39.1455018   6.0255618  54.6969366  40.0117266   5.1569123  55.5835533
   8.7619334  61.9369745   2.7033767   9.3818253  62.6657820   2.6750568
   9.2891252  61.1658764   2.4943087  45.9489047   3.8323493   5.7833397
  45.3426873   3.6851162   6.5093267  45.7121288   4.6958680   5.4449588
  24.6317209  57.0729958  37.6999095  23.7188562  56.7893397  37.6504139
  25.1279719  56.3516986  37.3130039  30.3850293  51.2906122   6.0627466
  30.0177646  51.8945026   5.4172540  29.7777748  50.5507469   6.0712457
  39.4524384  62.4273014  52.7419376  38.5706735  62.2650337  52.4066877
  40.0257921  62.2776365  51.9902039  39.9952352  30.0142760  21.3225055
  40.1241409  29.0746016  21.1935568  40.8578312  30.3981776  21.1651087
  49.2010724   0.4396576  37.2664547  48.3308732   0.7366461  37.0004010
  49.4397389   1.0168213  37.9918170  16.9227392  43.0350578  55.1850149
  17.5369746  42.3144281  55.0448691  17.4090773  43.6640823  55.7179596
   0.5308646  27.9897780  55.3207254  -0.1004869  28.1495757  54.6192360
   0.0085324  28.0113024  56.1225557  14.6157413  29.5213467  11.0094408
  14.0535169  28.9178711  10.5236915  15.4314976  29.0374571  11.1383871
  33.0484653  51.1976433  28.6328793  32.3375225  51.1355639  29.2707968
  32.9950476  50.3821135  28.1345940  40.9009075   0.2323765  49.1220617
  41.4233243   0.2867598  48.3218431  41.4393520  -0.2799325  49.7252607
  66.0968267   3.0063242  27.7230430  66.6228115   3.2232661  28.4927893
  65.3883326   2.4599881  28.0633092  44.0929365  43.4299803  28.7567401
  44.4312143  42.5978756  28.4259796  44.1797161  43.3627987  29.7076273
  24.7959638  41.9630909  18.6769462  24.1226292  42.0755434  19.3479228
  25.6212449  42.1116161  19.1385531  37.1863234  12.9430193  15.1053739
  37.5691986  12.7604908  15.9634662  36.2636339  13.1208510  15.2877235
  49.1307079   2.0399708  39.4799471  49.8013460   2.6461024  39.7947216
  49.1685712   1.3031430  40.0897694   5.7741034  22.6459403  28.0067468
   6.5646612  22.1466631  27.8018761   5.0585210  22.0219035  27.8853130
  61.9560027  54.3651915  37.5969839  61.0748613  54.6100283  37.3143625
  61.8235588  53.6032677  38.1610394  59.4949680  18.4493536  29.5743132
  59.0559273  17.6078696  29.6983266  58.8273626  19.1014761  29.7870660
  40.5684847  58.0570841  44.4689846  40.8164281  58.7568617  45.0731945
  39.8157233  58.4074259  43.9927006  39.9906283  24.9110705   1.2500003
  40.2597742  24.5612294   0.4006437  40.3011113  24.2650324   1.8844036
  27.4917885  17.1307940  33.6332273  27.1231317  16.5643210  34.3110490
  26.9734352  17.9338736  33.6842179  14.0263844  54.9511099  47.3060942
  14.6845222  55.4374266  47.8026676  13.8174999  55.5193996  46.5647125
  46.0163509  22.2191710  22.9172969  46.0815799  23.1597895  22.7522850
  46.1127388  21.8172926  22.0539141  58.2490909   8.4505124  39.2121172
  59.0623199   8.1110663  38.8383961  57.9662692   9.1264481  38.5961986
  55.6760882  12.3157793  15.7220605  55.1039295  12.2719866  16.4881853
  55.1091449  12.6290518  15.0173143  42.6624155   0.9693141   8.3489466
  42.6926696   0.0680251   8.0280185  41.7735564   1.2642951   8.1510931
  36.0211945  52.7181959  53.7292528  35.8213472  51.7852497  53.6524010
  35.9056187  52.9120636  54.6594620   8.4455704  11.5859599  34.9897361
   9.0508735  12.1202559  34.4755697   8.3454358  12.0630450  35.8135056
  13.6050403  22.5245690  31.1487365  14.4013953  22.4024510  31.6655922
  12.9335499  22.7491808  31.7928505  25.3207445  58.8362408  18.5583091
  25.5243444  58.6616516  17.6394522  24.6916938  58.1556559  18.7977445
  45.3071033  21.3965792  15.8815539  44.9797523  20.9596724  16.6677964
  46.2180244  21.1112208  15.8106494   6.0800099  64.5011187  20.8322597
   6.3760155  63.6404562  20.5358315   5.7176554  64.3426561  21.7039347
  42.0749569  58.9447069  34.8094010  42.8756094  58.6420918  35.2378964
  41.4195347  58.9558601  35.5069184  46.0616636  55.8883667  31.3470507
  45.6398201  55.0291586  31.3536334  46.5005922  55.9331894  30.4976010
  44.9220371  55.2475739  53.9154148  45.5487347  55.8966970  54.2349720
  44.0711451  55.5692291  54.2133331  25.5435514  51.1967897  25.0690675
  26.5007210  51.1902046  25.0656295  25.3112268  52.0414114  25.4548979
  23.5699272  64.1035938  21.2934780  24.4779825  64.0852594  20.9912705
  23.6116815  63.7892437  22.1966243  28.3240414  55.3964520  18.7571800
  28.6409020  55.2667141  17.8633118  28.4294772  56.3346672  18.9148629
  26.4198184  58.5631084  39.1262245  25.6705832  58.0982733  38.7536526
  26.4831805  59.3672466  38.6108828  50.4441309  52.2765064  27.1986961
  51.0427475  52.3205042  27.9443216  49.6925354  52.8068876  27.4633336
  12.0476871  26.3891322   1.5625862  12.2759180  25.4957205   1.3057569
  11.0953908  26.4279515   1.4739469   0.8846243  55.6623697  51.3761806
   1.1370254  55.0810289  50.6588459  -0.0670826  55.5758810  51.4310026
   8.9735258  62.9493809  46.4898157   9.7916240  63.4445286  46.5319490
   8.2898307  63.6037922  46.6331387  29.0526496   6.2088448  13.6685422
  29.9785470   6.3940817  13.8254932  28.8706600   5.4323584  14.1978601
  42.5576489   7.9097844  11.2700227  42.1729271   7.4136067  10.5475000
  41.8057720   8.2698728  11.7403940  62.4706530  31.7545992   5.7264761
  62.0199393  30.9102303   5.7377676  62.0007144  32.2855622   6.3694910
  59.4374895  50.2314091  15.2849138  58.5362959  50.5288792  15.1600385
  59.7639990  50.0776958  14.3983495  23.6873579  20.2220625  34.9390674
  23.4004048  20.8606047  34.2862630  23.1364975  19.4551367  34.7822237
  20.6267643  57.0839834  51.0672951  19.8678637  56.8694735  51.6097736
  21.2215972  57.5447273  51.6590023  37.1327763  27.4520260  19.0130905
  37.1161204  28.2005841  18.4167579  38.0628710  27.2551781  19.1244653
   0.3621618  63.4266901  29.0201259   1.0500356  63.6115408  28.3806801
   0.3207199  64.2147303  29.5618844  53.7116873   6.8079466  38.2359791
  54.3058693   6.3226170  38.8083720  54.1673958   6.8465275  37.3951054
  13.5326701  35.0785786   3.0472282  12.6962905  35.2561528   2.6169160
  13.5512357  35.6796366   3.7919525  40.6377172  20.1587576  38.4659648
  41.3310956  20.7726950  38.2240272  41.1018407  19.4033045  38.8266873
  61.3260972  10.9167952  18.1587780  62.0223367  11.3458724  18.6561453
  61.7771780  10.2484364  17.6429772  40.7498550  44.3992662  19.3124354
  39.8648429  44.5428514  19.6476507  40.6228590  43.8929033  18.5101247
  12.5018597  32.0139551  35.3033733  11.7440212  31.7144656  34.8011589
  12.4584913  31.5181279  36.1209965  54.5620357   2.3196740   4.8439375
  54.4960796   1.5804858   5.4484874  54.3151557   3.0811162   5.3688025
  17.8138387  46.9025135  39.5511127  17.8427351  46.7129993  40.4889202
  18.1358278  46.1028194  39.1351247  57.1415531  41.7159134   0.8268980
  57.1325730  42.0239979   1.7331174  56.9278978  40.7848889   0.8883146
  52.2024727  47.8410864  38.1631112  51.4417982  48.2237720  37.7258968
  52.0460129  47.9953861  39.0947461  21.1626500   5.1963467  42.0189667
  21.7519205   5.2985472  42.7663279  20.2848833   5.2475495  42.3972988
  12.4995106  63.2742321  31.0707954  12.3521107  63.3385217  30.1272014
  12.8924960  62.4100911  31.1935047  34.8501205  62.7522421  10.7872379
  35.2604294  62.4619818  11.6018689  34.2132545  62.0675755  10.5826259
  10.4267466  46.5924215  30.2488065   9.7891277  45.9002876  30.0738072
   9.9616873  47.4037361  30.0445390  20.9028888  47.6263571  42.0720673
  21.2458706  46.8720293  41.5929127  20.6042862  47.2645235  42.9064178
  13.4291446  47.0081377  39.6595931  12.6733172  47.5650835  39.8460531
  13.7149763  46.6968632  40.5184507  39.8116003   0.6648117   7.5362876
  38.9978599   0.9697491   7.1349529  39.5338749   0.2399308   8.3478168
  66.4706230  28.1189537   1.9898015  65.7736635  27.4962974   2.1966189
  66.0140181  28.8772225   1.6254246  29.6025091  22.2767729  35.2545667
  30.5322343  22.0551581  35.3068233  29.1638046  21.4376921  35.1141572
  22.8402185   7.5648684  18.2837927  22.6030045   8.4318585  17.9547215
  23.0706218   7.0659966  17.5000381  20.5243182  54.8355675  44.9094772
  20.3243876  55.2446079  45.7514668  20.6765389  53.9144802  45.1208067
  16.4893788  13.4828515  37.3486900  17.4307555  13.4748501  37.5218248
  16.1764115  14.2868037  37.7633500  27.0346310  11.2538332  16.6953623
  27.3670744  10.7471556  17.4363017  27.7807235  11.3251729  16.0999739
  24.5012283  50.8932686  31.5325356  24.0257311  50.9366179  32.3621464
  23.9319682  50.3829288  30.9565759  43.9565659  59.5247269  14.7166538
  44.2692518  59.2986393  13.8406730  43.1667328  60.0430679  14.5626533
   6.4079678  52.8480911  10.9378707   5.8215225  52.1714163  11.2761438
   7.1064246  52.3622990  10.4992425  58.3448731  24.4704051  46.7313194
  57.5668299  24.2292780  47.2340488  58.0238091  25.0887770  46.0749912
  45.3750002  28.2390399  34.0315843  46.3028085  28.4683890  33.9786410
  44.9897348  28.9240927  34.5779371  25.3154206  57.3682976  44.6052551
  25.5407286  57.7368927  43.7510872  25.3531027  58.1132936  45.2050829
  66.1022245  12.9405922  53.9299822  65.2542555  13.1905980  54.2969608
  66.0580074  11.9875712  53.8523293  50.0437373  61.5376520   8.8276982
  49.4057506  62.0724583   9.3001246  50.8719402  61.6971159   9.2803383
  39.8896801   9.7864766  28.9816618  40.0624108   8.8534541  29.1075921
  40.0906205  10.1837630  29.8290205  41.8199777   2.0385642  33.2918382
  41.2073123   1.9304938  34.0192962  41.9479203   2.9848189  33.2250142
  62.4106609   1.9445462  50.5458784  63.2356941   2.1657748  50.9778547
  61.8697178   1.5690751  51.2405920  25.2847060   7.7243132  40.5660772
  24.8065331   8.2207102  41.2302876  25.3148478   8.3069224  39.8072004
  21.6644055  63.6649895  17.4300325  20.7782227  63.3282328  17.2977519
  22.1812970  63.2588863  16.7342317  46.3277292  60.8675385  15.9579575
  46.6343212  61.4784098  15.2878284  45.6059217  60.3970671  15.5409682
  50.2128660   9.0080637  21.7269635  49.8618161   9.8620505  21.4745784
  49.6197664   8.6980528  22.4113321   0.9926480  61.6593546  26.3646626
   0.2302187  61.6924185  26.9424534   0.7047766  62.0960612  25.5630136
  60.2837849  53.7349939  52.9491615  60.9541464  54.4182539  52.9487944
  60.7087946  52.9822493  52.5380993   2.6365012  19.7523398  14.0510905
   2.0613736  19.3957896  13.3740914   2.6189583  20.6983752  13.9063931
  30.5513602  20.0075716  10.1899183  30.7137536  20.7504553  10.7712901
  30.4376220  20.4009242   9.3247187  64.8510395  55.8077341  19.8642305
  65.0105320  56.6664416  19.4725517  64.6596872  55.2368742  19.1200927
   5.1218771   5.6545937   1.6422704   4.3864560   5.9170353   1.0886339
   4.9346065   4.7449243   1.8739179  55.9649545   1.9279923  20.3357244
  55.9970170   2.6926023  19.7607684  55.6405169   2.2686175  21.1693597
  50.4970730  63.1074102  24.4768548  49.8494700  62.8262360  23.8304925
  50.3077701  62.5779869  25.2515221  53.2199341  45.3073788  46.6736794
  52.5682813  44.9341488  47.2672081  53.5385913  44.5601463  46.1673880
  11.2121558  15.8237863  32.7518797  10.6939459  15.0599217  32.4985051
  11.3685751  16.2901735  31.9307542  29.6204312  61.1993074  50.3501084
  29.9674065  61.9497918  49.8678049  28.7209804  61.4471745  50.5640706
  38.6464286   6.3333362  32.3435807  39.4036722   6.5972245  32.8662419
  38.3299828   7.1475834  31.9523072  28.8666064  63.0560529  22.3774981
  28.3810836  63.8203183  22.0670176  28.3315820  62.3081862  22.1116471
  34.5958406  62.6674711  22.0564890  34.7338444  62.5429397  22.9954672
  35.4298348  62.4203344  21.6569781  43.7047153  53.5174363  33.8154745
  42.8371942  53.7837666  33.5109949  43.5373272  52.7748757  34.3958330
  53.0115664  53.5754865  42.1567726  52.7051294  54.3120318  41.6277838
  52.9379118  52.8172963  41.5771532  59.5162446  56.3209408  40.2900982
  59.0756268  55.4934775  40.4834700  59.5851094  56.7595106  41.1381245
   5.2840739  38.2436156  48.9895868   4.8730910  39.0648198  48.7194967
   5.1945263  37.6694560  48.2289600  46.2596172  50.6206799  55.6434727
  45.5881399  49.9513006  55.7749224  46.2621373  50.7751417  54.6988201
  25.0117481  61.0793611  28.2791996  25.7875240  60.6370091  27.9346395
  24.5931709  60.4265117  28.8402843  58.9092159   2.1342649  38.3960223
  58.3783501   2.6606247  37.7982283  58.7037384   1.2285057  38.1644821
  57.0536667  15.4914021  34.8951793  57.0462614  15.4331255  33.9397836
  57.2677785  16.4063251  35.0776768  51.6316235  60.5948883  15.6991315
  51.9786305  60.2047100  14.8968971  50.9085387  61.1478760  15.4031837
  30.2427125  12.0378566   2.8927794  30.4354501  12.6916003   3.5648680
  31.1022496  11.7420137   2.5929368   1.3052420  22.0095658  26.1053872
   1.5413193  22.1502209  27.0222926   0.5442789  22.5729632  25.9648490
  63.6619779   9.7292745  37.0427966  64.0440559  10.5971646  36.9123578
  62.8123754   9.9002266  37.4492240  20.3532290  23.2723999  45.6061029
  21.0960960  22.8997588  45.1312160  20.7318068  23.9834595  46.1231184
  34.8806352  53.9870244  20.4072523  35.7785851  53.6793750  20.2836776
  34.3531794  53.1883364  20.4181576  46.2615871  37.9321032   4.2898193
  47.1443063  38.0896931   4.6247873  45.8917997  37.2810560   4.8861644
   3.3727685  24.3427539  11.3584912   2.4264191  24.2796993  11.4876366
   3.7054634  24.6849012  12.1882391   7.5056273   8.6310661  16.2890470
   7.3680824   7.6856107  16.3475978   7.5560915   8.9225876  17.1993768
  11.7749905  49.3895304   0.4994300  11.7630898  50.2667963   0.1166824
  11.0407042  49.3861377   1.1134723  64.7878653  62.3341902  34.9235988
  65.6038767  62.6161759  34.5102715  64.1666240  62.2574649  34.1994429
   0.9247793  45.5310965  16.7312932   1.2701927  46.0659361  17.4460423
   0.6330964  46.1656284  16.0766792  54.1967297  48.0841928  26.2383866
  54.2948115  48.6605435  26.9962978  53.6881656  48.5979825  25.6110001
  61.1934268  14.9059105  11.8247974  60.2366710  14.9036300  11.7957389
  61.4511979  14.1579509  11.2859643   1.8953316  41.7904758  32.8121710
   1.2331147  42.1743107  32.2373915   1.7946538  42.2596979  33.6403775
  13.2676220  24.9233985  37.4412251  12.6657343  24.3723893  37.9415774
  13.4367716  24.4273663  36.6402459  22.4775887  29.6697950   2.5437531
  23.2677674  29.1794682   2.7705362  22.2966337  30.2035809   3.3174199
  52.6036483  15.6461358  36.2009239  52.1374053  16.2976527  36.7247343
  53.5102802  15.9528923  36.1886930   2.5267676  54.5542860   9.7894508
   3.3267421  54.3760777   9.2949682   2.0228201  53.7426376   9.7303194
  41.1459643  62.1586780  30.0933456  40.8968884  61.2347310  30.1160455
  41.1472330  62.4290253  31.0115743  63.5344362  45.6612778  48.9413452
  63.4181350  45.1256084  48.1566381  64.1430417  45.1608896  49.4848919
  23.3777165  10.9594750  33.4568667  22.9480553  10.4839265  34.1678357
  22.7005935  11.5439868  33.1161618  12.7195764  37.5267577  25.1865983
  12.6907504  37.5208616  26.1433458  13.6107421  37.2509789  24.9721241
  36.8753058  62.5285927  19.1859651  36.2940193  63.2811021  19.2958200
  37.1238763  62.5508466  18.2618713  28.5170144  40.0307941  14.9794316
  28.5190123  39.9643850  14.0245402  28.5997170  39.1266418  15.2825761
  11.8445563   2.3833025  17.3516810  11.2461603   2.6747185  16.6637635
  12.5289905   3.0521309  17.3729122   5.6164079   0.6217510  12.8303627
   5.5693918   0.3582770  13.7493852   6.2003022  -0.0203866  12.4266819
  29.8092604  54.6897602  21.2423134  29.2250562  55.2354908  21.7687321
  29.3983555  54.6633291  20.3782010  38.1843042   6.4723217  20.6064773
  38.3314037   5.7745874  21.2450385  39.0089464   6.5335071  20.1243401
  67.9373253  42.9838848  31.1550617  67.4132982  43.7002182  30.7965994
  67.6921103  42.2218466  30.6302786  32.6692909   2.5694117  35.9369540
  32.8085393   2.5257239  36.8829632  33.1994480   3.3132869  35.6509233
  24.9342806  59.0853070  25.4612613  25.8490080  58.8940119  25.2541137
  24.4640071  58.9198857  24.6441245  16.8173337   5.3431422  48.3925343
  16.0178852   4.8206636  48.3282661  17.5075412   4.7660440  48.0657291
  35.4234117  22.2615719  18.1603563  36.0387462  22.2899055  17.4276972
  34.9609083  23.0985069  18.1171966  16.8249643  26.8230939  26.0129094
  16.3275087  27.0900226  26.7859030  16.4429784  27.3290873  25.2957678
  52.1317357  30.1135135  19.6831548  52.8370541  29.4680858  19.6364498
  52.5783890  30.9593773  19.6478307  57.9989444  23.4090716   9.3178800
  57.4153255  24.1677672   9.3171648  58.8515471  23.7629897   9.5709470
  23.1422246  39.6415901  40.4038342  23.4544998  40.5452406  40.4499992
  22.4838141  39.6509033  39.7091111  62.0433193   4.1120780  22.0852208
  61.2323737   3.6249775  21.9391632  62.7344191   3.4537053  22.0134020
  30.4298568  32.6871037  19.8634911  29.9921513  32.2956610  20.6194139
  30.8100677  31.9437456  19.3954217  48.5140550  13.0771052   0.4353193
  48.8645851  13.7470567  -0.1516434  48.8422334  12.2513616   0.0794033
  57.2830647  25.6964111  38.2154584  57.4049586  25.4359031  39.1284251
  56.3422888  25.6056070  38.0640388  41.2757844  20.2501631  29.9923277
  40.6255931  19.5492697  30.0395799  42.0808309  19.8528373  30.3243923
  18.8627517  11.5788555  52.8814888  19.2046511  12.4728620  52.8909302
  18.5110390  11.4662457  51.9984007  15.2938264  48.5407304   4.2313055
  16.1229181  48.8380694   4.6060422  15.5357980  48.1575977   3.3881620
   7.6847816  35.2176762  49.3011379   8.5101837  35.5173254  48.9201498
   7.1598345  34.9427867  48.5494089  17.7293360   9.7711086  11.8637264
  18.3522153   9.8599011  12.5850928  18.0941439  10.3131402  11.1641920
  68.4057314  47.0830255  11.3410199  67.7205903  47.0334774  12.0076215
  67.9678613  47.4532240  10.5745637  14.5350075  26.3333035  35.1622343
  14.5100927  26.3459587  36.1190271  14.2061675  27.1939588  34.9026752
  48.2162446  18.8596070  36.7266583  47.2737235  18.7020719  36.6712570
  48.2926005  19.7986996  36.8954968  56.9867056  12.6905322  40.4982471
  56.5468913  13.3360386  39.9449682  57.6948613  13.1782997  40.9187603
  57.8033001  53.1572133   6.6834658  58.6705107  52.7902418   6.8552488
  57.4961776  53.4567278   7.5391525  60.1691908  34.7001362  27.9287052
  60.8157968  34.3642282  28.5494304  60.6330192  34.7291470  27.0918941
   8.1330985   3.7962979  15.7012451   7.2000486   3.5973790  15.7792258
   8.1606507   4.7155631  15.4358709  43.9137477  11.7026889  20.6777215
  43.7945098  11.1042535  19.9402320  43.0522340  11.7461467  21.0926151
  56.0710544  51.4398842   8.3124548  56.5418727  52.1333271   7.8501791
  55.3654308  51.1905234   7.7156746   2.1136773  60.2401175   2.0065054
   2.9841579  59.9245112   1.7638381   1.9137753  59.7858533   2.8249890
  28.6760658  16.4088797  18.7100605  28.5264140  17.3445057  18.8458589
  29.5816075  16.3529717  18.4049419   8.8841158   3.6014068  39.2583346
   8.5365826   4.4126296  38.8876963   9.8217875   3.6338797  39.0687513
  66.9226570  42.6939088  53.0137992  67.6098890  42.1297043  52.6593822
  67.3220510  43.1052583  53.7802882  18.2017720   7.6823604  22.7260923
  17.8241146   7.3143113  21.9272518  18.9427757   7.1104538  22.9262638
   3.1395730   8.9642888  13.7834799   3.2843426   9.9009204  13.6493337
   2.4180885   8.9209110  14.4110227  19.2542026  49.7395724  44.9352380
  19.3805919  49.7152799  43.9867302  20.0059433  49.2644208  45.2892837
  60.9359235  52.6709145  49.1882277  61.3013405  52.9234498  50.0361204
  61.6100461  52.1190672  48.7916708  36.4377725  58.1628143   2.2131303
  37.0381879  58.2140624   2.9568389  36.0169100  59.0220797   2.1854213
   2.3826906   3.4129304  44.5558262   2.3036453   4.1841483  43.9943933
   3.3260277   3.2776934  44.6455908   5.4501402  10.9515083  13.6450255
   5.9803379  11.6445959  13.2516396   5.3789574  11.1985147  14.5670629
  22.1671057   4.3605053  11.1477935  21.6015100   4.3199274  10.3766334
  22.4809098   5.2645940  11.1673594  65.9448159  21.7284489   1.7712034
  64.9909666  21.7401171   1.8503690  66.2572320  21.5725589   2.6624537
  27.3280099  42.6466751  13.4881166  26.5720778  42.0628726  13.5511497
  27.8902590  42.2401523  12.8286842  67.5740213   2.1523796   9.3190014
  66.9186890   1.8347052   9.9401730  67.1652813   2.9143134   8.9083678
  21.6701961   1.1561722   2.8733546  21.6254282   1.3120174   3.8167208
  22.0880532   0.2988658   2.7917880  38.5980052  19.0626895  19.5484436
  38.2797450  19.9601138  19.6462846  38.7557667  18.7654757  20.4445505
  54.5335484  63.0764643  43.4645939  54.2094797  62.3116251  42.9889536
  55.4333741  63.1861389  43.1571579  29.0608573  60.3401089  44.5871019
  29.0477872  60.2725220  45.5418253  29.5079041  61.1681271  44.4117069
  39.0555334  17.3689079  39.6216965  39.6247578  18.0128133  40.0431252
  39.4496155  17.2278905  38.7608576  41.1264467  57.9591846  32.2639084
  41.6106987  57.4238777  31.6352797  41.7573309  58.1398726  32.9607368
  30.0389309  60.0550598  24.4329854  30.4931177  60.4488319  25.1778957
  30.6686164  60.1068133  23.7139245  62.0328772  36.8399334  14.7298932
  61.2246430  36.3414598  14.8503637  62.0998871  36.9623470  13.7829208
  15.1500583   2.9980725  12.4334359  14.3796515   2.7044615  11.9471252
  15.2650154   2.3406988  13.1196404  14.9848665  41.8684989  42.1706459
  15.7628311  42.2704798  41.7841038  15.2798040  41.0047740  42.4591288
  25.1840067   9.2149472  36.0227847  25.0157022   8.2908678  36.2071276
  25.3075242   9.2513329  35.0742865  19.8631120  25.0665569  35.4376960
  20.0900292  25.1747179  34.5140934  20.3775764  24.3118215  35.7239318
  21.1838794  23.0698800  19.5133829  22.1301436  23.2010221  19.5735455
  20.8108020  23.9342117  19.6865106  16.1804962  16.5120757  10.6855404
  16.5848279  17.3708355  10.8091533  16.4475775  16.0086548  11.4546084
  18.5489392  24.2317867  11.2448883  18.7386155  24.5653129  10.3679538
  19.2255139  23.5731983  11.4021790  15.6105053  20.8587623  31.8580794
  15.8549774  19.9776340  32.1410608  16.4260101  21.2411761  31.5341282
  65.2912230  59.9814501  27.9911375  65.6134588  60.7663416  27.5480318
  64.5823557  60.2968564  28.5517240  46.0187340  24.9864769  13.9290762
  46.8684578  24.7975516  14.3272138  45.7230282  25.7863069  14.3638873
  64.1243213  10.8064270  14.5343626  64.2539036  10.3064942  15.3402829
  63.7407279  11.6338909  14.8248649  52.3853236   8.4886169  40.4555798
  52.4913972   7.9786879  41.2586689  52.5268131   7.8570241  39.7503829
   5.0098217  25.1982010  14.0350768   5.0199163  25.6360138  14.8862215
   5.5515206  24.4189919  14.1601035  21.2693763  36.1218214  18.5882449
  21.0573888  35.5548239  17.8467560  21.0973072  35.5817723  19.3595898
  49.9354953  58.4190249  32.6180029  49.7098229  57.7716260  33.2859683
  49.0963319  58.6622530  32.2270083  29.4643198   1.6076213  14.1278842
  29.4714843   1.0156471  14.8800472  30.3824603   1.6720039  13.8650087
  47.0960803  59.0406579  53.7493816  47.4484844  58.1743020  53.5457334
  46.5958209  58.9123529  54.5553034  43.8877821  31.6023779  11.7907548
  43.7107372  32.3836946  12.3146164  44.8379612  31.4951181  11.8342149
  46.2799167  57.8108358  26.7838049  46.3120067  58.6446690  26.3148451
  46.9326789  57.2645306  26.3459873  34.4658172  20.0153727   9.7058767
  34.7278285  19.2838091   9.1469574  34.0805602  20.6513209   9.1030693
  39.1023874  28.9934206  24.0216374  38.3739209  29.5328593  23.7141037
  39.8666859  29.3366385  23.5587311  25.2298522  40.6056404  15.0489271
  26.0943317  40.3297758  15.3535652  24.7358251  39.7905970  14.9601996
   5.9909857  28.5236109  54.0233627   5.5582536  29.2469824  54.4769118
   6.8822039  28.8367498  53.8687566  65.4579550  46.3639736  23.8696766
  65.4083904  45.4225779  23.7036872  64.5674175  46.6809559  23.7190247
  15.7696807  40.7877254   6.7046422  14.9047470  40.9201002   6.3165694
  16.3689947  41.2470007   6.1163229  37.6417417  51.2758678  47.9189393
  38.5086960  50.9013885  47.7627799  37.2971744  51.4551860  47.0440963
  46.7073649  31.1187530  53.5962439  47.4480194  31.2297654  54.1923475
  45.9753674  30.8811188  54.1654015  62.3302681  42.6703840  54.0271664
  62.7687580  42.2063094  53.3140135  62.9321319  43.3778935  54.2582989
  32.5018472  61.5078016   9.2899829  31.6457779  61.0797276   9.3013793
  32.3930711  62.2448986   8.6890769  18.9475405  14.1649950  19.2104816
  18.5776305  14.6168602  19.9689114  18.1949544  13.7516499  18.7874067
  61.4640671  43.9972878  10.9309149  62.0550024  43.3231449  11.2664187
  60.6088662  43.5689783  10.8932686  59.6567451   4.7038502  14.2431915
  59.4105041   5.1497883  13.4327984  59.2007601   5.1884360  14.9312973
  22.4545599  42.4119758  16.3596204  22.9154423  42.3864555  17.1981720
  22.9604127  41.8318974  15.7905391  43.7847109  59.4446438  23.9475223
  44.2307920  59.9943417  24.5917889  43.9082498  59.9020976  23.1158325
  16.0675871  36.2826753  28.7496829  16.2396467  37.1638083  29.0816975
  16.3088286  35.7031059  29.4722724  49.6703809  45.8237648  35.3559613
  49.7809547  44.9047947  35.1120353  50.5095774  46.0711479  35.7442689
  22.4037313  27.4765348  38.4624290  23.2927847  27.8110862  38.3445668
  21.9213748  28.2085180  38.8468313  58.4303111  36.7398143  11.1618817
  57.7153545  37.3540449  11.3285840  59.1785109  37.1104312  11.6299331
  10.2262211   3.8133934  35.9077334   9.8522699   3.0496046  35.4683924
   9.4674540   4.2985296  36.2319946  64.4016996  52.0044374  21.5532398
  63.6156505  52.5491238  21.5122962  64.9326792  52.2940350  20.8113313
  12.9066753  27.8548479   9.5633239  12.0268595  27.5575089   9.3314916
  13.2488370  27.1676469  10.1350856  15.8449328   7.6260000  13.8831019
  15.6844985   8.5432148  14.1049337  15.8671784   7.6113510  12.9262722
  40.1194715  47.9298782  21.9678473  40.6000757  47.4850893  22.6659989
  40.7482052  48.5529995  21.6036415   2.7949592  12.5039661  11.5377128
   3.4290141  12.5124538  10.8206820   1.9859853  12.8331232  11.1459887
  12.1728492  43.6042929   4.3318328  11.4957809  44.2453146   4.1152710
  12.8514481  43.7399864   3.6705294  19.6787381  18.6177051  22.1730065
  20.1387286  18.2546055  21.4161706  19.4308579  19.5014250  21.9012976
  14.5185590  25.1111650  46.0239029  14.0070939  24.8191619  45.2693367
  14.2123127  26.0026526  46.1903286  43.9843506  60.8055260  18.3595836
  44.8200512  60.3463011  18.4429443  44.1388989  61.4628559  17.6811564
  24.1247845   7.4964708   1.6829549  23.6957335   8.3471316   1.7752799
  24.4938302   7.5089455   0.7998459  43.5574956  49.6228808  52.7598270
  42.8558917  49.0857249  52.3917958  43.1151862  50.2024609  53.3800533
  67.9005682  13.5316467  34.9053526  67.3452328  14.2804468  34.6882510
  68.1276863  13.6608946  35.8261919  67.6237793  29.6745583  42.5072726
  68.0642814  29.2510110  43.2440194  68.1763811  29.4757598  41.7514023
  30.5366516  35.3470659   3.3036274  30.4740715  34.8670292   2.4778670
  29.6427655  35.3523540   3.6459327  33.2435036  12.0428157  35.9022307
  33.7546086  11.3045382  36.2338209  32.9368663  11.7548859  35.0424051
  34.9817348   1.6524334  23.7169027  34.8679590   1.8323760  24.6501255
  34.2116570   2.0414665  23.3023381  44.1253825  24.0289217  15.4868558
  44.2469950  23.1085497  15.7199863  44.8192677  24.2090422  14.8525766
   8.9639485  23.8061750  54.6491544   9.5687902  23.2421244  54.1672389
   8.2001675  23.8822449  54.0772408  50.3392855  60.1980370   2.7461734
  49.7326565  60.6979512   2.1999876  50.8015925  60.8608826   3.2591450
   1.5994137   1.0888333  33.3223176   1.4001053   1.4556689  32.4609590
   2.5335663   0.8834357  33.2848477  39.5458150  29.1131568  13.0072045
  38.9466047  28.8278246  12.3174477  40.4163885  29.0280747  12.6184928
  62.6073325  30.3136158  22.9685140  62.6138204  30.7040763  22.0945978
  62.1378839  30.9476161  23.5106349  63.5996050  60.7734912  12.3070645
  64.5090884  60.4810967  12.3668802  63.6298472  61.5324869  11.7246187
   1.5636532  31.4497685   2.9879138   1.0674740  30.8445787   3.5390782
   2.3244746  30.9442639   2.7018222  46.1263293   2.7587101  19.0108550
  46.5870041   3.4899801  18.5994482  46.3824004   1.9938871  18.4953880
  46.3474887   5.6160599  10.2000606  46.8173665   5.7666838   9.3798417
  45.9229678   6.4526796  10.3900135   4.0424049  59.3880328  37.6589799
   3.8228834  59.6630164  38.5491633   3.5106886  59.9510639  37.0963883
  47.0338869  19.9419034  27.5595260  47.1421623  20.0446820  26.6140389
  47.8057480  20.3643823  27.9363227  65.3429722   0.7559353  10.4607442
  64.9898969   0.7331973   9.5713333  64.7318839   1.3094789  10.9469465
  18.3715761  32.9669237  26.0969853  19.0740252  32.3278737  25.9769344
  18.1739533  33.2746243  25.2123976  36.6822052  43.5729504  22.4341798
  35.8507490  43.2479715  22.7795815  37.3469090  43.1760836  22.9971170
  42.4823076  59.5893591  53.5153564  43.0527277  60.1750892  54.0131235
  42.2845382  60.0724119  52.7129981  11.2567973  31.4413166  14.5574772
  12.0410776  31.9715929  14.4162619  10.5768692  32.0753074  14.7854793
  37.3845966  52.7312678  50.1735165  37.5259072  52.1663230  49.4138446
  38.2648689  52.9882759  50.4479226  43.3129442  63.2986958  47.0747423
  42.5660742  62.8643056  47.4867153  43.3603412  62.9146596  46.1992407
  43.1860686  40.5508857  23.5956168  43.7010858  40.3345447  24.3729115
  43.4768095  39.9237638  22.9334855   1.6104370  54.6861744  27.4934149
   1.4300624  54.7896099  26.5590715   2.1363145  55.4525805  27.7221107
  12.5937808  29.2287087  19.2333841  11.7142391  29.2575336  18.8568115
  13.1789565  29.3376946  18.4837687  39.8120291  50.8444220  52.2443899
  40.1977749  49.9749678  52.3515358  38.9117272  50.6745177  51.9672232
  56.1345595  27.2843242  20.4835272  55.6963080  28.1350517  20.4627585
  55.4359418  26.6509342  20.3192711  19.7627628  61.5304565  17.9666126
  19.1392624  60.8356810  18.1782055  20.6207800  61.1122131  18.0381131
  64.4105387  55.4080248  16.0957444  65.2743262  55.8066034  15.9897447
  63.7954104  56.1062288  15.8713448  14.4972110  36.5868831  54.3910122
  13.9320624  37.0775723  54.9877167  15.3797734  36.9049597  54.5811224
  61.8704665  55.5734158   4.5720577  62.6713103  56.0590219   4.3744016
  61.1653000  56.1291838   4.2402521  56.7020041   2.4183119  30.8856818
  55.8268911   2.7766431  30.7373401  56.7244822   1.6169131  30.3627225
  65.2734375  32.8118658  29.1434097  65.5125391  33.0641961  28.2515621
  65.7146695  31.9737482  29.2816377  14.9386644  21.5086412  37.7257752
  14.9002504  22.2061396  38.3801866  15.5403435  20.8638978  38.0979586
  14.1042125  10.3763831   0.8383179  14.6269143  10.4588544   0.0406877
  14.3921101  11.1039770   1.3896389  32.8160787  21.1327100  28.1213355
  33.2077956  20.4154158  28.6196113  33.5420418  21.4969158  27.6148105
  18.5683727  17.7760637  18.3361292  18.8573241  16.8635881  18.3473742
  18.0879366  17.8650331  17.5130272  48.5446516  23.7590492  50.6722512
  47.6415709  23.8425339  50.9783685  48.9805568  24.5481194  50.9941011
  31.2749696  58.0419779  37.2364187  31.2632227  57.8163099  36.3062739
  31.1607814  57.2053862  37.6873112   6.2897241   3.5180071  51.8939495
   5.8961523   2.8606355  51.3201952   5.6133568   4.1885987  51.9891691
  66.4473297  32.6457548   1.7541671  67.3754179  32.6989198   1.5260057
  66.4311150  32.7135444   2.7088258  38.4286398  19.2004216  13.1472456
  39.1385478  19.8090816  12.9428017  37.7743143  19.7371471  13.5944760
  28.4811557  59.9224132  47.3160013  28.0462558  59.0891355  47.4969568
  27.9343248  60.5772132  47.7501008   6.1855781  31.0865903  26.1588120
   6.9298297  30.4883933  26.0918665   6.4508700  31.8562531  25.6553507
   7.6644462  28.1952715  21.6085076   6.8616033  28.4199309  21.1381841
   8.3565181  28.6570072  21.1351490  31.8431879  35.8921751  54.1924800
  31.3599510  36.1956951  54.9609781  31.1655552  35.5931341  53.5861635
   1.3192917  48.6535030  51.7480936   1.4651943  48.7284177  52.6911375
   0.3930212  48.4264165  51.6663333  21.2942195  45.1959085  35.6827784
  20.7244635  45.4137182  34.9451017  22.0114851  45.8272076  35.6259751
  43.0679690  55.4377305   8.8573745  42.9856574  55.0236093   9.7164253
  43.3760249  54.7372543   8.2823375  14.3880749  23.0541110   3.6747968
  15.3352094  23.1781530   3.6133093  14.2748642  22.1064305   3.7477207
  45.3942770  62.5953531  24.0337300  44.6185082  62.7046442  24.5837045
  45.1021331  62.8411055  23.1559539  63.3383661  25.1225615  38.0905175
  63.1067777  25.7493377  37.4051356  62.5701737  24.5566535  38.1670690
  31.0680676  17.1733236  41.5421867  31.1705613  17.4564862  40.6335926
  30.1706505  16.8438828  41.5906096  11.4725614  20.0038290  31.7314005
  11.5277767  19.0621197  31.5690255  12.3835039  20.2872181  31.8095469
   4.3479571  14.0794897  41.8574619   4.2226964  13.9981842  40.9119844
   3.4622097  14.0542197  42.2194624  34.0570461  13.7272078  23.8555530
  33.1721591  13.7633139  24.2187360  33.9754640  13.1710011  23.0808166
  19.8262222  48.0983895  54.0387508  20.7068113  47.7769512  54.2323282
  19.4164685  48.2060069  54.8970938   8.1833279  12.5832856  12.4322784
   7.4790955  13.2270205  12.3555052   8.7981415  12.8167915  11.7367852
  28.2801080   8.9447659  22.2317576  29.1425180   8.9831609  22.6452851
  28.0835366   9.8531955  22.0029593  63.6543399   2.7349008  55.1874626
  62.7030880   2.6747072  55.0995496  63.7930841   3.0430592  56.0830184
  32.1230531  31.9402671  11.7036200  32.1493340  32.8344107  11.3629603
  33.0337477  31.7391944  11.9191122  41.8987769   4.6816775  32.7611995
  41.5356511   5.4736257  33.1576705  42.7179903   4.9694908  32.3583508
  19.2228610  41.0096270  55.4775028  18.6047668  40.3109270  55.6920012
  19.4050528  40.8904248  54.5453930  13.6851597  18.0819678  27.1008968
  14.0888131  18.8158453  27.5642753  13.7072349  17.3604870  27.7295542
  25.1999290  47.7152878  52.0760744  25.8569066  48.3308714  51.7510080
  25.6283841  47.2723728  52.8085258   7.9462988  49.2478829  33.4672591
   8.0411620  50.1962906  33.3792039   7.0732851  49.0614027  33.1218549
  59.2484832  20.1452565   1.6500533  59.4044036  19.5200562   0.9422082
  60.1210672  20.3472614   1.9877279  12.9080451  39.6588922  15.4319131
  12.4971926  40.4210091  15.8400917  12.2473967  39.3277621  14.8235309
  67.4328296  28.5633516  46.6467571  68.1816768  28.6887550  47.2296190
  67.6842350  27.8273582  46.0887766  51.8619531   7.3698395  17.3316562
  51.8721539   7.0502496  16.4294422  52.6979905   7.8245592  17.4341440
   2.8864086   6.6698492  27.6146909   3.2693422   5.8130658  27.4262377
   3.6381305   7.2585834  27.6820942  37.7785826  10.1240885  18.9813864
  38.6762381  10.1224256  19.3137145  37.2453499   9.8581952  19.7305155
  30.7027822  56.6024696   8.5454277  30.3024464  56.1892235   7.7804521
  31.5663939  56.8823397   8.2419828  31.0633559  58.6885279  54.5060440
  31.0072876  58.9638203  53.5910013  31.4105738  57.7973693  54.4672102
  30.2447064  52.8163308  42.2167441  29.3970437  52.6955718  41.7888221
  30.1257087  52.4479598  43.0921730  14.4051063   7.5404364  42.3950243
  13.4682262   7.5722349  42.2014380  14.4570982   7.1366823  43.2613468
  56.5883630  35.2332997  26.8011761  57.3602420  35.6723404  26.4438558
  56.7669922  34.3004394  26.6824532   3.1601790  27.0978427  49.9204159
   3.7388152  27.1327400  50.6821203   3.5373345  27.7257061  49.3041563
  17.8305960  58.3345175  32.9692793  17.4996996  59.1986799  33.2141662
  17.4254680  57.7361917  33.5970592  40.9070234  13.2000309  -0.2618453
  40.9772914  14.0718037   0.1271394  40.3592723  12.7082116   0.3499654
  54.1720092  29.5254972  10.4210285  53.8447535  29.3456870   9.5396617
  54.9223721  30.1039043  10.2845291  27.0650959  16.4119220  46.2025833
  26.8671346  16.8786669  45.3906775  27.0231295  17.0848393  46.8820333
   5.4827636   7.9147273  39.3629956   5.8654726   7.5074148  40.1400805
   5.2823359   7.1808767  38.7820268  37.3417843  55.9304898  39.8389101
  37.2820461  56.8115931  40.2081251  37.0078791  56.0216164  38.9464784
   1.5644312  45.8203220  25.6625891   0.6827560  45.7163239  26.0204506
   1.6141741  45.1753473  24.9570656  64.7836888   8.1223547  42.7433634
  65.2335006   8.4324747  41.9574070  64.4419387   7.2619992  42.4999952
  38.2429314  44.4276762  20.4468107  38.1163001  45.3764629  20.4475617
  37.6269364  44.1033030  21.1037493  22.1112514  32.6902199   7.3211861
  21.2404990  32.4426675   7.0101577  22.3257494  33.4818602   6.8277031
  33.0312223  46.0468727  53.1995263  33.1909949  45.6505984  52.3429799
  33.8751812  45.9957689  53.6482505  40.7371610  45.6500959   4.8772326
  41.1311263  46.3232613   4.3223667  40.3479594  45.0294733   4.2611331
  27.1116734  35.1734114  18.2538927  26.1804795  35.2009559  18.0340087
  27.1348095  34.8658204  19.1600299  22.9275646  19.0209674   5.0754884
  22.8524711  18.0669426   5.0962022  23.1987272  19.2204797   4.1794447
  17.7402461  23.0535579  21.8525028  17.8025615  24.0065408  21.7879200
  17.0770991  22.9019856  22.5259209  25.2615154  14.8396767  53.8159063
  25.3249872  13.9758671  54.2233847  24.8497618  15.3893459  54.4826547
  47.6865882  29.0892863   7.6416856  47.6167196  28.6798739   6.7792863
  48.5839277  29.4205308   7.6775736  11.0383677  35.3452158  25.1180363
  11.1440957  34.6010351  24.5253730  11.7264390  35.9578705  24.8583364
   3.6211551  62.6531895  25.1032257   2.7812017  62.6992898  25.5599403
   3.6784304  61.7477756  24.7979784  17.4046541  36.0851088  44.0093049
  17.4183787  35.9610116  43.0602821  16.4852036  35.9756127  44.2519018
  12.8426290   9.9955803  36.0763192  13.5315001  10.5548596  36.4353395
  12.7777636  10.2554643  35.1573610   9.9402165  15.8443880  41.5181494
  10.6610250  15.2670300  41.2665033   9.6220630  15.4835796  42.3456907
   9.2857135  18.1484640  40.0350961   9.9627150  18.7124432  40.4090377
   9.3142450  17.3541058  40.5683967   0.9839309  58.3849221  23.3447599
   0.8206118  57.4437385  23.2836676   0.8206475  58.7142121  22.4609399
   7.4072683  11.6542041  27.6261210   7.0157123  10.7812691  27.6561141
   6.7831767  12.1795690  27.1253896  66.2800037  44.6149253  27.5050357
  66.6509592  44.4776999  26.6333679  65.3585970  44.3720591  27.4141601
  38.4820074  47.0278978  20.1043224  37.9168814  47.7439785  19.8143280
  39.1083401  47.4423599  20.6977534  68.0819795  31.8097091  46.4061022
  67.4063999  32.3915029  46.0577631  67.6084628  31.0171986  46.6589594
  41.0839415  30.0669265   1.4974834  40.3430080  30.3446937   0.9588777
  41.3963413  29.2644548   1.0795420  13.8793791  46.7292290   6.6332704
  12.9569376  46.7969304   6.3867873  14.3152130  47.4087756   6.1189801
  18.8489294  32.5685930  19.9046588  19.3363547  33.1864691  20.4495215
  19.5038855  32.2078681  19.3070436  18.2044685  51.3513708  31.7441750
  18.9570832  50.7721472  31.8637705  18.5619962  52.1199179  31.2994909
  48.1126067  48.4543305  30.4189110  48.3580110  48.2006150  31.3086510
  48.3524278  47.7004045  29.8801041   7.5960112  19.3256998  25.1369357
   8.4314501  19.3672419  24.6715879   7.5488818  18.4276450  25.4648209
  32.2287869  45.5132055  20.4568505  31.7667866  45.9665108  19.7516549
  33.1182265  45.3951836  20.1233840   9.7982740  33.2294178  16.0325909
   9.6514463  33.3579040  16.9696951   9.3836755  33.9866590  15.6191576
  33.9300418  50.7526636  16.3536060  33.3215570  51.2909317  15.8473992
  34.1348124  50.0162983  15.7773542  63.7112850  11.1194504  51.9564303
  64.1833431  10.8010614  52.7258586  63.0630321  10.4390514  51.7746299
   9.7028452  37.7198410  28.5752010   9.4343996  36.9240904  29.0344930
  10.5035937  37.4712801  28.1134105  46.6121752  50.3457253  22.3041010
  45.8188279  50.0550561  21.8542743  46.7655500  49.6793180  22.9738832
  36.7666388  53.4961551   8.7353009  37.7227259  53.4535187   8.7176710
  36.4964599  53.1695955   7.8770500  36.8419849   1.1193604  21.9334841
  37.3310255   0.3879971  22.3105526  36.1126053   1.2567515  22.5379348
  55.6600046   7.5696647  22.1004963  54.8293495   7.1552134  21.8670917
  55.4073334   8.3723938  22.5565815   9.2119581   3.0326685  19.5409107
   9.4682133   3.8399205  19.0949178   9.8007035   2.3661542  19.1868353
  53.4718835   4.6764512  22.2587347  54.3469941   4.5032115  22.6057196
  53.6255919   4.9941678  21.3689804  34.1405177  31.5506172   8.7802869
  35.0729275  31.3736486   8.6556780  34.1110873  32.1896935   9.4922888
  21.4737774  47.4987954  38.8423535  21.1334396  47.6269096  39.7277829
  20.7443310  47.7341443  38.2689890  56.3745594  35.2363110  41.8960238
  57.1295738  35.5600810  41.4047432  55.9350157  36.0271716  42.2083855
  55.6665225  56.7498392  37.0366701  55.6696863  57.5174087  37.6085588
  55.9797806  56.0360068  37.5921377  30.5613352  53.0154341  34.7934576
  29.9318911  52.5381154  35.3340169  31.1054255  52.3330468  34.4003364
   1.5058835  27.1025014  37.2266126   2.4432752  27.1505928  37.0389557
   1.2038227  28.0091357  37.1717906  35.0996494  27.5261974   0.9576333
  35.9273863  27.0554519   1.0550029  35.3475714  28.3718467   0.5839415
  14.5944536   5.7523072  37.3297616  15.0939811   6.4027989  36.8362388
  14.4152153   6.1748064  38.1697616  45.2643728  36.7771912  13.0842865
  45.0691032  35.8812046  13.3587158  45.2025557  36.7540574  12.1293640
  62.2358882  20.3229094  29.3837428  61.6987300  19.7818124  29.9624562
  62.7342361  19.6938813  28.8620090  52.8345048   3.7447686   6.4472133
  52.4569833   4.3344969   7.0998460  52.1056663   3.1844325   6.1806500
  34.6244907   7.6198954  38.3645940  34.3188560   6.7424292  38.1346607
  34.5507419   7.6569695  39.3182278  15.7665825  42.0634031  17.5345218
  14.8714960  42.1265364  17.8677845  15.7943261  41.2210989  17.0806694
  18.6675680  29.1470146  11.4198899  19.1641903  28.5945129  10.8162832
  18.6337101  30.0014544  10.9897542   9.8550886  46.3244009  11.9019079
   9.7076488  46.6887808  12.7746737   9.3286830  45.5251455  11.8839872
  33.6194075  23.2150305  25.4697987  34.0350664  24.0628088  25.6270668
  33.5145414  23.1723393  24.5193168  15.9678495  62.5797415  26.2801337
  16.6003966  62.8794527  25.6272244  16.0167825  63.2326460  26.9783831
  25.7179499  62.8477430  16.4082909  25.6893015  62.1177959  15.7897556
  26.6010761  62.8154945  16.7760944  52.6992078  38.6976719  50.0504544
  52.2737856  38.0758172  49.4600781  52.0558471  39.3969649  50.1658108
  17.5404286  21.1640143  13.3550560  17.0568132  20.3380871  13.3687699
  17.3751223  21.5526509  14.2140484  56.2571818  21.3707579  52.1807363
  56.9578845  21.0008562  51.6436883  56.2561554  20.8359898  52.9746201
  22.7768683  53.0404615  20.9030151  22.6516771  53.8821411  21.3413477
  22.5412250  53.2082129  19.9905670  47.2935438   1.2231462  13.5131800
  46.7699766   1.1191820  12.7186346  48.0592108   0.6668352  13.3699811
  62.9628288  27.3844809  16.6952896  63.3952152  26.7471594  17.2637022
  62.4104726  26.8558402  16.1193860  22.6515937  39.2620969  14.8791122
  22.3454118  39.0709686  13.9925718  21.8540645  39.4575739  15.3710127
  26.0922098  15.0362003  13.2128358  25.6303024  15.0899911  14.0494835
  26.9814181  14.7701502  13.4468412  63.7544023   6.5322632  29.2365241
  63.2970154   6.9568915  29.9622774  63.1492006   5.8543534  28.9358497
  20.5903233  33.0934132  13.5854336  19.6864307  32.8138245  13.4403750
  21.1011827  32.5912130  12.9505679  44.8592520  34.6822143  17.5934446
  44.1346931  34.1231084  17.3130035  44.4864368  35.5635095  17.6171410
  24.0683055  33.8734055  12.7023828  24.5453620  33.9013863  13.5317588
  24.0078831  34.7889900  12.4298251   7.6141101  50.6565952   8.7137121
   8.3116055  51.0514355   9.2370045   7.4143898  49.8347378   9.1619217
  11.9208252  26.8186545  20.7154179  12.7708936  26.3825369  20.6569624
  12.0473611  27.6518202  20.2614832  59.3536043  35.6440759  15.7528627
  58.7736118  35.5832291  16.5118992  59.7054964  34.7600055  15.6488371
  20.4180384  36.1044693   7.4097610  20.3440499  35.1891685   7.6799113
  20.8014417  36.0653448   6.5335739   8.1746697  29.6417952  36.0630870
   8.4672010  30.1692343  36.8063664   7.8014088  28.8547993  36.4600086
  35.3016025  14.1067398  55.1371619  34.4354874  13.7649239  54.9152611
  35.8581657  13.8428438  54.4044759   7.6464671  12.3311705   9.1516745
   8.4131783  12.9006953   9.2151511   7.9087609  11.6437621   8.5393798
   8.0647308  35.0316501   6.7472655   8.3680373  34.6599889   5.9189516
   7.1238011  34.8562527   6.7582023  59.2487079   5.0639427  42.9940518
  58.5618896   5.6068719  42.6070889  59.3948061   5.4439390  43.8603600
  15.4118574  61.6879559  35.5227280  14.7088432  61.3713074  36.0899472
  15.3799653  62.6405621  35.6108069   9.4234526  49.8683929   1.9918385
   9.2619681  49.8068142   2.9333067   8.5516906  49.8447180   1.5972477
  18.3274364  42.5680685  18.4717453  17.4186194  42.4187660  18.2109904
  18.8383996  42.3589754  17.6898050  38.7043858  38.2558060   8.5619277
  39.3420172  38.8059974   9.0168434  38.7119460  38.5761356   7.6599503
   8.4113127  45.7704020   7.5348896   8.7074172  45.0128794   8.0395800
   8.9001560  46.5076971   7.9004800  44.9318850   0.6827397  51.7334318
  45.7728636   1.0324330  52.0278883  44.2896449   1.3339371  52.0157528
  10.4493010  39.9280095  10.5169702  11.3968945  40.0058556  10.6276023
  10.2239704  40.6159163   9.8906761  11.8828642  56.5598774  35.1360989
  12.5164449  57.2645092  35.0008035  12.3933315  55.8504772  35.5264902
   9.2580474  37.3959196  51.5117871   9.9224556  36.7217005  51.6540014
   9.7546924  38.1685103  51.2422007   3.4771958  40.8292532   7.1203882
   3.9845857  41.6162491   7.3189557   4.1345018  40.1712942   6.8939638
  54.5216990  15.8357692  33.1190729  53.7951612  15.3524303  32.7256775
  55.2196980  15.7928514  32.4654794  23.8996648  42.6470465   7.6699203
  24.2686066  42.7102370   6.7889428  24.5245780  43.1131835   8.2252926
  64.0067243  62.0526123  28.9675426  63.4585479  62.4150848  28.2715917
  64.3298197  62.8188658  29.4415641  27.8153896  44.8054218   8.7400258
  28.4347153  45.1217604   8.0823070  28.0356312  43.8805532   8.8511515
  32.0620728  53.6102247  23.7707782  31.2530136  53.6006403  24.2822146
  32.2153115  52.6920748  23.5477209   8.9754808  14.8149050  44.2764195
   9.7305954  14.2342222  44.1824099   8.2195223  14.2277802  44.2696043
  53.5535920  33.8154543  40.0870725  53.6014802  33.3820952  40.9392091
  54.4670821  33.9317596  39.8258409  29.3535137  31.3288260   0.9287042
  29.0917945  31.7439318   1.7505452  28.8579869  31.7959189   0.2560162
   1.3465131  42.7115381  17.0538184   1.3022507  42.8626621  17.9979774
   1.4480675  43.5851086  16.6759345   4.8959196  64.1589153  47.3903825
   4.5086492  64.8474873  46.8499031   4.4740141  63.3535946  47.0908936
  26.4561725  36.4067674  13.7430227  26.5976906  35.9634686  12.9065478
  26.3687778  35.6965065  14.3787277  34.8831339  50.2335161  54.5531914
  35.1733298  49.4871086  55.0774943  34.4784159  49.8402315  53.7800410
  48.9856047  62.7326721  48.3701816  48.4661765  63.4248680  47.9611727
  49.2134757  63.0816287  49.2318871  23.1278062  41.3681459  11.0169196
  24.0130711  41.0824728  10.7912469  22.9365516  42.0697165  10.3944635
  43.2049847  53.9314890  11.1463046  43.0641794  53.9579010  12.0927238
  43.3429575  53.0047512  10.9504557  29.5759201   9.4189596   6.8977922
  29.3992376   9.1450614   5.9977949  30.3302169  10.0039172   6.8264264
   9.6598226  60.6737089  30.0475430  10.4672384  60.4297304  29.5950103
   9.7618419  61.6072369  30.2328825  55.6655741  29.9814320  20.4161978
  55.2824020  30.8084249  20.1238012  56.0228634  30.1760912  21.2826180
  57.4871969  44.1908503   7.5282443  56.6918516  44.3017340   7.0073152
  58.2009888  44.2704535   6.8954802  30.7325220  58.9375973  51.8359041
  30.2178788  58.1947565  51.5203667  30.4111314  59.6838331  51.3298702
  54.4782125  17.6867957  14.1390705  54.6904599  18.1687731  13.3397710
  55.1639401  17.9364104  14.7585070  38.1404138  61.5024424  42.8923702
  38.2699656  60.6650496  43.3375931  39.0261316  61.8287945  42.7335310
  36.2250423  49.6990681   1.6865204  35.9987473  48.7721586   1.6099666
  36.3480639  49.9909735   0.7832546  64.7779149  31.1774862  55.2658547
  64.2061347  31.8982637  55.0016918  64.9022895  31.3028658  56.2066219
   7.7418137  63.4927607  24.4201422   8.1887877  63.8370562  23.6468983
   7.5001019  62.5985861  24.1787672   3.5612187  32.2561717  20.5799699
   3.4465304  31.6250014  19.8695433   3.8790479  33.0486465  20.1473045
  24.4729166  29.9726969  29.2427829  25.1947575  30.0990540  28.6269859
  23.7571221  30.4969651  28.8836006  10.7097375  42.0242786  13.3403492
  10.7812881  41.0902500  13.5370910   9.7693157  42.1789551  13.2513940
   9.8327088  40.9998798  35.7258320  10.1393831  41.8579483  35.4327440
  10.6284916  40.5390215  35.9914827   7.1114558   0.3148121  40.8587742
   6.9091099   0.2755064  39.9240327   8.0628508   0.4139895  40.8939171
  43.3453436  57.4672264  54.8972728  43.4788055  57.8722519  55.7542294
  43.2675762  58.2054514  54.2929476  12.7523535  35.2848620  30.8153629
  13.5806721  35.1167483  30.3660727  13.0058115  35.4958720  31.7139554
  15.5336273  38.1022954   3.3761230  15.0590694  38.9124322   3.1898260
  15.1628268  37.7920771   4.2022604  27.8410559  10.4984087  36.7048168
  28.1189316  10.7872147  35.8355618  26.9033440  10.3297228  36.6127586
  30.3447324  14.7651286  38.3168316  30.3220301  14.1943497  39.0848994
  31.1967253  14.5932860  37.9158211  38.1166088  12.2593827  17.4134862
  38.1888687  12.8691668  18.1477714  37.6178574  11.5211291  17.7634251
  32.9690385  25.3307748  18.6519802  32.6632881  25.0689554  19.5204270
  33.9178276  25.2085900  18.6851919  37.8307080  57.7835798  17.7101398
  38.0705094  58.0442333  18.5994017  37.5542855  56.8710423  17.7943444
  15.6753052  27.6446665  54.9586886  15.6317246  28.1087816  55.7947099
  16.0494030  26.7912567  55.1777273  12.4279082  13.7469757  37.5488278
  12.2161162  13.0867613  36.8889114  11.8755925  14.4958199  37.3243102
  53.6753988  37.4106979  43.9828539  54.4222879  37.6648951  43.4408474
  53.6157703  36.4610958  43.8783169  22.3448628   1.2957854  30.4164243
  22.9578560   2.0062632  30.2275085  22.1704596   1.3729901  31.3544297
  51.8184298   5.0694270   0.9989497  51.8620032   4.8401446   1.9272609
  51.1190050   4.5178122   0.6485735  22.7089524  56.4555788  29.9134612
  22.2677374  56.7707396  29.1246438  22.3231268  55.5947876  30.0759888
  61.2368662  37.5787294  52.3469311  60.5793888  38.0528820  52.8559815
  60.7749170  37.3056114  51.5543148  22.0894688  13.9543719  37.0395541
  22.6240700  14.3178935  36.3336611  21.6660469  14.7158951  37.4358273
   0.5175347  63.0604809  41.0692116   0.6707806  62.1202153  41.1622282
  -0.4334789  63.1422299  40.9976586  61.3562107  37.0315933   9.5496124
  60.6315517  36.4441586   9.3350935  61.1887169  37.2984147  10.4534829
   4.3679166  56.9659185  22.5684834   5.2649122  57.2821951  22.4607897
   4.1612440  57.1398783  23.4867740  24.2311168  51.6788864   6.2266827
  25.1862812  51.6837502   6.1644578  24.0418839  51.0943079   6.9606364
  19.5503300   0.9628005  21.0168123  18.9369791   0.3638167  21.4425468
  20.3678959   0.4682106  20.9603024   8.1797236  23.4989161  24.9732256
   7.6956862  22.7815051  25.3822041   8.7091559  23.8651175  25.6816220
   5.0053680  19.3468142  11.4098489   4.5825303  18.6254346  10.9439623
   4.3479782  20.0424695  11.4214349  59.2769194  63.3496523  39.9623322
  58.4494114  62.9944944  39.6377921  59.5105839  64.0288782  39.3296552
  45.7368088  49.4517946  27.2602773  46.6077995  49.0550137  27.2471094
  45.1348495  48.7103367  27.1960926  57.4721384  31.5396738  44.2629147
  56.9192886  31.4799833  43.4837961  56.9732952  31.0908771  44.9455309
  54.7304535  58.2669783  31.1909652  55.3369617  57.6188135  30.8328342
  54.9036026  58.2625580  32.1323633  33.4366369  48.3437920  14.8078287
  32.7144575  48.4613848  14.1906881  33.2407594  47.5184298  15.2512681
   3.0615336  29.1808581  32.2514725   3.3738858  30.0832057  32.1848750
   2.6013428  29.1479850  33.0901480  30.9953904  50.0030422  19.0419400
  31.6657019  49.6860838  19.6472943  30.3153276  50.3686571  19.6076882
  27.9384184  58.4537077  11.7667949  27.5602722  59.2301083  11.3539517
  28.6782122  58.7882948  12.2737348  22.8817351  21.5244193  37.2284627
  23.2506819  22.1478743  37.8540897  23.6444243  21.1046881  36.8305135
  17.6729267  16.3648791   5.9146589  17.6755112  17.2629733   6.2457812
  17.1425932  15.8784289   6.5458071  10.8026903  12.3011870  29.6597457
  10.7120150  12.7982897  28.8467884  10.8844393  11.3907046  29.3758988
  19.8703694  53.0841541  16.6992176  19.0341413  52.6364279  16.5707850
  19.6695411  53.7975168  17.3050308   1.4276511  47.2568083  37.6128864
   1.2966114  47.1734285  38.5574007   1.8281895  48.1190586  37.5018477
  38.8182806  10.4361147  36.7685366  39.3600285  10.7302136  36.0362458
  39.1949808   9.5934052  37.0218515  68.1955254   9.3125433  15.4135025
  68.1172096   8.4396214  15.0286639  67.5600254   9.8437256  14.9336886
  46.8320847  46.6909742  18.3402181  46.5509892  46.6865730  19.2552030
  47.6529932  46.1986923  18.3394802  14.4202030  46.6559553  18.1369972
  14.3817687  47.1540546  18.9534843  15.3453147  46.6693354  17.8915954
  32.0014685  36.5121264  16.6868079  32.1324712  36.4311213  15.7420814
  32.8579008  36.3133521  17.0652843  17.6144064  23.7785233  51.5753656
  17.6754559  23.3568323  50.7182288  17.4696672  24.7037590  51.3773369
  14.9391794  62.6509905  12.6119351  14.8639929  63.5609198  12.3245180
  15.5275273  62.6858854  13.3661640   5.6299639  42.3407936  34.8857284
   5.3291005  43.2297611  35.0740004   6.4672798  42.4611473  34.4377899
  12.7023821  16.7144019   8.5718349  13.0488782  17.5961548   8.4351638
  13.3206778  16.1411864   8.1186536  61.7075002  23.0929369  39.1101360
  62.2670853  22.3639102  39.3777704  61.8053543  23.7392325  39.8093915
  46.7848444  47.1468925  21.3414741  47.6327753  46.8550110  21.0067344
  46.8635130  47.0703745  22.2923613  53.1746054  45.6628752   8.7582099
  52.6717758  45.3664684   7.9995716  54.0406132  45.8684683   8.4060848
  37.7420568  47.4398232  54.2543936  38.6141062  47.8251505  54.3397570
  37.2245455  48.1137037  53.8135958  33.0055881  39.1276360  13.8324177
  33.3771515  38.3153701  14.1765070  33.7392044  39.7424436  13.8252735
  53.8744748  33.2119215  49.0546372  54.2185319  33.6379803  49.8397061
  53.0368150  33.6463583  48.8939467  33.2437849   8.3166808  27.7534389
  32.9739356   7.4091953  27.8944468  33.1216812   8.4597909  26.8149066
  51.8769217  28.0873394  11.2704110  52.7403212  28.5005689  11.2744272
  51.9041586  27.4828386  10.5287433   4.4975699  21.8482531  54.7798255
   4.2360724  21.4475763  55.6088662   3.9755047  21.3935221  54.1188433
  67.8587162   1.4848847  20.9386468  67.4383604   1.7568917  21.7544556
  68.5489094   2.1328539  20.7972121  63.7875330   7.5895686  23.0776167
  64.7315227   7.4822945  22.9609513  63.6395895   7.4141974  24.0069103
   2.4197739   9.8774046  34.5560932   2.1151560  10.6497521  34.0797377
   3.2389658  10.1560826  34.9653578  36.4566422  30.4152513  23.1175971
  36.0560393  29.8628378  22.4463367  35.8698010  30.3413367  23.8701844
  11.9576371  56.0030174  24.5504022  11.3783336  55.6157684  23.8941383
  12.3389006  56.7647171  24.1137290  37.7558350  17.2451491   6.8164563
  37.1725523  17.4829096   7.5372088  38.0115783  16.3418765   7.0033073
  60.4233825   3.3401389  26.3390160  59.6853482   2.7458615  26.2034726
  61.1978065   2.7850766  26.2473178  41.6939592  23.9141107  31.8283415
  41.1223602  24.3951750  32.4267411  42.4414444  24.4961143  31.6913390
   1.7056149  13.8369936  42.6050711   1.2374132  14.3172593  43.2879829
   1.0655897  13.2072014  42.2734690  25.8346623   4.0514559  30.5310273
  26.0600203   3.4361882  31.2288046  24.8828524   4.1370863  30.5853772
  57.2823811  20.6896830  33.5105443  56.4105654  20.8015704  33.1315351
  57.8759623  21.0675168  32.8615928  55.7691681   0.6558842  24.4555998
  55.2620041   0.0301356  23.9384413  55.4485428   0.5426354  25.3503656
  32.0840777  59.9562806  42.4625262  32.5548078  60.3139680  41.7097279
  31.2242944  60.3756374  42.4286970  26.1454989  61.0049838  48.8735100
  25.3495480  60.7527536  49.3415621  26.0898377  61.9579261  48.8025716
   5.4138929  57.9346895  52.4019909   4.5941269  58.1651449  52.8391504
   5.3185195  57.0066118  52.1879625  53.7877083  26.6284847  17.2922444
  53.1630468  25.9909511  16.9464493  53.5589838  26.7100000  18.2181346
  56.0657454  16.5332580   9.0048450  56.3227940  17.1663392   8.3344972
  55.6155157  17.0562792   9.6681499  50.7705927  54.3924856  23.2128668
  49.9078178  53.9849424  23.2887626  50.7244349  54.9021006  22.4039221
  38.3689069  14.5835728   7.7642089  37.7341008  14.4493861   8.4679461
  39.1832697  14.8059411   8.2154292  60.0459194  43.0222416  33.1813526
  59.9140358  42.0933580  32.9915977  60.7420540  43.2925415  32.5825429
  49.3860722  27.9626942   1.0666877  50.0272274  27.3925090   1.4909978
  49.1538763  27.5031805   0.2597411  12.3428261  55.1845837  50.5426168
  11.7989683  54.4067097  50.6665611  12.8462148  55.0009775  49.7494459
  35.9534359  52.0832586  14.4087505  35.4707885  51.4650154  13.8600636
  35.6483865  52.9447746  14.1241944  44.5858585   2.0622820  34.2518544
  43.6724388   2.2402901  34.0277886  44.7393476   1.1702055  33.9406085
  37.6103508   7.1686263   5.4620433  38.2734560   6.7141861   5.9816641
  38.0850255   7.8863663   5.0427932  31.6544188  15.5084360  52.9262930
  31.5535677  15.6866873  53.8613259  32.2358072  16.2007702  52.6118251
  55.5959082  60.0945187  39.3188500  56.3688898  59.5387602  39.2195296
  55.8454418  60.9261227  38.9158607  35.6490564  11.4975972  38.5390520
  35.5379128  12.4434037  38.4424543  35.7184731  11.1717076  37.6417184
  36.3685966  20.7591987  20.4272318  36.1190128  21.3197803  19.6925974
  35.7814789  21.0191417  21.1371303  62.7552176  53.2915211  14.6953356
  63.4312344  53.8737869  15.0420332  63.1458378  52.4187040  14.7382641
  34.7595572  30.8181643   0.3378056  35.2506518  31.0146284   1.1355895
  33.8524055  30.7305431   0.6304302  50.6325006  42.8675699  20.9076476
  50.0713253  43.2721043  20.2460837  50.0697517  42.2237921  21.3378835
  59.4559037  20.7400031   7.8292936  59.7379553  20.2548022   7.0538861
  59.0634882  20.0768656   8.3971715  67.6631233  53.9314079  21.7265105
  67.2102933  53.5447264  20.9770727  67.7566188  54.8563862  21.4986777
  66.5894175  48.9906263   6.8768311  65.7438374  49.4110870   7.0331526
  66.7727089  49.1577053   5.9523195  10.3985404   6.5475554  47.6549387
   9.5421123   6.9741482  47.6269722  11.0039746   7.2425360  47.9131746
  53.0528652  13.5351176  26.7351341  53.7048280  12.9434676  27.1107984
  52.6120126  13.9183039  27.4934554  41.6068697  51.0177612  32.6732945
  42.5511360  50.8943796  32.7701044  41.5106726  51.9329453  32.4098158
  44.4009972  48.7145233  18.8565266  45.2589130  48.3671808  18.6124611
  44.5193672  49.0398741  19.7489202  64.7409630  48.9397907  46.5258026
  65.4628134  49.0238285  45.9028244  64.3062258  48.1232262  46.2799263
  58.6551934  47.8329372  21.9552422  59.3035239  47.3828554  21.4136505
  58.8466215  47.5442934  22.8475833   1.3653773   3.6648936  20.3434992
   1.2428683   4.4847102  20.8221650   0.7962292   3.7469811  19.5782793
  50.3939533  52.8645611  11.9338632  49.9509096  52.4621964  12.6808882
  51.3228321  52.6875877  12.0825386   3.5248542  49.8516178  28.1276870
   4.4083583  49.5155716  27.9769349   2.9596171  49.2817116  27.6062012
   1.0801846  44.1625118  23.2716060   1.3884550  43.3374119  22.8968883
   0.8320433  44.6918678  22.5136876  58.9270818  12.6956791  22.5366330
  59.8033392  12.4348158  22.2531652  58.4070026  12.7007432  21.7330647
  18.4788864   9.1545386  53.8641119  18.7549895  10.0458807  53.6507845
  18.9972227   8.9210791  54.6342087  52.3633718  51.4501238  34.7475791
  51.4645576  51.7728996  34.8122025  52.7213860  51.8910408  33.9770913
  50.9052134  51.0085154   7.1027857  50.3827572  50.2139854   6.9932628
  51.1436415  51.0124922   8.0298078  31.0363520  30.1685608  52.6603600
  30.9577454  30.2201069  51.7077866  31.4865530  29.3388689  52.8189882
  22.5950754  42.7016104  51.0489007  23.4714258  42.4106157  51.3010171
  22.3317516  42.0960653  50.3559300  41.3997352   1.9481606  20.4838085
  42.3507153   1.9378275  20.5922580  41.2198340   1.2285800  19.8787713
  34.2441309  37.0041502  53.1978738  35.0974072  36.6498793  53.4481740
  33.6453426  36.6866339  53.8737943   8.9817685  28.3569903  45.1844454
   8.4174794  27.9474062  45.8402300   9.7379416  27.7735228  45.1211119
  37.9071223  23.0277247  16.7031622  38.8219213  23.1206984  16.9691169
  37.8744351  23.4019370  15.8227503  35.8358145  58.4993553   7.2047830
  36.3191938  57.8336048   7.6940185  35.7672429  58.1430244   6.3190299
  22.8685284  52.9098749  25.2118492  22.8074718  52.3237038  24.4575906
  22.9706931  53.7816572  24.8300290  51.2540638   9.2814536  28.8432384
  50.6362235   8.8446278  29.4294834  51.3535678  10.1594538  29.2112637
  14.9420035   0.3643954  44.6956393  14.0659154   0.2228535  45.0543460
  14.7983254   0.4997624  43.7590155   5.8263766  12.2911496  38.8892889
   6.5020501  12.9669041  38.8340306   6.1702668  11.5654368  38.3684111
  48.9725762  41.3113594  27.3136258  49.7547263  41.0097647  26.8515515
  49.0382522  40.9124994  28.1812835  14.4227231  52.9740858  15.1964438
  15.0746572  53.4197521  14.6555245  13.8576746  53.6765909  15.5180633
  25.6634312  50.2578932   9.5305303  26.5628558  49.9488169   9.6388868
  25.1851778  49.4944865   9.2069295   3.5668573  51.5980530  11.8835485
   2.9104480  51.4739752  11.1980093   3.4332857  50.8608437  12.4792957
  51.2075520  55.2466393  20.5265808  52.0953465  55.0748777  20.2126503
  50.8237886  55.8163023  19.8599148  32.7853179  14.9921632  27.6058173
  33.0645990  14.2232084  28.1027508  32.6107931  14.6582675  26.7258835
  44.7537987  18.7968732  11.2220481  45.5886118  18.4958840  10.8632520
  44.1822092  18.8827325  10.4590658  22.0623914  10.0388188  35.8632326
  21.6389682   9.4038243  36.4409208  22.7328492  10.4494853  36.4091945
   0.3779036  48.1104994  40.7381487   0.5483920  48.8237286  41.3533497
   0.9255606  47.3897505  41.0493183  62.1940290  27.5677771  19.6781218
  62.3155081  27.8578753  18.7740660  61.3392555  27.1369738  19.6786153
  17.7749360  39.7898293   2.4156198  17.7935100  40.1008558   3.3206883
  17.0836639  39.1278315   2.4039936   9.5115423  53.7935448  31.1829901
   9.2998135  54.1685152  30.3281236  10.0146413  54.4766855  31.6262126
  25.4137266  23.3269299  39.1148516  26.0402811  23.5809887  39.7924324
  24.6910275  23.9469660  39.2122885  39.2985988  60.1681900   6.5208006
  38.6967254  60.2994013   7.2534424  39.9047589  59.4934797   6.8266815
  63.1493187  61.7233181   5.4661393  62.5169468  61.0075665   5.4025757
  63.4459877  61.8613958   4.5666111  60.7356441   7.7158446   9.1503549
  60.6631505   7.2859759  10.0025201  61.3888990   8.4027190   9.2833841
  27.3931551  51.8675184  22.5625372  27.8112864  51.5593576  23.3665490
  26.7175317  52.4758959  22.8619313  26.6095257  53.5803080  27.2104526
  27.3036838  54.0732622  27.6479149  26.4149404  52.8586149  27.8083873
  35.2028275  48.8841629  26.2059736  35.5889988  48.0185032  26.0727835
  35.8681464  49.4946671  25.8883762  34.8418880  49.9520445  13.0564034
  34.4256663  49.5180845  13.8011682  34.1704345  49.9535751  12.3742175
  35.9224677  61.5156555  31.6832256  35.3999400  61.4455509  32.4821496
  35.3391671  61.2111664  30.9880424  30.5333447  49.6878672  23.3563900
  30.9673119  50.3807878  22.8586268  30.2942395  49.0345049  22.6989889
  23.5167921  11.7202366  37.9955729  24.1936720  12.3578013  38.2226702
  22.7303589  12.2466982  37.8520497  28.5166847   7.5792164   2.2352894
  28.8957005   6.7485137   2.5225404  28.4812605   7.5091595   1.2813140
  21.5714823   1.4610714   5.7855958  20.7256866   1.0340209   5.6496209
  21.7181625   1.4067358   6.7299283  27.9223352  26.2024302  15.7919800
  28.5206151  26.8144125  16.2206614  28.4958201  25.5885310  15.3332043
  14.4677884  60.0470972  18.0764937  15.0265557  59.2707586  18.0402398
  13.7273556  59.8360395  17.5077820  38.0008388  39.8589754  17.2003949
  37.8179431  40.7187128  17.5793827  38.9247131  39.8978829  16.9530606
  61.5539569   9.2811287  52.3860156  61.5552861   8.5928572  53.0512312
  61.0939724   8.8936365  51.6413709  39.8686123  51.5836191  16.8166947
  40.6370211  51.8046236  16.2904441  39.1488814  51.5483952  16.1866319
  36.6661024  57.2638798  34.5521784  36.9597054  57.7486324  33.7807870
  36.2639189  57.9271078  35.1130819  38.3720183  42.2612762  53.8914442
  37.6237106  42.2010374  53.2976103  38.9213800  41.5119791  53.6612606
  45.5698573   4.4093508  52.4508715  45.8159291   5.2745528  52.7781487
  44.6487343   4.3146319  52.6933479  34.5706153  56.1850739  27.8835177
  34.2434168  55.3096342  28.0903602  34.1367817  56.4149570  27.0618296
  34.0509820  55.1685572   7.1681988  33.6839199  54.2859793   7.2187734
  34.1094375  55.4562140   8.0792785  42.0193338  61.7356825  37.0419621
  41.6217804  62.3914289  37.6148295  42.4629927  62.2465324  36.3648868
  44.2926704   6.0881991   7.6444465  44.2114913   5.1350207   7.6775551
  45.0221383   6.2869830   8.2314682  32.2820377  50.9491825  11.4549875
  32.8875566  50.5297232  10.8437312  31.4824724  50.4261637  11.3969064
  24.9786633  32.3737139  24.6252012  24.6736973  33.2694621  24.4807935
  24.1972035  31.8331141  24.5098567  44.6390772  61.8744135  27.9770517
  45.3638124  61.2702322  27.8159213  44.6545506  62.0201635  28.9229631
  56.0716068   9.3915076  49.8115540  55.5559980   8.6348242  49.5326042
  56.5281879   9.0933651  50.5982399  10.2771867  51.3679970  44.7814402
   9.7100366  50.6493176  45.0608739  10.4171432  51.8850029  45.5747506
  50.5314589  26.3543272  25.4543328  50.8919096  26.3240004  26.3405514
  49.7745800  25.7690763  25.4834557  51.0396254  27.0235384  47.0881107
  51.7751736  27.3746384  47.5900343  50.2854741  27.5372971  47.3771378
  20.5393904  10.8016629  23.7027502  21.3647669  10.8140797  24.1873407
  20.6754368  10.1503605  23.0146122  42.3550320  47.7149439  34.8933387
  42.9677153  48.1740284  35.4678726  41.7866802  48.4042025  34.5496345
  25.2897518   5.0515122  33.8548064  25.3718060   4.2080445  33.4097719
  25.8938092   5.6286091  33.3875728  20.1815062  38.9953572   5.9911111
  20.2790289  38.1029135   6.3231758  19.2567091  39.2016798   6.1268142
  56.5835559  20.0945467  30.1886725  56.4266335  20.0125021  29.2479920
  55.7349407  19.9079031  30.5902338  62.6861917   6.6320271  12.8295493
  62.9316675   5.7108254  12.9153454  63.0705416   7.0548434  13.5974920
  34.5971012  63.2193995   5.1689970  34.0708208  62.6235485   4.6358740
  34.7264028  63.9876080   4.6127871  21.6558528  48.9278603   7.7431583
  21.2207723  48.0988932   7.5437838  22.4894524  48.6719608   8.1379479
  35.0288177  45.4176283  18.3692884  34.7457075  46.3098145  18.1690657
  35.9392953  45.3837252  18.0758345   7.4334008  36.4000177   3.8275114
   7.7154118  36.3849664   2.9129213   7.1277148  35.5092216   3.9985850
  34.2042017   5.5443120   1.9124772  33.4316349   4.9909487   2.0272064
  33.9275932   6.2154329   1.2885249  23.4254253  27.5475634  53.8427949
  24.0223349  27.3474110  54.5638170  22.6998032  26.9334829  53.9550800
  17.8662145  45.9123755   6.1533654  16.9849575  45.8771086   6.5253520
  17.8060687  45.4015064   5.3461301  39.9652100  63.2629776  17.0142961
  39.9663830  64.1759586  16.7267287  39.1206813  62.9206705  16.7213297
   1.3501387  21.6889817   3.4060148   1.9372969  21.0894782   2.9454950
   1.8788009  22.4723059   3.5581544   7.5162262  52.3842049   6.6604036
   7.5342155  51.5647030   7.1546996   7.3908472  53.0618811   7.3246831
  37.5002229   2.9530091  14.1783297  36.8843281   3.2778687  13.5215414
  37.1301078   2.1166749  14.4607973  46.1628532  61.0540390  38.0278683
  46.5706968  60.4196739  38.6173415  46.7944717  61.1605549  37.3165703
  14.4187420   0.7895607   7.7567500  14.9563139   1.0197968   6.9989651
  15.0499266   0.5333609   8.4292096  66.0586119  52.9405212   9.4749361
  66.6857672  52.2174311   9.4821477  65.6681585  52.9276419  10.3487849
  57.9896402  46.1397266   4.9260095  58.6293793  45.8637238   5.5823565
  57.8950644  47.0820284   5.0651419  30.7782811  12.6821179  40.2160931
  30.7822150  11.7473263  40.0102186  31.7040175  12.9183096  40.2749205
  25.4112887  50.4083347   0.0777530  25.9387732  51.1717749   0.3125993
  25.9158707  49.6607780   0.3983574  50.9669971  35.4845929   3.3818039
  51.8937683  35.4740334   3.6209911  50.7106447  34.5623779   3.3758709
  36.1072738  44.1531366  48.7612602  36.9235928  43.6820990  48.5939899
  35.4214151  43.5604018  48.4538617  39.1831493  55.6635189  24.0112281
  39.3701172  56.5961123  23.9038086  38.6553168  55.6153154  24.8082852
  39.6640443   2.0577282  29.6878672  39.6617138   2.6533837  30.4371452
  40.0102019   2.5823302  28.9659238  56.7676341  29.0730185  26.0343719
  56.2779438  28.3030886  25.7451582  57.5205409  29.1134257  25.4446864
  54.6323597  11.0463328  38.4442949  55.3428733  11.6604704  38.2592463
  54.9850714  10.4689879  39.1214180   4.7243088  22.5703139  44.0026045
   5.6739634  22.6272959  43.8970327   4.5968455  22.4003977  44.9359417
  27.4886775  63.1851053  19.5142567  27.0619726  62.4190187  19.1305065
  27.6496530  63.7668419  18.7713563  52.7283389  45.4658974  49.9925306
  52.1155352  45.9267796  50.5654946  53.4910494  46.0422648  49.9445203
  18.7575512  44.7203642  11.7705921  19.6813088  44.7153193  12.0213369
  18.2868843  44.8560721  12.5929550  28.5228098  12.7630604  41.9935843
  29.4447220  12.6847971  41.7482528  28.0642832  12.1762550  41.3922175
  66.0023415  27.6710600  13.8660955  65.2900278  27.0344157  13.9253867
  66.0786116  27.8587145  12.9305720  48.1433153  62.7506304   9.9478918
  47.3074532  62.5426912  10.3654170  47.9279518  63.4247732   9.3033910
  58.1671906  38.0292583  37.0692444  57.7257586  38.3334923  36.2762666
  57.9859304  38.7078071  37.7195907   3.0357063  20.8326567  52.5309419
   3.7859762  20.6787813  51.9567936   2.6135624  19.9770296  52.6079246
  20.0368708  36.9003100  41.6084862  20.8500069  37.3213572  41.3296413
  20.2622145  35.9734339  41.6882133  13.4515589   1.4656729  10.2599263
  12.4946516   1.4890093  10.2640402  13.6810320   1.2085433   9.3669212
  61.7049313  63.4121227  27.8181982  61.7319584  64.3178988  28.1265354
  60.8582163  63.0819750  28.1187153   4.0305537  15.2457423   5.9304875
   4.8499029  15.5178446   5.5171400   4.1995591  14.3533558   6.2326843
  23.3862084  26.8170256  14.8579121  22.5641888  26.6438384  14.3990898
  24.0561694  26.4038462  14.3132436  54.3186080   9.8413271  18.4190702
  53.9263904   9.6710963  17.5626719  54.3898665  10.7947821  18.4646142
  -0.0595420  53.4848976  18.1331766  -0.0083440  54.3997002  17.8561497
   0.8044344  53.1251144  17.9323483  20.8861303  63.9427519  23.9597178
  21.6436982  64.5167637  24.0729928  21.2446976  63.1481218  23.5644650
  54.7303383   8.0938722   2.0228532  54.3770497   7.4236966   1.4378074
  55.6540959   8.1601525   1.7809728  54.2183113  18.9988692  53.9294122
  53.6488819  19.2028029  54.6712971  53.6180782  18.7333376  53.2326725
  44.1555321   5.2462143  31.1349154  44.7836458   5.8819146  30.7920051
  43.8993656   4.7273726  30.3724098  56.9898736   5.6116004  23.3151603
  56.7558944   6.4619393  22.9431295  57.6344931   5.2525849  22.7054024
   5.2486426  58.6700821  18.9137530   6.0232359  58.9469814  18.4243000
   5.5424029  58.6290455  19.8238361   5.7082939  60.7430077  25.5148721
   4.8853317  60.3419971  25.2353144   5.6877458  60.6907415  26.4704227
  29.9072731  17.8853787  50.0996694  30.1077211  18.2791412  49.2505523
  30.7396782  17.8981102  50.5720803  19.5123601  47.8626299  11.0161221
  20.2362728  47.3882627  10.6072712  18.7890208  47.2357655  11.0234368
  24.4985895  31.9452769  15.8964399  24.5818692  31.9646794  16.8498138
  24.2595797  31.0404974  15.6952575  36.8754196  22.9831404  13.9799666
  36.6783523  23.6303706  13.3028507  36.4009428  22.1981425  13.7062979
   2.1756464  19.1936409  43.3669996   2.4612290  19.8958337  43.9514637
   1.9752365  19.6354580  42.5418520  15.3034533  43.6833227  52.9587054
  16.0481298  43.7671412  52.3631706  15.6657160  43.2601154  53.7370959
   9.5238441  46.6963339  22.1861315   9.1319054  47.1760225  22.9158688
  10.2211487  46.1777020  22.5873995  53.0397701  57.3872757  17.5672936
  52.0991945  57.2193098  17.5094748  53.1357479  58.3038235  17.3085380
  43.5447108  18.4640212   8.7850279  44.0400779  17.6478571   8.7163335
  42.6277649  18.1903071   8.7621838  66.1020719   1.3477225  33.6779165
  66.0203945   2.0173687  32.9988480  65.2235138   0.9754843  33.7541223
  33.4289026  57.9538012  31.4378071  33.9334249  58.3974075  30.7559681
  33.6551356  57.0289087  31.3397050   2.9412001  15.8470721  36.2393451
   3.3430498  14.9783511  36.2307477   3.4040850  16.3318629  35.5560088
  63.4420263  27.2268481   9.9405009  63.1112062  28.0899424   9.6917766
  63.1683313  26.6506476   9.2268360  33.3811528  60.7285452  49.7984076
  33.1913239  61.5501595  50.2513409  32.5792652  60.5310154  49.3144703
   0.3923291  28.7589640  20.0672507   0.0047367  27.9323859  20.3549337
   1.1962288  28.8380999  20.5807829  33.9010954  47.9620218  18.0129778
  33.3301306  48.6471987  17.6654720  33.8241649  48.0453634  18.9634347
  49.7841072  51.3897038  40.7396173  49.6136522  50.7089043  40.0887012
  50.6074905  51.7888927  40.4586887  36.3279938  13.6910767  44.2632627
  36.0750663  13.3425803  45.1181364  36.3528060  12.9248709  43.6900759
  11.4410656  24.7642035  25.1849389  11.1327570  25.2033038  25.9776354
  11.2279003  25.3714842  24.4764209  33.8250303  13.5159535  47.7165604
  34.2233133  12.7258391  47.3514318  33.2967126  13.8703198  47.0013428
   5.2058237  36.4879603  14.8057473   5.4944580  37.2823519  14.3564582
   4.6153801  36.8013758  15.4908597  57.7087390  40.4964156  47.2114706
  58.3479177  40.0640769  46.6451168  56.9157445  39.9673075  47.1252251
  46.9824553  47.0888233   1.4053378  46.6458273  46.2049866   1.2578562
  46.5023518  47.6349449   0.7828554  44.4139814  50.7349586  32.8890157
  44.6562529  49.8422289  32.6429009  44.7391844  50.8333158  33.7838912
  18.5476834  56.9124413  40.3789234  18.1074673  56.1773014  39.9523044
  17.8675705  57.3206615  40.9146786   3.5058516  12.3036332  22.2702265
   4.4313734  12.5288338  22.3646712   3.4730023  11.3585228  22.4182796
  64.4230282  41.1678977  20.1639891  64.2813408  41.6366572  20.9864354
  65.1530373  41.6274256  19.7490811  11.4625133  45.3139198  52.2815510
  11.1329854  44.5835102  51.7579656  11.6562307  44.9280251  53.1358286
  27.4227166  59.9922276  19.9271798  27.0965099  60.1274204  20.8168674
  26.6924071  59.5818329  19.4640863  65.4828405  49.6624565  53.8750219
  64.7174025  49.0879488  53.8583708  66.2154198  49.0922356  53.6417770
  62.2866213  19.1802306   1.0454924  62.1966254  20.0178236   0.5910011
  61.7651760  18.5684866   0.5257815  29.4946616   9.5086379   3.9594549
  29.3581002  10.3630394   3.5500848  29.2876625   8.8771433   3.2705435
   1.7276829  10.5313534  17.0954692   2.3877543   9.8386378  17.0692849
   1.0650748  10.2548546  16.4624381   2.3178452  32.1958823  38.6222601
   3.0693310  32.7884097  38.6425447   2.6017302  31.4317412  39.1239858
  46.5845048   9.1653246  54.4439507  46.7207515   9.2527050  55.3873634
  45.7776129   9.6508736  54.2724943  56.6076505  14.7783799  26.8502879
  57.2825801  14.2643590  27.2935534  56.2744724  14.1972727  26.1665225
  56.6168976  49.6148586  42.9305363  57.2007132  49.2354059  43.5873508
  55.9318590  48.9571857  42.8104448  62.2618401   1.4580435  16.2155557
  61.7707335   2.0598216  16.7749417  62.8195202   2.0261950  15.6841147
  64.8814070  13.1159634  20.1853776  63.9694654  13.3219141  19.9800146
  65.3820812  13.8344855  19.7990024  36.9913464  42.6039511   5.0493578
  37.6323014  42.5593478   5.7588771  36.7025595  43.5165364   5.0444892
  17.3821478  22.8748328   4.0803722  17.7470475  22.1701390   3.5451273
  16.9762450  22.4264676   4.8222879   6.8073505  56.9697428  14.5641577
   6.3551319  56.8875313  15.4037845   6.2745750  57.5885868  14.0647483
   6.4801043  21.9072814  46.4510107   5.9962862  22.2778983  47.1891165
   6.4202040  20.9602637  46.5766573  31.9036597   8.1338973   2.3360460
  31.1955153   7.7156348   2.8257602  32.3203659   8.7181515   2.9694754
  15.9519315  59.5908642  26.0628057  15.9106433  60.5283737  25.8741212
  15.7990932  59.5293617  27.0057201  21.8926859  29.6178722   7.7226275
  22.5082135  28.9847207   7.3532009  22.1131611  30.4446411   7.2935861
  66.2376022  54.4930077  27.1878290  66.9877577  55.0814104  27.1024752
  65.5583143  55.0288105  27.5973606  21.2794274   3.6687464  24.2150378
  21.0011261   3.1782145  23.4416318  21.1607569   4.5868964  23.9718342
  38.3392906  26.6665835  22.5969434  38.7959098  26.6427321  21.7560124
  38.3577990  27.5885767  22.8534722  58.7334883   0.4291481  16.9286644
  58.1204044  -0.0300746  17.5026619  59.4030606  -0.2231031  16.7225862
   3.9564389  42.4844355   0.7948148   4.3270939  43.3227057   0.5188439
   3.0092972  42.6122851   0.7417816  46.9341564  58.5102749  32.0522189
  46.6532803  57.6097345  31.8898296  46.8121099  58.6331606  32.9936194
  36.6314983  62.1260548  40.6708288  37.0155168  61.9379902  41.5272093
  37.3662710  62.0655775  40.0603533  63.4720003   2.3588986   5.6676346
  63.2390320   3.2348437   5.9753340  64.1181719   2.5112528   4.9780831
  40.0736141  59.7586250  29.8113656  40.1051092  58.8022423  29.7872877
  39.1794133  59.9755335  29.5475793  15.5839365  10.5756468  38.2283616
  15.3313034  10.6186528  39.1506195  16.2860030  11.2205357  38.1420207
  51.1971056  32.4151415  51.1159754  50.4313194  32.2816557  50.5574226
  50.8327448  32.6314444  51.9742775   1.4299578  51.3713444  47.3414304
   2.2444720  51.2363899  47.8257688   1.7018885  51.8012322  46.5305736
  37.9315203   1.5029234  55.4784393  37.3873633   1.2498421  54.7327328
  38.8263625   1.3108153  55.1981020  26.8056822  27.7818608   5.8675122
  26.8633080  28.1769204   6.7374766  27.7162313  27.6723957   5.5933768
  10.8744830  27.1549983  52.7600098  11.0730522  26.3448615  52.2904634
  11.5487974  27.2108550  53.4370708   4.4712168  61.7082739   5.7016009
   4.6933705  61.1193609   4.9804497   3.8490731  61.2118101   6.2332869
  24.2066563  43.7531174  54.9575917  25.1105345  43.6088312  55.2376230
  23.8740480  42.8773058  54.7612252  19.4033480  55.5274105  47.3907804
  18.6920857  54.9227571  47.1792793  19.0102649  56.3965940  47.3117876
  19.4710911  45.7615603  47.5142529  19.8104990  44.8678530  47.5624641
  19.7998369  46.1856974  48.3068874  39.7937893   4.1000027  20.9053540
  40.5351710   4.7018284  20.9716034  40.1775598   3.2807059  20.5927706
  66.2768948  15.8871359  12.3573446  66.9795858  15.8208079  13.0039179
  65.4832661  16.0109324  12.8779781  52.7672195  59.6990871   1.4472704
  51.9776917  59.8528576   1.9661528  52.5626945  60.0636959   0.5861874
  45.9616745  41.9860733  55.9461785  45.6731642  41.2780130  55.3702939
  46.5050352  42.5423945  55.3880563   0.1037091  40.4204745  24.2536879
   0.1807803  39.5085425  23.9732075   1.0081309  40.7224459  24.3377733
  42.3533487  47.4183321  14.8519814  42.2415686  47.7134228  15.7556736
  43.2712126  47.6019382  14.6518660  10.3169621  20.2690304  50.4925617
   9.8729647  19.5381249  50.9225362   9.8180116  20.4127396  49.6884307
  33.7876672  42.6578361  47.7228549  33.1955619  43.3293396  47.3841413
  34.0527255  42.1600240  46.9494471   1.1251271  51.4952653  21.1876082
   1.3502205  51.2936371  22.0958543   0.6867230  52.3449843  21.2324739
  47.7719339  50.9736686  32.0753145  47.4362861  50.6054085  32.8925991
  47.9113377  50.2140790  31.5097880  44.9010057   9.6006626  27.8668853
  44.7877283  10.3901356  27.3376080  44.0963406   9.1013521  27.7274891
  67.0482662  15.6118596  39.9346614  66.2124628  15.9947824  39.6681380
  67.4539854  16.2817526  40.4849958  31.6844726  20.1876950  46.7671061
  31.5623975  19.3420172  47.1985674  32.1788979  19.9825644  45.9735727
   1.0932863  45.2395361   5.8064282   0.8863438  44.7826570   4.9911559
   0.8627904  46.1525231   5.6345046  34.1546583  10.1965117  18.2842875
  33.2061315  10.3221536  18.3115292  34.5141745  11.0835624  18.2953060
   1.5081191   2.5087938  11.0438156   0.7817974   2.3522501  10.4403400
   1.1390106   3.0759028  11.7208517  26.9310546   1.3809766  37.4050188
  27.1777081   2.1724015  37.8836012  27.7313566   0.8564102  37.3809814
  64.2312002  19.1324079   4.9911207  63.4676251  19.7063959   4.9301001
  64.6011230  19.1312444   4.1082913  23.8781905  36.7322326  12.4296498
  23.1288004  37.0663071  12.9226387  24.6074343  37.2937274  12.6926327
  44.7383022  40.8853054  14.6329355  45.5461693  41.1781073  14.2112112
  44.4554186  41.6356421  15.1556218   8.4650505  35.7341671  25.8269811
   9.3969190  35.5534792  25.7036757   8.2434338  36.3416576  25.1212406
  31.5357232  11.8445659  16.0890782  31.7979956  11.7531633  17.0050979
  31.9106364  12.6815462  15.8149707  13.4280336  62.2647388  24.8962498
  14.1601575  62.5568756  25.4392815  12.6746333  62.2705995  25.4866600
  66.1474514  20.4541588  41.4524364  66.0655308  21.1650372  40.8166933
  65.5663061  20.7063937  42.1699905  37.8937233  55.0228988  33.2718229
  38.0341709  54.3208592  33.9071560  37.5250853  55.7411271  33.7861061
   2.7967596  32.4533868   7.0965666   2.2916454  31.7549038   6.6803801
   2.9378068  33.0946302   6.4000440  58.2787580  32.8545607  49.7364673
  58.4158570  32.2007502  50.4220083  58.1219465  33.6705578  50.2116361
  32.5552773  10.2384055  39.1517758  32.9889941  10.0191998  39.9764395
  33.1921339  10.7768428  38.6819530  66.6030340  13.9170134  41.9926071
  66.5876679  14.5222592  41.2512064  66.3456681  14.4517088  42.7436686
  17.1325886  19.6766579  10.0639951  17.5922894  19.2327511  10.7766330
  17.8262722  20.1014137   9.5593989  21.4616383  11.7222536  49.0201720
  21.7438925  10.8693445  49.3504884  22.2550142  12.2576702  49.0306696
  65.6502992  37.5485218  41.6508194  65.1651210  37.7335203  42.4549397
  66.0895163  36.7155207  41.8223628  15.5570138  44.1552866  47.7346322
  16.0254515  44.6557797  48.4026929  15.3759873  44.7909010  47.0422062
   0.8272450   7.6645672  18.5011280   0.9321697   7.9611421  17.5971007
   0.1732183   8.2563609  18.8729620  36.2363189  24.6823096  28.6626005
  36.8132323  23.9439273  28.8580322  36.3292545  25.2649164  29.4163680
   2.9264313  31.5562391  23.1929088   3.0555636  31.6189337  22.2465324
   2.4337870  32.3448324  23.4201813  60.4838943  15.5020440  21.1186910
  59.6398544  15.6789386  21.5340686  60.4313231  15.9444976  20.2715182
  38.0408287  19.5901322  27.3097467  38.9319396  19.8430264  27.5509882
  37.7187967  20.3212571  26.7825055   1.7618109  47.7695995  21.5704891
   2.5231005  47.2780996  21.8788692   1.1275364  47.7013725  22.2841259
  50.2058525  32.5291071  53.6706559  50.6840224  32.5977018  54.4970216
  50.0889105  31.5882456  53.5389892  21.8409562  29.7347856  27.7007747
  21.3998914  29.6988320  28.5495377  21.9260788  28.8188505  27.4360991
   6.7009974  33.6935258   3.7059569   6.6542232  32.7401257   3.6347392
   5.9223253  34.0065813   3.2456326  19.1083825  25.8949065  18.5760558
  19.5875192  26.1708236  17.7946925  18.4131622  25.3275824  18.2428193
  16.0194206   1.3407490   5.6388998  16.7369998   1.8877260   5.3193229
  16.4532077   0.6047396   6.0705841  10.5287588   7.4449361  32.1941205
  10.7534159   7.4886573  33.1235548  10.4402674   8.3594931  31.9258210
   5.0765663  60.9208250   8.3002174   4.5715109  60.1507044   8.0393326
   5.7719207  60.9842968   7.6454765  48.2961876   9.5150555  48.9327886
  48.7252197   8.9382351  48.3007785  47.4109859   9.1609181  49.0178468
  47.5250066  10.6232679  24.7966787  48.0868632   9.8573340  24.6788141
  46.9224018  10.5949057  24.0535113  21.8514419  12.2440696   2.3986854
  21.7027044  12.2848141   3.3433807  22.7619243  11.9618356   2.3115262
  51.7110729  13.0282748  16.5781009  51.2741804  13.8779879  16.6359198
  51.0378265  12.3953152  16.8277693  29.5292187  52.6201105  11.2610984
  29.4509387  51.6679668  11.3204777  29.3819666  52.8152847  10.3356493
   4.3051613  54.5081591  35.4311824   3.9125050  54.2856937  34.5870495
   3.7617243  55.2206194  35.7677960  51.3833542  61.8634361  53.9285987
  50.6109972  61.6071933  54.4326162  51.3144464  61.3646358  53.1145462
  61.0411221   0.6894315  52.8585288  61.6213066  -0.0618016  52.7349794
  60.9753639   0.7876051  53.8084073  36.4499998  50.8565760  24.8343253
  37.3460245  50.5587101  24.6773195  36.5400910  51.7857456  25.0458860
  56.9325657  51.0483330  14.8161932  56.7615552  51.9250029  14.4720456
  56.6993255  51.1050767  15.7428071  38.1093723  57.5912136  46.2332239
  37.4099989  57.5215715  46.8830379  38.3349878  56.6843480  46.0260453
   2.5676033   0.7529746  12.7104282   3.4945104   0.9045873  12.5257969
   2.1069765   1.1708538  11.9828081  52.5141811  14.4222629  21.4219737
  52.2407627  13.6509228  20.9254766  51.7532682  14.6436322  21.9588518
  37.9216290  34.0963840   5.8802718  37.1450877  33.6985230   5.4866725
  37.6477432  34.9858570   6.1039966  56.5356523   6.8657506  31.2754675
  56.2549240   6.9837630  30.3680011  55.8283347   6.3649118  31.6817852
  61.6819782  24.8902887  41.0240492  60.7406254  24.9991995  41.1590477
  62.0481772  24.8550838  41.9077286  42.7705765  12.3619187  37.6884365
  42.7402687  11.7091954  38.3879137  41.9631147  12.2209120  37.1941090
  26.4511657  18.7404001  22.2995663  25.9653640  18.2715428  21.6210389
  26.6248083  18.0794668  22.9698229  68.2361395   1.6989339  55.2410912
  67.6634795   0.9936536  55.5425408  68.3742744   1.5147245  54.3119964
  29.9089903  63.6869806  32.4880838  28.9668471  63.5238359  32.5325751
  30.3073997  62.8257757  32.6138926  25.9090805  54.1924906  23.3434248
  26.1688113  54.9843693  23.8142753  25.4138780  54.5135021  22.5897956
   6.5220744   8.8534862   7.7344096   6.5056282   8.8292229   6.7776585
   7.3105103   9.3525344   7.9478258  49.4777858   0.5307478   1.2783998
  48.6444747   0.1981968   0.9448821  49.3253147   0.6639523   2.2139432
  51.1457736  22.4169212  10.3034818  50.5849916  21.6439872  10.3692722
  51.1516375  22.6298481   9.3702829  54.2062325  62.1547264  53.6706027
  53.2522387  62.0766586  53.6649534  54.3932242  62.8518551  53.0418917
  54.1429758  23.2434023  37.0172831  54.6781272  22.4553335  36.9234916
  53.3024443  22.9244268  37.3459074  31.6799355  30.4189706  18.8473237
  32.0144534  30.3192067  17.9560447  31.8628359  29.5784831  19.2672741
   9.8397064  28.1318402   7.6196104   9.6195781  28.9119768   8.1286901
  10.2707648  28.4713936   6.8353122  58.1553144   8.0048407  47.2991296
  57.2939283   8.1580151  46.9108215  58.6108548   8.8418758  47.2091886
  36.1138129  39.3169332  15.1642692  36.1823869  39.6568584  14.2720926
  36.6679287  38.5364342  15.1664531  18.1891251  13.1441712  25.7772994
  19.0972149  13.1526589  25.4747581  17.9499280  12.2174430  25.7911253
  56.5204555  38.8897943   0.6758744  56.6516453  38.7281370  -0.2584103
  57.0056587  38.1885695   1.1107235  15.1077116  14.3625653  21.7007303
  15.1265872  13.4850335  21.3188720  15.2085364  14.2166770  22.6413584
  19.7166789  24.7015834   6.5571493  19.1903889  25.0842881   5.8551615
  20.1193762  23.9290190   6.1606479  66.3716248   4.3765450  25.4843211
  65.5148738   4.1920710  25.0993800  66.3265020   3.9973444  26.3620472
  16.9013870  36.9497895  38.9937782  16.6468525  36.9922662  38.0720186
  16.1903858  37.3904133  39.4591403   0.8034405  10.4116094  49.4192028
   0.0422987  10.9328103  49.1637707   0.8702213  10.5334044  50.3662682
  16.5125441   5.2252001  29.8505640  16.9192296   5.7785363  30.5173945
  15.5984419   5.1520342  30.1249647  39.6652293  38.8279986  21.3898134
  39.1497016  38.1503487  20.9524870  40.4456091  38.9248514  20.8440471
   1.2035192  32.5441397  48.5984477   0.6672204  32.2598351  47.8583225
   0.9285057  31.9825829  49.3231937  45.1723935  42.2854572   9.6553528
  45.0662509  42.9472142  10.3387570  44.6061865  42.5834232   8.9434141
  52.2247267  11.4066303  52.0760348  51.4671702  11.1200941  51.5659004
  52.8863615  11.6256273  51.4199018   1.5136987   0.7725752  19.0291068
   2.0273859   0.1850713  19.5833608   0.7054741   0.9196222  19.5204112
  43.9622831  47.8659391   8.2505983  44.6435165  47.6690960   7.6076335
  43.2261038  47.3088694   7.9977202  29.4650412   6.5573084  30.2037191
  30.0255251   7.3145437  30.0343561  28.9271998   6.4764738  29.4160509
  13.4657371  18.2671499  38.6212778  13.4497607  18.6564350  39.4955969
  14.0049624  18.8644862  38.1029558   2.7368629  59.8514729   7.0361936
   2.0506299  59.5428097   6.4445508   2.4989450  59.4881436   7.8891993
   5.5902363  35.5557841  53.1574657   5.1364733  35.5902466  53.9995724
   6.0526491  36.3919198  53.1001681  48.3845219   7.9053867  52.8513357
  49.1240093   7.6433576  53.3997254  47.9438049   8.5899675  53.3546717
   8.7815815  47.0138454  14.5961285   8.0268204  46.9895458  15.1843262
   9.5252997  46.7787552  15.1509678  55.7996267  11.9040573  12.4286458
  55.6481451  12.5624693  11.7505738  54.9504692  11.8035162  12.8588292
  39.9994922  35.9398055   9.2513233  40.1698256  35.5671310   8.3862621
  39.5246553  36.7515993   9.0731233  50.7723719   1.0184675  17.8003716
  51.6147357   1.2603936  18.1852460  50.8703023   1.2127630  16.8682277
  15.9467673  21.7909145   6.1721337  15.2839136  21.2213087   5.7817411
  15.4838443  22.2532368   6.8708426  25.4593158  25.7874179   8.2389414
  26.3975024  25.6153226   8.1588179  25.3661609  26.2155414   9.0899789
  30.9102548  49.8225206  54.0644207  31.8233247  50.1060098  54.0178383
  30.6296373  50.0627333  54.9474742  36.7993999   7.5773436  18.2684743
  37.4414158   7.2161990  18.8797200  36.4163542   8.3203799  18.7347412
   8.6597134  53.9846676  28.4257218   8.7295986  53.0707377  28.7015506
   8.7621332  53.9562481  27.4744412  12.8682769  59.7576218  46.5519619
  13.0308998  60.5511674  46.0419941  12.8063000  60.0630435  47.4570084
  37.2618556  26.3055468  30.7859182  38.2104683  26.3963079  30.8760619
  36.9010544  26.8789697  31.4621139  55.9496397   0.4655636  52.0328280
  56.7031926   0.9660733  51.7199692  56.3243610  -0.1865875  52.6248702
  44.1096640  26.9831347   2.6266345  43.9892244  27.1064448   3.5681874
  44.5018005  27.8029203   2.3259407   7.7939017  40.5670154  53.5600777
   7.8100867  39.8835826  54.2300695   8.6661834  40.9594238  53.5971017
  56.4827728  19.7085547  27.4528718  57.3368645  19.7163177  27.0207906
  56.0313559  18.9525080  27.0775723  52.3488397  37.0948845  55.2139550
  53.0870123  37.6741046  55.0246412  51.5955872  37.5276762  54.8120441
  16.8488765   6.3418603  20.3940511  16.1554265   5.7742107  20.0576997
  17.5343585   6.3035566  19.7270596  15.6829859  40.3591615  53.9387869
  14.8644425  39.9270201  54.1826647  15.6646181  40.3845739  52.9821008
  37.7431846   3.4554991   9.6185023  37.7078295   3.1357142   8.7169927
  37.0835686   4.1482869   9.6529317  18.1219876  15.9053349  37.3061037
  18.8328218  15.2943289  37.5000572  18.5233927  16.5697658  36.7460680
  10.5274094  18.1438006  47.7507248   9.9255431  17.8183210  47.0813569
  10.5673349  17.4408186  48.3991512  32.2749996  52.9129922   7.8268055
  32.7382582  52.1957051   8.2593826  31.7709088  52.4884188   7.1326450
  49.2929085  17.6983089  43.8333934  49.5349176  17.2496981  43.0232041
  48.3636577  17.9014427  43.7263148  23.1229855  49.4749719  52.0583045
  23.9013697  48.9486450  52.2408744  22.4986960  49.2233783  52.7388894
  54.0360564   3.5350069  30.4081154  53.7448519   3.7893990  31.2837386
  53.5221809   2.7541178  30.2022600  37.6504016  21.7768002  34.1690588
  37.2600985  22.6474166  34.2460370  38.0631328  21.6233516  35.0189638
  59.5564980  50.7639199  21.8708106  58.9832182  50.1322001  21.4366313
  59.7819466  50.3497356  22.7037903   7.4343073  54.0561867   8.7560576
   6.8792135  53.7699270   9.4814241   7.0336717  54.8718262   8.4552914
  45.7723190  15.2560795  38.7367507  45.2941491  14.4748819  39.0148016
  46.5888782  14.9186647  38.3684930  43.7304354  31.5623999   6.0689682
  42.9548311  31.0370064   5.8724070  44.2806768  31.4777875   5.2903122
  50.4931605  32.1468835   8.7257832  51.3163406  31.6610508   8.6750501
  50.4526490  32.6359540   7.9039562  13.7888372  18.5731137  24.2194295
  13.8940012  18.2364404  25.1092744  14.4091475  18.0653298  23.6963582
  32.5877070  20.2867889  14.3645954  32.2279072  20.9103298  13.7337434
  31.8687296  19.6789277  14.5372522  44.6802330  23.7063122  19.4761586
  44.0578365  24.1413641  18.8934231  45.3018570  24.3927932  19.7181535
  42.9140186  10.4475582  24.7809434  42.1147442  10.4808009  24.2553115
  42.6259613  10.1244938  25.6346917  34.0929747   8.1190497  32.2567058
  34.4854474   7.4035460  31.7564535  33.1657982   7.8889000  32.3167610
  59.8824186  44.5351559  51.1991423  60.4046602  43.9394659  50.6618824
  59.3997664  43.9607578  51.7935714  17.0999743  43.0836898  41.0583493
  17.7596069  42.8230470  40.4155597  17.5904537  43.1966859  41.8725308
  11.6964775  38.7463474  41.4283323  11.0220724  38.8967466  42.0907450
  12.4662358  39.2077780  41.7611647  42.4483538  12.4828088  29.6590066
  41.9271231  12.4389410  30.4606438  42.8281260  13.3614004  29.6680260
  14.1424776  58.4832591  34.9729654  13.9976049  59.3398374  35.3748580
  15.0637508  58.2899803  35.1465532  21.2760448  20.5762434  13.7526572
  21.5132284  21.2252831  14.4150174  22.0743775  20.0645351  13.6220753
   5.1607078   8.5827273   2.2641294   5.1945883   7.7711874   1.7576844
   6.0762966   8.8466001   2.3552309  47.7103657  54.4356292  33.5008069
  47.7208299  55.2124780  34.0599367  47.2265143  54.7081703  32.7211663
  30.0386303  45.1703715  14.2116312  29.6743029  45.9129834  14.6933273
  29.2740410  44.7162365  13.8575176  29.5813651  45.4364449  47.2252199
  29.7272451  46.3113111  46.8652775  29.6776093  45.5474919  48.1710729
  48.7774515  19.2969489   4.1556323  49.5271015  18.9508069   4.6398193
  49.1424084  20.0023675   3.6213836  27.6038074  41.6867447  19.9481153
  28.0609107  42.1319056  19.2345881  27.6850986  42.2823000  20.6930566
  35.2707911  27.1341848  10.9867465  34.4324589  27.0702052  10.5292130
  35.4345083  26.2488270  11.3116610  36.6243339   1.3874760  31.5969586
  37.5481796   1.2547588  31.3845253  36.1596131   0.7525996  31.0518003
  22.5252438  13.0045784  16.2701535  22.1970868  13.1234324  15.3788519
  22.1878743  12.1496546  16.5375829  32.9248929  16.6531432  13.2651794
  32.2485137  16.7963529  13.9271724  32.5964236  17.1019864  12.4861550
  60.6799049  15.7311953  47.8452774  60.6347853  15.4296625  48.7526211
  60.4810590  14.9532736  47.3241916  42.7285719  26.4078426  31.6987967
  43.1961107  27.0595360  31.1763644  42.2040033  26.9234395  32.3113489
  16.7346228  50.3899425  13.7092972  17.2944820  49.8373144  14.2546344
  15.9339965  50.4998963  14.2222655   4.7567278  38.4341192  42.5462246
   5.0822753  39.2825532  42.8469086   3.8373670  38.5925889  42.3319912
  43.2073641   5.9274459  36.8939447  43.9370632   5.3319019  37.0645165
  42.4348164   5.3624147  36.8820310  21.2197292  43.9507585  44.9977922
  20.9883488  44.8327821  44.7067118  21.8821133  44.0880852  45.6750059
  16.5268094  58.2091778  53.3554554  17.0825822  57.4316686  53.3022558
  16.5674288  58.5930127  52.4795258   7.1175218  25.6142592  33.2551908
   7.9595023  25.9018302  32.9021978   6.9318563  24.7957397  32.7949882
  31.4919890  52.7981251  51.6291889  31.3786943  53.7456196  51.7043709
  31.6350318  52.5019377  52.5281012  58.6418993   1.1211026  51.4563500
  59.2493087   0.4024876  51.2806275  59.1677148   1.7703474  51.9235035
   5.8215070  13.9763379  12.3940182   5.1617444  13.8189960  11.7186010
   5.3319412  14.3575847  13.1228590  47.3843002  27.6534367  22.1649218
  48.0181980  27.2460961  21.5745997  47.8384399  28.4218073  22.5107479
   7.2022307   6.9038785  41.4780351   7.9036463   7.2141827  40.9053585
   7.2313369   5.9505213  41.3974377  33.7167549  59.0387821  10.1667976
  33.4831810  59.9644423  10.0973189  34.3604946  58.9013815   9.4718498
  47.8492200  14.1153807  37.3946953  48.4700834  14.2246098  36.6743970
  47.6323139  13.1831307  37.3846436  57.3775244  37.2530890  14.6010911
  58.0167103  36.5408230  14.6197414  57.6014996  37.7957559  15.3571212
  57.0426911  12.5978649   5.8735329  57.0394188  13.3822286   5.3249025
  57.3206109  12.9092574   6.7349428  17.2350156  36.1997819   6.4396811
  18.1791437  36.1003256   6.3173628  17.1261919  37.1019578   6.7404610
   8.9873964  16.8052471  20.9383512   9.1461027  16.9519579  20.0058722
   9.8382461  16.5395951  21.2872291  15.7717788  18.6344814   2.8451166
  16.5147460  18.8459969   3.4103537  16.1581242  18.1591773   2.1095523
  46.5504689  62.6893014  55.2062348  46.3320799  63.3617323  55.8515061
  46.3637252  63.0985111  54.3613053  23.8074148  11.5028799  51.5866467
  23.4005344  11.2712849  52.4215376  23.1112230  11.9362915  51.0929858
  35.7160687  16.1530805  13.6581218  35.8423138  16.5810573  14.5049572
  34.7679234  16.0451281  13.5833001   7.3227364  61.4710236  22.7248573
   6.4431006  61.5243912  22.3511982   7.8976590  61.3549519  21.9684029
  12.2156442   0.4767025  46.2123277  11.8380249  -0.2508699  46.7065683
  11.7518914   1.2502659  46.5328964  15.6160415   1.9096935  28.4085080
  15.8425391   2.7331961  27.9763361  14.7096980   2.0294202  28.6921259
   8.6056608  28.7094069  28.6087012   7.9591131  28.0182028  28.7516880
   8.3927757  29.0614319  27.7444172  22.9130198  42.1514916  43.7638875
  23.1455160  42.4763495  42.8940340  22.3579336  42.8372377  44.1351875
  17.6971519  11.5975463   5.8331436  18.3871078  11.7920852   5.1988357
  17.2132838  10.8686888   5.4447240  21.2015522   0.6033814  51.6576358
  21.1484850   0.3443564  50.7376781  21.4178932   1.5354574  51.6319283
  35.0896907  18.5470855  18.1681228  36.0020661  18.7588096  18.3655465
  34.7577119  19.3202901  17.7118599  40.3996372  34.2550063  19.1005075
  39.5531964  34.4872332  19.4823980  40.2785540  33.3634043  18.7739849
  37.7639134  25.8257305   5.5565068  37.5897951  26.4185870   6.2875554
  38.6480636  26.0533255   5.2689120  52.1307511  60.8439988  47.2356823
  51.9243855  60.0209564  47.6786789  51.2963838  61.1327737  46.8659928
  16.1099601  44.5329952  16.0288274  16.2592161  43.7587690  16.5715325
  15.1583016  44.5824337  15.9386408  31.2147994  56.9102281  49.0747377
  30.3833801  56.7771071  48.6194875  31.5332634  57.7526158  48.7503984
  67.9366636   0.4920934  28.3729649  68.8285780   0.4890471  28.7204003
  67.8090286  -0.3935503  28.0330014  51.7058277   1.7092954  31.1415744
  52.3935509   1.0691378  31.3245034  51.3379908   1.9176613  32.0003605
  45.4496985  12.9706580   6.3016847  46.2421160  12.7276761   5.8228735
  45.7706576  13.4184987   7.0844081  43.5772943  45.9836388   5.8138394
  42.7044964  45.8407927   5.4477036  43.9931679  46.5979767   5.2089679
  47.1816129  62.0892005  13.7450445  48.1255016  62.2345785  13.6804581
  46.8531388  62.2520515  12.8608406  57.1253967  40.5388832  28.3109117
  58.0708456  40.6736326  28.3757091  56.9759798  39.6878123  28.7227154
   6.7243625  19.0754289  40.3629392   6.5108140  18.3054525  40.8899730
   7.6368065  18.9438039  40.1053470  42.2559786   5.5791020  26.4215541
  42.0639467   4.6453497  26.3351679  42.9851151   5.7303184  25.8201194
  21.0941768  35.8597517  14.3057001  20.9922791  35.1684999  13.6514676
  20.2072883  36.1929512  14.4422102  64.1569729  53.3695668  51.0509008
  63.9546747  52.4766344  51.3301468  64.7724075  53.2601875  50.3259822
  42.4583197  30.7750440  20.6937146  43.2861900  30.3407240  20.4882383
  42.5133276  31.6194439  20.2462816  38.8016081  36.3262463   2.0930776
  38.4741235  37.2186923   1.9811596  39.4002914  36.1967993   1.3575137
  58.0034131   0.4202879  19.6028635  58.3643002   1.2789357  19.3821475
  57.1173281   0.6056488  19.9138710  45.7652140  21.3877773   0.4216836
  45.4287720  21.3770580   1.3177434  44.9817848  21.3943863  -0.1282460
  21.5370154  44.4951534   6.8511236  21.6270709  44.7762728   5.9405780
  22.4234104  44.2473745   7.1140748  24.4083524  23.4209871   7.6259834
  24.7781849  24.1742229   8.0865198  23.4613633  23.5513663   7.6754045
  12.2515429  14.3164337  50.4237875  12.5191677  13.8166273  49.6525523
  11.4684999  13.8664473  50.7409456   2.6818797  28.5423493  21.6662073
   2.8560343  28.7593436  22.5820756   3.5439360  28.5496759  21.2502289
  60.4593366  40.1637125  33.7913513  60.1307434  40.3563070  34.6695113
  59.8425794  39.5213223  33.4403872  39.9415350  25.1101756  33.3198285
  40.1462317  26.0253716  33.5115242  39.2462468  24.8856544  33.9382124
  47.8555119  13.3125062  10.6877971  48.7045156  12.9121012  10.5004489
  48.0092084  13.8462061  11.4673960  21.8149781  14.3059909  29.5272541
  21.3298965  15.1299691  29.4826698  21.7688322  14.0504384  30.4485536
   0.8603609   3.4223641  39.9008485   0.5950010   3.5834778  40.8063098
   0.4846752   4.1517246  39.4077703  17.7679276  13.5895383  28.5749865
  17.0050919  13.0405819  28.3934355  18.4171546  13.3198380  27.9253745
   5.0083596  29.7668815  14.2712343   5.4726744  28.9355421  14.3687904
   5.5947763  30.4158115  14.6601272  35.0472116  33.3226252  14.4444108
  35.1958990  32.6689792  15.1276898  34.1216731  33.5515475  14.5292783
  61.7952842  63.2632607  34.9355718  62.1047015  62.6917666  34.2327997
  61.2549205  62.6958102  35.4853341  29.3307090  27.0628285  12.0244229
  29.3740892  27.9729080  11.7309856  29.7898221  27.0598412  12.8643262
  35.1791406   8.6986798  20.1557469  34.5288873   9.0688199  19.5587564
  35.1000118   9.2242551  20.9518242  57.9080242  60.0949181  37.0620367
  57.8116459  60.9089840  37.5562366  58.4148211  59.5232094  37.6387032
  34.0300882   4.3599093  46.7376932  34.3380011   4.8733748  47.4845376
  34.8232163   3.9655269  46.3748678  44.1371536  16.4309001  15.5979764
  44.0633297  16.8003583  16.4779091  43.6319542  17.0267737  15.0448585
  10.4218317  52.5663179  12.7214428  10.5930830  53.3002299  13.3115956
   9.7209192  52.0739466  13.1486699  37.0880068  12.7322090  33.9428898
  37.7321947  12.6003206  33.2472941  37.2893990  13.5993851  34.2945692
  59.9659509  58.1756753  36.4214500  59.8497028  57.3309487  35.9865304
  59.9521346  57.9679483  37.3557362  14.2731690  26.2217999  11.4583850
  14.5144725  25.4833198  10.8992314  15.0841653  26.7198706  11.5605772
  37.8468037  50.0586653   5.4175174  37.6556849  50.3395939   6.3123828
  36.9872904  49.8969984   5.0285053  28.1359053  37.5085402  16.0831606
  27.5382996  37.0960021  15.4595327  27.9340887  37.0908928  16.9204605
  15.0123650   8.4116435  21.1382723  14.7244316   8.8439095  20.3342342
  15.6534344   7.7638853  20.8455896  13.0641163  12.9063547  48.1191751
  13.7152279  12.2120750  48.2204905  12.4177444  12.5421274  47.5143817
  33.5446000  29.0843177  16.2851691  34.1100812  28.3250451  16.1438584
  32.8981733  29.0359044  15.5808830  17.8821314  22.4234856  49.1825935
  18.1779039  21.8377770  48.4856745  17.5171078  23.1788910  48.7217775
  66.8640375  22.7470016  14.2097342  66.7906189  23.5996342  14.6385229
  66.2852764  22.8103709  13.4499621  54.7405482   5.7707108  44.5980760
  54.8574388   4.8863257  44.2510435  54.2886126   5.6429256  45.4321357
   0.5022044   7.6171816  26.6753456   1.3874239   7.3749245  26.9472333
   0.0181384   7.7149809  27.4953124  45.8728094  54.8534149  15.7666775
  45.5306263  54.7176021  14.8831078  45.3328438  54.2907733  16.3217470
  27.5840259  24.5688176  20.7638288  26.7918062  24.0350580  20.7028413
  28.0994964  24.3209624  19.9963069  27.7115608  60.9345978  27.1094557
  28.0176569  61.7301863  26.6740557  27.8594280  60.2389377  26.4688131
  42.9773426  18.4531057   0.7970421  42.7406073  18.1416225  -0.0765518
  43.9044237  18.6808169   0.7270538  20.9267735  25.0775456  28.5721612
  21.4810705  25.2139354  29.3405247  21.1646056  25.7877779  27.9761434
   0.2935721  59.8483318  52.3847663   0.2331806  60.5405348  51.7264068
   1.0571743  59.3342179  52.1224111  53.6795998  33.2860351   1.6427258
  52.9502392  33.0069375   1.0892209  53.7267542  32.6213837   2.3299274
  34.6161587  44.2660338  25.3130957  34.3038482  43.6233634  24.6761724
  34.2499406  45.0979894  25.0131532  18.4720659  48.8283730  15.0751662
  18.3497608  47.9122686  14.8261249  19.3584681  49.0399075  14.7822893
  31.7263746  27.6998067  19.3166244  31.3870597  27.4044323  20.1615214
  32.3568559  27.0257759  19.0628421  57.4433517  32.1449327  18.7720156
  57.6747131  33.0576468  18.9442229  58.0357742  31.6386962  19.3278897
   7.1906239  38.8941169   4.8320708   7.2348982  37.9851723   4.5352745
   7.8981930  39.3345284   4.3613088  38.9028883  51.3291454  14.2725265
  39.1107345  51.7434931  13.4350634  37.9676819  51.4923668  14.3949330
  46.1291933  43.4337616   4.8159656  46.5349579  42.8029203   5.4106307
  46.8533134  43.7583542   4.2806846   6.6049076  60.6871980  51.6676637
   6.3874460  59.7565931  51.6136378   6.0294367  61.1052173  51.0270932
  63.8917351  18.1793320  31.4925432  63.7541723  18.9893639  31.9836187
  64.8336458  18.1588244  31.3233757  23.0297470   3.5108390  29.0258574
  23.2597470   2.8581631  28.3645368  23.0034590   4.3387988  28.5462499
  62.2154063  18.6205423  53.3903446  61.9667453  19.1169107  54.1700996
  63.0916113  18.2890213  53.5867844  25.8331490  31.1420798  27.0552397
  26.5038157  30.6391025  26.5932345  25.6111431  31.8535590  26.4546204
  20.5756044  14.6727049  32.6149464  20.1317215  14.5342815  33.4516311
  20.9845996  15.5338967  32.7003956  11.2946720  34.5733829  42.2351715
  11.4450712  35.3834140  41.7478713  11.3246698  34.8379019  43.1546065
  37.5962901  46.2527561   0.3027391  38.4604001  45.8411121   0.3124555
  37.2565627  46.0758448  -0.5744836   1.5181881  39.9469805  17.4381125
   1.9112593  39.4216156  16.7411757   1.3713318  40.8041096  17.0381200
  16.1251342  10.6179309  23.5467482  15.4516947  10.6345987  22.8667235
  16.6422367  11.4082658  23.3911586  32.7838886  11.0900343  52.3313206
  32.6042831  10.2717341  52.7943042  32.2586573  11.0338438  51.5330672
  38.5148263  40.7069874   3.8241991  39.3992472  41.0285187   3.6491331
  38.0137873  41.4922047   4.0447140  25.0434995  12.9728007  11.0694885
  25.3831577  13.5915041  11.7160726  24.8923063  13.5029924  10.2870107
   3.7109018  50.6011873  45.6679245   4.1080023  51.2757116  46.2188896
   4.0618206  49.7777229  46.0070338  47.9849339  48.6639833  16.9890881
  48.2295084  49.3590307  17.6000905  47.5563145  48.0049324  17.5351405
  51.5101762  58.3203834  48.2295134  51.2325282  57.7588504  47.5057557
  52.0673890  57.7587193  48.7682899   3.7154585  34.0047073   9.0722001
   3.0482060  34.5149374   9.5311922   3.2191283  33.3607340   8.5670429
  21.6429890  13.1563128  39.7790333  21.7251146  13.9944923  39.3241271
  22.0501555  13.3059824  40.6322881  35.3589010   2.3023875  26.3310572
  35.6948018   2.0152361  27.1801421  34.9619150   3.1555159  26.5066143
  47.0987988  51.0843420   2.5044918  47.1963787  50.9843349   3.4514385
  47.7517128  50.4914284   2.1324876  10.9453857  42.4895096  23.7435365
  10.7689726  42.6233673  24.6747661  10.1270163  42.7279329  23.3080411
   0.7302738  51.4132064  51.3914334   1.0618855  50.5165797  51.3432005
   0.1357151  51.4891511  50.6451347  36.7370653  24.5817327   3.1191659
  37.0478868  25.0345063   3.9031413  37.1245408  23.7084079   3.1774861
  30.1003957  36.8645287  13.8099647  31.0186815  36.8085480  13.5456741
  30.1309752  37.1488214  14.7234595   3.9782835  50.5626255  53.8931244
   3.1019569  50.2497929  53.6685852   4.2250181  50.0512177  54.6637202
  35.0153875  41.2451553  19.3187428  34.6227050  40.8879042  18.5222483
  35.9154677  41.4542770  19.0690303  59.6959352  31.1537528  26.5907359
  59.6730232  31.1956453  27.5467443  60.0943089  30.3050780  26.3976598
  18.5896671  37.5997055  22.0734211  18.4759939  38.4075964  22.5740477
  19.2017592  37.8342951  21.3758918   4.4348994  28.8776278  26.7758083
   4.8707202  28.0674362  26.5114546   5.0866765  29.5614886  26.6216969
  49.7196383  56.6116589  34.9803611  50.1120872  57.3530859  35.4413387
  48.9751572  56.3574642  35.5256745  14.3711805  53.1982470  18.6197102
  15.0866377  53.7191343  18.2549822  14.7403979  52.8044796  19.4101894
  40.1538504  26.2244785  30.2610728  40.8385551  26.4998234  29.6514842
  40.4845894  25.4105413  30.6410071  54.0848541  42.2079849   7.7792555
  53.2991362  41.9334793   7.3064739  53.9101267  41.9735098   8.6906964
  47.6952028  22.4088097   7.0792145  47.3904085  21.6649461   7.5988275
  47.3807430  22.2272110   6.1935699  12.9639698  38.6753696  30.4960724
  12.3993279  37.9860258  30.8456680  13.6392189  38.7936425  31.1641165
  52.4238748  21.4258402  22.4562022  51.6854329  21.4917141  23.0616733
  52.9662747  20.7237238  22.8154632  50.3115530  46.7498666  55.0118424
  51.0041756  47.1277505  54.4698933  50.7269568  46.0049897  55.4463890
  56.7222851  39.7051764  22.5798464  57.4721068  40.0720596  23.0482435
  56.5683693  38.8588452  22.9996872  62.9265803   7.4869478   3.8372663
  63.1734544   8.3515471   3.5090089  63.2651055   7.4649483   4.7323352
  54.1825480  50.1079708  55.1515980  54.6434469  50.6578952  55.7851486
  53.9044852  49.3432933  55.6557620  47.1915240  62.9929298  50.7092729
  47.5577588  62.1086353  50.7205057  46.6192360  63.0054277  49.9420949
  45.4477596  34.6745610  30.9682083  46.2623882  34.2241144  30.7452583
  44.7577381  34.0983605  30.6394267  47.0208025  24.9082613  22.4344802
  47.1115494  25.6028748  23.0867910  47.9083681  24.7745275  22.1019554
   1.8104113  40.5799950  54.9711065   0.9941400  40.2723539  55.3651740
   2.3828161  40.7613218  55.7165631  41.8050909  52.0229006   9.1951776
  42.2899961  52.6571655   8.6671501  42.1614885  51.1731815   8.9359707
  45.7301092  10.2398348   4.0447128  46.4412785  10.7030308   3.6020827
  45.1474476   9.9635053   3.3373386  53.8314397  30.1709736  50.7215404
  52.9362166  29.9918831  50.4339066  53.7951792  31.0581577  51.0790640
  25.3670406  21.2072706   8.7200785  25.1502943  22.0360374   8.2929963
  24.6113658  21.0199785   9.2769516  14.1458189  24.2470717  25.9924126
  13.2837868  24.3438268  25.5877256  14.0655887  23.4687138  26.5437317
   6.6853560   5.2021182  45.8168974   6.1492265   5.6157148  45.1403352
   6.4918745   5.6981838  46.6123327  67.9338419   2.1326489   2.0681241
  68.5731470   2.6228327   1.5511659  67.1086513   2.2430319   1.5957858
  41.6773319   3.8396889   7.7117479  41.9052267   3.2317466   8.4150982
  41.7293739   3.3133215   6.9139630  52.3186731  45.1863527   0.3835550
  52.7516127  44.6233463   1.0252842  52.5061083  44.7756338  -0.4604885
   8.3148205  56.0584927   5.7814682   8.2894170  56.8264389   5.2106398
   9.2351043  55.7953072   5.7880735  25.9549117  31.3062239   5.2709001
  26.6723180  31.4164424   4.6468708  26.2663698  31.7292547   6.0710686
   8.8614250  54.8325461  44.8032018   8.3612324  54.4076890  44.1063973
   9.7398115  54.9375886  44.4376346  64.6507967   1.0447395  53.1666100
  64.2552031   1.6311539  53.8114783  64.9399221   0.2880443  53.6765629
  66.1064464  21.3865889  46.8369409  65.3564293  21.2830055  47.4225834
  66.5337354  20.5300606  46.8411955  32.5463700   2.5936651  11.5410817
  32.6131630   2.7794823  12.4776936  32.5492668   1.6380742  11.4856803
  64.7818518  29.9528289  15.2193391  65.2259398  29.1246700  15.0372195
  64.3194818  30.1602983  14.4073009  10.1588047   7.3723877  44.5991751
   9.3325151   7.4816025  44.1284832  10.2957428   6.4254177  44.6261307
  26.6099405  33.1148005  22.3285055  26.1994171  32.7907586  21.5268183
  26.2566566  32.5564384  23.0210757   3.2797295  46.5043116   8.7072730
   3.8036972  46.8271208   7.9741389   2.5413042  46.0560989   8.2948834
  53.4902854  54.4315594  19.1830298  53.4392328  53.4940833  18.9965841
  53.6479373  54.8370927  18.3304330  43.2404852  31.0468936  14.5860970
  44.1428518  30.8626509  14.8469114  43.1501627  30.6334639  13.7275231
   9.0490061  49.6143293   4.6353114   9.6420676  49.8279715   5.3556365
   8.8664013  48.6810350   4.7441843  28.3498716  28.0189562   8.8890469
  28.2851434  27.0883060   8.6747283  27.4435353  28.2987666   9.0174717
  41.1179256  11.6210265   3.7098345  41.9529759  12.0837206   3.7794000
  40.6608510  11.8278832   4.5250189  47.2712004   9.5077033  45.7571840
  47.6262295   9.6623988  44.8818207  47.5925028  10.2428145  46.2793064
  45.0716877  57.2532892  20.6451154  44.4169426  56.6672897  21.0247755
  45.3176737  57.8354454  21.3640165  65.0479764  29.5807362   6.5542233
  65.6780735  28.9149761   6.8298578  65.5158067  30.4096889   6.6552395
  40.9889269  22.2556710  10.5666447  41.6009521  22.1804619   9.8345226
  41.1130714  23.1472874  10.8919752  57.3497974  14.3925805   0.6816293
  57.9617798  14.2637963  -0.0430250  57.5544941  13.6877961   1.2961255
  29.3634701   9.5858455  16.1006176  29.9379516  10.3399110  15.9680092
  29.9560976   8.8345486  16.1246610  62.2741222  15.0974476  23.1537080
  61.5750551  15.2931249  22.5298071  63.0777407  15.1459360  22.6359463
  54.2392623   5.3249926  19.8463690  53.5916078   5.8546443  19.3813515
  55.0163042   5.3521294  19.2880666  26.1205853   5.3647960  54.7397674
  25.3889359   5.8212531  55.1551780  26.8908918   5.8808482  54.9775588
  29.4968271  13.3113098  26.8719411  28.9139128  12.9312122  26.2146997
  28.9546919  13.9533889  27.3302603  67.6964283   8.5108298  55.3984594
  68.4602547   8.3237809  55.9441853  67.1821833   7.7038276  55.4215193
  38.0071425  18.3084846  10.4949570  38.3873343  19.0837002  10.0817657
  38.0528188  18.4906209  11.4335585  48.4406609  12.6811541  54.2506247
  48.0274228  13.5431850  54.2019286  47.7432549  12.0677937  54.0190079
  30.2893574  63.0996412  44.8121842  31.0977466  63.0032009  45.3156098
  29.5928616  63.0598682  45.4675802  23.1002712  47.2768831   0.5673372
  22.7534223  47.8137398  -0.1452008  24.0368962  47.2089672   0.3819905
  27.6652790  35.5230212  50.8022368  27.8052212  36.0612896  50.0231900
  26.7210079  35.3671381  50.8191904  41.3268995  15.3282857  31.9101310
  40.9132814  16.0654426  32.3592997  42.0602322  15.7185292  31.4345646
  45.6618977  54.3908453  19.1790867  45.7190466  55.3066969  19.4514430
  44.8587132  54.3448782  18.6604190  65.3853846  37.0279598   3.6089098
  65.4671669  36.4583087   4.3737897  66.2227392  36.9393992   3.1536871
  25.7579470  32.1833467  11.3065040  25.3520417  32.9015446  11.7919564
  25.2763200  32.1506238  10.4799473  43.9211464  53.1235409  24.7541142
  43.4776306  53.9705372  24.8001814  44.4898415  53.1087875  25.5239177
  65.6753731   2.4460705   0.6530364  66.2735271   2.4367480  -0.0941960
  64.8093319   2.5712177   0.2650308  17.3271203  17.9702604  31.3771033
  16.8188298  17.6220417  30.6445622  18.1777024  18.1884670  30.9961486
  21.2874926  12.2153891  32.1608993  20.3910435  11.9058168  32.0313498
  21.1958969  13.1549490  32.3192212  35.5949998  28.7425613   4.6586356
  35.4686594  28.2332659   5.4591906  36.3341379  29.3181586   4.8550880
  33.9164908  62.9889220  37.5587257  33.2029290  63.6109751  37.4169096
  34.4918520  63.1080979  36.8030879  51.0288095  63.7424755   7.2688389
  51.7788315  63.6119080   6.6886222  50.8195162  62.8656530   7.5907278
  59.0319859   1.6096825   3.1645191  59.1248500   0.8930344   2.5368080
  58.1080019   1.8544144   3.1136465  23.1293964  23.5169435   2.1786921
  22.6361036  22.8107119   1.7614023  23.6171961  23.0861139   2.8805953
  39.9088084  12.7868170  20.6777549  39.8381090  11.8511815  20.4885054
  40.3545033  12.8270239  21.5239072   4.4064308  57.1207112   8.1544730
   5.3169085  56.9247335   8.3755061   4.0837837  57.6300543   8.8979145
  49.7832174  22.7590853  44.1538021  49.5422358  23.6418551  44.4346532
  50.1084680  22.3354494  44.9481436  13.3835137   5.0603849   6.7773855
  12.6504421   4.4986382   6.5258342  12.9726160   5.8746445   7.0678627
   1.0890681  16.6471040   0.8551596   0.7943493  16.0545015   0.1636438
   2.0071083  16.8204546   0.6468736   4.7839666  59.9627155  40.7049688
   5.6803251  60.0723713  41.0223862   4.3780352  59.3670744  41.3347801
  51.9154024  21.9038129  33.8329077  50.9914064  21.8077707  34.0636325
  51.9049215  22.3125148  32.9674101  13.9353670  45.2785152  54.8357981
  14.8643512  45.2584451  54.6059808  13.7311519  44.3776017  55.0865636
   8.1045657  29.9064231  10.5689442   8.7269205  30.2134633  11.2282097
   7.2807503  29.8056531  11.0458148  55.8855648  30.6681080  42.3728415
  55.2501483  30.8163692  41.6724881  56.0748334  29.7307835  42.3300454
  57.2935838  46.9251770  50.3027925  56.6198058  46.6152555  49.6976438
  57.1289296  46.4419120  51.1124691  16.3790299  27.9167545  52.3584225
  15.9235836  27.8805461  53.1995478  15.6781031  27.9668236  51.7084813
  54.3967915   8.3748215  11.7363727  54.6783161   7.9302084  10.9368134
  53.4412813   8.3216065  11.7162609  19.9630713  32.5256276   5.7053882
  20.4088330  33.1199908   5.1018488  19.9259305  31.6918445   5.2367115
  51.5978713  62.3013919  42.1195933  51.2687082  62.5684827  42.9778155
  51.7700000  63.1244939  41.6623148  53.4118004  59.0845793  38.1807217
  53.4791965  59.3503612  37.2636339  54.2032332  59.4341630  38.5901817
  45.5700577   6.7415226  29.1586706  44.7480238   7.0902598  28.8138887
  46.2384785   7.3518313  28.8472721  25.1197004  63.9336252  34.1581821
  24.6630764  64.4224739  34.8428369  24.4286537  63.4442806  33.7118316
  55.1299162  60.0775355  47.2388663  55.5072207  59.7032541  46.4427587
  54.2674083  60.3934234  46.9695595  34.5985926   0.2965630  50.5532786
  33.9765966   0.7978714  50.0259813  34.2104662  -0.5761539  50.6161877
  38.4537697  41.1025000  12.9033446  37.6390648  41.2140417  12.4133992
  38.2853055  41.5222168  13.7469614  16.6532720  12.5285471  43.7519809
  17.3267162  12.9409397  43.2110223  16.3614333  11.7754067  43.2383248
  51.7286116  15.3204287  50.7540738  50.9409655  15.8537043  50.8611354
  51.3994623  14.4329393  50.6117418  39.1954691  62.6685828  36.4942035
  38.5908718  61.9289511  36.5545305  39.7117169  62.6221889  37.2989198
   6.5308851  26.9982862  26.5038824   6.7350382  26.7727304  27.4114513
   7.3841524  27.1461725  26.0960889  64.3704700  11.9111991  35.6804371
  65.0241661  11.4678407  35.1397467  63.8387394  12.4052870  35.0564432
  27.6223548  32.0208627  50.8949559  27.3415764  32.3140461  50.0280993
  28.3772238  31.4575535  50.7244056  44.4190454  44.2851067  24.2608500
  44.3075895  44.9506903  23.5820198  44.7467852  43.5175371  23.7921762
  59.8350799  17.6556487   9.1742849  59.1946923  16.9566435   9.3066859
  60.0206458  17.6357932   8.2354546  49.2100096  45.1427841   8.2002282
  48.8794947  44.2795229   8.4487718  50.1400518  45.0013733   8.0234402
  20.6926530  50.4182476  30.2604505  20.7067304  49.5778936  30.7185313
  21.4861537  50.4125541  29.7251412  34.5851916   1.9352717   3.3745959
  35.3329008   2.5014061   3.1831443  34.7112769   1.6720767   4.2862222
   5.4408699  63.1433439  12.9098415   4.5261485  63.3040667  13.1415236
   5.8776719  63.9810562  13.0637014  60.0279760  33.5689044   4.9546522
  60.8114719  33.7997222   5.4537433  60.0949287  34.0852046   4.1514185
   1.1189228  58.3271170  26.1693382   0.2314335  58.4954071  26.4860034
   1.0781437  58.5144138  25.2315283  53.3614254  58.4752560   7.9389381
  54.0556097  58.8118792   8.5055327  52.5575161  58.6053038   8.4419805
  18.5561586  59.6233910  39.8797842  18.9326168  58.7483567  39.9737379
  19.1270996  60.1870745  40.4018160  63.0287904  37.3967350  26.8313548
  63.7657851  37.5922096  27.4100253  63.4335107  37.1965635  25.9873387
  45.1439381  51.7125225  40.8112097  44.3935442  52.2690296  41.0196304
  44.7662830  50.9647846  40.3480721  63.8566870   1.1027277  48.3213093
  64.3149728   1.8456257  47.9284855  63.2543427   1.4987100  48.9510807
  18.9696186  17.6602549  11.3022339  19.2075604  17.6633543  10.3750849
  18.9434355  16.7333502  11.5396917   7.0215261  16.4244927  48.4420874
   7.1347034  15.6014908  47.9665997   6.3282216  16.2413872  49.0761503
  59.9065054  25.6367481  53.3906923  60.7110918  25.2210749  53.0807086
  59.2858732  24.9145258  53.4878489  11.1613720   2.1502919  38.8728189
  11.0982626   1.4293046  38.2463765  11.8051451   2.7455563  38.4888315
  29.6164024   0.8307517  44.6411988  28.9860285   1.4575422  44.2862412
  30.4656399   1.1412085  44.3271252  54.2976475  16.1267734  16.7360365
  53.5825300  15.6221271  16.3485205  54.4066191  16.8761992  16.1506152
  23.9698935  42.9964638  24.3562651  23.4094167  43.2860184  25.0761676
  24.2696071  43.8072062  23.9450502  62.2112989  40.2216721  12.3947525
  62.3147535  40.5984163  13.2685912  62.2509241  40.9734535  11.8035805
  47.1030580   9.2330069  32.2674155  46.5047776   9.4806904  31.5624714
  47.6046884   8.5005278  31.9095469   0.1427294  57.9635018  47.4632135
   0.7435394  58.5723895  47.0336637   0.1205517  58.2524437  48.3754924
  43.6806202  63.1806421  12.0276904  42.8891134  62.6543474  11.9147182
  43.4874105  64.0033245  11.5781367  16.3942873  46.0524178   1.2386011
  16.7237592  46.9399834   1.3796671  15.4462481  46.1585379   1.1599158
  51.8943119  62.1057129  21.6750431  51.6081381  63.0190134  21.6899776
  51.2366772  61.6401768  22.1917820  57.7049006  10.6667126  37.4557682
  58.0939329  10.3881538  36.6267392  57.6253641  11.6172302  37.3756072
  19.0463150  42.1249092  46.1127802  18.1845463  42.3837555  45.7862988
  19.6550692  42.7280891  45.6863758  34.9211062  16.6714180  45.5513605
  35.8529985  16.5565384  45.3653332  34.5388163  15.8065355  45.4027995
   6.8666417  16.5795755  17.9016507   7.6082283  16.9161057  18.4046721
   6.1091238  17.0524526  18.2463014  19.6098840  54.1877699  11.6100979
  20.3645110  53.7846184  11.1808681  19.1582298  53.4586143  12.0350289
  14.9471987  18.2144630  46.0839429  15.2550972  18.9817226  46.5663787
  14.4871843  17.6887739  46.7383661  43.9138042  19.4342894  27.1159768
  43.9597213  18.8343901  27.8604531  44.6325671  19.1629309  26.5450335
  62.5091219  45.4308176  16.8886435  61.6849709  45.4747725  17.3734915
  63.1344032  45.9063721  17.4355435  16.5789795  57.5577021  42.4562979
  15.8197713  58.0041361  42.8311729  16.7423773  56.8241930  43.0491686
  14.5079887  25.8494306  21.0871243  14.9941182  26.6700935  21.1672711
  14.8450589  25.3012037  21.7956901  22.6111591  20.6376350  53.5490030
  22.8720987  20.2023304  54.3605765  23.0871523  20.1700676  52.8626793
  46.8991518   0.5670476  17.7542722  47.4830103  -0.1756104  17.5999939
  46.0223913   0.2211511  17.5873053  45.9382153  15.8031833  12.3501480
  46.2443161  15.9238493  11.4512753  45.0346899  15.5011952  12.2569764
  20.2395346  21.7362017   2.9017329  20.6877702  21.3890452   2.1304971
  19.9173134  22.5941748   2.6255336  53.4857845  41.5638876  20.9032011
  53.4907532  41.0835886  20.0752425  52.7528191  42.1740961  20.8217192
  56.7381144  40.7715702   8.0614853  56.0792780  41.4389372   7.8696626
  56.2476015  40.0640583   8.4798807  37.2006680  58.6072725  40.9396478
  36.3066460  58.9490336  40.9520313  37.5290180  58.7633055  41.8251261
  63.5391051  13.0853451  54.7133950  63.0129856  13.8294161  54.4205027
  63.1852013  12.8662909  55.5753687   2.8136600  11.4399565  39.0804585
   3.7240565  11.5282906  38.7983116   2.3920501  12.2470177  38.7852749
   2.8302628  40.7151127  24.8669934   3.1741864  39.8408818  24.6835089
   3.5511786  41.1694622  25.3029704  38.9493680  26.1102080  13.8906276
  39.4644690  26.8957901  13.7068784  38.1384706  26.4405322  14.2773616
  19.4218272   1.3871712  13.5439599  19.0857952   1.8954367  12.8057301
  18.6966151   0.8124728  13.7889481  46.6106415  41.9626045  18.4840798
  45.9124947  42.6026440  18.3455980  46.2022638  41.1179209  18.2944131
  43.3096981  56.5590191   5.9993052  43.5716248  56.2548399   5.1303405
  43.5045671  55.8230639   6.5794981  19.2506409  57.7697945  17.0564103
  18.9121938  58.6406326  17.2645724  20.2015638  57.8620148  17.1153462
  66.3456971  13.5355890  32.4658796  66.0413725  12.9895866  31.7409655
  66.3746673  12.9425324  33.2166645  28.0638480  31.2087154  14.1411364
  28.2699656  31.5024734  13.2537508  27.6783299  31.9760609  14.5639670
  58.9099562   7.3280043  28.3231401  58.5399901   8.1621832  28.0341816
  59.8172724   7.3502106  28.0189800  31.1689568  43.8332558  22.2198319
  31.5301681  44.3594027  21.5064406  30.2214646  43.9470673  22.1453929
  28.2692170  61.9270802  16.5744066  28.4665537  61.0301018  16.3047290
  28.7765336  62.4744797  15.9750617  64.5936627  28.1037081  54.6340724
  65.3353078  27.8010881  55.1581088  64.4193250  28.9887178  54.9543885
  46.9939423  17.2522831  10.1824617  47.7084064  17.6578891   9.6912843
  46.6534233  16.5767217   9.5960355  41.1952925  60.2352142  45.9867001
  41.9439888  60.4331875  46.5492725  40.7460499  61.0739231  45.8818960
   4.5154185   8.3393086  50.3539905   3.7225241   7.8274334  50.1941707
   4.3916792   8.7054384  51.2297010   2.5109995  61.1199272  48.4973266
   2.4410093  60.4318321  47.8356215   2.1370614  61.8947113  48.0776640
  37.4254406  60.4446781  36.3150677  36.5731752  60.0113857  36.3612088
  37.5896919  60.5509365  35.3780695  19.5604027  35.6421269  52.7421295
  20.5063618  35.5504835  52.6281163  19.4602764  36.4096535  53.3052581
  52.1357632  57.0000029  11.9560206  51.5034676  56.6726017  11.3162959
  51.6911554  57.7355242  12.3774087  37.3394990  60.8025503   1.3751231
  37.4972105  60.7306528   2.3164997  36.4021802  60.9824705   1.3023573
  25.4145002  44.5079994   3.6071685  26.1062026  44.8113489   4.1951841
  24.6791363  45.0962067   3.7788653   1.5147025  39.6429420   8.7042630
   2.1414334  40.2824974   8.3660191   1.1234719  40.0707006   9.4659668
  41.7901123   9.7094858  48.8492420  41.9590605   8.7700308  48.9207407
  42.6600254  10.1080216  48.8237682  60.8550090  49.2816954  46.2040949
  60.6813652  49.1129952  45.2780199  60.8745104  48.4132689  46.6061974
  16.4703822  53.8327122   4.2824781  16.3628817  54.7827291   4.2361373
  15.5779195  53.4938145   4.3524113  65.0524235  21.5753627  11.7404723
  65.7109118  21.0116696  11.3344240  64.4086504  21.7282748  11.0488045
  27.9171742  47.2949637  39.3628975  28.5477722  46.9120968  38.7529894
  28.3570612  48.0732048  39.7050628  11.8650353  16.3082528  10.9984660
  11.5065014  17.1503723  11.2786794  12.1694338  16.4631486  10.1042724
  67.3911619  22.3472142  20.9088659  67.9863358  23.0247450  21.2297297
  67.9674816  21.6731668  20.5486560  44.3258953  45.5344200  16.7891645
  45.1317453  45.2184343  16.3805163  44.5975876  45.8284283  17.6586306
  37.2401094  24.9786639  11.7509735  37.8750777  25.5639291  12.1639025
  37.7514052  24.4841242  11.1104751  56.6867828  51.0731125  48.9809465
  57.0482635  50.3152323  49.4404888  57.3782539  51.3374853  48.3741426
  40.5718649   0.7053865  54.5388515  41.2136305   1.2201489  55.0281271
  41.0709274  -0.0356781  54.1953496   8.5749787  50.1795101  11.7689013
   8.6334759  50.7394600  12.5430226   9.4760853  50.1125956  11.4530516
  29.7330130  23.1598366  52.7528470  30.6624449  23.0377901  52.5592011
  29.6168364  24.1095532  52.7805781  38.1773829  22.1050215   3.2983908
  38.9403343  21.8737769   3.8281673  37.8667927  21.2699747   2.9484433
  58.2948446  36.8057442   4.3790507  58.5030508  37.7399063   4.3939003
  58.7993622  36.4363575   5.1037902  51.1481571  45.1033640  21.9590712
  50.8575058  44.2675400  21.5941691  51.6672421  44.8622036  22.7262878
  21.1864985  16.3720263  37.6863011  20.6570566  16.9542683  37.1413967
  21.5166462  16.9343126  38.3870670  62.9290247  21.0198236  15.8328700
  63.7961102  20.7573223  15.5238605  62.8014803  20.5215764  16.6401577
  11.0145825  33.1252665   0.6731468  11.1910265  33.9858145   1.0533546
  10.7734412  32.5780673   1.4205781  35.6331205  48.4357834   5.8880347
  36.3953471  48.3426237   6.4594895  35.1457691  47.6201296   6.0039192
  67.5318152  10.1199759  18.9583632  66.9942481  10.2428234  18.1759569
  68.3282906  10.6210173  18.7828156  22.1526325  37.6484860  52.7579063
  22.6478804  38.2278956  52.1789029  22.3724783  36.7661465  52.4589514
  41.0121155  51.2652445  23.2419062  41.9361734  51.3017464  23.4889317
  40.8288336  52.1287823  22.8718424  60.0087792   0.4341448  35.5227252
  60.5363745  -0.2824151  35.8754536  59.1156751   0.0900186  35.5095359
  56.4971626   7.8745306  17.4554106  56.8170822   7.5659669  18.3031556
  55.8500803   8.5453737  17.6733419   3.5379669  37.5660396   6.2008142
   3.2043475  37.3433590   7.0699191   4.0812150  38.3410072   6.3441211
  21.2904429  48.3484077  35.3552008  20.4827332  47.9381084  35.6642222
  21.9897079  47.8403664  35.7664895  23.9299256  29.2658281  15.7709050
  24.6840149  28.9888883  16.2913692  23.6843735  28.4868932  15.2717102
  65.8877182  59.7358847  22.6502419  65.8465528  58.8233089  22.9361439
  65.5400896  60.2344561  23.3897066  42.1480608  36.8102503  10.6473362
  41.7428637  37.1643543   9.8557204  41.6074800  36.0539293  10.8753335
  34.1840816  21.0642958   3.9173794  34.9327207  21.2366104   4.4884118
  34.4157195  21.4798832   3.0868006   3.0607477  50.5685091  17.8197992
   3.1045923  49.8350048  17.2063804   2.5663036  51.2420559  17.3527980
   3.6874789   4.6398491  35.9652543   3.6772507   4.4777627  35.0219321
   3.3231228   5.5197901  36.0610437   8.2286132   8.5410488  27.1353814
   8.8402236   7.9119957  26.7526909   8.2235849   8.3323181  28.0695316
  11.0200554  63.4467554  22.6017523  11.3460833  64.2783403  22.9458475
  10.2630049  63.6886168  22.0682645  66.8785734  63.2033104  33.4492108
  67.8132267  63.2715314  33.6441394  66.8369550  63.1392067  32.4950668
   4.4884783  60.8952761  21.1809778   4.5538432  61.3608551  20.3471947
   4.4962841  61.5868473  21.8427205  47.8968430  27.8907180  15.1444185
  48.3648968  28.6800361  14.8721433  48.5318232  27.4054575  15.6712484
   8.8269402  62.0047945  43.9199444   7.8876902  61.8205923  43.9094612
   8.9649082  62.4999350  44.7274288  22.6342511  44.5403528  14.3269682
  23.1404567  44.5698977  15.1388276  22.8677058  43.7014341  13.9295459
  29.7320700  47.7890396  21.2921977  28.9429641  47.4785376  20.8482003
  30.4375625  47.2535801  20.9291625  13.3375031  24.0542603  43.6280680
  13.5142666  24.4073009  42.7560854  12.4535900  24.3579221  43.8347483
  65.3827477  36.6684246  15.4097724  64.7636700  36.9680882  16.0754859
  65.9693241  36.0745215  15.8782125  63.8437414  37.3020887  51.7137432
  64.0965080  37.8400326  52.4640465  62.9055452  37.4611592  51.6101980
  32.8836620   5.4471005  42.9877755  32.5630558   4.8138798  43.6300155
  32.0909822   5.8410776  42.6235374   1.8582350  19.8524249  20.3833985
   2.0516497  20.6758738  19.9353409   2.6264483  19.6917260  20.9313583
  49.0678740  57.9183960   3.8286731  49.5080614  57.0906544   3.6355063
  49.6840191  58.5908365   3.5381198  56.7161894   1.0681826  13.6292934
  57.2180653   1.2656952  12.8385055  56.1269569   0.3603677  13.3684623
  42.9021013   7.6123655  38.8599929  43.6948145   7.4166525  39.3595287
  43.0150211   7.1383250  38.0361220  49.1144609  16.5430427  38.8346291
  48.8618374  16.9033659  37.9845810  49.1204357  15.5952621  38.7008047
   9.4591957  26.1854863  12.8713906  10.1404959  26.7123437  13.2891059
   9.9051720  25.3791857  12.6121306   3.8066738  10.5310196   0.0191753
   4.1098421  10.6683869   0.9166450   4.5755070  10.7075591  -0.5230105
  55.6303978  61.1759424  20.8620477  56.3168001  60.6375980  20.4680061
  55.5893230  60.8830833  21.7724204  42.0822239  41.4900494  27.4927950
  42.1304607  42.4272776  27.6812291  42.9620075  41.1625624  27.6797938
  40.8104694   2.6435578  39.6403643  40.9906853   1.8467629  40.1392361
  41.3651693   3.3102954  40.0453338  13.1653393  22.7662314  35.4415962
  13.9250148  22.3180616  35.8134374  12.6263679  22.0632542  35.0788781
   5.0418717  50.1948166  39.2248464   5.2179247  51.1262894  39.3575191
   5.8971173  49.8159790  39.0216923  66.7457253   2.6656640  45.0008222
  65.9737975   2.1003044  45.0278172  67.3321635   2.3021496  45.6642803
  52.4373765  47.1754664  44.6416995  51.5085692  47.3806614  44.7486683
  52.7096290  46.8443638  45.4975506  65.7150907  64.5351618  38.6612627
  65.6576843  64.0614360  39.4910344  65.0061149  64.1735381  38.1294652
  20.1793850  38.0004585  44.4527885  19.8140276  37.6169289  43.6555144
  21.1054600  38.1347836  44.2513451  15.0858390  62.6343155   4.0861318
  14.2617261  62.1519470   4.0198457  14.8542953  63.4422302   4.5442662
  11.6517884  45.4023361  33.1292868  11.1714655  44.8992014  32.4717331
  12.3588902  45.8226490  32.6398230   1.7999607  52.5866318  13.6940622
   1.2082964  53.2787704  13.3989155   2.4506050  52.5138235  12.9957855
  52.3508358  52.9066753   0.9675609  52.3423100  53.2646275   1.8552703
  51.7735147  53.4859371   0.4701787  66.3872862   7.2982711  22.0898414
  66.7168474   8.1662208  21.8568492  66.9802237   6.9933498  22.7766275
  60.0616360  42.2259569  19.1766250  59.2549276  42.5482416  19.5785999
  60.0158739  41.2751150  19.2767894  53.7741327  45.2645350  29.1550231
  54.5000458  45.0875807  28.5567212  53.6989069  44.4691324  29.6821928
  18.3305347   2.8393901  45.0408753  17.5328529   2.6545537  45.5366298
  18.0282391   2.9761899  44.1430267   4.1076762  32.2675109   4.2096421
   4.6445137  32.1812940   3.4218583   4.1567570  31.4080596   4.6281710
  18.5153282  19.9865377  52.5048172  18.1109417  19.3103493  51.9612452
  17.9215754  20.7343519  52.4380424  25.7011307  14.3101490  47.5375422
  25.8372486  15.1468933  47.0930603  26.5516985  13.8734854  47.4917832
  32.5694263   7.8505314  22.0842596  32.9938448   8.2580221  21.3292428
  32.1288193   7.0805944  21.7246839  33.9706850  16.7976594  48.1867933
  34.5823908  17.4661243  48.4953451  34.1617084  16.7109692  47.2528648
   2.4692351  60.9081650  12.9007578   1.8037468  61.4911556  12.5354123
   3.1647641  60.8968163  12.2432315  20.9977568  37.7743614  48.2297662
  20.4504288  38.4033621  47.7596446  20.4446447  36.9988144  48.3237329
  36.9774890  45.5955505  25.5904889  36.2442660  45.2087259  25.1119685
  36.6382027  45.7382822  26.4740872  60.4468012  49.3543911  24.3061852
  60.2546978  48.6245680  24.8949885  61.2013292  49.7898674  24.7027636
  30.3005099  57.5364923  27.8357506  30.3641582  57.0367336  28.6496449
  31.2081671  57.7325058  27.6034427  61.8291580   4.5710749  42.5978708
  60.8970963   4.5015044  42.8043985  62.1205604   3.6648316  42.4976492
  37.3483109  56.0456133  26.1748004  37.7993011  56.7471933  26.6445041
  36.4387560  56.3390732  26.1216831  30.9807277  56.1496878  30.1133537
  31.0929632  55.9085226  31.0328531  31.3730574  55.4251814  29.6261144
  42.8061390  56.5014696  30.8165693  43.2461882  55.6770277  31.0236621
  43.5007811  57.0645094  30.4749680  66.6093779  53.8275814  24.2638969
  67.1319008  54.4995117  24.7017431  67.0729208  53.6606789  23.4432220
  18.1107986  22.0569981  31.4663550  18.2326210  22.9651535  31.1894962
  18.9237822  21.8336618  31.9195768  52.0883959   2.2721238   2.1534054
  52.6786726   2.9433245   1.8109223  51.4254397   2.7618975   2.6400664
  24.4451559  17.0903290  47.6875117  23.8698471  16.4408100  48.0917140
  24.0296591  17.2891462  46.8484243  64.3735123  44.2855120  20.7485843
  63.5374975  44.1289902  20.3094816  64.8486519  44.8698282  20.1577830
  40.7948083  22.2386336  17.2803020  41.5233534  22.8186083  17.5018513
  41.2073535  21.3938475  17.1003711  40.1693028  11.8725741   6.3027161
  41.0067958  12.3222041   6.4152783  39.6601099  12.1177161   7.0752829
  13.2734704  15.0786734  14.9158633  13.1957924  15.6203473  14.1305053
  14.2089963  15.0831795  15.1183569   9.1242403  11.0821021  16.1825931
   8.4298962  10.4365027  16.3141954   9.1512835  11.5752685  17.0025241
  48.3412743  33.4257007   9.6738297  48.9597273  32.8557873   9.2167252
  47.4829531  33.1634998   9.3410033  62.0897621  38.1214499   5.7221133
  62.1581948  37.2179985   5.4133719  62.7054852  38.6088800   5.1748198
  29.7796941  34.3390489   8.4472358  30.0021839  33.8461232   7.6574546
  29.1307974  34.9792480   8.1551528  64.2017097  59.0839547  20.5065104
  64.8497553  59.0731734  21.2108942  63.3577413  59.0524238  20.9570142
   1.9502712  10.0121897  46.9944837   1.5602327  10.0388640  47.8682074
   2.1946598  10.9197920  46.8134763  39.1458249  23.7954283   7.0455295
  39.8389888  23.4662294   6.4733541  38.5131407  24.1959786   6.4492905
  19.5897461  60.9900445  48.1240233  20.1435686  60.5735820  48.7843820
  18.7841917  61.2107032  48.5915979  58.9214474   6.1476410  45.4481002
  58.6756403   6.7053855  46.1861601  59.0890116   5.2908981  45.8407124
  59.7080941  46.2331730  36.3436874  60.1387567  46.2039584  37.1980342
  58.8625545  46.6475302  36.5157315  61.2843437  59.2516368  54.5126678
  62.1047969  59.7202033  54.6660776  60.8529038  59.2380875  55.3670139
  23.2791782  55.8004468  41.4040860  23.2560469  55.7165712  42.3573228
  24.2108894  55.7875675  41.1850544  59.5610184  46.0555345  33.2658860
  59.6056099  45.2665907  33.8060829  59.6700616  46.7767185  33.8857552
  35.7287205   5.1887239   9.9533221  35.8580244   5.9223378   9.3522212
  34.9419773   4.7498286   9.6298357   3.2287729  10.4770935  43.3840057
   2.8466666  11.0115326  42.6878723   2.5439871   9.8456610  43.6044523
  31.0479714  49.3233901  40.0567624  31.9216801  49.0054446  40.2843162
  31.2030579  49.9960023  39.3936082  43.0206537  17.5620210  13.1055355
  43.1274796  16.6139174  13.0285954  43.5083818  17.9190171  12.3633027
  55.0492103  60.5730270   9.5178887  55.3126438  61.1708259   8.8182637
  55.8620842  60.1439594   9.7850367   9.3797886  38.6425257   6.7373127
   9.0990484  39.3723488   6.1852467   9.3224895  37.8754354   6.1676466
   4.5925480  18.0371881   1.3780048   4.9712044  18.4674513   2.1446368
   5.2243573  17.3553836   1.1495481  54.0205211  43.5253709  10.6701514
  54.4414587  44.0132004  11.3780114  54.0806861  44.1051739   9.9109122
  29.0620000  43.6603123  54.6941654  28.6242003  43.7434715  53.8470244
  29.9340607  43.3278853  54.4814834  54.6933980  43.9255673  53.3112159
  53.8910122  43.5788327  52.9211083  54.7852559  43.4471613  54.1351831
  14.0029562  55.2683640   0.8339557  13.9848185  55.8347559   1.6053836
  13.7959743  54.3969727   1.1716892  49.5087114  10.9474600  38.4239313
  49.3181429  10.3607119  39.1558060  50.4498387  10.8509338  38.2783481
  12.2003199  46.8426937  35.7777485  12.3505856  47.7572912  36.0168382
  11.7332388  46.8868726  34.9434110  26.2377954   3.4044823   8.6650681
  25.8408141   3.9140838   9.3714285  26.4625025   2.5671813   9.0708578
  51.2718768  32.1927965  12.5423333  51.2617058  32.4696026  11.6260859
  52.1393485  31.8077204  12.6665875  21.7141873  39.2330074  12.4036801
  21.8252999  40.1831722  12.3710001  21.4642483  38.9902878  11.5121365
  17.6019085   4.3376649  51.5963879  18.1566561   4.1947759  50.8295333
  16.7100895   4.3453157  51.2487739  15.4671885  30.7276974  54.2385266
  15.8835388  30.6387281  53.3812239  16.1954094  30.7263441  54.8597516
  57.9559374  18.1701851  23.0640984  57.8845263  17.9861176  24.0007162
  57.8964806  17.3111904  22.6459789  22.4294878  63.3814138  45.8971896
  22.0055939  63.0393213  45.1100966  22.4990679  62.6250738  46.4797201
  48.7812698  11.5042818  31.7396852  48.1595600  10.7993115  31.9205877
  48.2480562  12.2019470  31.3586637  63.6129064  34.5377923  44.3270692
  62.8250475  35.0646266  44.1930589  63.7662048  34.1167228  43.4812376
  22.6118446  28.6211860  49.5702722  22.1074225  28.3121398  50.3227874
  21.9782139  28.6518451  48.8534715  16.8112410  57.3445993   1.5106212
  16.6935194  58.0362891   0.8595153  17.1711457  57.7941405   2.2752206
  17.8555418  49.9464136  37.8605458  18.2216908  50.8116287  38.0437585
  17.1147705  49.8676485  38.4616169  35.9638674  60.3151578  50.2399852
  36.1215348  59.3820709  50.3839382  35.1322491  60.3473848  49.7671166
  24.7176933  16.5863216   5.5796713  24.8064256  16.1131775   6.4070123
  24.0711427  16.0834813   5.0843394  20.1710105  44.6211720  15.4706359
  20.0690103  44.6343088  16.4222944  21.1177874  44.5990133  15.3315115
  44.0978909   0.8358435  20.1689172  44.1179514   0.7066076  19.2206931
  44.8742294   0.3768886  20.4896736  42.4306774   2.2830383  17.2693896
  41.7023039   1.8461448  16.8279970  43.0718470   2.4393214  16.5760589
  18.0837334  10.9199083  50.4004678  18.4592140  11.5496958  49.7851511
  18.5214556  10.0938929  50.1947262  40.2630138   9.8399991  12.1913910
  40.4785252  10.7510829  12.3906720  39.4831204   9.8936665  11.6390121
  15.5942226  34.2280508  49.7439447  15.9413458  33.3952875  49.4241914
  15.9975458  34.3409885  50.6046477   7.3114563  51.7840391  45.8272799
   8.1518723  52.2421068  45.8376959   6.6647078  52.4735397  45.6771406
  22.0924986  10.4071129  29.8814484  21.9916380  11.2010134  30.4065916
  22.1463573   9.6999491  30.5242964  41.2220716   8.2925493   1.0345448
  40.7205868   7.9339457   0.3023225  41.7134857   7.5458175   1.3767976
  22.1315122  35.4071903   9.7053826  22.8146911  35.5952692  10.3489053
  22.2184587  36.1027241   9.0535372  18.6356247  63.4137616  14.8657179
  18.4246624  64.2044119  15.3623056  19.3810308  63.6651934  14.3203878
   5.9005142  46.7759520  34.4267103   6.8159510  46.5993839  34.2098376
   5.9417845  47.4193305  35.1342341  11.3873732  28.8562298   5.5576885
  11.8376207  28.2926607   4.9284834  11.7550623  29.7267771   5.4054308
  47.3467136  44.9496156  45.2179691  47.7262379  44.4110590  44.5236000
  46.4029480  44.8095459  45.1409432  13.0370510  18.5897434  48.5990592
  12.1043122  18.6799706  48.4038898  13.1939352  17.6455582  48.5874673
  25.2417315  13.6419285  38.8017556  26.1346996  13.5919989  38.4606632
  25.3257406  14.1266478  39.6228656  62.5091171  52.9944324   5.6034076
  62.0511341  53.7560368   5.2478164  63.2658482  52.8800440   5.0285119
  33.1194162  26.4193225   9.5372254  32.4007916  26.0290480  10.0347161
  32.7116418  26.7245317   8.7267935  65.5985326  53.0318898  42.1996829
  66.4908762  52.6952952  42.2812542  65.4682369  53.1392568  41.2574884
  13.4080815  45.5894089   1.1479963  13.0392241  45.9323883   0.3340286
  13.0497050  46.1563253   1.8309343  55.5304718  40.0067043   4.1584563
  55.9788084  40.8265257   3.9508060  55.1285362  39.7376466   3.3324492
   6.9638122  61.3796022  28.6806273   7.3349464  61.2393757  27.8095198
   7.6834047  61.1863142  29.2815065  47.2097635   4.6120870  29.7716808
  47.0630741   4.0164217  29.0369058  46.6469288   5.3638786  29.5866013
  66.1307592  44.9619728  30.1312181  66.3231392  44.7864133  29.2101332
  65.2057666  45.2080363  30.1400277  64.8193216   9.5971376  47.6973820
  64.9062777   9.2122644  46.8252897  64.0636206   9.1523618  48.0812073
  51.6876483  14.6556747  40.6358239  52.0844853  15.4788387  40.3509447
  51.1971778  14.3495977  39.8729440  66.3498933   6.0679186  55.4314947
  65.9291965   5.7439721  54.6350617  67.0685012   5.4554880  55.5888704
  19.2142941  55.0315064  54.9253604  18.3051230  55.1075762  55.2149283
  19.7159601  54.9330586  55.7346011  58.7203355  37.8509801  42.3371693
  59.1625399  37.2017276  41.7902156  59.2818875  38.6248213  42.2917589
  15.2690817  63.2060307  38.6668011  15.0845934  63.9525837  38.0968389
  14.4458748  62.7185339  38.6969575  59.5005650   9.4646758  43.3399281
  58.8003320   8.9063519  43.0020257  59.2110057  10.3560847  43.1455668
  53.5042810  18.0426669   0.6482387  53.1309414  17.5844562   1.4011616
  54.4504309  17.9393983   0.7500502  54.5223236  55.3585386  10.9159672
  54.3253613  54.6351862  10.3208208  53.7356472  55.4469633  11.4540637
  22.1803022  58.3986634  45.4792997  22.6810480  59.0487951  44.9865374
  21.4376808  58.1887835  44.9129983  19.4927240  35.6689748  30.8264610
  19.3410517  36.3466474  31.4852377  19.7840429  36.1492866  30.0514337
   2.9768110  41.8571728  52.8245204   2.5181509  41.5865469  53.6198988
   2.7765585  41.1713904  52.1874693  47.2668047  59.0322989  39.7941061
  47.6148600  58.1465477  39.6914562  47.9713459  59.5183152  40.2226421
  55.9125126  15.0425804  52.7356732  56.3950098  15.8370436  52.9642689
  55.5278004  15.2337730  51.8802937   3.1999624   1.4339960  52.5446391
   2.8038085   0.6315840  52.2048875   3.6443413   1.8199337  51.7897823
  40.9716368   7.0561481  33.9716005  41.8581963   6.9137108  34.3032002
  40.4714966   7.3368448  34.7379541  25.9228913  58.6221522  29.8480936
  25.3037486  58.3473700  30.5243989  26.7842985  58.4407848  30.2240130
  67.1195459  21.8282294   4.2801681  68.0136728  21.9315863   3.9544696
  67.2232103  21.6702390   5.2185309  50.2514887  14.7802734  22.8077054
  49.7798538  15.4668224  23.2793403  50.6046152  14.2162573  23.4957576
  36.1651635  12.1515191  10.9059906  36.5400767  12.8053427  11.4960647
  35.9261012  12.6456583  10.1218295  46.8585384  40.0161725  21.4895797
  46.9831121  39.1112786  21.7757273  46.8544043  39.9666791  20.5336690
  49.1573668  18.5897088   8.5891193  49.2790270  18.0189419   7.8303999
  48.4868860  19.2148006   8.3135319  23.5627937   3.0571023   8.5311544
  24.4362998   3.1895506   8.1628114  23.3833265   3.8618642   9.0173447
  15.5837524   6.3247305  34.1924524  15.8535528   6.1906332  33.2839060
  16.0763121   7.0943975  34.4774604  40.6447268  11.0224414  15.9937179
  40.0641966  11.6231227  16.4610541  40.1576948  10.1992619  15.9562123
  47.9242516  59.2469978   0.7232007  48.4797525  60.0134706   0.8652472
  48.5132456  58.5896635   0.3527591  35.9255278   9.6266163  16.1399790
  35.3376180   9.5442808  16.8908545  36.7376984   9.2075718  16.4246031
  60.8341498  28.6086085  26.6552302  60.1780743  28.3644986  26.0023853
  61.5452571  27.9809323  26.5264746  13.3823192  52.6838923  12.0616806
  13.3353853  52.9401779  12.9827380  13.7375915  53.4533548  11.6167712
  28.8655376  30.7204008  21.3670063  28.2581878  30.5928230  22.0957589
  29.7070622  30.4075718  21.6989851  65.0990266  48.6862308  41.5793976
  65.8287115  49.1226905  41.1397442  64.5636053  48.3379441  40.8664772
  62.9114639   7.1336646   0.7174560  62.6171672   7.0229716   1.6215400
  62.1065127   7.1167225   0.1997703  65.8804769  50.4375881  38.8793262
  65.6319637  49.7308570  38.2835051  66.8268032  50.3400641  38.9850780
  61.5419912  50.5337238  43.0589104  62.4194479  50.1766014  42.9219246
  61.6604900  51.2116623  43.7241840  22.5198198  60.6814068  47.2060468
  21.8628145  59.9966091  47.0810338  22.3009564  61.0717052  48.0522129
  34.6229005  24.5345497   8.3529854  34.2074776  25.1657367   8.9405715
  34.6694493  24.9863434   7.5104022  59.2033095  51.2812537  47.5012591
  59.6561927  50.4693967  47.2731831  59.8162741  51.7454058  48.0714061
  51.6392136  12.0743620  19.8764527  52.1130466  11.5013695  19.2736328
  50.7763720  11.6692209  19.9636436  54.5405006  20.5495715  32.7955508
  53.8987064  19.8478806  32.6861906  54.2174387  21.2584662  32.2393775
  50.3954840  55.7772160   2.3409392  50.2223253  56.2331486   1.5173072
  49.7406816  55.0796652   2.3708147  14.4877297  37.4814248  22.8792095
  13.9616257  36.7105913  23.0919528  13.9057213  38.2225037  23.0474424
  60.0580454  34.3604350   9.6608245  59.4818020  33.7143993  10.0692511
  60.8398008  34.3671775  10.2131331  59.2379160  38.6024892  54.2126052
  59.2931170  38.7175780  55.1612565  58.8212366  39.4047022  53.8978573
  21.3446862  26.9070864  13.1469512  21.2679535  27.8611898  13.1525815
  21.3839108  26.6754270  12.2190368  57.8310013  40.9885120  44.0543079
  56.9650507  41.1878014  43.6984396  57.8898096  41.5160370  44.8508596
  64.8408098  59.2344683   0.2825734  64.5152826  60.1199359   0.1206871
  65.7800121  59.3475503   0.4286715  20.3472954  50.4465055  26.7151165
  20.6174618  51.2712145  27.1189737  19.7194344  50.7046461  26.0402966
  33.9307141  54.6478605  35.4932117  33.2692814  54.0496016  35.1456141
  33.8471723  55.4356194  34.9559140  50.0976163  15.1098275  17.3926175
  50.2168685  15.7509291  18.0933309  49.2358762  15.3112280  17.0278251
   4.6489885  44.8042345  16.7629969   4.8540920  44.5813036  17.6709986
   4.0755391  44.0974855  16.4665222  25.8176323   9.8209662  33.0591536
  25.8778491   9.0957589  32.4373126  24.9610957  10.2125639  32.8881979
  59.2737157  21.3138521  54.4869978  58.5113126  20.8062161  54.2090010
  58.9042336  22.0968044  54.8952837  38.2692277   5.1160140   3.3107755
  38.0453002   5.6906456   4.0428197  38.4749984   4.2756314   3.7202153
  54.4416839   7.1322024  55.4286408  55.3470153   7.3043025  55.1698191
  53.9357096   7.8262008  55.0060463  58.3192796  53.4358424  45.7901856
  58.8710446  53.5713070  45.0198361  58.5371060  52.5527924  46.0885265
  48.8032611  44.7514826   3.8331226  49.5161741  44.1157681   3.8952116
  49.2195465  45.5464131   3.4999183  67.6854086  47.2717047  28.1904244
  67.7339556  46.3524055  28.4526515  66.9110298  47.3203039  27.6298809
   1.8588333  23.9768416   0.3663734   1.0427981  24.2822987   0.7626251
   2.4720245  23.9144236   1.0987237  23.1032398   9.9092764  45.6497717
  23.5603808   9.5615334  44.8840475  23.7168267  10.5378909  46.0300159
  53.6477381  61.9818592  27.0292735  52.9033512  61.6461897  26.5298295
  54.2150277  61.2210560  27.1541309  49.5141393  38.1564760  27.7592230
  50.2698165  38.5446048  27.3181558  49.8692828  37.3945236  28.2169700
  19.5100844  53.2005310  30.0737953  19.7438693  52.4783659  29.4906521
  20.3494120  53.5317183  30.3932905   4.2491782  19.8679102  29.6728274
   4.4337929  20.2650774  30.5239507   3.9981044  20.6037796  29.1145393
  59.2528647  45.7228231   2.0506845  59.5857203  45.3379536   1.2399361
  58.3490527  45.4131365   2.1094102   3.1682685  60.0609159  24.4363713
   3.2503268  59.1518736  24.7247005   2.5478110  60.0261879  23.7083197
   8.2372844  59.9016666  11.9837213   8.7301642  59.0966225  12.1424830
   7.3442316  59.6938753  12.2585154  21.0913110  63.0902195  43.4127951
  20.4272461  62.6146793  43.9119101  20.9969187  64.0000677  43.6947441
  23.9893610  14.8547876  51.5859904  24.3798072  15.7114590  51.4130807
  24.3295199  14.6055782  52.4453035  16.1843216  39.9237680  34.1396761
  17.0345926  40.3350067  34.2950892  15.5531347  40.5178404  34.5457721
  67.6218437  55.1792479   7.9246426  68.1501037  54.5618010   7.4187464
  68.2313960  55.5484915   8.5636550  18.1440171  10.1171441  20.8854818
  18.0400443  10.9960980  21.2499881  18.0742937   9.5344586  21.6416883
  17.9134119  59.9754685  51.2837407  18.1164799  59.2805070  50.6576225
  17.2889436  60.5368513  50.8242622  40.1213568  59.5093870  36.4649677
  40.6261676  60.2954626  36.6734958  39.2078942  59.7790432  36.5603757
  41.0016823  42.2143173  13.0529499  41.7652225  41.8874311  12.5771499
  40.2797318  41.6596985  12.7572763  59.9723291  55.0598049  31.7514777
  59.2025846  54.8076344  31.2414432  60.7142311  54.7307968  31.2439680
  11.9543159  60.1498985  28.5991669  12.5512826  59.4051933  28.6717963
  12.5198710  60.9184647  28.6745691   4.6870092  28.2180667   0.7261472
   3.9468062  28.0450201   0.1444374   4.4936138  27.7137232   1.5163814
  55.7879668  62.7564859  46.5879107  56.0267824  61.8408823  46.7323542
  55.1064032  62.7232122  45.9166479  62.1251482  33.5455216  50.8094769
  61.8264884  32.6368845  50.8470881  61.7076821  33.9026058  50.0256112
  41.5353348  15.7772023   0.5141738  41.3457017  16.7061240   0.3823713
  41.1983590  15.5857903   1.3894132  56.1353785  45.4086637  39.7285700
  55.2829522  45.6645489  40.0808859  55.9782499  45.2765179  38.7936449
  37.3272418   1.1542696  28.1831980  38.1485486   1.3673920  28.6262178
  36.9492459   0.4474921  28.7064743   7.7188719   5.6088317  38.1614896
   8.0792296   6.2824810  38.7381801   8.0270803   5.8511746  37.2882709
  35.2120519  56.2328482   4.2697170  34.9889851  55.6461191   4.9923646
  36.0901618  56.5499210   4.4809568  24.5630273  22.1957201  15.6752884
  24.6766707  21.4519305  16.2669754  25.3076204  22.7671427  15.8631289
  66.9835537  59.5325089  32.9567361  66.8742564  60.3837109  32.5327778
  66.2465544  59.0105438  32.6395273  16.3252514   7.9716773  17.2394979
  16.7679870   8.6634964  16.7479682  15.6090533   8.4189362  17.6903319
  33.3921718  15.7400996   3.2330802  32.7350151  15.5633456   2.5599292
  34.2008614  15.8924872   2.7441743  66.5976718  30.0655270  10.1482522
  66.7213394  30.6886077  10.8642900  67.4690531  29.6999383   9.9957025
  13.0844820  25.7283056  41.2936255  13.5441363  26.5677393  41.3111648
  12.2777880  25.9070194  40.8103665  64.7353652  11.9593132  17.6283324
  64.7504595  12.3924923  18.4817719  65.0034129  12.6390183  17.0099616
  14.8590946  25.4912257  30.2648926  15.2411473  24.8706722  29.6442652
  15.2769268  25.2823424  31.1003661  64.0355834  47.7119875  39.4312549
  64.6069616  47.7948618  38.6677814  63.2233512  47.3436069  39.0836835
  20.9391814  31.9420344  17.9527620  20.9780627  31.3437993  17.2065500
  21.4562159  31.5104491  18.6329368  37.6972711  14.7824473  35.3188181
  38.6361205  14.8637051  35.4867220  37.4052965  15.6786818  35.1522541
  65.3991490   6.9639630  26.7622209  66.1794215   6.4105649  26.7962313
  64.9016553   6.7248530  27.5442433  35.9308779   7.3984522   2.9316774
  35.9529995   7.3676295   3.8881251  35.2576816   6.7634625   2.6870826
  15.6111634  51.8398237  36.4611363  15.6796408  50.9649324  36.0788918
  15.4692268  51.6828966  37.3946571   3.8922110  63.8166666   7.6377130
   4.3231258  64.0848923   8.4492540   4.0983739  62.8857422   7.5534272
  28.1888622  22.2391546  54.9031235  28.1456787  23.0075777  55.4722413
  28.6112041  22.5558985  54.1046676  12.0201504  47.2189903   3.1432581
  11.8620348  47.4431610   4.0603077  11.9712996  48.0554056   2.6803795
   5.0997853   0.5213494  21.3087296   5.4595839   0.7974619  20.4657960
   5.0541782   1.3261790  21.8248725  19.1816294  45.9441805  34.0581965
  18.9374161  46.5553474  33.3631682  18.5866129  46.1509180  34.7789216
  18.2838047  62.1459293  24.4446993  18.6889613  62.7835131  23.8568544
  18.8796818  62.0968866  25.1922011   7.5246674  59.1566038  17.3064494
   7.6244009  58.2521772  17.0093024   8.4214139  59.4755077  17.4083209
  54.7454315  15.1046175   0.3479804  54.5169025  15.8494849   0.9040235
  55.6625729  14.9242348   0.5542490  28.0847281  19.0834231  19.3701148
  28.7338972  19.4568247  19.9662507  27.5080659  18.5694880  19.9354160
  43.2437795  40.8907270   0.0542668  42.9891604  40.0862741   0.5062087
  43.8062781  41.3486052   0.6789093  25.6263551   5.7524676  26.3951826
  24.9582403   5.9160943  27.0608282  25.1375348   5.6952137  25.5742025
   4.9877587  60.9836245  49.5059299   4.0411586  61.0316229  49.3722296
   5.3615075  61.1952543  48.6505032   5.6187474  14.6485276  15.1842439
   5.9576189  15.5343480  15.0549281   6.2109124  14.2569060  15.8262777
   4.3600630  54.3178755   2.6353029   4.5166992  53.6400896   1.9777969
   5.0051426  54.1409785   3.3200029  44.1015684  27.4448199  21.4033532
  43.5632932  26.6631217  21.5276480  44.4132578  27.6631350  22.2816563
  30.4296732  63.6255026  20.0756598  29.5855904  63.4221554  19.6726644
  30.2442098  63.6632586  21.0139608  56.0881125   7.2613663   7.5637978
  55.9145176   7.1959633   6.6247451  56.2158334   6.3561005   7.8473771
  56.3059055  22.6677889  11.4111435  56.6690838  22.8514666  10.5447733
  55.4365265  22.3080534  11.2350619  21.1715851   6.7033572  13.2250333
  21.7096614   5.9231944  13.3593905  20.3802490   6.5398020  13.7381303
  29.4919395   5.3132052  38.7548423  29.5930093   5.2921862  37.8032255
  30.3532916   5.0678820  39.0926623  68.3289375  50.7906485   2.5008231
  67.6000850  51.2392473   2.0721433  68.1883426  49.8642540   2.3052342
  50.8282299  56.4612096  43.8996979  50.5380459  57.1087211  43.2572373
  50.1415868  55.7943338  43.8945695  58.7757099  63.0029440  35.8134151
  58.6790335  62.8990650  34.8667932  59.3700135  62.2986221  36.0721970
  33.2548677  57.0291621  12.2215227  33.2167422  57.3378188  13.1267885
  33.4178828  57.8189475  11.7058567   2.4647699  42.1957827  47.8215551
   1.9873732  42.8247786  47.2805500   2.9188609  41.6349936  47.1926260
  61.0219055   3.0954594   3.9125985  60.2281218   2.6209921   3.6655760
  61.7359620   2.4940152   3.7013599   0.1053657  40.3539658  19.8029721
  -0.4365117  41.0636759  19.4581437   0.6525186  40.0893927  19.0634739
   9.2736650  41.9237900  31.6177106   8.7999195  42.7555180  31.6224337
   9.7596794  41.9296598  30.7930970  67.9688843  37.0620394   2.2610149
  67.5116911  37.6788926   1.6894381  68.1683400  36.3151670   1.6965425
  46.1900222   7.3315091  38.3250117  45.7861697   7.0134396  37.5175667
  47.1304643   7.3063988  38.1484675  19.6529543  30.5669117  25.7918048
  20.5479956  30.6315064  26.1249137  19.7575057  30.3782296  24.8592281
  18.7280631  47.5864363   3.8867471  19.0843511  47.0938349   4.6260938
  18.1856346  48.2643747   4.2897424  65.0823814  53.2472229  39.3054247
  65.0681645  52.3156929  39.0856934  65.3354800  53.6816120  38.4908795
   2.7762726  57.0851946  14.6529400   2.3104560  56.6078663  15.3395307
   3.2013184  56.4030075  14.1331387   5.6778555  54.7186190   5.4763225
   6.5257078  55.1421267   5.6105760   5.8944254  53.8554770   5.1237539
  33.2956648  11.5016818   8.8448852  33.9067531  12.2164476   9.0235287
  32.5198627  11.7145634   9.3635815  66.6217670  31.1464310  16.5673685
  66.1303080  30.7705188  15.8370316  65.9516255  31.5182972  17.1408284
  18.4755921   6.5804422  14.1488326  17.6339459   7.0358664  14.1275656
  18.5215867   6.2030631  15.0272977   4.6378601  17.1890986  26.8561029
   4.6470577  17.4185896  27.7853394   5.5603808  17.0721877  26.6291261
   6.3259923  40.1806164  37.8005815   5.6904483  40.0037956  38.4941602
   6.8608725  40.8968878  38.1427646  22.1188682  41.4369726  48.4797668
  22.9074615  41.9650412  48.3552742  22.0631021  40.8997869  47.6894808
   6.9361055  26.8829144  29.2125436   6.0297645  26.7464722  29.4885179
   7.4025167  26.1103333  29.5316168  39.7722262  38.5307693  24.0005493
  39.6920484  38.6991644  23.0616951  40.0478476  39.3689966  24.3715477
   2.6769465  40.5582041  12.0775282   3.4074276  40.4861254  12.6918805
   2.8299015  41.3846392  11.6194427   6.9210500  31.0167813   4.1760373
   7.3221803  30.6156945   3.4050274   7.0323372  30.3665042   4.8695683
  11.1012936  39.9131823  38.6494231  11.1965668  39.4628358  39.4886756
  11.1238325  39.2124867  37.9976940  54.7756826  15.9847350  22.8711700
  54.2908418  15.2671475  22.4634647  54.3876659  16.0716910  23.7418675
  20.0229471   4.6414084   9.6498919  19.4451293   5.1126236  10.2501523
  19.4341906   4.0917773   9.1326833  59.7823149  38.5501850  46.6833368
  59.1051764  37.8934563  46.5207901  60.1478058  38.3115805  47.5352260
  20.7137656  64.4264793  47.8352690  21.0661268  63.8971186  48.5507059
  21.2732005  64.2199993  47.0865154  22.8022659  51.4190662  50.1214256
  22.7918613  50.7836140  50.8371913  23.5802877  51.9519604  50.2855405
  23.4461379  46.0873747  16.9323003  23.2143497  47.0044661  17.0787549
  22.8025007  45.5935812  17.4403620  67.8120707  56.1472178  30.3888512
  67.3912941  56.6247606  29.6739173  68.3530836  56.8028069  30.8290148
  15.6812739  45.2036285   7.8330511  15.6508100  45.7346249   8.6288822
  15.0889874  45.6475401   7.2261155  44.2516243  17.3994822  40.2648067
  44.6900546  16.5544314  40.1652431  44.1059529  17.4841876  41.2070560
  66.2847358   9.9638546  53.2914967  67.0762378   9.6743525  53.7453052
  65.9889919   9.1915834  52.8094571  13.6997259  28.0501402  38.9470622
  14.2516864  28.4801567  39.6002516  14.2555035  27.3634899  38.5784730
  34.1496825   0.5777449   5.8433765  33.2534873   0.4072899   6.1332220
  34.6369516   0.7357926   6.6519690  39.7841119  13.2530255  31.3684630
  40.4241573  13.9545769  31.4884567  38.9533364  13.7078566  31.2299967
  12.0505821  12.7965827  20.1786590  12.2464561  11.8948740  20.4331851
  12.8595626  13.1130929  19.7766566  26.3095316   5.5674834   0.4397863
  25.9199783   6.0258812   1.1843330  25.7566669   5.8060688  -0.3042896
  31.8908006  17.4127710  22.4023243  32.3860997  18.0060232  21.8375536
  31.6322190  16.6935766  21.8260261  16.8666208  35.2520013  26.4578962
  16.7982519  35.5321956  27.3706102  17.3517859  34.4277501  26.4960909
  32.7622151  19.9677176  25.2012014  33.2866442  19.1710848  25.2822733
  32.4253511  20.1235384  26.0835147   7.7166802  31.1054981  51.1899757
   7.3916275  31.1426104  50.2904227   7.1112830  31.6562927  51.6863173
  28.6707324  37.3726249  10.2404785  29.6166342  37.4819636  10.1427722
  28.3869046  38.1545162  10.7140994  62.7616662  56.8639278  27.1184683
  62.1258694  57.4745369  26.7454362  63.0584741  56.3420677  26.3729477
  64.0095174   7.7846938   6.3071865  63.7847397   8.5169417   6.8812251
  64.8729992   7.5011653   6.6075909  44.9696941  50.0282305  46.9625076
  44.6649904  49.1725558  46.6604998  44.4907756  50.6571883  46.4228019
   7.6402242  51.6270894  29.3214199   7.3879785  51.7072278  30.2413007
   6.8672437  51.9140583  28.8352272  42.6154178   7.5769478  28.6370635
  42.4947446   6.8320775  28.0481339  41.7953557   7.6294702  29.1279507
  31.8042994  29.6522236  13.2894003  31.6272688  30.4340482  12.7662921
  32.7264404  29.4565988  13.1232166  13.0198968  20.1889790  51.1049980
  13.0859769  19.7189940  50.2737465  12.0815123  20.3366602  51.2227070
  17.7080297   3.4808829  42.0202112  17.9935193   4.3753675  42.2062874
  17.4441767   3.5001597  41.1002970  26.6422063  24.8622025  55.4909831
  26.2005538  24.1579283  55.0164580  27.1637899  25.3096092  54.8246432
  13.0444908  35.6127834  12.6607549  12.5558841  35.0435066  12.0662653
  13.5079432  36.2200499  12.0839775  48.4087723   9.5859700  15.6089985
  47.9196042   9.2018378  14.8814082  48.8830906   8.8491696  15.9941983
  13.7899840  32.0284772  17.8991067  14.3964899  32.2756195  18.5971773
  13.4469938  32.8608751  17.5739861  16.3581038  56.7589903   4.9304178
  16.9601321  56.6775846   5.6701249  16.6935742  57.5023079   4.4292527
   2.4201974  16.2898469  31.3994837   2.8606182  15.6027651  30.8993030
   1.5558738  15.9276271  31.5943503  21.5818954  13.6201465   9.9223071
  21.0202527  13.0003679   9.4568360  21.9181609  14.1990995   9.2382222
  46.6564438  14.5297945  41.8022808  46.1459217  13.9199150  41.2696942
  47.3823706  14.7923077  41.2362858   8.5505003  25.4401636   3.4383145
   7.7521199  25.5367088   3.9574486   9.2585170  25.6549358   4.0456170
  62.1530986  15.9569287   4.0440390  63.0799961  16.0328710   4.2705894
  61.7766207  15.4300952   4.7489807  17.2849345  59.0117979  23.7947536
  16.9364822  59.3045425  24.6368432  16.7868030  58.2200718  23.5916114
  20.9741831  29.1162729  22.6667213  20.3367829  28.4984875  23.0249047
  20.9712291  28.9444661  21.7250705  31.2705064  16.5597177  32.0450926
  31.3918114  15.6670642  32.3686457  31.3939857  16.4902031  31.0984397
  43.5818738  16.3458276  30.6204176  43.7107557  17.2891951  30.5220437
  43.6390084  16.0020328  29.7289157  65.5491066  15.3829432  26.5110254
  64.7865677  15.8971143  26.2457037  65.5657005  15.4541600  27.4654293
  61.1144400  29.4518495   5.7453012  60.7241535  29.4428372   4.8713285
  60.3661489  29.4812441   6.3414782   6.5613431  43.1329441   6.6128975
   5.8142531  43.6673880   6.8820786   6.8007791  42.6425838   7.3993134
  50.2181406  21.3059681  24.2107769  50.5742831  20.8550900  24.9763509
  50.5537862  22.1995991  24.2814681   6.9323593  40.4396296  31.8815255
   7.8398532  40.7283545  31.9780993   6.9649982  39.4941831  32.0274615
   9.8044455  31.0964394  45.8783054   9.4594747  30.2243710  46.0699368
  10.3039932  30.9840083  45.0695753   2.2047319   2.6092482  14.8087549
   2.9568270   2.9643521  14.3349552   1.8903339   1.8931478  14.2568612
  50.4171008  24.2173672   4.1320154  50.4467887  24.3716836   3.1878027
  50.0402480  25.0193357   4.4940400  64.4149589  42.1918964   3.4211242
  64.0731281  41.2999249   3.3597288  64.1008299  42.5110769   4.2671019
  29.3514764   4.0505976  19.1879761  28.9844667   3.3164830  18.6954248
  28.6572444   4.7095961  19.1885257  66.2969850   9.4561821   3.9434866
  66.5936660   9.4053799   3.0348447  65.3416859   9.4624669   3.8835338
   3.5382882  33.7310457  12.9131639   4.2162371  33.6315155  13.5815287
   3.9637378  34.2247629  12.2121179  63.7471226  18.6913335  27.7885938
  63.4553879  17.8257728  27.5023651  64.6637046  18.7372291  27.5165582
  65.4864651  47.5062990  17.2501326  65.1559576  48.2641172  17.7325273
  65.9979839  47.8827333  16.5339780  59.1750204  18.8295836  26.7573476
  59.2370736  18.5516638  27.6712108  58.8650834  18.0530257  26.2913680
  63.9676455  33.9926982  21.8920851  64.6349966  34.1559625  21.2255883
  64.1592926  33.1111383  22.2120118  50.8825899  24.3032253  22.3187467
  50.7061607  23.5141028  21.8065068  51.3802034  23.9917362  23.0747816
   6.8993151  41.9502401  16.1963356   7.3362911  42.7458620  16.5000951
   6.2826365  41.7337847  16.8956816   1.4822657  52.0812559  10.1821053
   0.5835728  51.7639256  10.2708983   1.9738998  51.3230610   9.8664069
  62.9466641  43.1937981   5.5003333  62.2346765  42.9050112   6.0712147
  62.5118416  43.4550381   4.6885967  14.2463183  58.9426279  39.9011970
  14.4397795  58.0957079  40.3031063  14.6642125  59.5823622  40.4776859
   5.3732455   6.8371714  44.0467903   5.5603397   7.7476371  44.2754384
   5.4449237   6.8102491  43.0926582  29.3652701  27.7765012  17.6080120
  30.1623821  27.7074695  18.1334436  29.5625019  28.4542751  16.9615185
  55.1590806  12.6111579  22.5000119  55.4532796  12.7252567  23.4037042
  54.3057614  12.1845460  22.5779819  23.1125283  49.2654753  20.3392482
  22.8907442  48.9508343  21.2156296  22.3075485  49.1532373  19.8336375
  10.5872214  18.3478951  53.3269644  11.3778770  17.8083825  53.3316565
   9.8805463  17.7354264  53.1226969   5.1955599  46.5845490  31.6822362
   5.0141126  46.6019249  32.6219201   4.5787770  47.2133636  31.3075352
  52.7882308  31.2120771  22.7613187  51.9886988  31.5595746  23.1565738
  52.5834137  31.1415839  21.8289495  66.7458153  45.0898552  18.1946051
  66.2207267  45.8488035  17.9406118  67.6223223  45.2828407  17.8618526
   5.7025301  13.7449831  34.1704321   5.3732836  13.7448782  35.0692248
   6.5938842  14.0864653  34.2419171  36.8156600  54.0565014  23.2162571
  36.2199998  54.5832062  22.6833367  37.6359534  54.0498304  22.7229953
  10.7659591  26.4562929  39.8730561  10.1665891  26.1673105  39.1849574
  10.8340967  27.4030054  39.7492930  34.7443647   8.4932364   6.1398932
  34.9018640   8.5240496   7.0835444  35.4464621   7.9398096   5.7978293
   2.1872909  46.6712666  18.7162697   2.7778360  47.3400879  18.3696198
   1.9046926  47.0168638  19.5629895   9.4452131  17.6696789   4.1924217
  10.0797105  17.7002835   4.9084580   9.3820184  16.7413270   3.9679196
  17.8982032  42.9159015  43.7023505  18.3993269  42.1061402  43.6054286
  17.0174308  42.6255816  43.9393863  27.5826025  46.9158936   4.2809266
  28.4426188  47.1823692   4.6058780  26.9710732  47.5255728   4.6939158
  40.7222462  40.9664822  24.8529077  40.9744787  41.1344481  25.7608700
  41.5163040  41.1407137  24.3475842  11.6915274  41.5647078   0.0543308
  11.3316286  41.6918659   0.9321316  10.9498036  41.7125559  -0.5323707
   7.9756248  26.5273142  47.5506258   7.1658653  26.0244465  47.6380730
   7.8600937  27.2719121  48.1409311   2.6019609   5.8595002  33.4759733
   2.4440897   6.7716778  33.2325789   3.4632671   5.6594313  33.1094285
  62.0423991  10.4916657  45.7595613  62.0417649   9.5394791  45.6617376
  62.4366779  10.8153809  44.9496337  19.6957580  14.8267251  48.1428888
  19.9627135  15.5297643  48.7350902  20.0147558  15.1031571  47.2837862
  27.8166903  11.3303412  30.2581474  26.8703497  11.2178124  30.3476521
  27.9725254  12.2448290  30.4940745  39.5631392  50.0670272  46.6374233
  39.5791955  50.7338148  45.9508606  38.8001353  49.5276731  46.4296862
  10.2722800  45.1095486   1.5193449  10.6527793  45.1402378   0.6415576
  10.7535481  45.7740307   2.0123743  59.0861106  13.7742460  31.0241461
  58.8145596  13.0638468  31.6053724  59.8117667  13.4067512  30.5195665
  48.9415604  28.4848583  47.9588177  48.6306218  28.2762135  48.8397351
  49.2070756  29.4030846  48.0097678  64.1316433  61.3578957  39.1749975
  63.8409252  61.8440002  38.4033653  63.8682241  60.4540676  39.0019700
   9.1033399  23.9605898   6.5912294   9.2097485  24.7667689   6.0862637
   8.5393488  24.2093462   7.3235309  40.1634455  14.2475235  15.6847179
  39.3400621  14.2064369  15.1983178  40.4465055  15.1579785  15.5999863
  25.0995278  51.1032581  20.2353382  24.5936608  51.9062328  20.3600907
  24.4410110  50.4101562  20.1885128  17.9363019  15.7435769  54.9505906
  17.3673654  15.9948557  54.2229904  18.5672058  15.1370460  54.5628889
  53.2712620  12.7430069  54.0885162  52.8258520  12.2597611  53.3925867
  54.2006737  12.5611711  53.9493704   9.9176753  21.5237129  29.6117350
   9.6463764  21.9276512  30.4360315  10.8026374  21.8563068  29.4618889
  23.8128704  49.2034966  44.4705733  23.2470363  49.9753171  44.4517108
  24.6740433  49.5437258  44.7131773  30.8296174  51.9893551  21.3325238
  29.9874538  51.5585899  21.1861229  30.6123942  52.9178190  21.4161944
  61.4551348  34.5483244  37.3462292  62.0338411  35.1395739  37.8276357
  60.9509164  35.1230276  36.7702874  14.9821651  35.9991002  33.1398606
  14.4162118  35.2580237  33.3560419  15.6869137  35.6175613  32.6164222
  25.7426813  20.6739134  28.1275368  26.0006797  19.8492140  28.5392952
  25.7758304  20.4932398  27.1881270   6.8985307  37.9040861  40.9325027
   7.2728384  38.7703085  40.7719231   6.1454421  38.0699611  41.4995766
  21.8070936  42.9035234  37.6637244  21.5013885  43.6160135  37.1023583
  22.4291587  43.3191156  38.2608414  44.0766573  47.2480392  27.7928090
  44.0171242  46.9001150  26.9030690  44.6641922  46.6442919  28.2472563
  16.4628887  56.2073851  22.4355745  16.0928845  55.5352163  21.8632865
  15.9180009  56.9792175  22.2819281   9.2568564  56.2405443  25.0441360
  10.1437318  56.0123682  25.3227353   8.9769936  56.9142151  25.6638718
   1.3037840  37.3420191  27.3730636   1.9499913  36.9467854  27.9582453
   1.5120354  38.2762432  27.3822951   1.8243421  25.5901611  55.4798205
   1.5201581  25.4335774  56.3737921   1.4556706  26.4423311  55.2471828
   4.7105945  32.0461071  41.3821777   4.0387953  31.3672007  41.3188979
   5.5341566  31.5832127  41.2282213  45.4353790  47.2139013  53.7929524
  46.2697790  47.6656378  53.9192250  44.8328157  47.8997791  53.5053449
   0.4414571  56.3996363  10.2121687   0.6702417  56.7269182  11.0820973
   1.0928056  55.7216501  10.0323999  28.3271419  23.3594698  30.4522252
  27.5989809  23.5590071  29.8638368  28.9380991  22.8553385  29.9148130
   3.4778941  49.5515240  41.3238749   4.1493238  49.7955025  40.6867811
   3.3282388  48.6188973  41.1688539  48.1488371  10.6537612  34.6997234
  48.0197382  10.5334265  33.7589356  49.0766859  10.8717139  34.7882124
  27.3755741  56.4029789  51.9881392  27.0846272  55.7508612  51.3507032
  27.0980549  56.0514545  52.8340960  20.0321252  61.0015100  52.5006356
  20.6587250  60.2785009  52.5300097  19.2213763  60.6031030  52.1841088
  58.3671647  53.3536005  22.1903133  58.6580151  54.0421534  21.5923738
  58.9366895  52.6097059  21.9941306  67.5351202  19.1849703  46.9757748
  68.3969604  18.7727065  46.9165516  67.0601332  18.8578505  46.2118292
   7.3328984  58.7380838  24.6915221   7.0757866  59.6084452  24.9958301
   7.3179448  58.1947708  25.4794431  37.9638879  20.3538853   6.1538366
  38.7531834  19.9805981   6.5461401  37.5541352  19.6201283   5.6956533
  66.3786346  51.2755680   0.6035447  65.4748183  51.4520264   0.8647183
  66.7593211  52.1416664   0.4579860  67.4577328  31.7030430   7.6206797
  67.5117449  32.5450563   8.0727071  67.5023154  31.0519791   8.3209372
  18.2859805  18.3367915  27.8532290  18.2010498  18.1641955  26.9155598
  18.0159834  19.2495627  27.9541707   2.3839477  51.3509607  43.1617689
   2.9405919  51.1906958  43.9238024   2.6979533  50.7330656  42.5015926
  42.1248644  54.1923714  19.4612622  42.5038093  53.4928703  19.9935508
  41.7349189  54.7925329  20.0968575   7.2368824  27.3838401  37.3984599
   8.0513191  26.9594264  37.6682711   6.9316709  26.8651390  36.6541290
  51.2199706  19.2228735  25.6526467  52.0860809  19.5757187  25.4487225
  51.3686705  18.2872618  25.7895752  30.7272816  47.6383209   7.8267485
  31.6402888  47.7483654   7.5611514  30.5488157  48.3922720   8.3888340
  23.0651736  30.4627705  23.7911272  23.7674570  29.8224020  23.9049697
  22.3683715  29.9779701  23.3487821  25.2192998  44.8405600  21.1722445
  24.5698833  44.3283653  20.6904292  25.2142549  45.6968832  20.7445621
  46.4317369  30.3053308  23.7854624  45.8038759  29.5891190  23.8806868
  47.2047997  30.0118399  24.2676115  60.9738594  25.0672936  44.3210506
  60.6903553  24.2910862  44.8041201  61.8490022  24.8451996  44.0031958
   2.1519819  56.5253973  45.4971218   2.2891027  57.4586487  45.3344297
   1.3964918  56.2963772  44.9558115  62.0756602  48.3664560  19.7736216
  61.5318942  49.1536093  19.8043692  61.4491159  47.6440239  19.7316194
   5.9608483  48.2307625   5.9019321   6.2176615  48.2887697   4.9816531
   5.0476754  48.5174561   5.9142941  52.3932450  32.6832968   5.1962236
  52.6278602  33.5980040   5.0397066  52.3559897  32.2928101   4.3230871
   9.2090333  15.0165451  38.8361320   9.7126115  15.0946987  39.6463987
   8.3339704  15.3283346  39.0669641  19.3757474  56.8926764  20.6471753
  18.4770799  57.2203398  20.6827402  19.9197149  57.6752615  20.7359958
   3.9308232   1.4781231   7.9128951   3.1232613   1.0109562   8.1269842
   4.5558613   0.7874531   7.6925939  11.8935132  24.1285753   8.3138794
  11.4616930  24.3317580   7.4841321  11.4568460  24.6896076   8.9548141
   1.8989294   2.4275393   3.9666304   1.0218256   2.0735878   3.8195488
   1.9059580   3.2566161   3.4882805  51.1404794  25.2448082   1.4866804
  51.6769439  25.2658939   0.6942198  51.7101019  25.5962944   2.1709469
   7.4549282  46.8249369  17.6829457   7.5256157  45.8703661  17.6883936
   7.5730622  47.0790815  18.5981977   5.5213607  58.3582771  30.4096791
   5.5209744  57.7235497  29.6931907   6.0970223  57.9732502  31.0704371
  51.3158792   5.9252532  36.6566416  51.6274172   5.1926978  36.1251029
  52.0011169   6.0537322  37.3125180  11.2870550  53.7694740   4.2393467
  10.9789681  54.6726370   4.3142429  10.4870844  53.2485819   4.1689828
  63.5990643  39.0023398   3.6885458  63.4143236  38.9307594   2.7520743
  64.3726516  38.4547782   3.8226044  30.3154480   6.9702239   8.4902501
  30.8524012   7.1276564   9.2668635  30.6112617   7.6249880   7.8577852
  13.2630599  24.1174686  49.2439791  13.6170757  24.9216116  48.8641640
  14.0350903  23.6189211  49.5116582   2.8873491  49.7208071  37.4074626
   3.7116128  49.8247385  37.8828788   2.8164354  50.5130625  36.8749833
  35.8303475  15.5875909  23.3978486  36.3958883  15.3188145  24.1218352
  35.0621700  15.0212109  23.4709787  68.1498682  18.2250208  34.3712330
  67.5851595  17.4789710  34.5730758  68.6522114  18.3690447  35.1731944
   4.2004251   0.9629898  26.8829179   4.3652305   0.0928068  27.2460341
   3.4677905   0.8361500  26.2801003  17.3352194  46.1154699  24.4229436
  16.6854048  45.4152393  24.3625355  17.2237372  46.6160583  23.6147261
   9.1385895  16.0893261  28.1815624   9.1825432  15.1804638  27.8844619
   8.5551614  16.0654247  28.9400291  55.0166148  24.3968809  19.5936963
  55.4279626  24.3899906  18.7294170  55.5030066  23.7429083  20.0956675
  29.3069625  55.1140928  16.0422540  29.3748593  55.7135201  15.2990794
  28.6863756  54.4446993  15.7541275  57.9001808  32.5484443   7.8278220
  58.4272814  32.6558876   7.0360816  58.0075264  33.3736491   8.3008385
   1.4856022  12.2428555  33.4526801   0.9654110  12.7310891  34.0908480
   1.0337370  12.3801226  32.6200867  30.4755347  14.9267573  11.9511950
  30.2098715  14.8811574  11.0327315  31.3577783  14.5556588  11.9640446
  27.0269656  60.8493805  10.6599593  26.9549060  60.8622599   9.7055620
  26.4228654  61.5307426  10.9549809  26.4862084  56.5331650  32.9164934
  27.2102952  56.1650896  33.4229040  26.9063091  56.9395590  32.1584773
   8.3494508  46.6136551   4.9571085   8.4217262  45.7668543   4.5167196
   8.0184805  46.4021778   5.8300161  13.3245528  29.1507316   0.7696054
  13.2131934  28.2143950   0.6049766  14.1839015  29.3579364   0.4024295
  61.9418603  30.0943375  38.7462831  61.1532283  30.6036782  38.9330006
  61.9398397  29.3996811  39.4048262  11.7209566  36.4198279  15.3411555
  12.1118963  36.3863564  14.4680703  10.9096777  36.9135427  15.2215481
  17.1029294  54.2019081   7.4854177  17.4273145  54.1586208   6.5859002
  17.1582675  53.3008385   7.8036058  18.6676478  52.9794931  26.4852428
  17.7599072  52.9168081  26.1880732  18.8828111  53.9086103  26.4034939
   1.9138469   7.7996159  31.3379145   1.6175361   8.6132491  30.9299541
   1.6029440   7.1103358  30.7510042  25.5782541  23.2354922  24.2012429
  24.7392648  23.5521883  23.8665271  25.8171150  23.8642210  24.8823333
  59.3139369  33.3417881  46.0862049  58.5355062  33.6439312  46.5541669
  59.0148408  32.5790442  45.5912348  20.1995349  62.8905964   6.5797251
  20.9237218  62.3501015   6.2640494  20.0747299  63.5475492   5.8948398
  11.6426105  41.8854797  15.9938642  11.2423820  42.1921962  15.1802489
  11.8064482  42.6837665  16.4959880  45.5937495  48.3310783  35.6165334
  45.5602285  47.4809397  35.1779291  46.4368149  48.7019623  35.3559276
   2.1917463  44.7786158  36.9164654   1.5355040  44.2975920  36.4122924
   1.7954804  45.6365913  37.0684012   7.9473627  33.1890225  24.4119453
   7.8972214  34.0358138  24.8554087   8.2241625  33.4014654  23.5206079
  18.2518232  13.0514467  14.5820439  17.7837777  12.4542880  13.9984632
  18.9173985  13.4568429  14.0262604  37.8453565  42.9954004   9.9718255
  38.6676359  43.0607319  10.4574382  37.2268224  43.5240841  10.4759514
   7.0103633  25.1784492  35.8608007   6.6337383  25.5152941  35.0478292
   7.1315587  24.2428398  35.6989980  26.1145406  28.1010527  16.7835808
  26.6288512  28.5224051  17.4721873  26.6791218  27.4000449  16.4579129
  57.6418716   7.9745555  19.8708689  57.1919542   7.8981268  20.7122755
  58.1400877   8.7890488  19.9387860  62.5129837  55.1194334  12.3616123
  61.8052208  54.9458790  12.9822433  62.4081880  54.4500065  11.6855049
   4.3584877  34.2874312   2.0315523   3.7723920  34.3293762   1.2759307
   3.8091090  34.5361543   2.7748907  67.8638155  26.2999905  51.7923992
  67.9620749  25.3558720  51.9157821  66.9807440  26.4921368  52.1078267
  17.8279603  41.8199396   0.4482945  17.8157282  41.3005781   1.2522486
  18.4732068  42.5066519   0.6165706  65.3606000  47.2628164   2.9415354
  64.7944477  46.5342188   3.1961867  65.8871941  46.9164991   2.2211222
  61.6679811  53.9712620   8.0933839  62.1793687  53.7492275   7.3152983
  61.9185918  54.8726892   8.2955140  38.5898840  50.0936026   2.9694346
  38.5920357  50.0773043   3.9264932  37.6710224  49.9729914   2.7298993
  23.4924459  47.9422140  24.9703145  23.4028316  48.4744930  25.7608056
  24.4375134  47.8640652  24.8400474  26.6730058   9.0536494   3.3211306
  27.3980712   8.4296555   3.2873386  26.5645065   9.3440289   2.4155143
  26.2646709  44.6432823  50.3339216  25.5034215  45.2046257  50.1868686
  26.8118341  44.7740108  49.5594832  55.1319843  24.3796182   6.8605727
  54.2515999  24.4810724   6.4988220  55.6885308  24.9073577   6.2878770
  12.6077926  49.9691343  13.0733716  12.5276136  49.1680861  12.5555611
  12.5844157  50.6751871  12.4274838  49.0762261  20.8176458  42.4030146
  49.3437177  21.3575209  43.1467983  49.6366910  20.0434387  42.4551734
  25.7246804  55.9483147  14.6451938  25.0313306  56.5896845  14.4898105
  25.5139542  55.5698490  15.4987669  41.4019922  14.0179813  51.4507532
  41.9766176  13.7495792  50.7338169  41.9096315  14.6705807  51.9330898
  14.8525035  38.4969807  40.1815414  14.5195985  39.3132973  39.8086667
  15.2899909  38.7638378  40.9900093  11.4342784   7.2824711  10.6898820
  10.6593465   6.9437594  11.1381984  12.0150578   6.5257306  10.6106710
  35.5105424  24.5602822  15.6228709  35.9157920  23.9297605  15.0275171
  36.1907196  25.2160263  15.7764626  50.8280468  57.3555231  15.8410215
  50.1851320  56.7442369  16.2004960  50.3204632  57.9236269  15.2615023
  44.0003920  53.2698774   7.1793848  44.9029732  53.5752869   7.0882285
  44.0695810  52.3151827   7.1808934   8.7925755  52.2955262   4.3279556
   8.3702301  52.5345766   5.1530078   8.8972806  51.3454389   4.3789581
  65.0291645   2.9104704  51.0793495  65.1079285   2.2943205  51.8076229
  65.7150948   2.6457924  50.4664278   0.6009448  32.7716923  30.4812288
   1.3069856  32.4841428  31.0600686  -0.0250220  33.2029843  31.0629392
  27.1186637   3.9025588  39.1005063  27.9352951   4.4018263  39.0919018
  27.3009529   3.1550164  39.6698785   6.6588324  32.2006464  31.5036368
   6.8966401  31.8052745  30.6649709   6.9152355  33.1187749  31.4168739
  49.2124414  37.1221399   5.2923048  48.5105419  36.5074587   5.5061799
  49.5934534  36.7788267   4.4841003  22.5213935  15.4434962   4.3819657
  21.6578866  15.5794425   4.7719726  22.4428464  15.7984538   3.4964886
  58.5766250  37.0238376   1.5766063  57.9979938  36.9662046   2.3369327
  59.0684599  36.2027287   1.5871388  57.6018256  61.8563509  18.4771240
  56.8164760  62.2162771  18.8893270  57.2695356  61.3104439  17.7645195
   4.1279212  46.0234118   4.7761053   3.7038305  45.1751900   4.9060965
   4.4984972  45.9733820   3.8949680  26.4246273  48.5806942  22.2809839
  26.6256309  49.5161247  22.2526956  26.5062356  48.3460283  23.2053781
  -0.1528405  32.5166297  39.4658518   0.6919359  32.2382832  39.1121459
   0.0699506  33.0278015  40.2438593  60.5414974  21.2810416  14.3389893
  60.5795538  22.1765036  14.0029454  61.4322173  21.0997290  14.6389532
  64.4728059  55.6425541  36.8630489  63.7787313  55.0133556  37.0595142
  64.3799419  55.8169144  35.9264549  44.9065307  17.5374878  54.2511838
  45.1966886  18.1389177  53.5653835  44.3348611  18.0665196  54.8075577
  28.7305260  47.4198341  15.0786293  28.9272809  47.9889250  15.8227086
  27.8395081  47.6588631  14.8233140  23.1924844  42.7304792   4.6529073
  23.0859995  43.6497498   4.4082931  24.0549874  42.4908066   4.3139750
   7.8363185  11.6994482   1.4371637   8.5267263  12.3372799   1.2562231
   7.3406177  11.6447979   0.6201414  44.5453369   3.0391545  15.3321111
  45.4961931   2.9291529  15.3306854  44.4024884   3.8937945  14.9253929
  28.2012916  59.2696381  34.4426990  27.9936552  58.4560966  34.9023390
  27.3554182  59.7029161  34.3286848  41.5352840  46.5964109  55.4189974
  41.1201317  45.9724396  54.8235640  42.4183733  46.2511629  55.5501094
  25.0138092  55.5117750  20.8296084  24.2682528  55.8686972  20.3469229
  25.3441501  54.8066473  20.2729201  66.6734604  52.5828028  45.2859879
  67.5325541  52.9955101  45.3746653  66.2776837  53.0139017  44.5285273
  62.8295822  60.8903569  41.4977273  63.6384363  60.5815810  41.9059500
  63.1172485  61.3249343  40.6948444  20.4539728  36.1706996   3.5767028
  20.5604625  37.0180225   3.1443423  19.5716953  35.8881450   3.3359143
  30.5604267  57.1858025  34.5223999  30.8631492  56.4575672  33.9799428
  29.9655867  57.6760674  33.9549136  38.3601403  10.3583998  10.4427040
  37.8180921  11.1454482  10.4972243  37.7326905   9.6412797  10.3517377
  58.8806498  17.6203150   6.5502477  59.6350204  18.0146307   6.1124426
  58.1214702  18.0025572   6.1100638  37.4452710  26.4542556   1.2470730
  38.3446383  26.3011980   1.5368059  36.9110227  25.9127831   1.8281223
   1.7230332  13.8507355  20.6615516   0.8915842  13.3879602  20.7652995
   2.3828757  13.2298506  20.9703299   8.0515683  46.3303936  50.2293405
   8.3391560  46.5002859  49.3323108   8.8067639  46.5604771  50.7706099
   0.8073366  22.2776926  51.1016985   0.7308972  21.4482487  50.6300971
   1.7227304  22.3118437  51.3794008  10.4925108  45.0311184  19.2687213
  10.7980132  45.5616236  18.5328794  11.1720824  45.1320887  19.9352193
  45.4066653  53.9386862  50.8176586  45.4398985  53.6600035  49.9025282
  46.3219399  54.0841645  51.0571178  12.3295760  49.5145559  33.5748553
  13.0269647  49.9664450  33.0997968  12.4084389  49.8314285  34.4746351
   0.9490364  59.0734434   4.6002030   0.7933554  58.3510113   5.2085483
   0.5196941  59.8259783   5.0071323  64.0326393  48.7260628  21.7623019
  63.3150089  48.4183550  21.2086272  63.9548808  49.6799755  21.7470169
  60.4208136  49.7373343  12.8946364  61.0680342  49.2768335  12.3605251
  59.7278976  49.9756384  12.2787535  24.8309439   5.9830470   3.8907790
  25.6566780   6.3167233   4.2415795  24.4204634   6.7438597   3.4797987
  55.0193893   6.0613389  36.0572767  54.9081552   5.3113741  35.4729748
  55.9096896   6.3683886  35.8860540  40.2158213  57.1907568  29.0848899
  39.7510099  56.5202093  29.5854378  41.1355543  56.9296503  29.1311526
   8.6019242  43.4854078  27.4831486   9.4170415  43.1489277  27.1108651
   7.9829139  43.4749317  26.7531157  53.5371733  25.6054592  34.2368627
  53.9218426  24.7304988  34.1848445  54.2306805  26.1502552  34.6089888
   2.6498812  14.4097466  15.4613245   3.5957497  14.5558924  15.4757249
   2.4615544  13.9778227  16.2945151  22.5785685  56.4819050  14.5980418
  22.6035213  55.5401897  14.7676837  21.8079734  56.6050863  14.0437472
  30.1538849  59.8551607  12.6450455  30.7166815  60.1908731  13.3427501
  29.6157837  60.6045580  12.3899233  52.0658869  44.2869943  53.1373113
  52.2476358  44.9824792  52.5052520  52.0063371  43.4917658  52.6078799
  36.3195300  59.9518204  16.7306054  36.7636061  59.1044760  16.6985190
  35.6332517  59.8378277  17.3880696  41.5606045   0.3200907  26.4112687
  41.3167309   0.6412119  25.5431437  41.9566667  -0.5357986  26.2474990
  22.0896661   5.9215540  36.0353136  21.3984867   6.3770480  36.5159702
  22.0260550   5.0125212  36.3283062   1.2467731  51.4034641  54.4345912
   0.4907024  51.5205181  53.8593620   1.2441314  52.1797550  54.9945864
  27.0671034  52.6680231  33.6351633  27.1319294  51.7288160  33.4621882
  26.7965293  53.0474329  32.7990627  48.4398413  56.3295126  25.8907914
  49.2940378  56.0123396  26.1840320  48.0373526  55.5733871  25.4635811
  10.4365587  25.8816046  22.7201819  10.9609842  26.2630267  22.0161080
   9.9351942  25.1856417  22.2953296  41.0955286  54.0945625  28.7792587
  41.7275810  53.4595585  29.1161680  40.2850389  53.5953856  28.6784339
  28.6292923  55.0524319  33.8190099  28.2567585  54.1871727  33.9886662
  29.2951429  55.1637638  34.4975993  12.5289297  34.7180414  44.7945547
  11.7757392  35.1495194  45.1979876  13.1555450  35.4249525  44.6400881
  51.6250819  51.2547207  18.6261189  51.8304449  51.5466118  19.5142949
  52.4788195  51.1284924  18.2120776   4.5625561  13.5313887  19.4525909
   5.2691143  14.0705056  19.0971231   4.1510504  14.0837187  20.1172900
  41.3379255  14.9460495  20.1825615  42.2147516  14.9397410  19.7986766
  40.9822917  14.0803612  19.9817058  43.3698845  50.6794977  14.0464580
  43.2128143  49.7385931  13.9673722  43.5443115  50.9693050  13.1510139
  15.9981382  63.9873834  23.1694150  16.7078198  64.6271372  23.2268667
  16.4418734  63.1400044  23.1336260  31.5378636  10.9348197  18.8079143
  31.2186288  10.0325436  18.7931132  31.2155491  11.2893576  19.6365583
  35.1757431  28.8323498  20.8642602  34.5692372  28.1883121  21.2297702
  35.8302402  28.3092713  20.4013848  65.5849326  51.3284397  47.4194193
  65.6971851  51.8332148  46.6139174  65.3767097  50.4433250  47.1203518
   6.4482749  21.6622341  39.3751713   6.1293972  20.7770193  39.5510766
   7.2872818  21.7100561  39.8334440  49.9970961  57.1420908  18.5748518
  50.0985479  58.0685234  18.3565342  49.0551472  57.0274019  18.7005746
  21.7721832  48.5313690  46.2767419  22.2324074  48.5710323  47.1151033
  22.4331129  48.7757004  45.6288942  43.1536416  20.8736218  14.2198321
  42.7246717  20.0181521  14.2000910  43.7391557  20.8305681  14.9758431
  32.7210188  62.4738693   0.1855073  31.8778443  62.7120590   0.5709331
  32.8495383  63.1078959  -0.5199891  50.9255088  18.6769760  35.4468461
  50.1040918  19.0288485  35.7899102  51.4492917  18.4888733  36.2256285
  42.3994755  20.6499094   6.3476694  41.6644215  20.0370211   6.3307071
  43.1171381  20.1748652   5.9287196  48.5643816  40.0336695   4.6793637
  48.8263607  40.1155424   3.7623599  49.0734529  39.2929745   5.0086772
  22.5659264  62.9322613  49.2993119  23.2517803  62.3196972  49.5650181
  22.8366507  63.7713135  49.6720424  42.3948193  39.0487218   7.6304442
  43.3362389  38.9191747   7.7452499  42.3263168  39.8100734   7.0543510
  39.5473134  16.4268202  28.2510233  39.8092246  15.5548090  27.9556751
  38.7288212  16.6012568  27.7864003  45.6162882  44.8897696  26.5705204
  45.2172947  44.6891737  25.7238793  45.0621319  44.4406986  27.2088623
  40.9185696  41.6614914   3.0690715  41.2365437  42.2593307   3.7456197
  40.8557796  42.2023249   2.2818047  33.3931130  13.5917361  40.7660302
  34.2368001  14.0427954  40.7349416  33.1910676  13.5257037  41.6993305
  49.8405933  61.1365891  12.9201400  49.2686367  61.0031986  12.1642923
  50.7127428  60.8987665  12.6054633  34.2668230  50.8652382  32.2072101
  33.3700425  51.1198144  32.4244785  34.7293026  51.6948908  32.0887971
  55.4377079  27.6950682  54.7409466  54.8297966  27.9054583  54.0321365
  56.1311764  28.3503807  54.6641493  58.6874866  53.7680912   3.9082569
  59.2119461  52.9692268   3.8535503  58.2528484  53.7114573   4.7592059
  22.8352475  59.2694426  11.0405564  22.4037766  58.4155703  11.0095143
  22.1638680  59.8650980  11.3732398   5.2940595  36.2370515  21.9145608
   5.0177908  36.9108915  21.2933922   4.4785181  35.9207869  22.3032761
  21.6140246  56.7169189   9.5912504  20.7788086  56.2624168   9.7011435
  21.5030146  57.2321463   8.7922198  25.2701330  62.2638035  43.9663506
  24.4878316  62.6483917  43.5709667  25.9378362  62.3234415  43.2830906
  43.3034384  14.9970717  23.2788992  43.1910312  14.6252913  24.1537547
  42.4622666  15.4103941  23.0844116   9.7393382  54.8855066  10.0861251
   9.2039758  54.3377781   9.5120090   9.2867327  54.8627138  10.9292507
   7.6968611  23.7004412  50.9936425   7.6118291  24.6430862  50.8507469
   7.4909175  23.5791624  51.9205245  64.7684273  26.4449739   3.1482512
  64.1127756  27.0652556   3.4670049  64.4761309  25.5959725   3.4799001
  62.5281578  12.4974913  41.9148493  62.7349501  12.4072642  40.9846210
  62.9536992  11.7465920  42.3287392  20.8154655  59.1405582   0.6290644
  21.0528469  58.2337093   0.8227261  20.4324365  59.4669867   1.4432907
  61.2640988  14.6910901  50.2577639  60.7514274  14.3635411  50.9967566
  62.1743834  14.6056313  50.5411530  41.7027855   6.9072230  51.3630548
  41.1321592   7.6270754  51.6321587  41.1916637   6.4271433  50.7115033
  44.8628616  35.9373283  10.1846492  43.9329290  35.8416224   9.9789810
  45.2843142  35.2052712   9.7344220   4.7740191  42.6283164  25.7339740
   4.7038430  43.5823340  25.6998563   4.4950217  42.3991866  26.6204786
  60.4861087  21.8933476  41.6165408  60.0755614  22.3162640  40.8623358
  60.0699717  21.0326660  41.6644176  57.4673695  20.3983534  43.7000081
  58.2313854  20.0545538  43.2370707  57.7795226  21.2039173  44.1121491
   7.4950463  60.5703926   5.8760947   8.1237423  60.7379770   5.1740336
   6.6497064  60.5097532   5.4311723   8.7587250  54.0539349  36.7950555
   8.9514125  54.7990406  36.2259063   7.9776490  53.6552036  36.4114329
   8.8489693   9.9639363  12.8089035   8.3987444  10.7790465  12.5872707
   8.6066645   9.7964758  13.7196589  46.5311116  44.4863558  15.6554496
  46.2637752  43.8433886  14.9986744  47.1786970  44.0272856  16.1903477
   2.1377719  21.6280735  45.0610372   1.3349355  22.0568026  44.7646042
   2.8242744  21.9926346  44.5024308  19.6331251  29.5714844  47.8782883
  19.3409718  30.1341999  47.1611914  19.2562283  29.9688185  48.6633411
  47.4301397   5.5786175  12.8883791  48.0449211   4.8505539  12.7978230
  47.0984232   5.7236189  12.0022798  26.1257744  53.2645988  31.1574340
  25.7963586  53.7431288  30.3966951  25.7272673  52.3972511  31.0857701
  55.6105215  56.9594108  18.3651817  54.6696109  56.9820177  18.1908035
  55.9752757  57.6404618  17.8000653   9.7891348   6.3064141   5.2257711
   9.9348801   6.4603753   4.2923436   8.8494795   6.4426083   5.3471279
  55.4392158  10.4928727   7.2750795  56.0545122  10.4200358   8.0046928
  55.9681284  10.8201117   6.5474820  20.7192779  38.8219166   9.9202061
  19.9680519  39.3901896   9.7500318  21.0162973  38.5509920   9.0515232
  55.5897617  45.2863550  27.1396804  56.4856958  45.3007364  26.8030357
  55.2323055  44.4527674  26.8337655  14.9943984  51.5082264  27.7934837
  15.4213393  50.8621740  28.3561301  15.2448750  52.3534393  28.1664586
  36.4129329  53.4222126  25.8689475  37.0668888  53.7998581  26.4571285
  36.5627646  53.8604069  25.0312328   4.6311706  59.8661852   0.9214504
   5.5249292  60.2078581   0.9476966   4.5107752  59.5796680   0.0161081
  10.1371020   2.0562214   6.1838573  10.5408161   2.8249974   6.5866297
   9.2143744   2.2923703   6.0887897  60.1635009   5.2930391  40.0388380
  59.3331355   5.4653943  40.4827055  60.8307475   5.4694403  40.7020840
  12.7433085  44.1519833  30.7237864  12.3778188  43.2887316  30.5302811
  13.5094404  43.9711189  31.2683630  12.5542700  63.6464882  15.4684067
  11.8166435  63.4263420  16.0373318  12.2485423  64.3974257  14.9596286
  22.9751702  10.9617514  25.1541352  23.7159982  11.5190310  24.9157071
  22.5313445  11.4400143  25.8545017  36.8438137  55.9359444  52.9061901
  36.9134701  55.7719791  53.8466669  37.6335466  56.4319218  52.6903960
   1.3284314  28.7531269  51.6472774   2.0199073  28.4886015  51.0405475
   0.8089316  27.9600084  51.7788672  17.9237383   0.7492632   2.9064235
  18.3220642  -0.0925451   3.1276122  16.9839543   0.5696244   2.8786606
  29.0497720  21.1888117  17.6042080  29.3035191  20.6451411  16.8583727
  28.8213586  20.5620951  18.2907164  34.3728566  49.7442770  10.1568902
  34.5851374  48.8184547  10.0384629  35.2131629  50.1951504  10.0742555
  44.8266041  12.9586215  36.0437751  44.0283524  12.5535483  36.3828135
  45.4698693  12.8421635  36.7429757  52.2701383  45.1696194  37.1787223
  51.7039138  44.9217165  37.9095873  52.4547536  46.0977209  37.3228737
  43.7453649   9.2894400   8.4510895  43.1091641   9.0864170   9.1368433
  43.2475880   9.2254198   7.6360127  37.8602052   7.7540196  52.5027471
  37.6846445   6.8317545  52.3160940  37.6841015   7.8466356  53.4390384
  42.3716927  17.3903501   3.5983312  41.4939260  17.0722258   3.3872560
  42.6454020  17.8732193   2.8184903  42.7301502  49.7185850   5.5883026
  42.6300383  48.9931154   6.2046683  42.1325922  50.3924465   5.9124380
  57.9227061  28.5510182  28.9542576  57.6594085  29.4606578  29.0937659
  57.3875971  28.2571626  28.2170078  53.4736276   1.5640462  17.9082104
  54.0722579   1.5307081  17.1620437  53.8312161   0.9308446  18.5306379
  23.1189990  23.9789796  23.3280110  22.2529984  24.0661693  23.7263489
  22.9664063  24.1096497  22.3921299   1.2455482  30.5197477   6.2016326
   0.8211036  29.8490143   5.6666607   0.5523337  30.8397818   6.7789215
   2.8450019  52.3331946  29.4564959   2.6400251  51.4734798  29.0889284
   1.9957990  52.7671403  29.5388195  36.7754793  56.4483309  21.4382386
  36.2066007  56.6778898  20.7034540  37.5473809  57.0031261  21.3259602
  20.4385829  34.1615248  16.7079830  20.4830599  33.3311892  17.1821070
  20.8376670  33.9739060  15.8584166   6.2933028  16.5173424  41.7930063
   6.6391552  15.6422842  41.9687518   5.5934918  16.6318787  42.4359533
   7.2543389  34.8530388  30.9472919   7.5874454  34.7475314  30.0561452
   6.4978045  35.4318666  30.8532381   7.4953127  32.5829029  20.0673056
   7.9515862  32.8666902  20.8594608   7.8598231  31.7183828  19.8776484
   5.8920360  53.1549835  21.2350583   6.7509091  52.8444719  20.9484386
   5.2696240  52.6800871  20.6843257  38.5373902  35.1559758  12.5893784
  38.9550686  34.6476865  13.2846618  39.1281891  35.8951473  12.4451065
   5.2484167   8.8867987  29.1962716   4.7851646   9.7241772  29.1755411
   5.1492918   8.5362661  28.3110973  27.3772430  38.5838294  12.4202824
  28.1796908  38.5627031  12.9416871  26.7809081  37.9883885  12.8742278
  65.9030095  13.2966554  11.0312963  66.6499454  12.8457236  11.4249694
  65.8507457  14.1288579  11.5013385  22.4735344  29.8434961  45.3123054
  23.3124340  29.9016655  45.7695749  21.9733322  30.5938948  45.6331440
  30.1637006  38.2186532   6.6987664  30.6480646  38.8529515   6.1702889
  30.8233094  37.8350163   7.2766709  54.3735642   6.3151205  50.0679972
  54.5789695   5.9018791  50.9066093  53.5570449   6.7883909  50.2278229
  12.9160811  57.4792760  27.4616763  12.7611090  57.3627561  26.5243193
  12.1840693  57.0290774  27.8832408  52.4829197  55.7643986  14.4177973
  52.2629356  56.5049171  14.9830174  51.7394209  55.6906223  13.8194716
  66.4010717   8.7414503  11.6950941  67.0536272   8.9886427  11.0398853
  65.6236499   8.5142016  11.1849904  31.2772816  27.1525664  14.0151393
  31.8490982  26.7795748  14.6860600  31.6140365  28.0381293  13.8787377
  51.1264563   8.8006104  26.0785290  51.1849928   8.8855923  27.0301506
  52.0327115   8.8612831  25.7764479  55.8964872  18.0310857   2.1704075
  55.9044170  18.9125800   2.5434163  56.6173935  17.5790215   2.6087710
   0.4649264  58.2456493   8.0943793   0.3895098  57.8657007   8.9696968
   1.0666233  57.6627779   7.6312923  24.4869256  10.6620729   9.4079405
  24.4185567  11.2332094  10.1730299  25.3569293  10.8420610   9.0516704
  10.9122419  32.1387029  31.7294145  11.1300945  31.9666433  30.8133531
  10.1907098  31.5394902  31.9206381  20.9523773  34.3165255  20.7880974
  21.6574097  33.8148355  21.1973238  20.5336475  34.7778273  21.5148020
  58.5978217  38.1810015  50.5782953  58.8546009  39.0650105  50.3159502
  58.0635113  38.3094489  51.3620346  67.7386862  43.3321512  39.0411386
  67.0869810  42.6832760  39.3066153  67.4770862  44.1336382  39.4943615
  47.5180335  39.1672391  54.5393427  46.6202755  39.3489229  54.2613999
  48.0602140  39.7127467  53.9695246  36.0084128  11.2289464  42.7016211
  36.6454530  11.2843084  41.9893360  35.1987743  10.9449184  42.2773027
  13.3536041  20.0471819  54.9306088  13.6780680  20.5453003  55.6808323
  14.0317977  20.1505507  54.2630760  65.0537151  31.3600672  47.9841432
  64.6288640  31.8449438  47.2765901  64.9823982  30.4422272  47.7220055
  38.6195094  20.2453888  36.3959214  37.8752214  20.2138699  36.9969818
  39.3783731  20.0445259  36.9436559  67.5280697  38.0103481  54.2721583
  66.8781716  38.4996832  53.7677636  68.2740742  37.9212654  53.6790529
  11.5911746  39.2632508   4.2388546  12.2668064  39.5793986   3.6390185
  10.7744515  39.6189570   3.8886121   1.8550075   5.6845868  22.3835250
   2.3856175   6.1186493  21.7154881   1.3363398   6.3888753  22.7723571
  13.2861317   2.0193446  55.6818422  14.0714062   2.1934426  55.1629337
  12.6752103   1.6173494  55.0642617  57.6138562  48.7452972  45.3139469
  58.2419199  48.0252922  45.2560278  58.1186539  49.5231522  45.0765332
  48.9496866  26.2197722  51.3028147  48.2866031  26.8908251  51.1408260
  49.7776664  26.6998375  51.3175746  66.1890036  20.9076393  52.5559103
  66.8417007  20.3936661  52.0804616  65.8047444  20.2900923  53.1781759
  27.2663999  14.2346680  17.1790946  27.0830655  14.5468235  18.0651987
  27.2711992  13.2806909  17.2574246  52.5877613  57.2096014   0.0617887
  52.4234050  57.8498507   0.7541058  53.3488315  56.7161798   0.3676277
  53.3591223  24.0545750   4.6488193  53.4621668  23.1772542   5.0174928
  52.4123287  24.1921020   4.6188653  49.4603395  37.9822421  11.6214514
  50.2231693  37.6259303  12.0768261  48.8123846  37.2783875  11.6526926
  68.2395822  12.6487291  24.9371096  67.6564342  12.9616106  24.2455360
  67.7327639  11.9757641  25.3915140  37.0034855  35.6074667  23.6942482
  36.3793987  35.8864093  24.3642759  37.5600523  34.9669218  24.1371560
  61.2879783  33.4395111  40.4544457  62.0974034  33.6852205  40.0064620
  61.4620847  32.5643004  40.8007499  62.0775885   1.9573129  37.1886512
  62.2327513   1.2259949  37.7864238  61.4770168   1.6060389  36.5312680
  18.1899047  57.2628641  11.3946819  18.1201863  56.6762495  10.6415164
  19.0813279  57.1324921  11.7181003  59.1081781  28.5412634  41.6149923
  59.6569938  28.7539614  40.8601448  59.4933969  29.0360392  42.3382017
  43.6871338  44.6405935  14.0057945  42.7386284  44.7113895  13.8982987
  43.8522673  44.9610567  14.8925102  28.7802219  41.8241072  11.2867069
  29.3516278  42.2998142  10.6838536  29.3684244  41.2361336  11.7605591
  31.2237501  47.5151920  30.1102328  30.7253218  48.2649422  29.7851610
  30.6451225  46.7651653  29.9728179  15.1538361  27.1741760  23.8285610
  15.3168214  27.4792564  22.9360410  15.0032342  26.2334097  23.7363574
  58.6108106  16.5860629  25.4970527  59.1446400  15.8424330  25.2172804
  57.8997809  16.1934006  26.0034943  60.2353377  39.6462607  19.8231312
  60.6255145  38.8573992  19.4467136  60.0718803  39.4192344  20.7385394
  14.8210025  48.1462955  23.9211369  14.6860218  47.9775620  24.8536277
  15.4475284  48.8695574  23.8968420  55.7521909   3.0370054  22.8106546
  56.2066072   3.8048702  23.1572390  55.6992191   2.4348073  23.5528016
  22.9404676  30.1683415  41.2097975  22.5355995  29.9512232  40.3700515
  22.2038734  30.3804005  41.7831155  20.9264791   3.8567395  31.7098331
  21.6547358   3.4349913  32.1659088  21.1409893   4.7894330  31.7271137
  20.6666970  48.7892294  19.4543016  20.0405073  48.0652809  19.4579387
  20.1633477  49.5397043  19.1386068  64.2786640  16.2072409  42.6358625
  63.3254248  16.2768066  42.5836286  64.4348592  15.5859888  43.3471188
  15.2102411  27.9146374  41.4430865  15.5604971  27.4419344  42.1981403
  15.9651077  28.0406416  40.8681663  15.0590765  51.2032557  39.0857697
  15.7178235  51.3077545  39.7723269  14.2278457  51.1503315  39.5574546
   8.0317378  15.3482866   2.5505406   7.9843849  14.7758782   1.7848128
   8.8616031  15.1199067   2.9693460  41.1585474  36.7280078   0.2862605
  42.0871162  36.8650961   0.0986565  40.7782745  37.6062369   0.2678495
  60.4862600  25.5628014  10.8273637  59.9324030  26.2905979  10.5448961
  60.7950348  25.8199549  11.6961336  44.9424410  23.6147547   7.9569459
  44.8385572  24.5645785   8.0141300  45.8771658  23.4669590   8.1007510
   5.8103848   5.7004708  12.8153110   5.9636682   6.5509522  13.2269156
   6.5083891   5.6196779  12.1653163  27.6175833  48.6982965  11.4245856
  26.8662024  49.1231918  11.8382561  27.2425866  47.9541397  10.9535921
  41.0314274  47.4995184   9.9332297  41.5465641  47.0639753  10.6123245
  41.0562420  48.4263277  10.1712239   8.5161883  48.0151463  20.1600480
   9.2276150  48.0478716  19.5204914   8.8758379  47.5155067  20.8930159
  55.6682014  47.8918934   2.9673037  54.9941301  47.3548985   3.3838350
  55.6696129  48.7066936   3.4696269  10.9289085   9.6671910  29.1483021
  10.0417435   9.3720574  29.3534064  11.0602128   9.4142479  28.2345128
   5.9247745   0.2715171  54.0375238   5.7962502  -0.6770122  54.0353921
   6.2836087   0.4665435  53.1718245  65.2377081  34.2647958   0.2350852
  65.8748007  34.8963022  -0.0989023  65.6758976  33.8538074   0.9802769
  62.0316601  43.8630533  24.0192699  61.9111490  42.9917908  24.3969131
  62.0233059  44.4537830  24.7723961   5.7758595  29.3377799  17.4555298
   5.7873655  30.0491397  16.8151661   5.0756432  28.7576666  17.1565315
  59.4113440  28.6002052  52.8610706  60.2276427  28.8441504  52.4247449
  59.5916289  27.7415360  53.2437165   4.3158377  24.9219502  28.7128588
   4.9713433  24.2326010  28.6063525   4.2063821  25.2861584  27.8344485
   2.0238650   2.6828206  25.6811162   1.9061697   3.0261052  26.5668580
   1.1402596   2.4522269  25.3942391   4.1202570  57.8810686  49.1955736
   4.8268868  57.7518934  49.8282000   4.2328526  58.7816042  48.8912871
  40.7442529  45.2244741  51.1156075  40.0370605  44.6342689  50.8552878
  41.3572366  45.2025444  50.3807586  62.6870627  50.2412754  55.3888453
  62.1254487  50.9716016  55.6485430  63.2408542  50.5998331  54.6953138
  57.8227110  59.5634883  31.5761014  58.0038066  58.6796325  31.8958446
  57.4491639  60.0192207  32.3304244   2.3535419  61.0969400  44.1005421
   1.6797101  61.6966915  44.4206619   2.6684067  61.5002298  43.2915592
  48.8077641  13.6543406  34.3013903  49.5828796  13.1098831  34.4392106
  48.1133515  13.0320633  34.0850707  49.4572345  20.8556688  48.9479807
  48.8466555  21.5622461  48.7378051  49.9952400  20.7622660  48.1618145
   5.8681113  63.4668606  33.5847851   5.3724665  62.9727262  34.2377778
   5.2148003  63.7289947  32.9361698  23.5347307   2.0094288  21.8594834
  23.2814062   2.6819408  21.2271949  24.2578066   2.4013198  22.3491904
  20.4834068  29.7823370  34.8135230  19.5739496  29.6281422  35.0691601
  20.9471453  28.9918173  35.0896808  67.1644573  35.5227137  39.7235990
  67.7758990  35.0825095  40.3140163  67.5131237  36.4097977  39.6356034
  54.6341402  20.8340824  48.8662073  55.3074581  20.3818834  49.3745312
  53.8537681  20.2883661  48.9634040  40.7779295  55.7775968  46.0016724
  40.7450278  56.5307325  45.4118105  41.1803610  56.1169165  46.8011364
  60.9027606  12.3037267  29.8040080  61.6947365  12.8388727  29.7527814
  61.0465240  11.6018033  29.1692901   1.5218914   8.5814655  44.5098659
   2.0648563   8.5911358  45.2981087   0.6954873   8.9795530  44.7833857
   6.8934625  51.2459326  18.6431706   6.5070486  52.0262814  18.2457173
   7.8288996  51.4420128  18.6955237  10.1434219  31.8496704   2.9663712
   9.2167437  31.6749358   3.1305870  10.5157685  32.0031190   3.8347277
   9.3871760  31.2440109   8.5358363  10.2309275  30.8713460   8.7916386
   8.7820059  30.9590030   9.2205060  18.6308205  19.4644749   3.9249083
  19.1016388  20.2061605   3.5448241  18.4449887  19.7342396   4.8243111
  32.8527481   2.4461377  48.8167104  32.9855091   3.2078922  48.2524970
  32.1745688   1.9356788  48.3742889  66.6952545  15.4407061  44.2186805
  66.1369378  14.7693527  44.6108552  67.5638682  15.2734888  44.5844385
  52.8439474  56.4032078  24.2547965  52.8574085  56.0272980  23.3746004
  52.1266079  55.9500265  24.6978331  33.9045835  18.8209260  29.3766236
  34.0990901  18.2577860  28.6274433  33.1965232  18.3706868  29.8372412
  50.7328034  12.6805246  55.6397215  49.9384687  12.7403391  55.1089801
  51.4392662  12.9249800  55.0419041   0.5666596  28.9067173   8.9971364
   1.0158354  28.1240845   9.3164420   1.2579876  29.4320464   8.5942358
  12.1013093  10.1879311  17.0547116  11.1814880  10.2175605  16.7914927
  12.4129939  11.0853457  16.9375324  42.9355240  48.3929300  30.2554035
  43.3006382  47.9041576  29.5178246  43.6637640  48.4772301  30.8708620
  68.2189125  68.2189125  68.2189125 109.4712190 109.4712190 109.4712190
