
58566  0.0000000e+00
  25.8135557  35.7611394  41.0635281  25.4233336  36.0982323  40.1950836
  26.5967751  36.3233948  41.3644218  25.1370811  35.7513118  41.8134499
  26.1687684  34.3765116  40.7848024  26.5826964  33.8949800  41.6707468
  25.0099635  33.5738420  40.2364683  24.7718453  33.9934230  39.2590475
  25.3927612  32.5765395  40.0197887  23.8336730  33.4360814  41.1433601
  23.9258242  33.6036611  42.3291826  22.6344752  33.3197665  40.6662035
  21.8402457  33.5697961  41.2378550  22.5650620  33.2965732  39.6588564
  27.3317456  34.3591666  39.7635484  27.3814106  35.2319360  38.9250946
  28.2520509  33.4149170  39.7972131  28.0886602  32.6200581  40.3985548
  29.3770647  33.3048153  38.8876414  29.9839449  34.1868711  39.0920353
  30.1825142  32.0413613  39.1840315  29.4930077  31.2195539  38.9908624
  31.0638046  31.9670391  38.5469270  30.6671762  31.8479919  40.6478882
  29.8478985  31.7774963  41.3633680  31.3623714  30.5509257  40.7093430
  32.3422408  30.6195521  40.2368546  31.6328049  30.2733636  41.7281294
  30.6612825  29.8031878  40.3385878  31.6330934  32.9363513  41.0811996
  31.2716651  33.9243197  40.7959080  31.6963768  32.8474021  42.1657228
  32.5708556  32.9254723  40.5256939  28.9878559  33.3109379  37.3955679
  28.0574083  32.6028347  36.9725847  29.6905613  34.0871239  36.5668559
  30.4287648  34.6517873  36.9622183  29.6257091  33.9623499  35.0985360
  28.5774326  34.0196371  34.8053861  30.4689455  35.0744057  34.4590783
  29.8222041  35.6058955  33.7609792  30.7947278  35.8660126  35.1338577
  31.7507482  34.6171045  33.8866639  32.2494936  35.4278183  33.7617755
  30.1340151  32.5674987  34.6917725  30.8177686  31.9268131  35.5097151
  29.9346399  32.1599865  33.4460711  29.2004728  32.7914333  32.3663521
  29.4192529  33.8587308  32.3329902  28.1241679  32.7330756  32.5284171
  29.6866250  32.0451880  31.1241198  30.5524254  32.4910188  30.6345034
  28.8121080  32.0108962  30.4743934  30.0341392  30.6687975  31.5767503
  30.7413697  30.2986956  30.8344913  29.1317058  30.0615549  31.5062213
  30.5167437  30.8319330  33.0479074  30.0268388  30.0705099  33.6548066
  32.0969844  30.7021236  33.0611658  32.5999618  29.5807934  33.2707500
  32.7678561  31.8045735  32.7105713  32.1725154  32.5791311  32.4541974
  34.2540264  31.8171477  32.7520657  34.6050835  30.9143662  32.2522187
  34.6358514  33.1392646  31.9640851  34.3256330  32.9909992  30.9297347
  34.0375233  33.9776230  32.3208189  36.0839200  33.6043143  31.9644380
  36.5239215  33.7691188  32.9479718  36.9819403  32.5753236  31.3150930
  36.7882204  32.4305558  30.2522588  38.0047107  32.9493427  31.2686229
  36.9645834  31.7548847  32.0325041  36.1755538  34.9363875  31.2271929
  37.2228408  35.2353215  31.2710333  35.8025622  34.8322415  30.2083063
  35.6573725  35.6905270  31.8195343  34.7080421  32.0062160  34.2344284
  35.7117343  31.5536165  34.6804237  33.9228797  32.5847459  35.0964975
  33.1118536  33.0236077  34.6845055  34.2020416  32.7672720  36.6011071
  35.2165771  33.1572509  36.6832280  33.2608581  33.8064551  37.1920252
  32.2916102  33.7622070  36.6953325  33.1812096  33.7103915  38.2748580
  33.8211226  35.1788974  36.9578719  34.6866202  35.3221226  37.6047969
  34.0886235  35.2066827  35.9015703  32.7819514  36.2590480  37.2471452
  31.7785192  36.1056924  38.0108309  32.9685497  37.3132682  36.6394186
  34.0543628  31.4816761  37.3536420  34.9308133  31.0721755  38.0757022
  32.9590821  30.7699466  37.1057510  32.2479892  31.1401176  36.4914036
  32.7363873  29.3739605  37.4051476  32.6487565  29.2769027  38.4872770
  31.4434958  28.9479136  36.6832066  30.5780029  29.4835591  37.0732117
  31.3383508  29.0938163  35.6081462  31.2956905  27.5743389  37.0464587
  30.3756142  27.4624491  36.7963767  33.8080740  28.3493686  36.9965744
  34.4051027  27.6274204  37.8346205  34.1062832  28.4240603  35.6889915
  33.5420561  29.0317583  35.1124072  35.2652621  27.7135682  35.1434612
  35.0934482  26.6438866  35.2633142  35.5014729  27.8766322  33.6864400
  34.6129847  27.5419068  33.1510448  35.5404210  28.9406180  33.4529471
  36.7527366  27.1855712  33.0548763  37.6798081  27.5993109  33.4516835
  36.7410994  25.6820273  33.3802390  36.7607975  25.5412078  34.4609261
  35.8299923  25.2620912  32.9540420  37.4190164  25.0430655  32.8143263
  36.7453980  27.4500012  31.5447378  36.6396928  28.5101247  31.3143921
  37.6799321  27.0529413  31.1483932  35.9449911  26.9188118  31.0296631
  36.5181518  28.0027509  35.8985782  37.1664476  27.0557690  36.3772440
  36.8648577  29.2925787  36.1630583  36.3399053  30.0368118  35.7264304
  38.1226301  29.6964312  36.7443442  38.9503121  29.1723967  36.2663960
  38.3783340  31.1945128  36.4955091  37.7062678  31.6749001  37.2066045
  39.3767834  31.4594126  36.8434000  38.3380818  31.3706231  35.4205847
  38.1905699  29.2474389  38.2139516  39.2312574  28.7903547  38.6884904
  37.0995140  29.3573070  38.9781499  36.2247205  29.6848345  38.5940123
  36.9070816  28.8824463  40.3828096  37.6602912  29.2886496  41.0579252
  35.5631495  29.3899465  40.9232378  35.3916335  30.4312515  40.6505394
  34.7494602  28.8006115  40.5005169  35.4360008  29.3430471  42.4487734
  34.4226503  28.7692571  43.0577517  33.5337400  28.3511400  42.6089573
  34.4602585  29.0033436  44.4581175  33.7494564  28.6600113  45.0881863
  35.6761694  29.5745373  44.8196602  36.2600446  29.9249792  46.0661745
  35.7933307  29.6688795  47.0058537  37.4663687  30.6236768  46.1398602
  38.0100870  30.7670474  47.0619297  38.0374241  30.8834147  44.8705864
  39.0158534  31.3401055  44.8932981  37.4187851  30.5971861  43.5952377
  37.8707075  30.9373474  42.6752043  36.2291837  29.9139261  43.5217857
  37.1648002  27.4145889  40.6114388  37.6858234  27.0510554  41.6822290
  36.8398404  26.5811181  39.6115923  36.3543415  26.9485593  38.8057518
  37.1773791  25.1529574  39.6209526  37.0838118  24.7476363  40.6284523
  36.1434627  24.4248128  38.7487268  35.1586151  24.4567728  39.2147255
  36.2701392  24.9527121  37.8035402  36.5587473  22.9885459  38.4941268
  35.8444715  22.4743080  37.8511119  37.4815011  22.9020548  37.9204130
  36.7863560  22.1369529  39.7224665  36.7588735  22.5456071  40.8686399
  36.8644238  20.7909584  39.4959259  36.7817354  20.1559210  40.2769423
  36.9410849  20.4467058  38.5495067  38.6283517  24.8785114  39.2259145
  39.3878269  24.1651344  39.8590541  39.1371417  25.5469012  38.1419683
  38.5431600  26.1398411  37.5800896  40.5718756  25.6512666  37.7745366
  40.9906864  24.7037840  37.4354529  40.7398605  26.5690780  36.5712285
  40.1913214  27.4768424  36.8225598  42.1614456  27.0169592  36.2291884
  42.0967245  27.5299025  35.2696061  42.6014280  27.6615500  36.9901228
  42.7407503  26.1569834  35.8931088  40.0863838  26.1352158  35.2510810
  40.8510447  25.6335807  34.6579814  39.2574310  25.4504251  35.4299688
  39.7395682  27.0093226  34.6999407  41.4003515  25.9884810  39.0094185
  42.3805952  25.2828550  39.3604755  41.0323381  27.0273280  39.7935653
  40.3621531  27.6792145  39.4114757  41.7530632  27.2974467  41.0708570
  42.8103685  27.5080204  40.9100342  41.2589312  28.6681223  41.6764641
  41.5398836  29.4267368  40.9459400  40.1735401  28.7648702  41.6505146
  41.8412018  28.9070344  42.9980612  41.3477325  29.7855401  43.4137774
  41.6153193  28.1575966  43.7566280  43.3964968  29.1931653  42.9766703
  43.9198732  28.2458544  42.8471327  43.6911392  29.8401570  42.1504211
  43.8686228  29.7595239  44.3423128  43.4753942  30.7404709  44.6091700
  43.7070417  29.0544200  45.1576710  45.3532171  29.9504137  44.2809582
  45.5616045  30.2606559  45.2192640  45.9238052  29.1292644  44.1386843
  45.7861614  30.6308699  43.6729765  41.7293596  26.1785030  42.0359945
  42.7516270  25.8248305  42.5848961  40.5861378  25.5413580  42.1940279
  39.8081136  25.8510852  41.6293573  40.3515673  24.3834996  43.1680393
  40.4618120  24.7305989  44.1954041  38.8335514  24.0458822  43.0912018
  38.2908082  24.9900818  43.1361151  38.5219407  23.6249590  42.1352625
  38.3261633  23.0475426  44.5467997  38.9894485  21.9577336  44.1502285
  41.3140678  23.2699037  42.8567553  41.9702864  22.7137566  43.7151957
  41.5025902  23.0268383  41.5551996  40.8241034  23.3597469  40.8851719
  42.3905849  21.9158626  41.1286497  42.1827841  21.0622382  41.7738152
  42.0760155  21.4798403  39.6504021  42.1820879  22.3281837  38.9742637
  42.8087950  20.7623744  39.2811036  40.6925869  20.7802844  39.5005178
  40.0418091  21.5430045  39.9281263  40.3029728  20.5040503  38.0371213
  40.1061201  21.3924694  37.4370694  41.2366247  20.0914335  37.6548457
  39.4829369  19.8535347  37.7330089  40.4979515  19.4052482  40.2186871
  40.2487612  19.5813036  41.2651157  39.6219063  18.8896072  39.8252940
  41.4248419  18.8976336  39.9516559  43.8629341  22.3060155  41.2402582
  44.6323872  21.4423275  41.6158199  44.1796970  23.5503983  41.0413790
  43.4279442  24.1486382  40.7297993  45.4916954  24.1786885  41.2955618
  46.1918926  23.4187293  40.9487438  45.7489014  25.4906201  40.4702759
  45.0294971  26.2129521  40.8560085  46.7656279  25.7996178  40.7129383
  45.7078791  25.3013444  38.9784980  44.8529053  24.7323537  38.6132812
  45.5920744  26.5128922  38.1198883  46.5009403  27.1084261  38.2060027
  45.4241467  26.2113118  37.0859861  44.7280645  27.0715141  38.4797859
  46.9942045  24.5741820  38.4863114  47.1298599  23.7328100  39.1658640
  46.9603968  24.3967223  37.4113846  47.8375626  25.2446723  38.6514974
  45.9027719  24.2809725  42.8218699  47.0303822  24.0282393  43.1852341
  44.9789858  24.5756721  43.7214851  44.0602779  24.8264956  43.3850813
  45.0990534  24.7137141  45.1885128  45.9581470  25.3298497  45.4539013
  43.8068056  25.4869485  45.6269693  43.8399935  26.4599919  45.1368856
  43.0121899  24.9620914  45.0966692  43.3848238  25.5265212  47.0952177
  44.3196344  25.6470823  47.6426649  42.6713705  26.3375020  47.2414827
  42.6600313  24.2382264  47.6102591  41.8255854  24.1160131  46.9197083
  43.2453251  23.3328199  47.4497175  42.0072508  24.3927956  48.9959002
  41.3258886  25.2422166  49.0440273  41.3772821  23.5045433  49.0433359
  43.0850315  24.4242787  50.0184774  43.7180996  23.6441350  49.9150276
  43.6028814  25.2886510  50.0877237  42.6610708  24.2967391  50.9262705
  45.3865576  23.3619690  45.8375835  46.1179590  23.2833457  46.8210602
  44.8362494  22.2832012  45.3002644  44.2057896  22.4505901  44.5291567
  45.1981878  20.8890462  45.6138992  45.5099678  20.9021235  46.6582775
  43.9698362  19.9331248  45.6282949  43.4974098  19.8916471  44.6468687
  44.3943167  19.0290654  46.0648775  42.9062319  20.3422594  46.6336632
  41.6860914  20.7353354  46.1578751  41.4643002  20.8618593  45.1084900
  40.7047892  21.1353350  47.1239996  39.7200322  21.4725590  46.8360138
  40.9563637  21.0706782  48.4874868  40.0350094  21.5697408  49.4267702
  39.5315957  22.3169422  49.0953064  42.2356319  20.6262159  48.9257717
  42.4320459  20.6549025  49.9873734  43.2516766  20.2862859  48.0270767
  44.2371559  20.0372362  48.3920527  46.4103127  20.2235198  44.8748827
  46.9266510  19.1685057  45.2561426  46.9249439  20.9306836  43.8582277
  46.5351391  21.8140411  43.5618591  47.9405308  20.3562403  42.9924536
  47.5320148  19.3708146  42.7685165  48.1545591  21.1007142  41.6082811
  47.1849251  21.0811567  41.1107588  48.5187244  22.1174765  41.7555094
  49.0147877  20.5149508  40.6608915  49.0714121  21.0110664  39.8409748
  49.2821646  20.1524210  43.6973858  49.9918747  21.1561918  44.0339518
  49.7568560  18.8881159  43.8199902  49.1344929  18.1306005  43.5772371
  51.0658169  18.5860372  44.4651556  51.2154722  19.2447245  45.3206348
  50.9666681  17.1814537  45.1028061  51.9246960  16.8190944  45.4756117
  49.8811722  17.1899867  46.2259197  50.2203941  17.8974187  46.9826031
  48.8732767  17.5235868  45.9790134  49.9256134  16.2269294  46.7344904
  50.4665613  16.2333882  44.1915369  51.2731409  15.9640610  43.7460089
  52.2365332  18.6567056  43.4340763  53.0715322  17.7824795  43.4389496
  52.4311066  19.7540021  42.7167273  51.6398287  20.3696728  42.5945425
  53.6276531  20.2574539  42.0848179  54.4468117  19.7960687  42.6363659
  53.6879826  19.7885907  40.6235218  54.5344782  20.2445340  40.1100397
  53.9135504  18.2655323  40.3879404  53.0615044  17.6709068  40.7173967
  54.1323185  18.1297219  39.3287897  54.7827721  17.9338610  40.9558725
  52.4175692  20.1749206  39.9435353  52.6911306  20.4197264  39.0564990
  53.7255049  21.8089390  42.0150757  54.7433710  22.4058151  41.6866112
  52.6591063  22.5380135  42.3897600  51.8744421  21.9932389  42.7178192
  52.4161768  23.9525485  42.2367191  52.6801443  24.2090106  41.2107277
  50.8983850  24.1829729  42.4308300  50.1929188  23.5210013  41.9286251
  50.6875706  23.9798808  43.4807920  50.4664755  25.5435014  42.0550060
  50.1870060  26.4977527  42.9542637  50.2826548  26.3956499  44.0251637
  50.0216532  27.6451135  42.2082138  49.7195482  28.5151482  42.6227903
  49.9513435  27.4341702  40.8740997  49.5911169  28.2123804  39.7966003
  49.2134380  29.2160988  39.9243069  49.8228025  27.6948452  38.5084081
  49.6758127  28.3427453  37.6569247  50.2803087  26.3858247  38.3063149
  50.3249502  25.8196855  37.3876762  50.5101681  25.5403090  39.4612026
  50.7572937  24.4892406  39.4369745  50.3218699  26.0721755  40.7131052
  53.2175589  24.8587728  43.2168484  53.4161472  24.4440627  44.3834877
  53.7245464  26.0497713  42.7524042  53.7356186  26.0803843  41.7429256
  54.1829014  27.0933080  43.6116934  53.9092064  26.8718505  44.6432686
  55.7048130  27.0101619  43.5775375  56.0247898  26.0042644  43.8493633
  56.1661720  27.3744726  42.6596498  56.1394405  27.9041195  44.7832298
  55.7599115  28.9130378  44.6215343  55.7853556  27.6134133  45.7722759
  57.6240492  27.8850627  44.8141670  57.9731321  26.8913698  45.0949144
  58.0290318  28.2056522  43.8543177  58.1369686  28.8262463  45.9081507
  57.5650597  29.7528267  45.8584738  57.7993155  28.4939647  46.8898249
  59.6349812  29.0340018  45.9766817  59.8152018  29.8485446  46.5460157
  60.0732660  28.2371998  46.4161301  60.1072884  28.9871073  45.0851488
  53.6339998  28.4552097  43.1670570  53.8509893  28.7780118  42.0074511
  53.1717157  29.2393088  44.1237926  52.3055410  28.7759447  45.1898193
  52.8684616  28.5412478  46.0932207  51.9794416  27.7629113  44.9541855
  51.2263012  29.8272038  45.3794241  50.7790232  29.8618460  46.3728237
  50.3707790  29.5586300  44.7597075  51.8665314  31.1218357  44.9212646
  52.4962378  31.6085982  45.6660032  51.1326027  31.8437886  44.5631695
  52.7486849  30.6257081  43.7536526  52.1127605  30.5306053  42.8735065
  53.9892626  31.5133667  43.5795784  55.0985003  31.3652873  44.1705513
  53.7818909  32.6439548  42.9569054  52.9949093  32.6945829  42.3258781
  54.6460104  33.8438201  43.0934477  55.6200409  33.6101556  42.6635981
  54.0404987  34.9883175  42.2671986  53.8631153  34.6162343  41.2581444
  53.0431795  35.1599312  42.6721716  54.9280739  36.2943721  42.0588255
  55.3015614  36.6906691  43.0030489  56.2229967  36.0484743  41.2622976
  56.8905354  35.4253578  41.8574572  55.9992599  35.4827499  40.3578663
  56.7368269  36.9578218  40.9505749  54.1721344  37.4342966  41.4661503
  53.7626410  37.1201205  40.5060911  53.3605671  37.6182699  42.1701527
  54.8311377  38.2918596  41.3304996  54.7670317  34.3830013  44.4993114
  53.7767982  34.3847013  45.2130651  55.9866667  34.7650933  44.9114037
  56.7007971  34.4713879  44.2603588  56.3748121  35.5517602  46.1135769
  56.7459249  34.8313308  46.8425179  57.5437117  36.4199638  45.6534100
  58.3643532  35.7738042  45.3417730  57.0423794  36.9369721  44.8351908
  58.0883980  37.3945689  46.7284966  57.8307438  37.3717141  47.8935575
  58.8422441  38.3934236  46.3235092  59.0821600  39.0508175  47.0517778
  59.1892815  38.4832883  45.3792715  55.2421236  36.2868261  46.7866611
  54.6551752  37.1310043  46.1529684  54.8876715  36.0696530  48.0849743
  55.3961277  35.0751424  48.9721298  56.4804888  35.1840401  48.9922905
  55.1119471  34.1459417  48.4782362  54.8003721  35.3857493  50.3638935
  55.2423859  36.2516594  50.8567715  54.7508907  34.4852424  50.9760618
  53.3813620  35.7602763  49.9528551  52.8567982  36.3697147  50.6887388
  52.7033329  34.9515104  49.6803045  53.6990213  36.6958833  48.7654209
  52.8962708  36.7466283  48.0298090  53.9423275  38.1829524  49.2032814
  52.9586172  38.8480186  49.5170069  55.1981258  38.6202908  49.2193985
  55.9295940  37.9520750  49.0230799  55.6262779  40.0501204  49.3897295
  54.9202347  40.5941296  50.0171518  57.0046902  40.0943899  50.0176716
  57.6775980  39.4309711  49.4743824  57.3383713  41.1283255  49.9297285
  56.9971228  39.7376776  51.4595175  56.8140316  40.6013250  52.2849321
  57.2009563  38.4900641  51.8316221  56.9898605  38.2911921  52.7990913
  57.6300716  37.8332949  51.1955309  55.6691885  40.8251524  48.0521584
  56.0459661  41.9866180  48.0690050  55.3098249  40.2046537  46.8382740
  54.9214220  39.2766666  46.7483616  55.5064631  40.9294128  45.6102276
  56.5726852  41.1558294  45.6122112  55.0711823  40.0076437  44.4778395
  55.8226728  39.2186189  44.5062923  54.0956068  39.5512748  44.6454191
  55.1340914  40.8595037  43.2965708  56.0559464  41.1165190  43.2209492
  54.7437143  42.2591448  45.6021786  53.5574818  42.2404480  45.8736610
  55.3426456  43.3674335  45.1536560  56.3258076  43.3279467  44.9257660
  54.6564388  44.6496010  44.9365711  54.2669487  44.9239445  45.9169531
  55.6908178  45.6753111  44.4450903  55.1629210  46.6208029  44.3207026
  56.5076303  45.8512306  45.1450777  56.2597847  45.3273869  43.0853796
  57.3146677  44.4927454  42.8310680  57.8960896  44.0508366  43.6267233
  57.5513268  44.4529104  41.5017653  58.4027815  44.0215015  41.1715937
  56.7901230  45.3363085  40.7384825  56.7643309  45.6484461  39.3715358
  57.3864412  45.2899027  38.5647964  55.7784796  46.4481354  38.9523482
  55.5950451  46.6720438  37.9118586  54.8841906  47.0772839  39.8958397
  54.1952229  47.8116179  39.5053458  54.9054718  46.7834187  41.2790155
  54.2213917  47.2363043  41.9813871  55.8905983  45.8606339  41.7374325
  53.4986019  44.5179033  43.9919281  52.5925922  45.3418398  44.1655350
  53.4078789  43.5724068  43.0633116  54.2270327  42.9849005  43.0006123
  52.3596668  43.3215570  42.0826578  52.2748709  44.1824293  41.4194727
  52.6385689  42.0819092  41.1863995  52.7588558  41.2494850  41.8797207
  51.8695021  41.9051552  40.4344702  53.9477110  42.1998739  40.4445171
  54.7497988  42.1759653  41.1822081  53.9860392  40.9485340  39.5445251
  54.1455841  40.0646400  40.1620817  53.0662632  40.9954405  38.9615083
  54.9206781  41.0524511  38.9933801  53.9454365  43.5145473  39.5809484
  54.9527216  43.5754681  39.1689229  53.1927729  43.5534096  38.7934875
  53.8327646  44.3804884  40.2332878  50.9870052  43.2734299  42.7599430
  50.1540518  43.9961576  42.3489475  50.7517767  42.3839712  43.7399960
  51.5978098  42.0330858  44.1656828  49.5616102  42.3032713  44.6222973
  48.7098789  42.0377207  43.9960909  49.7323608  41.1243677  45.6678391
  50.6451797  41.3560534  46.2166405  48.8682890  41.1149883  46.3322163
  49.9263048  39.6979308  45.1238871  48.9391565  39.1169167  44.2720175
  48.1172800  39.7958374  44.0988636  49.0092134  37.7883554  43.9327097
  48.3415747  37.2946715  43.2421017  50.2063942  37.0662594  44.1751242
  50.2725697  35.7553554  43.8161659  49.7616291  35.5274343  43.0360413
  51.2220907  37.5778723  45.0571918  52.0724344  36.9345832  45.2289629
  51.0437822  38.9052486  45.5416393  51.7598772  39.3852711  46.1921692
  49.2636061  43.5859966  45.3840637  48.1506014  44.1373301  45.3422880
  50.2964544  44.1615295  45.9546709  51.2277412  43.8473749  45.7220507
  50.2382088  45.4537630  46.6352367  49.3052959  45.4107332  47.1973085
  51.4432096  45.5552816  47.5160742  52.3157883  45.4245281  46.8760633
  51.4380217  46.5691519  47.9162550  51.2828636  44.6470118  48.6975527
  50.5462551  44.9338579  49.8880434  50.5674458  43.7801981  50.5347919
  50.1477766  43.6542892  51.5219212  51.3118362  42.8738403  49.8306131
  51.5311480  41.9736481  50.2326965  51.7387247  43.3684826  48.6560583
  52.1992874  42.8180170  47.8490448  49.8893404  46.6713333  45.7499647
  49.2656565  47.6375341  46.1945724  50.2060127  46.6074038  44.4588757
  50.8921814  45.9202051  44.1813278  49.7548914  47.5254154  43.4310436
  49.6206617  48.5392857  43.8080788  50.8329058  47.6917648  42.2979069
  50.6583261  48.6037731  41.7270613  51.8452501  47.7101612  42.7015400
  50.7157946  46.8483591  41.6174269  48.3810186  47.1676683  42.9190350
  47.7969599  48.0614042  42.3194695  47.9346132  45.9491062  43.1625223
  48.4547472  45.3362083  43.7740088  46.8251419  45.2790737  42.4322987
  46.8685865  44.2638588  42.8266954  45.4218197  45.8449745  42.7497673
  45.5365849  46.9241095  42.6478100  44.6499586  45.5464506  42.0403862
  44.8695183  45.4986191  44.1819715  45.7434607  45.7051039  44.7997808
  44.1135883  46.2441587  44.4286299  44.5260143  43.9886379  44.3476295
  44.0934849  43.7323427  43.3805037  45.4079390  43.3978415  44.5951605
  43.4001970  43.5915804  45.4374552  42.6139879  44.3258953  45.2620745
  42.9956484  42.6031780  45.2194786  43.8975763  43.5942173  46.8023682
  43.1045675  43.4188652  47.4027824  44.4763279  42.8044415  47.0501709
  44.3155289  44.4516611  47.1343374  47.0664263  45.0000048  40.9114027
  46.1227751  44.9693346  40.0950241  48.3115911  44.9244642  40.4601002
  49.0591717  44.9301147  41.1392117  48.6934423  44.2870188  39.2665005
  48.0389452  44.5743513  38.4435940  50.0687695  44.7459936  38.8056231
  50.8531141  44.4085217  39.4831300  50.3237295  44.2954397  37.8464079
  50.2270174  46.2599421  38.6591768  49.7599602  46.8791103  39.4250655
  51.7229748  46.5476370  38.5830998  52.3200941  45.7860661  39.0846682
  52.1132183  46.4841366  37.5673342  51.8855619  47.5677824  38.9309072
  49.5755959  46.9317627  37.4377656  49.7268677  46.2638044  36.5897989
  48.4977198  47.0535326  37.5447965  50.0048351  47.9327250  37.3938298
  48.5295725  42.7133799  39.2544007  48.7256145  42.0426035  38.2244658
  48.1244183  42.0834780  40.3520346  48.2493830  42.5590944  41.2342310
  47.4059916  40.8316231  40.3869057  46.9839144  40.7144356  39.3887949
  48.3156872  39.7552228  40.9142733  48.7199259  40.0681400  41.8769646
  47.7247953  38.8456631  41.0222006  49.5827246  39.5128703  40.0995779
  50.0948477  40.4590893  39.9249315  50.5916023  38.5823154  40.8502865
  50.2081442  37.5626683  40.8873653  51.5894556  38.5220265  40.4158306
  50.7095385  39.0811515  41.8122387  49.3600273  38.9301491  38.7806082
  48.8257122  39.6128297  38.1198835  50.3243876  38.6996603  38.3278537
  48.7715101  38.0128336  38.7637568  46.3132095  41.0259533  41.5077972
  46.5690899  41.5422535  42.6183844  45.0549412  40.7998753  41.1237669
  44.9040222  40.1961613  40.3282452  43.8243294  41.1494732  41.7775917
  43.9515352  41.5727425  42.7739668  43.0058050  42.2243452  40.9952164
  43.6233902  43.0725098  40.6997490  42.5776911  41.7254400  40.1257801
  41.7800188  42.8780842  41.6766071  41.1235237  43.6749935  40.9861994
  41.4090061  42.5112486  42.8432798  42.9733419  39.8878455  41.9915104
  42.5016499  39.3765020  40.9902620  42.8264952  39.4117284  43.2597160
  43.6632252  39.7202086  44.4072771  43.0923271  40.3140783  45.1210690
  44.5860815  40.2680302  44.2166519  43.9472818  38.4130979  45.0893593
  43.9997816  38.4934163  46.1751270  44.8794889  37.9380965  44.7836447
  42.7516842  37.5646424  44.7300434  42.0650816  37.4886680  45.5732012
  43.1130791  36.5649581  44.4889450  42.1215677  38.1238747  43.4546232
  42.2247934  37.4396610  42.6124239  40.6137085  38.3011699  43.6442089
  39.9180079  37.2777939  43.7921429  40.0613117  39.4436908  43.4169197
  40.6571770  40.1940870  43.0976248  38.5894442  39.7275472  43.4782696
  38.1659126  39.2198610  44.3448591  38.3307695  41.2681150  43.5772800
  37.2445178  41.3195038  43.6515427  38.9212203  41.6203737  44.4230843
  38.8081932  41.9267988  42.4144459  39.6967793  42.2295094  42.6154137
  37.7588272  39.1925311  42.3385620  36.5673137  39.4472909  42.2577667
  38.3779526  38.3634067  41.5687609  39.3782377  38.2679605  41.6708422
  37.6477766  37.5255489  40.6189871  36.6027904  37.4859667  40.9264517
  37.6973224  38.0744100  39.1962624  37.1014738  38.9846635  39.1291475
  39.0472627  38.3455658  38.5975242  38.8309073  38.8868642  37.6764989
  39.6197367  39.0338755  39.2193031  39.6356511  37.4480963  38.4066153
  37.1962333  37.0271015  38.4175801  36.4924192  37.3407722  37.8449941
  38.3190084  36.1698389  40.7379913  39.5684862  36.0940671  40.8491755
  37.4636984  35.1181579  40.6167746  36.0132003  35.0976706  40.7127571
  35.6251097  35.5184364  39.7851539  35.5762768  35.6579494  41.5393639
  35.6217909  33.6280322  40.7090425  34.6530128  33.4520292  40.2415037
  35.7200789  33.2383847  41.7222643  36.7707324  32.9316783  39.9379611
  36.5174460  33.0494738  38.8843608  36.9323230  31.8913507  40.2202845
  37.9537845  33.7473154  40.3054810  38.4526825  33.3009458  41.1656904
  38.9388323  33.7352657  39.1786456  39.9085116  32.9440641  39.2355800
  38.8787413  34.6294332  38.1775331  38.1535006  35.3318739  38.2041240
  39.6713328  34.5585489  36.9617534  39.5604873  33.5786676  36.4973712
  39.0733314  35.6009793  36.0074210  38.8878345  36.4833093  36.6199446
  39.9520445  35.9731960  34.8219657  40.8554983  36.5006852  35.1279473
  40.2593517  35.0395322  34.3508601  39.3600512  36.5789461  34.1358781
  37.7769923  35.0426435  35.4861975  37.1615815  35.0917053  36.3845062
  37.3798132  35.8182001  34.8313236  37.9133654  34.0386200  35.0843978
  41.1608505  34.8413229  37.3049545  42.0159054  34.5237470  36.4839482
  41.5335417  35.4429531  38.4799814  40.7548189  35.7035398  39.0680170
  42.9213524  35.7983994  38.9365220  43.1510830  36.6971064  38.3641148
  42.9048443  36.0545993  40.4763031  42.4592400  37.0287299  40.6778097
  42.3070192  35.3013849  40.9894991  44.2664433  36.1305285  41.2564850
  44.5144701  35.4457521  42.4639130  45.8484364  35.6061530  42.6837587
  46.3656044  35.0987267  43.4846687  46.3917542  36.3797164  41.7095137
  47.3777151  36.2528396  41.5309572  45.3488255  36.7994046  40.8676910
  45.5214119  37.3304582  39.9432397  44.0342712  34.7284126  38.6507845
  45.0858450  35.1495409  38.1902909  43.7697029  33.3823156  38.7768245
  42.8309917  33.1137586  39.0352821  44.6772575  32.2583413  38.3966136
  45.6539631  32.4465466  38.8424134  44.0842342  30.9405947  38.9113641
  43.7758446  31.0592651  39.9500751  42.7866793  30.5381775  38.1613350
  43.0227232  30.2528644  37.1361613  42.5090551  29.6245909  38.6870623
  42.0522070  31.3254094  38.3314109  45.1434183  29.8104930  38.9522243
  44.6269941  28.9269948  39.3275070  45.5631638  29.6296024  37.9626775
  46.2522840  29.9777150  40.0261736  45.7762098  30.4131603  40.9047222
  46.8983221  29.1061401  40.1315260  46.7878246  30.7582450  39.4857359
  44.9619770  32.1539950  36.9429088  46.0354137  31.7549825  36.5944052
  44.0239477  32.6315451  36.1284614  43.1985569  33.0295515  36.5532231
  44.2327118  32.7576423  34.6874380  44.6170998  31.8108749  34.3079925
  42.9353285  32.9119253  33.9436793  42.4577236  33.8212442  34.3085504
  43.2199430  32.9490471  32.8921461  41.7615747  31.8994045  34.2791629
  41.4311314  32.0205140  35.3107834  40.5327463  32.1857405  33.4239697
  40.7650661  32.0175552  32.3723769  39.6772146  31.5388894  33.6182714
  40.3215742  33.2308578  33.6503220  42.2161865  30.4268074  34.1391826
  43.0591536  30.4190540  34.8301625  41.4059019  29.7425008  34.3907118
  42.4843502  30.1970911  33.1079602  45.0985622  33.8767028  34.3294787
  45.9155560  33.6475348  33.4444833  45.0618601  35.0328803  35.0023389
  44.2761803  35.2240157  35.6075501  46.0837841  36.0125136  34.9375510
  46.1251116  36.3701534  33.9087224  45.7860994  37.2377729  35.8814287
  44.7039127  37.3545671  35.8237314  45.8533335  37.0051527  36.9441938
  46.5776157  38.4974480  35.6391788  47.5428677  38.3981895  36.1357045
  46.7397451  38.6151361  34.5677471  45.8057976  39.6532035  36.2659740
  44.8298788  39.7751546  35.7960701  45.6300879  39.3614435  37.3014021
  46.4793491  40.9228563  36.2035108  47.3016167  40.8401442  35.6228733
  46.0192537  42.1212101  36.5582633  45.0178337  42.2711277  37.4165988
  44.6183062  41.5363884  37.9828453  44.6044827  43.1925249  37.4328637
  46.6387749  43.1739330  36.0596895  47.3565054  42.9610682  35.3817153
  46.2033176  44.0818262  36.1384821  47.5585461  35.4211211  35.2991056
  48.4111547  35.3885746  34.4593120  47.7588320  34.8780298  36.5305686
  46.9763994  34.8062634  37.1651936  49.0025330  34.2232656  36.9179726
  49.6928024  35.0534272  37.0678449  48.8640642  33.6028647  38.3211946
  48.0174541  32.9236746  38.4214926  49.7419167  32.9722142  38.4617925
  49.0073442  34.5723391  39.4848084  49.9682379  35.0402164  39.2706203
  48.1905508  35.2924323  39.4356728  49.0558004  33.9647722  40.9251595
  49.2703104  32.7764916  41.0757589  48.8567877  34.7948956  41.8626213
  49.6457672  33.3045053  35.8500028  50.8539677  33.3010864  35.5461216
  48.8925076  32.3063731  35.3802133  48.0545425  32.0241642  35.8683419
  49.3344784  31.3967419  34.3906736  50.2206373  30.8801222  34.7593522
  48.3361769  30.2416134  34.0888214  47.3658705  30.7239723  33.9707470
  48.5932159  29.4088054  32.8515601  48.0979395  29.8771524  32.0009995
  49.6299887  29.2166209  32.5753856  48.1435919  28.4232974  32.9728556
  48.1709433  29.3279123  35.3953004  48.9611530  28.5772800  35.3805828
  48.2995701  29.9827337  36.2571383  46.8347740  28.6251450  35.4101706
  46.9544029  27.8007650  36.1131573  46.0488796  29.3500781  35.6221747
  46.6314030  28.1621528  34.4445729  49.7966337  32.1395969  33.1023741
  50.9718323  32.0815396  32.6699090  48.9328623  32.9804564  32.5263429
  48.0414486  33.1360102  32.9749966  49.2002773  33.6858082  31.2977791
  49.4315720  33.0216265  30.4650307  48.3242083  34.2849159  31.0494328
  50.4591417  34.6001124  31.3174415  51.2297487  34.7419596  30.3664994
  50.7389545  35.1133180  32.5164747  50.1811266  34.7721601  33.2862425
  51.9232655  35.9177041  32.7502036  52.2095728  36.3235116  31.7799187
  51.6314793  36.9889903  33.8424945  51.2295532  36.3998628  34.6668053
  52.5560427  37.4588656  34.1779017  50.6409597  38.1574345  33.6148357
  49.7693014  37.7390957  33.1115460  50.1543045  38.7346601  34.9257064
  50.0605059  37.9285264  35.6533384  50.8524084  39.4788885  35.3089643
  49.1744471  39.1824675  34.7600508  51.2275219  39.3371773  32.9465580
  50.5312777  40.1735735  33.0080080  52.1962118  39.6484184  33.3375549
  51.3836670  39.1780901  31.8795967  53.1808996  35.1047158  33.2147741
  54.2751551  35.6641650  33.4192371  53.0337524  33.7964749  33.3664083
  52.1221590  33.4356284  33.1237411  53.9396477  32.7008271  33.7845516
  53.3279085  31.8122363  33.6287379  55.1149416  32.4870539  32.8835368
  55.8268785  33.3105636  32.9390144  55.6839800  31.6328764  33.2505393
  54.7233057  32.2628689  31.4079833  54.2135525  31.3026261  31.3292718
  54.0376234  33.0492210  31.0924029  55.8782673  32.2541404  30.4264641
  56.3451529  33.2390690  30.4323626  56.5428495  31.5208006  30.8832359
  55.4902697  31.8262386  29.1080976  54.6067905  31.3428307  29.0313673
  56.2391043  32.0739174  28.0011249  57.3656750  32.7147079  27.9049706
  57.7098131  33.1809545  28.7321854  57.7813673  32.7753115  26.9864798
  55.7943439  31.6073346  26.8770456  54.8019886  31.4276075  26.8220472
  56.1874151  31.9211292  26.0011864  54.3607759  32.6546431  35.2907610
  55.3888416  32.0145559  35.6046510  53.6947203  33.3131218  36.1968303
  52.9430246  33.9283562  35.9201622  54.2479992  33.6576724  37.4538016
  55.3206825  33.8258958  37.3581147  53.5607290  34.9657178  37.9020667
  52.5663328  34.7526979  38.2943749  54.0298748  35.3776574  38.7955475
  53.5169411  36.1054254  36.8809223  53.0333376  35.7539988  35.9694767
  52.7303171  37.2861505  37.3476148  52.5925541  38.0176187  36.5513253
  51.7706537  37.0208311  37.7911878  53.2899284  37.7541327  38.1575084
  54.9847603  36.5103817  36.6099763  55.3925562  35.7709312  35.9207654
  55.0098133  37.4698925  36.0934329  55.6037569  36.4726329  37.5063658
  54.1157722  32.6422644  38.5852981  54.8005676  32.8615260  39.6124601
  53.3675623  31.5959287  38.3295059  52.7797031  31.5581298  37.5090861
  53.1375504  30.5264401  39.2793489  54.0587664  30.4039049  39.8489499
  51.8773031  30.8619738  40.1030827  51.0941124  30.9856629  39.3551421
  51.6529322  30.0181413  40.7555437  51.9271803  32.0003939  40.8976603
  51.0305643  32.3385191  40.9555817  52.9621506  29.2140532  38.5973835
  52.4274826  29.1291237  37.5309443  53.6115074  28.2363343  39.1674900
  54.0531349  28.3932209  40.0621700  53.9509583  27.0100832  38.3646512
  53.1835604  26.9302607  37.5946975  55.2632332  27.3071218  37.6240349
  55.5163813  26.4178610  37.0467734  55.0737858  28.1466293  36.9551277
  56.4460468  27.6065373  38.4434295  56.8116903  28.8630843  38.9278078
  57.8263569  28.6832857  39.7291851  58.3904076  29.5041037  40.1469278
  58.2882786  27.3861146  39.7115469  58.9767742  27.1173811  40.3999233
  57.4015141  26.7208838  38.9306998  57.4556875  25.6504393  38.7979722
  53.9868259  25.6324673  39.0225148  54.4121981  25.4985523  40.1664877
  53.7417364  24.5719028  38.2233381  53.3887768  24.8390770  37.3155141
  54.1536760  23.2033539  38.4435391  53.7946177  22.9276848  39.4350982
  53.2918310  22.3539090  37.4087429  53.4789467  22.8603172  36.4618325
  52.2249651  22.4542117  37.6083422  53.9370966  20.6876755  37.2905827
  55.6347895  22.9716945  38.3852720  56.3800097  23.4420776  37.5258088
  56.1233521  22.0970082  39.3121648  55.4537201  21.8732357  40.0343943
  57.5819921  21.7989278  39.5050073  58.2345438  22.6692629  39.5742416
  57.8256798  21.0315418  40.8624935  58.8877726  21.0150123  41.1070156
  57.3021173  21.6480231  41.5932083  57.2250748  19.7229934  40.9219933
  57.8479862  19.0584326  40.6187773  58.1714535  20.9491611  38.4269714
  59.4194078  20.8598876  38.3396745  57.4246407  20.1503801  37.6877689
  56.4327335  20.0861835  37.8669381  57.8799963  19.3960631  36.5476274
  58.8620186  19.0101373  36.8211293  56.8864489  18.2395875  36.2820029
  56.5681648  17.8880274  37.2634315  56.0638905  18.6515832  35.6974030
  57.3741817  17.0573127  35.5439138  58.6299229  16.4203441  35.6622791
  58.8285398  15.6226408  34.5385122  59.7401619  15.0708449  34.3628216
  57.6822233  15.7752597  33.7975860  57.6786900  15.3972626  32.8609943
  56.8041229  16.6214573  34.3670869  55.8954382  16.9586420  33.8906455
  58.0959129  20.2678537  35.2998161  58.9744806  19.9636042  34.4640326
  57.3347473  21.3667679  35.0687480  56.5672874  21.5914416  35.6857014
  57.1205330  22.1591973  33.8293481  57.8697634  21.8409681  33.1044388
  55.7329082  21.8315363  33.3013105  55.7326698  22.2142363  32.2807026
  55.0258875  22.3186326  33.9728451  55.1369238  20.0814366  33.2142115
  57.3500824  23.6624670  34.0818024  56.5404558  24.5753646  33.8488269
  58.4765577  23.8531232  34.7570395  58.9554548  23.0859470  35.2067065
  58.9144993  25.1781082  35.2888536  58.1367302  25.5816269  35.9371924
  60.2327394  25.0546980  36.1499524  61.0513115  24.4899154  35.7037854
  60.8114386  26.4405632  36.4951587  61.6980696  26.3250804  37.1185732
  60.9994221  27.0346045  35.6008005  60.0515079  26.9755936  37.0646834
  59.7639322  24.3013644  37.3839593  59.5987749  24.9643111  38.2332706
  58.8414812  23.7290335  37.2858620  60.4974842  23.5805106  37.7450275
  59.0876245  26.1915636  34.0783453  59.8881721  25.9613109  33.1800532
  58.2316017  27.2485828  34.0332007  57.0841837  27.5774503  34.8447895
  57.2747421  27.4575925  35.9112906  56.2525177  26.9263911  34.5754266
  56.7407274  29.0380979  34.5135546  57.2972775  29.7669029  35.1027894
  55.6815863  29.2196345  34.6962047  57.1776676  29.1040897  33.0321598
  57.3726463  30.1222849  32.6954675  56.4928961  28.5238004  32.4137378
  58.4335184  28.2934165  33.0149293  58.4427595  27.7448320  32.0730805
  59.7273827  29.1539192  33.2932115  59.9332476  29.7012591  34.3603277
  60.5121040  29.3543029  32.2032928  60.3151369  28.8368869  31.3585520
  61.6235590  30.3596044  32.1332932  62.3090744  30.1213646  32.9465628
  62.2372437  30.0920916  30.7700682  62.3722267  29.0107894  30.7958484
  61.6007996  30.2701712  29.9032807  63.5065889  30.9747648  30.6754827
  63.1864071  32.0166206  30.6645274  64.1666698  30.7950616  31.5240693
  64.2612648  30.7141018  29.3642712  64.4116402  29.6439075  29.2222357
  63.6503506  31.1842442  28.5936570  65.6501389  31.2626886  29.3555236
  66.1967039  30.9537196  30.2465367  66.1100245  30.8855462  28.4420848
  65.7512426  32.7296972  29.3914366  65.1873207  33.0479932  30.1665401
  66.7239428  32.9908919  29.4671679  65.3596258  33.1650519  28.5685158
  61.0936069  31.7550468  32.3102760  60.3146601  32.2384763  31.5225387
  61.6588926  32.3974299  33.3296299  62.4679899  31.9848657  33.7715054
  61.1227036  33.6580849  33.8858104  60.9828806  34.3330312  33.0414128
  59.8198557  33.4186649  34.7132993  59.1953945  32.8188467  34.0512061
  60.0501394  32.8527331  35.6159568  59.1396952  34.7364259  35.1135325
  59.8685932  35.5116534  35.3498149  58.2636404  35.3541064  33.9827251
  57.8584480  36.2751007  34.4018888  58.9788485  35.5664039  33.1880498
  57.3844194  34.7841287  33.6824036  58.2826376  34.6603084  36.3715529
  58.1440830  35.6706834  36.7563176  57.2894478  34.2523742  36.1837459
  58.8596535  34.1205144  37.1224046  62.2464943  34.3556142  34.6982384
  62.4589396  34.1583920  35.9003139  62.7926302  35.3196883  34.0461302
  62.6073933  35.2539396  33.0554390  63.6904240  36.3275218  34.5672727
  64.6398497  35.8949995  34.8829007  63.9711714  37.3627114  33.4353518
  64.7495461  38.0399942  33.7868071  64.3544388  36.8100834  32.5775599
  62.8488731  38.2225680  32.8412390  62.4229288  38.8129830  33.6524606
  63.2004213  39.0370226  32.2078538  61.6901922  37.5117326  32.1436334
  61.8952703  36.4997268  31.4080667  60.5998611  38.0617332  32.2553086
  62.9792309  37.0130992  35.7486320  61.8044329  37.2853947  35.7567048
  63.8433838  37.4819732  36.7482305  65.2633333  37.5750232  36.7408657
  65.6761503  38.0497670  35.8507514  65.8304310  36.6441798  36.7357135
  65.6087828  38.4781790  37.9783416  65.5467987  39.4783950  37.5495934
  66.5372181  38.1492782  38.4451699  64.4689035  38.1202841  38.9268112
  64.4134092  38.9262652  39.6585345  64.8269987  37.1826839  39.3519855
  63.3328724  37.9598737  37.9999661  62.6811552  37.2265172  38.4748936
  62.5460911  39.3159842  37.8701854  62.8734064  40.3165054  37.2135043
  61.4479971  39.4347167  38.6387300  61.2269306  38.6025906  39.1667390
  60.7389927  40.6841707  38.9492154  60.7840014  41.3890314  38.1190014
  59.2617750  40.3246784  39.1738701  59.1569376  39.5551586  39.9386907
  58.4314489  41.5203238  39.6765852  58.5018301  42.2862673  38.9042568
  57.3898649  41.2130880  39.7704625  58.8735199  41.7574167  40.6442928
  58.6436653  39.9033546  37.8531122  58.2640266  40.7395697  37.2659779
  59.3987799  39.3167782  37.3298216  57.5132227  38.8503981  37.9496169
  57.1309376  38.4461665  37.0123053  57.9027843  37.9713464  38.4630466
  56.6981030  39.3274856  38.4937406  61.4312315  41.4206791  40.1445484
  61.6576004  40.7879257  41.1862612  61.5749884  42.7234125  40.0980616
  61.4170742  43.5501719  38.8986897  60.4090118  43.4489775  38.4965944
  62.1065760  43.0875349  38.1925344  61.6879892  45.0307226  39.2061138
  60.9160376  45.7178736  38.8596940  62.7008057  45.3027916  38.9089918
  61.5639162  45.0744581  40.7745266  60.5253029  45.3638458  40.9346581
  62.3053741  45.7612371  41.1827898  61.8692636  43.6009884  41.2911749
  62.9108143  43.5084295  41.5989065  61.0022306  43.3778572  42.5079632
  59.8440933  42.9019880  42.3930359  61.4902925  43.7542725  43.6959791
  62.3488808  44.2823982  43.6325979  60.7765865  43.7375593  44.9873161
  60.1508617  42.8453302  45.0097084  61.6882658  43.7434816  46.1487293
  62.1008778  44.7487736  46.0637140  61.1753178  43.7755728  47.1099615
  62.9167938  42.8112364  46.0697889  63.5622692  43.1672144  45.2668285
  63.4001350  42.9433918  47.0377827  62.6261806  41.3129044  45.7995892
  63.1176186  40.8432913  44.7550821  62.1097231  40.5564737  46.6518307
  59.8193836  44.8857784  45.1818323  58.8753939  44.7831249  45.9462595
  60.0892162  45.9884739  44.5003748  60.9983015  46.0835648  44.0706968
  59.3455553  47.2363472  44.4759798  58.2888031  46.9743109  44.4238758
  59.6879244  48.1165791  45.7649851  59.8768330  47.5791693  46.6942883
  60.5689144  48.7018394  45.5014944  58.7097073  49.1483784  46.2445974
  58.8673353  50.4222488  45.9187603  59.6056604  50.9363747  45.3213024
  57.8444195  51.1427736  46.5470743  57.8622389  52.1485472  46.6376734
  56.9921637  50.3067970  47.2870302  55.9146595  50.5003357  48.0786991
  55.5895185  51.5270805  48.1591702  55.3153181  49.4413996  48.7608051
  54.3311834  49.5327950  49.1961527  55.7859135  48.1423569  48.5839701
  55.2318478  47.3669577  49.0920734  57.0237303  47.9584503  47.9315901
  57.3796272  46.9415474  47.8563929  57.5848198  48.9954948  47.1925163
  59.6465158  48.0624771  43.1464958  60.7930946  47.9646778  42.7314472
  58.6970282  48.6998892  42.4044704  57.3818636  49.0947914  42.9300404
  57.4429035  49.4694424  43.9518070  56.7433071  48.2272482  43.0965185
  56.7740488  50.0151062  41.8055820  56.9700241  51.0377121  42.1280336
  55.7000828  49.8451662  41.7293167  57.6067162  49.6385288  40.5148220
  57.5517702  50.5118608  39.8649216  57.1032000  48.7666845  40.0971365
  58.9767933  49.2240953  41.0238218  59.4189548  48.4248495  40.4290056
  59.9242163  50.4402304  41.2095881  60.1292849  50.9435987  42.3371077
  60.6085634  50.9611797  40.1494169  60.4436922  50.4768229  38.7897730
  59.4684029  50.7243347  38.3706665  60.5940390  49.4017458  38.6912441
  61.4186239  51.1441851  37.8571916  60.8595037  51.5436506  37.0110750
  62.2233820  50.4733658  37.5564170  62.0146751  52.2828197  38.7537432
  61.3849545  53.1323385  38.4894085  63.0533314  52.5731850  38.5956883
  61.7017174  51.7901611  40.1868486  62.5178099  51.1513186  40.5244684
  61.5334225  53.0097294  41.0875845  60.6137609  53.8301420  40.8237267
  62.3679638  53.1984949  42.0974874  62.9943085  52.4147940  42.2141695
  62.1745110  54.1748810  43.2024050  61.1510229  54.1028595  43.5703421
  63.1582260  53.8938951  44.3953276  64.1624546  53.8282347  43.9766312
  63.3715916  54.7819519  44.9902439  62.6796293  52.5976133  45.1520109
  62.3650694  51.8496466  44.4242096  63.7494469  52.1507835  46.1005592
  64.5531940  51.6696310  45.5432606  64.2171860  52.9955387  46.6062355
  63.3155441  51.4464188  46.8102741  61.4243793  52.9252529  45.9506512
  61.1954212  52.0734930  46.5911055  61.6748619  53.7734413  46.5877867
  60.6226206  53.0690813  45.2263546  62.4486732  55.6302309  42.8060150
  63.3206177  55.9920454  42.0373821  61.5864992  56.5380907  43.3150101
  60.8669567  56.1587524  43.9137268  61.4828062  57.9985619  43.0490589
  60.7785606  58.5269642  43.6916542  62.8197670  58.7821531  43.2833624
  62.5994062  59.8305082  43.0821371  63.1735182  58.6823225  44.3095207
  63.5105944  58.5722017  42.4667978  60.9372520  58.2845259  41.6771364
  60.3637457  59.3556499  41.5358353  61.0608006  57.4647665  40.6699181
  61.6435051  56.6540861  40.8227348  60.1495266  57.3553896  39.5494008
  60.0028706  58.3839035  39.2196226  60.8167839  56.4760733  38.3990455
  61.8363714  56.8109655  38.2082820  60.7997751  55.4144382  38.6455059
  60.0097370  56.6162157  37.2870326  60.0151348  57.5686741  37.1670556
  58.7110376  56.9075203  39.9752975  57.7817392  57.7165604  39.9575520
  58.5355520  55.7553148  40.5790949  59.2960310  55.1097441  40.4209614
  57.2454023  55.2206802  41.0802698  56.5223026  55.1566362  40.2671719
  57.4179173  53.7915087  41.6051054  56.3966131  53.4768391  41.8196201
  57.8095627  53.1021023  40.8571482  58.3515024  53.6658621  43.1842947
  59.3727827  52.9285765  42.7389956  56.5465784  56.1600542  42.1275330
  55.3247452  56.1344528  42.2418642  57.3096895  56.8742895  42.9986048
  58.2960701  56.6755486  43.0861521  56.8361044  58.0231762  43.8748837
  57.6071501  58.7770271  44.0339470  56.0358000  58.5949898  43.4051418
  56.3279676  57.5965309  45.2491522  55.8386135  58.3917046  46.0221338
  56.5137911  56.2715244  45.5878162  56.8941164  55.6276751  44.9089098
  56.1787558  55.6485796  46.9073153  55.9588814  56.4513779  47.6110697
  54.8654509  54.8462296  46.7157507  54.1419935  55.5121088  46.2453079
  55.0038338  53.6358547  45.7468796  55.4013824  52.7756977  46.2855816
  53.9739084  53.3494282  45.5340052  55.5103111  53.7872505  44.7936440
  54.3702269  54.4560289  48.0950212  53.4662151  53.8707447  47.9267836
  55.0077963  53.6913681  48.5387611  54.0986347  55.2619314  48.7768316
  57.3618269  54.8169708  47.4711847  57.8322172  53.9586306  46.7332315
  57.8171968  55.1366615  48.6485529  57.3465300  56.1877871  49.5508528
  56.2652016  56.1592960  49.6850586  57.6356411  57.1605301  49.1529942
  58.0897379  56.0332775  50.8525467  57.5608778  55.2561760  51.4043856
  58.2167387  56.9681406  51.3984394  59.3653250  55.4233551  50.3599358
  59.9704552  54.9019527  51.1015940  59.9551010  56.1626244  49.8179626
  58.8890314  54.4347143  49.3375444  59.7008944  54.2425442  48.6360741
  58.3465767  53.0099440  49.7719812  57.1647596  52.8038836  49.9306250
  59.2350626  52.0859623  50.0942326  60.7169914  52.1619272  50.0172853
  61.0888529  52.4222279  51.0082769  61.0469723  52.8343344  49.2253971
  61.1498213  50.7130623  49.6065187  62.1820021  50.5335379  49.9073076
  60.9272289  50.5200052  48.5570955  60.0817347  49.8553371  50.2831411
  60.4146814  49.5901585  51.2865973  59.8072433  48.9624691  49.7214127
  58.7990475  50.6937504  50.2827930  58.1495047  50.3789473  49.4660378
  57.9562140  50.5883217  51.5833092  58.3871412  50.9051704  52.6262283
  56.8511057  49.9153519  51.4356375  56.4899588  49.8965120  50.4925966
  55.9531069  49.4175053  52.4910688  55.0198126  49.0205908  52.0916605
  56.6393566  48.2505083  53.1662178  57.6660681  48.4501934  53.4729719
  56.0403681  48.0941153  54.0633535  56.6576862  47.0232010  52.2940254
  55.4260826  46.2759066  52.0854568  54.5709848  46.5440464  52.6882076
  55.3165197  45.1472569  51.2634897  54.3850470  44.6095133  51.1654949
  56.5019417  44.5750380  50.7867193  56.5339851  43.6466980  50.2357578
  57.7240324  45.2118015  50.9771299  58.6680508  44.8172617  50.6313276
  57.8103209  46.4019442  51.7146254  58.7711430  46.8617725  51.8928909
  55.4697323  50.6454945  53.3404398  55.1323748  50.3502607  54.5287943
  55.5088806  51.8912220  52.8409004  55.7798767  51.9531965  51.8699121
  55.0783157  53.1388378  53.4774208  54.5125198  52.8205967  54.3530416
  56.3307047  53.8075876  54.0037251  56.9814157  53.9879608  53.1480742
  56.1580563  54.8104191  54.3943787  56.9503355  53.0125809  55.1326227
  56.1524105  52.6119852  55.7578707  57.5185299  52.1137667  54.8930788
  57.9977322  53.7968111  55.9555340  58.9868402  54.3712759  55.4522276
  57.7674818  53.9886808  57.2822857  58.3156490  54.6450996  57.8196192
  56.9012976  53.6437654  57.6706934  54.1690731  54.0089989  52.5891733
  54.4292688  54.0467072  51.3365459  53.1963778  54.7078180  53.1202650
  53.0572557  54.5842457  54.1129780  52.6637411  55.9373474  52.4742079
  52.2443771  55.6564522  51.5081072  51.4424467  56.5661573  53.2297468
  51.1774206  57.5399065  52.8178310  50.4503059  56.1716986  53.0102873
  51.6217947  56.8352079  54.7214413  51.5595913  55.8882332  55.2576065
  52.6107216  57.2884035  54.7902775  50.6102085  57.7913713  55.4001713
  49.5649815  57.4837399  55.3692007  50.9147310  57.8186035  56.4464188
  50.7627487  59.2721319  54.8437262  51.7965412  59.5007515  54.5846653
  50.1919317  59.3452978  53.9180326  50.2770472  60.2696514  55.7526064
  49.4620848  60.0889349  56.3211823  50.9722376  60.6653976  56.3692093
  49.9603891  61.0809469  55.2411127  53.8314581  57.0106983  52.3363829
  54.6703911  56.9888163  53.2246256  53.9014626  57.8836155  51.3184881
  53.0580950  57.8399944  50.1363373  52.0825720  58.3112526  50.2562380
  53.0511093  56.8063450  49.7904682  53.7916088  58.6276150  49.0727043
  53.0521536  59.0135574  48.3710289  54.4650459  57.9256535  48.5809422
  54.6516085  59.6646643  49.8104668  54.0270281  60.5361843  50.0065708
  55.5567026  59.9182320  49.2585421  54.8834896  58.8883209  51.1486912
  55.8213425  58.3763981  50.9331322  55.0281191  59.7831297  52.3460865
  53.9924574  60.1324892  52.8305864  56.2810850  60.0853968  52.6865387
  57.0581961  59.8097515  52.1032572  56.5002680  60.9900618  53.8662243
  55.5958939  61.3779259  54.3350267  57.4439812  60.2159500  54.8529720
  58.3887005  60.0269651  54.3431759  57.6570749  60.9507132  55.6293869
  56.7324209  58.9290524  55.5142736  56.4236069  58.2685328  54.7040558
  57.6271629  58.1258726  56.5684986  57.1959877  57.1704054  56.8672943
  58.6579561  58.0682659  56.2188625  57.6997662  58.7109137  57.4853182
  55.4123688  59.2312193  56.2481117  55.6439447  59.9407625  57.0424843
  54.7001648  59.6933508  55.5645132  54.9319029  58.3792400  56.7291403
  57.1574497  62.3349857  53.4300375  57.4120331  63.2054234  54.2740297
  57.3521328  62.5731611  52.1333075  57.4102163  61.8609858  51.4194918
  57.6798248  63.9147568  51.6430712  58.4384632  64.4162369  52.2439861
  58.1662703  63.7829447  50.1813984  58.8949919  62.9743385  50.1245356
  57.1876669  63.3996105  49.0656137  56.3277960  62.9209471  49.5342302
  56.7149973  64.3008089  48.6750603  57.5435972  62.7804136  48.2422018
  58.7704897  65.0511217  49.8049545  59.0675020  65.0089359  48.8930321
  56.3805246  64.7622919  51.7243814  55.3051758  64.3011475  52.1275854
  56.4420319  66.0631943  51.2605000  57.3444223  66.4760351  51.0724688
  55.2288198  66.8361902  50.9746313  54.7417116  66.9442511  51.9437265
  55.7090139  68.2356596  50.5347729  55.9381104  68.7503767  51.4678764
  56.6372442  68.1423235  49.9710512  54.7879219  69.0263939  49.8977757
  54.6266079  69.6963692  50.5661392  54.2178106  66.1598921  49.9447393
  54.6143293  65.5827379  48.9609814  52.8925562  66.4111662  50.1260471
  52.2682571  66.9554996  51.3577366  52.6291323  67.9698801  51.5277147
  52.4501371  66.4483023  52.3052454  50.8061934  67.0743275  51.0845757
  50.5532789  68.1225348  50.9252167  50.2623081  66.5521812  51.8717575
  50.5083227  66.2481928  49.8145866  49.8063803  66.6934776  49.1095352
  50.0740862  65.2757692  50.0468397  51.9067717  66.0496569  49.1672182
  52.1043682  65.0263739  48.8479280  52.1152496  66.9068289  47.8749084
  51.8357182  66.3939714  46.8027639  52.6071739  68.1313562  47.9855871
  52.7702379  68.4942055  48.9139462  53.0025530  68.9515591  46.9062471
  52.1667767  69.0817785  46.2187767  53.3611917  70.3550768  47.3670292
  52.5086212  70.8363390  47.8462124  54.1403008  70.3972912  48.1281519
  53.7484407  71.0697937  46.2538099  52.9855156  71.0298681  45.6724739
  54.2760706  68.4338140  46.1354160  54.2605162  68.3948708  44.8786020
  55.3291798  68.0685663  46.8525457  55.1657057  68.1556129  47.8454208
  56.6186714  67.5182772  46.3555288  57.0194578  68.1783915  45.5862951
  57.7724028  67.3092842  47.2787952  57.5444126  66.6983700  48.1522417
  58.4897232  66.5981293  46.8691397  58.5367870  68.5806084  47.6742697
  58.8905668  69.1000032  46.7836714  57.9078531  69.2535782  48.2570648
  59.7161007  68.2529879  48.6108398  60.3227997  69.1285515  48.8419294
  59.3636179  67.8797054  49.5723581  60.6650972  67.3259258  48.0042362
  61.0019064  67.6453686  47.1072340  61.4872837  66.5348768  48.6732960
  61.3833237  66.3921738  49.9275446  60.5381107  66.6497564  50.4168034
  62.0396423  65.8178949  50.4370022  62.4708939  65.9011650  48.1043768
  62.7091599  66.2338018  47.1809626  63.2196760  65.5618191  48.6911201
  56.3175106  66.1876869  45.5750370  56.9110298  66.0100889  44.4810867
  55.4831266  65.2952576  46.1324263  55.0004530  65.6773663  46.9331264
  54.8255587  64.1404915  45.5514908  55.5712128  63.3771276  45.3292704
  53.9060926  63.5914946  46.6276503  54.5022488  63.2645035  47.4795771
  53.2974052  64.4052553  47.0218515  52.9511499  62.3999548  46.3665962
  52.2255754  62.6348591  45.5878401  53.5745525  61.0424852  46.0869598
  52.8217316  60.2563810  46.0285902  54.0122032  61.1068392  45.0907516
  54.2861509  60.7216120  46.8477249  52.0932007  62.3096561  47.6750803
  52.6411629  62.2302008  48.6139774  51.4861488  63.2121038  47.7471018
  51.4627075  61.4211750  47.6407242  54.1711855  64.5065975  44.2156267
  54.3897676  63.7846565  43.3065367  53.2499790  65.4688978  44.2028379
  53.0310917  66.0239220  45.0177813  52.5403690  65.9971619  42.9981184
  51.9708300  65.2528763  42.4415445  51.4119101  66.8776560  43.3827448
  50.7740116  66.2731743  44.0275574  51.7706680  67.7069044  43.9924574
  50.7489395  67.4394846  42.2053576  50.1467133  66.7963839  41.8241167
  53.4878111  66.5891171  41.9536018  53.3127546  66.2658834  40.7885408
  54.5867968  67.3131561  42.2829819  54.7807503  67.5320482  43.2497120
  55.5069637  67.9526377  41.3389921  54.9923706  68.2414913  40.4225540
  56.1715651  69.1159153  42.0189095  56.4773607  68.8790846  43.0379772
  57.0792866  69.2615795  41.4333153  55.3026533  70.3301764  42.1614313
  55.0202847  70.6857109  41.1704922  54.4198513  70.1083469  42.7610636
  56.1422014  71.4862633  42.8199816  57.2031021  71.2450218  42.7536869
  55.8819199  72.5010109  42.5189304  55.9056425  71.5847731  44.3601036
  54.9684286  71.3315058  44.6386433  56.7982101  71.8060303  45.3213358
  58.0269098  72.2508097  45.1985693  58.5381174  72.3554516  44.3338013
  58.5455608  72.5056458  46.0269117  56.4255238  71.6748190  46.5297556
  55.4461622  71.5500927  46.7428255  57.0523739  71.8513250  47.3017693
  56.4932251  66.9292879  40.7629585  56.8586016  67.0076084  39.5522165
  56.8224049  65.8885956  41.5315866  56.6410971  65.8847046  42.5251722
  57.5835037  64.7819090  41.0223770  58.3642817  65.1240778  40.3430986
  58.2223558  63.9446354  42.1128750  57.3692942  63.6778402  42.7367401
  58.6272764  63.0700636  41.6036987  59.3548059  64.6566772  42.8565979
  59.9808311  64.1312695  43.7716293  59.7400618  65.7503891  42.4312258
  56.7527437  63.8624287  40.1727009  57.1839952  63.3862543  39.1143560
  55.4382610  63.6576176  40.5104256  55.1302862  64.1169691  41.3555574
  54.5807171  62.9072618  39.5561767  55.0898361  62.0202541  39.1792059
  53.2929230  62.3913717  40.2180195  52.7250528  63.2529354  40.5692196
  52.7757359  61.9422340  39.3701434  53.2845736  61.3456440  41.3660002
  53.8691807  60.0671530  41.3204288  53.5332203  59.3568087  42.3977995
  53.7424517  58.3070755  42.5416231  52.5955105  60.0727463  43.0958986
  52.0337820  59.7282219  43.8613176  52.3987484  61.3191080  42.4320173
  51.9207191  62.2254276  42.7732944  54.3713093  63.7208033  38.2253456
  54.2460155  63.0717230  37.1908569  54.2820978  64.9974155  38.2746530
  54.5394611  65.4916096  39.1170526  53.9013529  65.8632469  37.1448469
  52.8364944  65.7529497  36.9398761  54.0190220  67.3339033  37.6603127
  55.0955629  67.4689817  37.7647400  53.5580349  67.9880285  36.9202375
  53.5684824  67.5134182  38.6364746  54.7835827  65.6881332  35.8975649
  54.3280602  66.0231638  34.8322725  56.0805225  65.3519678  36.0232663
  56.3386059  65.1383781  36.9760895  57.1534300  65.1770163  35.0664067
  57.1073341  66.0565376  34.4242024  58.5271454  65.0057220  35.7519388
  59.3351555  65.0108814  35.0203705  58.7100554  66.1677551  36.7524934
  59.7763443  66.3130093  36.9257712  58.3051586  67.0943737  36.3456178
  58.1589031  65.7776213  37.6081419  58.5297537  63.7869644  36.5030766
  57.9573107  63.8136053  37.2732687  56.9326925  64.0235186  34.0856886
  57.6511669  63.9999056  33.0453706  55.9810543  63.1541014  34.3999648
  55.3843689  63.4100771  35.1736212  55.7034969  61.9146156  33.6754680
  56.5979385  61.4928198  33.2170343  55.0708914  60.8986712  34.5742273
  54.2106438  61.3331509  35.0834394  54.6494770  60.1115942  33.9489079
  56.1455250  60.3490019  35.6262541  56.7875910  61.1854506  35.9023190
  55.4023552  59.7129202  36.7798042  54.6856785  60.4524040  37.1370745
  54.9839544  58.7479258  36.4937425  56.1599970  59.5265293  37.5409484
  57.1313047  59.3018150  35.1543427  57.5852871  59.6829224  34.2395926
  57.8980780  59.1347075  35.9108067  56.6183186  58.3540869  34.9907494
  54.7871590  62.2072172  32.5089598  53.8264465  63.0187798  32.5060892
  54.9993801  61.5437746  31.3465452  55.8689404  61.0486269  31.2094569
  54.1175461  61.5113544  30.1963186  54.0394306  62.5020838  29.7485971
  54.6323776  60.6302929  28.9983034  54.0518332  60.8419800  28.1003857
  55.6642389  60.8927727  28.7649107  54.4952250  59.0761280  29.2453718
  53.4879065  58.4553289  29.1883373  55.6166935  58.4415722  29.6006417
  55.5190516  57.4408865  29.6965480  56.3355637  58.9850140  30.0567031
  52.7273750  61.2718773  30.7075763  52.6216269  60.4010010  31.5652418
  51.6770840  61.8747950  30.2448678  51.8500233  62.5228405  29.4897294
  50.4237938  61.9321442  30.9769726  50.6316233  62.2795773  31.9890022
  49.7427416  62.5745869  30.4188251  49.7389317  60.5666113  31.0355902
  48.9268446  60.3038549  31.9571757  50.0011110  59.6436548  30.0917506
  50.4994822  59.9410677  29.2651463  49.7080183  58.2312202  30.2096462
  48.6244392  58.1374645  30.2815652  50.3798342  57.4961090  28.9150977
  49.9565172  56.4947653  28.8363314  50.1419640  58.0259371  27.9927135
  51.4684343  57.4809408  28.9682603  50.3139305  57.6543903  31.4876318
  49.6425676  57.2666407  32.4612474  51.5846443  57.7589703  31.5663052
  52.0508051  58.2922649  30.8463120  52.4011230  57.1949434  32.6517773
  51.9888401  56.1987305  32.8120351  53.8158607  57.0997190  32.1680951
  53.7943316  56.4589643  31.2865782  54.1289330  58.1032991  31.8801618
  54.7560263  56.5166903  33.2487226  54.6899557  56.9590139  34.2427468
  54.3016577  55.0583315  33.4797072  53.4787273  55.0473976  34.1943860
  53.9553499  54.6536016  32.5287223  55.1405525  54.4320440  33.7832189
  56.2205935  56.4982128  32.7662635  56.8165350  56.1261606  33.5996509
  56.2745142  55.7651901  31.9613600  56.5386581  57.4801064  32.4157977
  52.1774340  57.9827499  33.9421010  52.1777630  57.3551226  34.9541044
  51.9035101  59.2967129  33.8792968  51.8592072  59.8013401  33.0055165
  51.5811634  60.0643301  35.1505136  52.4267483  59.9893379  35.8342266
  51.3073444  61.4701748  34.7431278  52.1619034  61.8020725  34.1534877
  50.3694439  61.4511395  34.1880727  51.1640692  62.4816847  35.9091592
  51.4135313  61.9878435  36.8483019  51.9576263  63.2029486  35.7138491
  49.8315001  63.1581259  35.9377527  48.8604355  62.6912022  36.5244365
  49.6078587  64.3165255  35.2904510  48.7771273  64.8241806  35.5592871
  50.3838682  64.8054838  34.8675561  50.3258038  59.5130014  35.8926034
  50.4808378  59.1753721  37.0496440  49.2447948  59.4868517  35.1493907
  49.3484688  59.7512102  34.1801286  47.9400873  58.9443111  35.4994750
  47.6773405  59.6151114  36.3174605  46.9866419  59.0826416  34.3592286
  46.9238091  60.1450586  34.1238141  47.3107624  58.5556602  33.4618235
  45.5406713  58.6665773  34.5591569  44.7973824  59.2818213  35.6497192
  45.2635813  59.9716139  36.3376474  43.5280275  58.8534307  35.9683990
  42.9570580  59.2537546  36.7931008  42.8772831  57.8772640  35.1327515
  42.0078754  57.4413919  35.6023788  43.5996771  57.2393513  34.1060829
  43.0801439  56.5202427  33.4901524  44.8828316  57.6816654  33.7657261
  45.4518700  57.1479368  33.0189133  48.0184746  57.5590324  36.0143161
  47.3547411  57.2982693  36.9988823  48.8177586  56.6348886  35.3113532
  49.3256807  56.9083786  34.4823027  49.1586733  55.3736973  35.8480859
  48.2286692  54.8137283  35.9461808  50.0665474  54.5556355  34.7899222
  50.3283787  53.5342264  35.0660872  49.5076370  54.5506954  33.8541365
  50.9568262  55.1578856  34.6087980  49.8926067  55.4306126  37.2422838
  49.4611645  54.7635937  38.1662726  50.9757185  56.2210751  37.3444867
  51.1766100  56.6885805  36.4720297  51.8319988  56.3043499  38.4765792
  52.2008371  55.2991533  38.6806345  53.0339003  57.1950722  38.2381916
  52.6249123  58.1998014  38.1316519  54.0765572  57.1694994  39.3323970
  54.4752073  56.1603069  39.4358850  54.9039888  57.8308916  39.0754437
  53.4974766  57.4871302  40.1995039  53.6183357  56.6134882  37.0791411
  52.9886341  56.6872787  36.3582897  51.1225462  56.7206669  39.7665334
  51.4432573  56.2148762  40.7978344  50.2142191  57.6743841  39.5838237
  50.1815414  58.0547285  38.6487460  49.3842268  58.1590605  40.6185961
  50.0289583  58.4606028  41.4441252  48.5555983  59.4667912  40.3692722
  47.9674196  59.2599535  39.4751978  47.9959774  59.5987320  41.2952948
  49.3633032  60.7905769  40.0801373  50.1418447  60.9574938  40.8245277
  49.9068451  60.6491947  39.1459680  48.4726524  61.9955683  40.0202560
  47.7911520  61.9430065  39.1711998  47.9950714  62.0970345  40.9947920
  49.4409418  63.2189989  39.8271704  50.2894545  63.1203461  40.5042171
  49.8012447  63.1167650  38.8035369  48.7363863  64.4868565  40.0024652
  47.8140879  64.4160461  39.5969510  48.5751581  64.7001457  40.9764385
  49.2888403  65.2177382  39.5773625  48.4357738  57.0592594  41.2122869
  48.4538126  56.9060946  42.4111319  47.7949619  56.2429285  40.4212332
  47.8755188  56.4755678  39.4417000  47.0491838  55.0953913  40.8322430
  46.3930511  55.5345106  41.5837526  46.2891817  54.4478846  39.6598196
  45.6095123  55.1765537  39.2180204  47.0547819  54.1309166  38.9516592
  45.4005909  53.1750774  40.0342560  45.2374220  52.5285339  39.1720176
  45.9025097  52.5627279  40.7833862  44.0781689  53.5473728  40.7251644
  43.9174604  54.5785856  41.3597441  43.0949926  52.7038622  40.7197189
  42.1957350  53.0048847  41.0673141  43.3182526  51.7675924  40.4136944
  48.1092119  54.1438103  41.6269493  47.9510069  53.7897968  42.8041792
  49.0486670  53.6536932  40.8344507  49.1986275  53.9277077  39.8739672
  50.0397778  52.6882410  41.3377714  49.5204735  51.7366457  41.4513206
  51.1471605  52.5080204  40.3230095  50.6513214  52.1725273  39.4121385
  51.4559555  53.4993601  39.9913573  52.4154758  51.6299820  40.5392885
  52.1974134  50.9515762  41.3641024  52.7454090  50.8801746  39.2672181
  51.9617176  50.1717186  38.9988565  52.7682590  51.5673494  38.4214211
  53.7157249  50.3836727  39.2757082  53.6783218  52.4131680  40.7591391
  53.9437008  53.1819201  40.0334024  53.7296009  52.7680683  41.7884684
  54.5121384  51.7150116  40.8328772  50.4856682  53.1234646  42.7391768
  50.5736303  52.2342443  43.5850191  50.9598064  54.3371391  42.8947735
  50.9843636  54.9135447  42.0657682  51.5044832  54.8765850  44.1790724
  52.3363352  54.2561674  44.5125532  52.2185087  56.2220335  43.9475203
  52.7006388  56.4821672  44.8898506  52.9453897  55.9851313  43.1705904
  51.2898207  57.2663784  43.5824633  51.0860348  57.2386646  42.6447535
  50.5742884  54.8449755  45.3613901  50.8384275  54.3044519  46.4129353
  49.3837166  55.4337597  45.0809097  49.2168760  55.9107590  44.2064190
  48.2988834  55.4816866  46.1156321  48.7776184  56.0433483  46.9177818
  47.0447350  56.2764311  45.7461786  46.5281057  55.7914829  44.9179173
  46.3099003  56.1745548  46.5447712  47.2601366  57.7287197  45.4316330
  47.9136753  58.2536030  46.1283970  47.7762651  57.8585386  44.4803953
  45.9686613  58.4777594  45.2936935  45.2995682  57.8158903  44.7438335
  45.5042219  58.6215734  46.2692547  46.2050724  59.7960901  44.6581173
  46.7757082  60.4432583  45.1831341  46.0053539  60.1932669  43.3833885
  45.4406595  59.4755125  42.4275351  44.8103046  58.7162638  42.6426935
  45.1216555  60.0034714  41.6277838  46.3284683  61.3539362  42.9547405
  46.5756941  61.9853354  43.7032795  46.1164141  61.6508341  42.0129442
  47.9353523  54.1444111  46.6362476  47.6501131  53.9373255  47.8090048
  47.7803469  53.1750679  45.7306004  47.8862762  53.4258795  44.7579908
  47.3703957  51.8084860  46.0451078  46.4789152  51.8664885  46.6696024
  46.9644356  51.1005735  44.8139715  47.8533936  51.0515642  44.1851187
  46.3852167  49.7279119  45.1048994  46.0646296  49.3714333  44.1259956
  47.1488380  49.0117979  45.4084826  45.5072641  49.7380543  45.7508039
  45.9887981  51.7876101  44.0443993  46.4481211  52.4704266  43.5500431
  48.4795761  50.9564400  46.8323565  48.0860281  50.2051353  47.7607250
  49.7623777  51.2666130  46.5783405  49.9419689  51.8716335  45.7897949
  51.0315704  50.8328819  47.2933960  50.8281517  49.7728300  47.4450874
  52.2958946  50.9799623  46.3806820  52.1390581  51.9468832  45.9025955
  53.1726360  50.8695173  47.0188236  52.4534750  49.9555111  45.2513123
  51.4675474  49.6376371  44.9121904  53.3851147  50.4688978  44.0716982
  53.7410831  49.6823645  43.4063101  52.8416824  51.2600422  43.5550928
  54.1991282  51.0174990  44.5455408  53.1117487  48.6692524  45.7970905
  52.6861143  48.6150551  46.7990923  53.0358028  47.8816557  45.0474072
  54.1713238  48.8804293  45.9413099  51.1924219  51.6109800  48.6243057
  51.8699217  51.0910368  49.5073652  50.7030725  52.8227043  48.8523817
  50.1783037  53.2185602  48.0855560  50.8094406  53.5487413  50.1334906
  51.8277550  53.5910606  50.5199432  50.2178621  54.9636841  49.9509048
  49.1461372  54.9316788  49.7547293  50.3092575  55.4068995  50.9425259
  50.9134865  55.6772327  48.9568520  51.1927366  55.0099182  48.3257341
  50.0684834  52.7611876  51.2457228  50.3674459  52.8927326  52.4159384
  49.1134930  51.9153070  50.8847952  48.7999535  51.8922234  49.9249697
  48.3073139  51.0945749  51.8404531  48.2171869  51.6817331  52.7543592
  46.9201946  50.9831285  51.2800884  46.8906593  50.4654646  50.3213120
  46.3278484  50.3458452  51.9366693  46.2237978  52.3580790  51.1429453
  46.1278009  52.9736710  52.0373344  46.6685534  53.0176115  50.3977537
  44.7572708  52.0518351  50.6235170  44.3527985  53.0154848  50.3138924
  44.8238611  51.4881563  49.6929598  43.8887548  51.4008045  51.6627932
  43.7744617  50.4023933  51.5617228  43.1733179  51.9184446  52.5631237
  43.1845570  53.1745100  52.8601742  43.6706924  53.9069366  52.3628569
  42.6275826  53.5332441  53.6225319  42.4276733  51.1644125  53.3440924
  42.4107838  50.1721716  53.1562567  42.1503735  51.5847826  54.2195892
  48.8967848  49.6517467  52.0551729  48.3176994  48.7414408  52.6686430
  50.1792479  49.3274212  51.5736103  50.5887175  49.9597549  50.9008598
  50.9706688  48.0800104  51.6566563  50.3039408  47.2363663  51.4782047
  52.0376158  48.0584764  50.5934095  51.6747236  48.3653641  49.6124792
  52.8944349  48.7098789  50.7655764  52.4222279  47.0392895  50.5555725
  51.6086102  47.8930330  53.0456638  52.0190525  48.8200378  53.6873388
  51.7809582  46.6424322  53.4256363  51.5751219  45.9675884  52.7029181
  52.6286459  46.1224127  54.5485067  53.3782959  46.8517256  54.8554707
  51.8181562  45.8186054  55.8387423  52.4987221  45.3077507  56.5198946
  51.4160490  47.0522261  56.6042376  52.3211002  47.4013758  57.1013069
  50.9091997  47.7207136  55.9083033  50.6634283  46.8309689  57.3610163
  50.7097387  44.9975443  55.5017805  50.1573515  45.3127766  54.7826862
  53.3435249  44.8524046  54.1647863  52.8831482  44.2295170  53.2587528
  54.3984985  44.4162416  54.9080992  55.1277637  45.1473761  55.8776283
  54.7838879  44.9639320  56.8955660  55.2237749  46.2197161  55.7074022
  56.5159464  44.5571375  55.8380985  56.9648409  44.7525835  56.8119621
  57.0871449  45.1203108  55.1000881  56.2993431  43.1300879  55.4302883
  56.0852480  42.5854063  56.3498449  57.0960855  42.6106024  54.8978996
  55.0218821  43.1312466  54.6132088  55.2920723  43.1330061  53.5572243
  54.1478252  41.8898582  54.8149252  53.3101702  41.9047260  55.7339907
  54.4456959  40.7889366  54.0893650  55.1668692  40.9313679  53.3967447
  53.8270950  39.4889140  54.3768501  53.0726147  39.4970536  55.1634836
  53.0741501  39.1409469  53.0584908  53.7900925  38.9453697  52.2601986
  52.2113180  37.8338742  53.1737709  51.5605164  37.8526354  54.0479612
  51.6340780  37.7515817  52.2528362  52.8922272  36.9852614  53.2395315
  52.0706367  40.2108860  52.4601746  52.6762247  41.0952330  52.2619295
  51.7373371  39.8221421  51.4979410  50.8330488  40.6650972  53.2551098
  51.1607027  41.1641455  54.1670799  50.2773380  41.3922215  52.6630068
  50.1489592  39.8435569  53.4676933  54.9208164  38.4063840  54.7096300
  56.0765934  38.5638952  54.3171835  54.6206951  37.3578358  55.4499340
  53.5122919  37.1662211  56.3545847  52.6363611  37.6614809  55.9355879
  53.9162111  37.6459384  57.2461128  53.4102821  35.6340981  56.5733814
  52.9635096  35.1603746  55.6992674  52.8179407  35.2973700  57.4241781
  54.8714495  35.3131914  56.6815472  55.0614357  34.2622948  56.4633322
  55.2254486  35.5489087  57.6851511  55.6152201  36.2863350  55.6180239
  56.3837290  36.8495774  56.1474085  55.9341002  35.6272364  54.2625713
  55.0673485  35.2989745  53.4751129  57.2539806  35.3165364  54.1150141
  57.7863455  35.5176425  54.9494267  57.6814890  34.1763234  53.2566166
  57.1946907  34.1817951  52.2813654  59.1529417  34.3743134  53.1546402
  59.3305302  35.2989602  52.6054668  59.6792507  34.4114184  54.1084290
  59.7705269  33.2907772  52.2836924  60.7941484  33.6479259  52.1707916
  59.7492123  32.3134112  52.7657652  59.2264080  33.2441568  50.8664036
  59.6142673  34.1385484  50.0786972  58.4667063  32.3132777  50.5815315
  57.2125149  32.8478646  53.9012384  57.3362303  32.6765943  55.1006842
  56.8064022  31.8757749  53.0649710  57.0265341  32.0066452  52.0879745
  56.2749100  30.5920410  53.4450054  55.3115034  30.6186676  53.9541674
  56.0297012  29.9746037  52.0533466  56.9529247  30.0463557  51.4783573
  55.9000587  28.9099336  52.2477102  54.8957825  30.4595661  51.3408136
  55.0812435  31.3845515  50.4048395  56.0805750  31.7771816  50.2882814
  53.9737082  31.7390156  49.5728683  54.0387583  32.4326539  48.7476206
  52.6772785  31.0797787  49.7342634  51.6028214  31.3983488  48.9234734
  51.7290354  32.1387219  48.3255434  52.6350546  30.0074768  50.6224346
  51.6972876  29.5011115  50.7973289  53.6741161  29.8135686  51.5923548
  53.5185766  28.9815640  52.2631598  57.2703791  29.8243642  54.3391466
  58.3979321  29.7093463  53.9226532  56.8769169  29.3900943  55.5158567
  55.9820557  29.6965337  55.8699942  57.7829504  28.6061263  56.4101028
  58.6534739  29.1531968  56.7720509  56.9664669  28.2080960  57.6365471
  56.7608356  29.0510273  58.2963085  56.0555601  27.7503872  57.2507286
  57.5322294  27.0234680  58.4901237  57.7504444  26.1580348  57.8644180
  58.8327312  27.4866390  59.1304207  59.5261097  27.9951334  58.4605169
  58.6347961  28.3031225  59.8248816  59.2994213  26.6154480  59.5901203
  56.5186548  26.7557526  59.5555782  55.5146551  26.6525817  59.1439581
  56.8171215  25.8603835  60.1008606  56.2716818  27.4640608  60.3464031
  58.5284138  27.4308872  55.6782532  59.7045803  27.2965121  55.9930182
  57.8145838  26.6578174  54.8487949  56.8437910  26.9178820  54.7486925
  58.3032274  25.4577351  54.1064405  59.3680382  25.4960990  53.8766146
  58.1301069  24.1683221  55.0283098  58.5069656  23.2645297  54.5495224
  58.7399149  24.3869233  55.9049225  56.6926527  23.8908529  55.4659986
  56.2196302  24.8330855  55.7426834  56.2354994  23.4376431  54.5863914
  56.6477728  22.8866863  56.6422462  57.2473526  22.0164418  56.3752747
  56.9823456  23.4052420  57.5407267  55.2411509  22.2940803  56.9184685
  54.6736622  23.1119132  57.3625517  54.7411060  22.0750356  55.9750319
  55.4346943  21.1569214  57.7965117  55.9702063  21.4480352  58.6018562
  54.5338964  20.8285570  58.1140757  55.8977365  20.4274321  57.2735071
  57.5727940  25.2929354  52.7085018  56.3400602  25.3122330  52.6731205
  58.3435440  24.8588705  51.6713953  59.3350697  24.7862267  51.8494463
  57.7031994  24.3283296  50.3888702  57.0581865  25.1506352  50.0792360
  58.8141680  24.3155503  49.2303705  59.3079042  25.2823758  49.3282127
  59.4275618  23.4535170  49.4925690  58.3665323  24.1447783  47.7967453
  59.2303753  24.2906046  47.1481991  57.9223156  23.1598639  47.6528168
  57.4724960  25.2576590  47.3003435  57.4572420  26.3745570  47.7542639
  56.6677427  24.9133301  46.3837814  55.9065628  25.5768180  46.3616896
  56.6215467  24.0357327  45.8859921  56.8763924  22.9790521  50.4812050
  57.1910238  22.1560049  51.2757730  55.8575916  22.8186798  49.6050215
  55.6996298  23.5205269  48.8961077  55.0971508  21.5805721  49.3660545
  54.6774483  21.1513686  50.2758503  53.7195015  21.8845940  48.6056709
  53.8160801  22.2702765  47.5907707  52.8687096  20.6242919  48.5026121
  52.8253460  20.1093125  49.4623089  51.8422747  20.9443212  48.3234024
  53.2718086  19.9347866  47.7608633  52.7412891  22.8172851  49.3263769
  53.0473232  23.8230920  49.0386343  51.7657375  22.7960396  48.8406324
  52.5391960  22.6980495  50.8452034  51.9034290  21.8195271  50.9551954
  53.4985828  22.4825811  51.3155746  52.0181847  23.5967755  51.1752701
  55.8705521  20.5046678  48.4932995  56.3303947  20.8150268  47.3694897
  56.2013483  19.3747246  49.1092539  55.7742548  18.8111925  50.3681612
  54.7137308  18.9901817  50.5452394  56.3281155  19.2361975  51.2052488
  56.0508251  17.2825909  50.3416109  55.2480412  16.7523122  49.8293161
  56.2598801  16.9160318  51.3466167  57.2081804  17.2307432  49.4440126
  57.2007990  16.2754428  48.9191818  58.1107044  17.3503101  50.0433922
  57.0842934  18.4094572  48.3835411  58.0806351  18.7979817  48.1727219
  56.4627171  17.9391897  47.0632696  55.2266550  17.8948736  46.9546461
  57.2336769  17.4727011  46.0753727  58.2110405  17.3523903  46.2998533
  56.7443943  17.2347701  44.7288227  56.0569620  18.0592620  44.5397329
  57.8888512  17.5685620  43.6264610  58.7515593  16.9089544  43.5328913
  57.3527861  17.4268103  42.6880407  58.5456324  18.9676988  43.7718010
  57.9143095  19.8859596  44.2868757  59.7959089  19.0503216  43.2949400
  60.2766466  19.9372613  43.3433056  60.2549267  18.2787192  42.8323030
  56.1146402  15.8296990  44.6861172  56.5713358  14.8529077  45.2875185
  55.0122976  15.6807983  43.9786673  54.6342182  16.4939845  43.5140324
  54.3129110  14.3432176  43.7807083  55.1117945  13.6452234  43.5303307
  53.4849548  13.9147544  44.9125099  54.0167713  13.7928843  45.8561325
  52.7679729  14.7154355  45.0940228  52.7389193  12.7084816  44.5235634
  52.0197630  12.6008487  45.1503277  53.2715845  14.4242537  42.5952864
  52.1173000  14.9105763  42.6530695  53.7440348  13.9522445  41.3722420
  54.6190739  13.4478796  41.3771105  52.9375267  14.0994978  40.1896858
  52.5370312  15.1123405  40.2327490  53.7852192  13.9986134  38.9126372
  54.2365694  13.0095303  38.8345575  53.0187130  14.1154218  38.1465316
  55.2267313  15.1000714  38.7077546  54.6561337  16.2683046  39.0152431
  51.6274786  13.2057464  40.1902246  50.7910109  13.2985318  39.3618917
  51.6188955  12.2348964  41.1255836  52.4684429  11.9688869  41.6026735
  50.5092955  11.3511121  41.5186882  50.4299974  10.7316649  40.6253290
  50.7941818  10.5188227  42.7825212  50.6564474  11.1542714  43.6573553
  49.7513914   9.4301665  42.8998089  48.7834215   9.8669779  43.1454468
  49.7273302   8.8192564  41.9974136  50.0056601   8.7878239  43.7429237
  52.2808170   9.8762280  42.6746178  53.0526829  10.6434357  42.7355242
  52.5241613   9.1466027  43.4469748  52.3315954   9.3580002  41.7170382
  49.2064810  12.1307266  41.5863276  48.2277203  11.6961432  40.9962082
  49.1718626  13.3373082  42.2413826  50.0369501  13.6723399  42.6407242
  48.0515718  14.3004882  42.5165224  47.2892141  14.0074658  41.7946815
  47.4597836  14.1290355  43.9316130  46.6034937  14.8034489  43.9374924
  47.0307636  13.1301987  44.0114737  48.3238411  14.4607794  44.9765253
  48.6228466  15.3491855  44.7693348  48.3134937  15.7645321  42.1582508
  47.8308582  16.6830063  42.8508043  49.1364002  15.9678149  41.1408997
  49.3164778  15.0781941  40.6979036  49.7869873  17.1536732  40.6956577
  49.1741419  18.0051672  40.9914207  50.7522535  17.1725225  41.2016344
  49.8935461  17.1449435  39.1760468  49.2965698  16.3545382  38.4412789
  50.6799841  18.1254125  38.7152052  51.1621523  18.6525810  39.4291449
  50.9064674  18.4821999  37.2763896  51.3435650  19.4793212  37.2234368
  52.0221519  17.4808586  36.7916775  51.7316055  16.4357090  36.8981910
  52.8313351  17.7310741  37.4777675  52.7108812  17.7018392  35.1088309
  49.6398497  18.7406409  36.4595795  48.8529921  17.8090775  36.0600233
  49.3386889  20.0532866  36.3744617  49.9995470  20.7410645  36.7066216
  48.1087494  20.4602361  35.6495714  47.8870821  19.8227048  34.7936988
  46.8479967  20.2525449  36.5596199  45.9519243  20.4391575  35.9677362
  46.8716574  19.2230487  36.9169426  46.8813753  21.4424801  37.9708958
  47.0563126  22.5382757  37.2269058  48.2661390  21.8789768  35.1281762
  47.9848003  22.8624177  35.8099413  48.7175131  22.0591164  33.8838220
  48.9179182  23.0090833  33.6054325  49.1483784  20.9936070  32.8618693
  49.4951630  21.5388680  31.9840693  50.4184866  20.2694678  33.3425331
  50.9106827  19.7459900  32.5228882  50.0383091  19.4971418  34.0111732
  51.6067696  21.3875604  34.1808081  47.9671860  20.1315093  32.3299551
  46.7847824  20.3322434  32.6527929  48.3727503  18.9742362  31.7301464
  49.2903566  18.8876498  31.3171029  47.6186180  17.7716911  31.6849995
  48.0911016  17.0050716  31.0708690  47.6502323  17.4590206  32.7287126
  46.1194181  17.8957379  31.3321233  45.6502485  18.5358810  30.3571105
  45.3423309  17.1113205  32.0993280  45.7625532  16.4932489  32.7786636
  43.8332510  17.1537197  32.0305920  43.5712004  16.6697955  31.0897160
  43.0749083  16.2933302  33.0693555  43.3013105  15.2413940  32.8953671
  43.2738495  16.7216790  34.0517187  41.5833187  16.3601434  32.9568338
  40.7847166  15.3904116  32.4610448  41.1100626  14.4165027  32.1263027
  39.4764280  15.6451225  32.5123072  38.8553381  15.0994849  31.9321060
  39.2702818  16.8949342  33.1260586  38.0693316  17.5888181  33.4246039
  37.0460296  17.3209417  33.2066655  38.1755495  18.7826192  34.1067266
  37.2857404  19.3435907  34.3515825  39.4583488  19.2933929  34.4036984
  39.4966030  20.2546501  34.8945355  40.6710148  18.5606635  34.1780114
  41.5865040  18.9011228  34.6388388  40.6081295  17.3246634  33.4561324
  43.2671928  18.5526276  32.0807338  42.2969198  18.8422918  31.3319921
  43.8097382  19.4863188  32.8363585  44.5939875  19.2068672  33.4081674
  43.3224154  20.8693814  33.0610442  42.2569704  20.7338357  33.2469344
  43.9692402  21.3802528  34.3048692  43.8770723  20.6823349  35.1370454
  45.0414610  21.5394735  34.1904497  43.4280348  22.7527785  34.8483062
  43.4801579  23.5022736  34.0585971  41.9359064  22.6079464  35.2185678
  41.6844034  23.3968711  35.9273982  41.2859344  22.7879167  34.3622708
  41.8167257  21.6329861  35.6911659  44.2981339  23.1635284  36.0337496
  43.9507818  24.1321421  36.3932419  44.3117237  22.4292302  36.8391848
  45.2885628  23.4059882  35.6485677  43.5428190  21.7898560  31.7940569
  42.5643730  22.4045086  31.2535214  44.6435976  21.5774465  31.0778952
  45.3939199  21.0512495  31.5024352  44.9130297  22.0662236  29.6718574
  44.8169327  23.1515169  29.7035313  46.3649321  21.6188717  29.2589498
  46.4439583  20.5364323  29.1580367  46.7165995  22.1325874  27.8694940
  46.3565540  23.1499553  27.7164292  47.8040695  22.0864916  27.8113747
  46.2269449  21.4697552  27.1560574  47.3435020  22.1982813  30.1017189
  48.2225466  21.8703055  29.8984814  44.0394258  21.5065098  28.5628438
  43.3872747  22.2175026  27.7947760  43.8342810  20.1940513  28.5894012
  44.2477131  19.7247243  29.3824363  42.9490709  19.5151722  27.7037811
  43.3126926  19.8337185  26.7268419  43.0441952  17.9995811  28.0091739
  43.0592155  17.8695774  29.0912890  42.1661234  17.5909078  27.5090933
  44.2273760  17.3023999  27.4454951  44.1409111  17.2134817  26.3625741
  45.1061535  17.9031324  27.6799369  44.4892359  15.8671355  28.0370736
  45.2225637  15.9107172  28.8423276  43.5643291  15.5198646  28.4975672
  44.9499702  14.9527240  26.8944263  44.2463541  14.8769617  26.0653996
  45.8872175  15.3293431  26.4847541  45.3092194  13.6041737  27.3487258
  44.6692276  13.2516825  28.0460501  45.1931763  12.8729630  26.6617274
  46.2371731  13.5036361  27.7345967  41.4430189  19.9157679  27.7454472
  40.7910395  20.0330687  26.7544436  40.9369230  20.0745440  28.9331698
  41.4607239  19.5947742  29.6511960  39.6060276  20.5287671  29.2130089
  38.8425493  19.9820495  28.6595654  39.2744470  20.3042769  30.7033682
  39.9959397  20.8278060  31.3306379  37.8729367  20.7351279  30.9855270
  37.6746321  21.8052292  31.0460091  37.3144579  20.2843642  30.1651525
  37.4329972  20.3363085  31.8995810  39.2997193  18.8590264  30.9575272
  40.1129675  18.7617314  31.4582849  39.3974185  21.9830608  28.8084602
  38.4212685  22.2817278  28.0992055  40.2398539  22.9411030  29.2637730
  40.9517956  22.5942349  29.8906088  40.2181149  24.3076134  28.8158917
  39.3251967  24.8187089  29.1758609  41.4996529  25.0424790  29.3191171
  42.3838520  24.4125748  29.2215490  41.7829561  26.3709164  28.6165571
  42.7537155  26.7617273  28.9214993  41.8323088  26.2454629  27.5349236
  41.0005093  27.0577145  28.9393401  41.4382076  25.3915930  30.7544374
  40.4150915  25.6852365  30.9892058  41.7636251  24.5507932  31.3670230
  42.0485640  26.2306404  31.0884666  40.1210928  24.4421196  27.2411513
  39.2932415  25.1604152  26.6958666  40.9648037  23.6790133  26.5375447
  41.5456390  23.0673766  27.0930910  40.9667444  23.3777523  25.0876164
  40.9500933  24.3511581  24.5973945  42.2457409  22.6277828  24.7315764
  43.0016756  23.4120035  24.6908021  42.4691153  21.8684793  25.4810214
  42.1754122  21.8858790  23.4163809  41.4459705  21.0762858  23.4403205
  41.8545818  22.5784588  22.6382399  43.5140181  21.2246084  22.9204035
  44.2397499  21.9897962  22.6449060  43.9853859  20.7320833  23.7708974
  43.2807922  20.1074576  21.9050884  44.2471647  19.6242368  21.7611623
  42.6231480  19.3119073  22.2553945  42.8038836  20.6045294  20.5739284
  42.5882626  19.8020661  19.9997616  41.8836689  21.0208249  20.5761361
  43.3853912  21.3027477  20.1329780  39.6282530  22.8575468  24.5300150
  39.0866399  23.4008551  23.5419488  39.0771937  21.8789458  25.2083850
  39.6568871  21.5753055  25.9777093  37.7511549  21.1684752  24.9531770
  37.7763391  20.9321022  23.8894129  37.6781511  19.8718715  25.7581306
  38.6971331  19.4853473  25.7387352  37.3535347  20.0115323  26.7892551
  36.7914486  18.7226582  25.2302766  35.9141207  19.1600955  24.7537827
  37.3664498  18.2950962  24.4088912  36.3842392  17.6929271  26.3407493
  37.2120023  17.1955180  27.1169186  35.1917839  17.3479211  26.3276243
  36.5667152  22.1682477  25.1951599  35.4403281  21.7684674  24.9904680
  36.8084931  23.3409381  25.7358313  37.7946830  23.5188675  25.8618236
  35.8742738  24.3869734  26.2074280  34.8738623  24.1052961  25.8788896
  35.9547114  24.4412351  27.7229452  36.9585514  24.7015810  28.0585456
  34.9076533  25.3289008  28.4077954  35.0383496  26.3936257  28.2144547
  33.9218688  24.9713922  28.1102800  34.9896669  25.2439046  29.4913745
  35.7707262  23.2134771  28.2911611  36.6795206  22.9092193  28.2352948
  36.0977912  25.6720924  25.4316497  35.7418537  26.7460656  25.8669639
  36.6856074  25.6830573  24.2443871  36.7205787  24.8304105  23.7041306
  36.8658185  26.8845582  23.4020162  36.0449696  27.5925493  23.5162759
  38.0764818  27.7531409  23.9771295  38.0402946  27.8650713  25.0607634
  39.4440627  27.1442199  23.5401964  40.2428770  27.6386905  24.0929103
  39.4499254  26.0547662  23.5742331  39.5939708  27.3933434  22.4896884
  37.9984069  29.0841007  23.4900308  37.3574162  29.4882226  24.0794516
  37.0467305  26.4646292  21.8789363  37.4113607  25.2928519  21.6775155
  36.6642237  27.3026729  20.9079814  36.2520647  28.1614017  21.2438631
  36.8800402  27.0668721  19.4634962  35.9182596  26.6976833  19.1074324
  37.0426869  28.4686708  18.8183892  36.3768864  29.1675782  19.3246841
  38.0361509  28.8453364  19.0618050  36.8045020  28.4737730  17.3059630
  37.3508430  29.2776346  16.8125796  37.1850681  27.5207090  16.9386244
  35.2724695  28.5424185  17.0093668  35.1115966  28.3988643  15.9409034
  34.6763325  27.8008389  17.5411367  34.7580504  29.8548198  17.3611474
  35.4698205  30.5547476  17.5147307  33.5248184  30.2110457  17.5182641
  32.4541950  29.4285393  17.2805846  32.4725342  28.5445952  16.7923057
  31.5824556  29.9281597  17.3832834  33.3342218  31.3168192  18.0735350
  34.1420293  31.8931699  18.2615924  32.4108386  31.5523815  18.4081614
  38.0260968  26.1120820  19.1112292  39.1404390  26.2585735  19.5604086
  37.6888585  25.0233936  18.3916676  36.7679787  25.0171375  17.9768801
  38.5047388  23.8023305  18.1930184  38.8588285  23.4503579  19.1619551
  37.6842403  22.6667213  17.6423490  37.3417139  22.9372358  16.6435480
  38.4668541  21.3437319  17.6528859  39.2978907  21.3999009  16.9498074
  38.8417935  21.0937285  18.6453688  37.8249121  20.5072498  17.3766422
  36.5712738  22.4985814  18.3549738  36.7560291  22.1153021  19.2155337
  39.7497559  24.1373920  17.3014963  39.6016717  24.7218776  16.3307285
  40.9284353  23.7555432  17.7469397  40.9585333  23.1771111  18.5743499
  42.2259092  24.2387176  17.1862638  42.0672703  24.4110298  16.1217248
  42.6223183  25.5847239  17.8397834  41.8530369  26.3225222  17.6118374
  42.5850344  25.4249620  18.9173687  43.9915180  26.2421584  17.5127542
  44.3097258  26.8877172  18.3313501  44.7333908  25.4528642  17.3913682
  43.9366293  27.1274495  16.2903059  43.2618761  28.2303762  16.3460386
  44.4972944  26.8208551  15.2231193  43.2864475  23.1081843  17.4667954
  43.3237982  22.4793220  18.5631371  44.2726326  22.8975463  16.5720463
  44.1940975  23.3335328  15.1515138  44.2694139  24.4179654  15.0713146
  43.2962275  23.0673051  14.5937955  45.4517031  22.8272152  14.4835973
  46.1894560  23.6291170  14.5115888  45.3808784  22.5152874  13.4415877
  45.9541750  21.6905475  15.4017556  46.9984818  21.3807130  15.3626430
  45.3401089  20.8179402  15.1790953  45.5026245  22.1256828  16.8387687
  45.3016424  21.2261915  17.4206853  46.5761757  22.9976916  17.4925160
  47.4047327  23.5419655  16.8435407  46.4621258  23.1878281  18.7953174
  45.7488632  22.6841235  19.3028963  47.2683287  24.1027188  19.6498680
  47.7043533  24.7642159  18.9012682  46.2918949  25.0086093  20.5324960
  45.6973886  25.5359364  19.7864449  45.2277899  24.3174458  21.3765097
  45.4832029  24.3710351  22.4348092  44.2523527  24.7812366  21.2298012
  45.2253580  23.2581043  21.1198187  47.0116425  26.2350368  21.2669921
  47.4155521  25.7502079  22.1557570  47.7343893  26.6166925  20.5458283
  46.1902714  27.3755455  21.7719817  45.6082058  27.7890515  20.9483862
  45.4715347  26.8483829  22.3993683  46.6965437  28.1742001  22.3141503
  48.3357430  23.4052920  20.4213452  49.3820620  24.0239096  20.6123614
  48.1068420  22.1850181  20.9536362  47.3267078  21.6836357  20.5535078
  48.8216162  21.5658092  22.0778632  49.6599197  22.1663380  22.4310136
  47.9734564  21.3093090  23.2643294  47.1713352  20.6146908  23.0149031
  48.6559200  20.8662820  23.9896345  47.4082947  22.4913764  23.9924955
  46.2717295  22.5593519  24.4489670  48.1404591  23.6067724  24.2220402
  47.7992868  24.2376280  24.9331832  49.0491438  23.7241721  23.7970662
  49.4278479  20.1838446  21.5340495  48.8210821  19.4212246  20.7720590
  50.6643438  19.8222578  21.9138455  51.1222982  20.4368281  22.5716329
  51.3125610  18.4595621  21.6397429  50.6366873  17.8773272  21.0134077
  52.4650049  18.6125255  20.5937266  53.2985926  19.0731001  21.1239123
  53.0163431  17.3036838  19.9447560  53.9914846  17.5068033  19.5021021
  53.2078695  16.5818942  20.7387567  52.2375488  16.9811904  19.2536938
  52.1414375  19.4107878  19.4377911  51.8701220  20.2668428  19.7771549
  51.7965698  17.6651752  22.8260589  51.9821835  16.4468563  22.7173305
  52.1266031  18.2650673  24.0035462  51.8475056  19.2301619  24.1074681
  52.4101257  17.5583553  25.3150749  52.1954012  16.5035093  25.1438951
  53.8780212  17.6986575  25.8148885  54.2229700  17.1072912  26.6630578
  54.9704409  17.4981749  24.7234225  54.6966457  16.6903949  24.0447259
  55.0707769  18.4307885  24.1682005  55.9154749  17.3485184  25.2455473
  54.0255499  19.1387200  26.1238003  54.3332529  19.1413188  27.0331478
  51.5687323  18.0388832  26.5081000  51.4969301  17.2828043  27.4436903
  50.8614159  19.1235495  26.5202618  50.9014750  19.7703171  25.7455444
  49.8203278  19.5335054  27.5319695  49.2354631  20.3522682  27.1128392
  48.6953068  18.5278487  27.7478456  49.0595770  17.6836252  28.3332467
  47.8716803  18.9703035  28.3081794  48.0866861  17.9604244  26.3844609
  47.2959423  18.8352180  25.6378508  47.1527529  19.8654425  25.9285975
  46.6027260  18.2856369  24.5385170  45.9925652  18.9428866  23.9367485
  46.7763948  16.9254351  24.1269064  46.1877251  16.5432942  22.9359770
  46.2284231  15.5943584  22.7964592  47.5152063  16.0428560  24.9558616
  47.6003170  15.0108552  24.6490502  48.2296133  16.5635645  26.0955262
  48.7790966  15.9102058  26.7570305  50.3646326  19.9985421  28.8974905
  49.5629692  20.5046296  29.6926689  51.6689825  19.9905217  29.0971613
  52.2209358  19.5315754  28.3866549  52.4595165  20.6541800  30.1091838
  52.3660278  20.1192665  31.0542893  53.9506149  20.5073118  29.7409987
  54.0631533  21.2742376  28.9746714  54.6691275  20.6700158  30.5443501
  54.1424274  19.1834712  29.2543101  54.1873837  18.5816073  30.0008607
  52.1976566  22.1672463  30.1861453  51.6758490  22.7638984  29.3107057
  52.6934576  22.7788758  31.2231946  53.1993532  22.2057462  31.8832707
  52.5306511  24.2385888  31.4868164  51.5460348  24.5150876  31.8638802
  53.4093046  24.6345162  32.6315045  53.4351301  23.9759231  33.4996581
  54.4272137  24.5307016  32.2557592  53.1094456  26.0109210  33.1691098
  52.1233225  26.1514688  34.1659641  51.5310526  25.3291941  34.5394397
  51.8713760  27.3596358  34.7672462  51.1268616  27.4343133  35.5460429
  52.6807880  28.4830499  34.3415952  52.5679684  29.6495080  34.9249578
  52.2483635  29.5176435  35.8205390  53.6455250  28.3665824  33.3040786
  54.1711950  29.2466140  32.9640555  53.8285589  27.1032953  32.6934791
  54.6159124  27.0566630  31.9557071  52.5165939  25.2504349  30.2828479
  51.5313530  25.9770823  30.1736689  53.5724831  25.4124188  29.4905615
  54.3450594  24.7635627  29.5375991  53.4558010  26.2853765  28.2685876
  53.1333351  27.2748709  28.5926557  54.8188210  26.5515971  27.6165342
  55.0187111  25.6124282  27.1006823  54.8037100  27.7233243  26.6963291
  54.4802952  28.6188459  27.2269320  55.8367825  27.7644205  26.3511229
  54.1584206  27.5503635  25.8350587  55.8307266  26.7279768  28.5488224
  56.0277843  25.9537673  29.0811443  52.3552418  25.8864594  27.3331213
  51.7549801  26.7681313  26.6782093  51.9606781  24.6337032  27.2758818
  52.3996067  23.9491129  27.8748679  50.7275152  24.3119574  26.5838575
  50.6911039  24.8666143  25.6462383  50.6669998  22.7768445  26.2260723
  51.1242342  22.2016263  27.0311570  49.6282101  22.4470758  26.2099242
  51.1947298  22.3590827  24.8872066  51.3969231  21.1844635  24.6273541
  51.4277744  23.2604361  24.0360737  49.4703341  24.7137761  27.4307847
  48.4588146  25.1468682  26.8662930  49.5898914  24.8246074  28.7433171
  50.5576420  24.7407436  29.0199566  48.4671354  25.3511453  29.5715809
  47.6018715  24.7998691  29.2034674  48.6662960  25.0253487  31.0739350
  48.9400339  23.9702821  31.0764718  49.5085001  25.5626655  31.5099239
  47.4449110  25.1752639  32.0038295  47.7108192  25.2941751  33.3725238
  48.7384224  25.2143741  33.6951065  46.6552353  25.5241942  34.2620063
  46.7763853  25.6370234  35.3292441  45.3262997  25.6828713  33.7942028
  44.5539761  25.7000828  34.5489335  45.0575447  25.5775785  32.4395108
  44.0197945  25.5643249  32.1406841  46.1134958  25.2458239  31.5434885
  45.9072304  25.1034904  30.4929686  48.3322239  26.9228792  29.4717073
  47.2247219  27.5041366  29.4738698  49.4317007  27.6022601  29.2920113
  50.2686119  27.0505118  29.4155002  49.4695616  29.0360451  28.9660144
  49.1470861  29.5954919  29.8441553  50.9599876  29.4834852  28.7161875
  51.6447163  29.0002489  29.4131327  51.2415409  29.1317725  27.7236509
  51.1362457  30.9921193  28.9334011  50.3102207  31.4282775  28.3716631
  51.1337233  31.1856866  30.0060797  52.3314667  31.5610123  28.1847548
  53.1497908  31.0026312  27.3302460  52.6752949  32.7971792  28.4866881
  53.3186865  33.3047485  27.8963304  52.2112608  33.4794831  29.0691280
  48.6590052  29.4035673  27.6784062  47.8262329  30.3143072  27.6096106
  48.8871288  28.6229372  26.6259146  49.7156382  28.0585814  26.7491031
  48.3613300  28.7942767  25.2947354  48.3252668  29.8708797  25.1282263
  49.1731691  28.0071425  24.2178035  49.0728045  26.9549060  24.4839382
  48.7032747  28.0233598  23.2344246  50.5950451  28.5208321  24.0139294
  50.4069996  29.4410086  23.4607434  51.1388636  28.7828946  24.9215055
  51.3938093  27.6370692  22.9757428  51.5049839  26.6441894  23.4115577
  50.7969427  27.6707578  22.0643067  52.7645063  28.1015396  22.7042532
  52.7380991  29.1717005  22.4989271  53.3577013  27.8398633  23.5804629
  53.3034277  27.3407626  21.5179300  53.3727074  26.3580871  21.7407465
  52.7257252  27.4276280  20.6940246  54.2913437  27.5012732  21.3824248
  46.8823147  28.4235239  25.3213716  46.0524702  29.0681314  24.6551061
  46.3977432  27.4586678  26.0996079  47.1026850  26.9422889  26.6060781
  45.0182199  27.1533608  26.2189150  44.6028423  27.0008445  25.2227712
  44.7053432  25.8803988  26.9635224  44.9608421  25.9525132  28.0206990
  43.6792612  25.5971837  26.7289066  45.3814125  25.1301241  26.5535140
  44.2492676  28.3067226  26.8780041  43.1533051  28.7162399  26.4792681
  44.7885275  28.8275743  28.0237269  45.6954718  28.4750080  28.2943940
  44.0953970  29.8910666  28.8212991  43.0618238  29.6078467  29.0203357
  44.8475933  30.0698709  30.1581049  45.9210110  30.0276327  29.9734759
  44.6188879  31.3401532  30.8833361  45.2736473  32.0754433  30.4156423
  43.5720825  31.6229415  30.7722735  44.8960876  31.2808514  31.9358301
  44.4697332  28.8936424  31.0417771  44.5877314  28.0049801  30.4217362
  45.2167320  28.8750291  31.8353438  43.4026527  29.0325999  31.2153864
  44.1087389  31.2450290  28.0101228  43.1205273  31.9394398  28.0132341
  45.2087545  31.5384340  27.2302842  46.0023785  30.9223485  27.3337555
  45.2024126  32.6710320  26.3136530  45.0687599  33.5963082  26.8741035
  46.6399097  32.7622390  25.7915378  47.3468542  33.0066276  26.5843844
  46.9877195  31.8777561  25.2578545  46.7213202  33.8263416  24.7403049
  46.5081501  33.6398244  23.5188651  46.8930817  35.0717306  25.2139044
  46.7503214  35.8286381  24.5605946  46.7400599  35.0877309  26.2121153
  44.1248178  32.4898839  25.2349758  43.2868481  33.3711648  25.0393963
  44.0622473  31.3796806  24.5136738  44.7269917  30.6487632  24.7233653
  42.9714489  31.0357308  23.5744047  42.9251385  31.8401456  22.8403258
  43.4025717  29.6750832  22.8613019  44.3596792  29.8587322  22.3731160
  43.5419512  28.9012218  23.6161590  42.5426197  28.9664626  21.7566061
  43.0024624  28.0096650  21.5092468  41.5148592  28.7686253  22.0610166
  42.4926949  29.8551512  20.4589152  42.1013784  30.8205557  20.7797933
  43.4744596  29.7855997  19.9905121  41.4824581  29.3246508  19.4449961
  41.6228914  28.2719994  19.1994298  40.5124092  29.4022536  19.9359989
  41.5510225  30.2420831  18.2239938  41.1664915  31.1512041  18.4378672
  42.4821472  30.2796769  17.8345203  40.9111118  29.8814535  17.5307691
  41.5735865  30.9588218  24.0820622  40.6810951  31.4808702  23.4184337
  41.3504457  30.3350854  25.2267528  42.0970535  29.7706866  25.6063962
  40.0795078  30.3810954  26.0120893  39.3772125  29.7776079  25.4370403
  40.3588438  29.8173237  27.3839760  40.6498718  28.7695479  27.3093557
  41.1550570  30.4448414  27.7844286  39.1559339  29.9249887  28.2897067
  38.6395144  30.8847499  28.3060074  38.0790687  28.9112067  28.1124258
  38.4923029  27.9051495  28.0404305  37.3060012  28.8593173  28.8790894
  37.5228357  29.1043234  27.1951389  39.5377135  29.7602034  29.7335148
  38.6809778  29.9490142  30.3803968  39.9904442  28.7891865  29.9341822
  40.3511143  30.4857159  29.7439599  39.5204997  31.8010855  26.1361146
  38.3881235  32.0696664  25.7524657  40.4185390  32.7483392  26.5648127
  41.3344049  32.5382566  26.9351530  40.0976515  34.1872191  26.7467594
  39.1317940  34.2034888  27.2516966  41.2104988  34.8748326  27.7242184
  42.2666311  34.7607636  27.4799275  41.0806704  35.9547067  27.7957463
  40.9246922  34.3563509  29.1750979  40.7010603  33.3015823  29.0152097
  42.0444250  34.6709752  30.1663017  42.3655605  35.7106137  30.1020908
  41.7224360  34.4926524  31.1922789  42.9043865  34.0478683  29.9207401
  39.7264814  35.1115847  29.7156882  38.7971711  34.8667479  29.2013574
  39.6074057  34.8010039  30.7536960  39.8661804  36.1925769  29.7104788
  39.9622393  34.8910952  25.3704000  39.0511847  35.6685376  25.1532459
  40.8482265  34.5723987  24.4356847  41.4943886  33.8476348  24.7137070
  40.8673811  35.1216054  23.0743051  40.5568075  36.1663437  23.0610776
  42.3560619  35.1369643  22.6178122  42.6779366  34.1135597  22.4250722
  42.4084473  36.0139656  21.4019966  41.7897844  36.9113636  21.3962865
  43.4122324  36.4172673  21.2683320  42.1751499  35.5139637  20.4619575
  43.2828808  35.6528950  23.5583377  43.3793306  34.9861264  24.2422366
  39.8793817  34.4707060  22.1062732  40.2666950  33.6002994  21.3707566
  38.6383224  34.8619175  22.1890116  38.3435154  35.5546832  22.8622603
  37.4885106  34.1928935  21.5357423  37.8584456  33.2351112  21.1698127
  36.3886595  34.0368962  22.6264858  36.7747521  33.4252763  23.4419346
  36.1708069  35.0215077  23.0402350  35.4681015  33.6034107  22.2356343
  37.0191503  35.0019789  20.3136420  35.8995152  35.5117536  20.2678394
  37.9255581  35.2894068  19.4128561  38.8334870  34.8850942  19.5925701
  37.8072405  36.2685990  18.3591390  37.5024796  37.2251105  18.7837780
  39.1085625  36.5400267  17.6358175  39.3161154  35.7649398  16.8980777
  38.9975953  37.5077033  17.1465456  40.1210499  36.6985035  18.6358345
  40.5090284  37.5766015  18.6314595  36.6953468  35.9053707  17.3431051
  36.1108875  34.7992539  17.3430490  36.5225744  36.8149924  16.3766408
  37.0291471  37.6823568  16.4822745  35.6982994  36.7162585  15.1939750
  35.1631451  35.7675505  15.1531863  34.5624471  37.7234268  15.2426875
  34.0336394  37.6571703  16.1935139  35.0330853  38.7065077  15.2301586
  33.4104443  37.8185701  14.1654587  33.7824082  37.9497147  13.1493163
  32.5851011  36.5283990  14.2848980  32.1880937  36.3353801  15.2815044
  31.7945600  36.3896346  13.5474098  33.2364392  35.6796455  14.0763843
  32.4286842  38.8807821  14.5253694  31.9883156  38.7389565  15.5123162
  32.8835297  39.8647237  14.4110024  31.6032982  38.8565636  13.8138545
  36.3545036  36.7616129  13.8292956  37.1795297  37.6986647  13.6862886
  36.0521054  36.0805130  12.8738797  53.4909582  19.9762189  34.9240971
  17.7158105  59.7105837  60.2367496  17.9010928  59.6055126  61.2240314
  16.7597520  59.5918512  59.9335051  17.9015434  60.6675196  59.9724054
  18.6474681  58.8312483  59.4716215  18.7865365  59.1452122  58.4371233
  19.9897933  59.0707684  60.0612545  19.9660873  58.9795828  61.1471748
  21.1247635  58.1999969  59.5332670  22.0785093  58.5346460  59.9412823
  20.8867431  57.1844912  59.8498011  21.0969973  58.3620691  58.4557438
  20.2780414  60.4292154  59.7004747  20.1866174  60.9086704  60.5271339
  18.2090056  57.3694468  59.6055317  17.7778494  57.0358324  60.7560539
  18.2646751  56.4624929  58.5925865  18.5764253  56.7581701  57.6785374
  17.9631150  55.0224352  58.6809206  17.7768302  54.7838831  59.7280550
  16.6539490  54.8312616  57.9492617  16.7136955  55.3829241  57.0110750
  16.4121497  53.7798691  57.7936172  15.4320335  55.4762650  58.5775995
  15.2709818  55.6363821  59.7474194  14.4501948  55.8969116  57.7824688
  13.5764766  56.2804413  58.1135702  14.5586658  55.8120871  56.7819023
  19.0322363  54.0768909  58.0952024  18.7757194  52.9816246  57.7841330
  20.2647614  54.5862532  57.8994370  20.4927087  55.5129766  58.2300854
  21.4093423  53.8008595  57.4415112  21.3211107  53.6272430  56.3690472
  22.6344466  54.7198868  57.7990532  22.5889254  55.1713467  58.7901211
  23.5512686  54.1387606  57.6998520  22.7436781  55.8603334  56.8343115
  22.6768947  55.3679991  55.8641338  21.9102955  56.5588379  56.9095898
  24.1519690  56.5060091  56.8082952  24.9790072  56.1104107  57.5673628
  24.5113134  57.4951124  55.9934282  25.3949165  57.9637861  56.1337471
  23.8720918  57.7806568  55.2654457  21.6203117  52.4173021  58.1269073
  22.0006728  51.5105677  57.4450541  21.4001250  52.2622442  59.4220114
  21.0574865  53.0654240  59.9295568  21.2324405  50.9252930  60.0622463
  22.1284795  50.3203201  59.9235916  21.0562873  51.0472250  61.6019487
  20.2321696  51.7298126  61.8093300  20.8262038  50.0586367  61.9992733
  22.2787523  51.6382456  62.3282766  22.4895763  52.4956894  61.6891766
  22.0417666  52.2673368  63.6672497  21.1944675  52.9529810  63.6757374
  21.8311930  51.4407110  64.3458176  22.9676080  52.6453638  64.1008520
  23.4404659  50.6868649  62.4013710  23.8445592  50.4435921  61.4187050
  24.2473197  51.2578106  62.8608465  23.1673861  49.7464800  62.8801250
  20.1631618  50.0381470  59.4347620  20.4474401  48.8416100  59.1939402
  19.0256691  50.5488825  59.0442371  18.9971471  51.5579653  59.0120125
  17.9590571  49.7853756  58.3112097  17.7910554  48.8779449  58.8912535
  16.6360152  50.5968523  58.2114983  16.6102147  51.4748478  57.5660801
  15.8993506  49.9257421  57.7698660  16.0035336  51.0428476  59.5151186
  16.4236093  50.2970266  60.1899433  16.4480364  51.9737053  59.8672867
  14.4981909  51.0358143  59.4262791  13.8931561  51.5893173  58.4986115
  13.8858223  50.4310083  60.3581762  12.8788090  50.4066944  60.4318857
  14.4130790  49.8655319  61.0080481  18.4973979  49.3494511  56.9208860
  18.3818901  48.2294941  56.5473938  19.0369165  50.2691793  56.1162281
  19.1283941  51.2104797  56.4707613  19.6002436  49.9336195  54.8202705
  18.8590240  49.4370270  54.1940975  20.0513411  51.1525059  54.0679407
  19.2552972  51.8957615  54.1125202  20.8849311  51.5487576  54.6477795
  20.5227590  50.9620237  52.6175070  19.6011353  51.2048101  51.5744829
  18.5771573  51.4790821  51.7810059  19.9832916  51.1497307  50.2123833
  19.3333852  51.4349890  49.3983507  21.3398862  50.7612562  49.9060678
  21.7096233  50.6302309  48.6619139  21.3203788  51.3745356  48.1970453
  22.2407556  50.4332018  50.9675026  23.2011390  49.9990273  50.7317972
  21.8352628  50.6041336  52.3299170  22.4675822  50.3578234  53.1700993
  20.7105374  48.8421345  54.9249363  20.7161760  47.9029751  54.1607666
  21.6560388  48.8926840  55.8851576  21.5696263  49.6673775  56.5274143
  22.6166821  47.7971506  56.2142658  23.1128025  47.5404263  55.2782822
  23.5939741  48.1549549  57.3405170  23.0524707  48.3486366  58.2664537
  24.1490364  47.2478390  57.5795650  24.5024872  49.3512058  56.9332647
  23.8033390  50.1692247  56.7596483  25.4887819  49.7299099  58.0620766
  24.9768257  50.1104736  58.9459181  26.1128259  48.8639927  58.2831240
  26.0606766  50.5707169  57.6695395  25.3287148  49.2523861  55.6525087
  25.9500718  48.3581781  55.6033516  24.6366382  49.1612816  54.8153543
  25.8631301  50.1849222  55.4712009  21.9813967  46.4332867  56.5048027
  22.3550987  45.4626322  55.8730984  20.8823681  46.4306641  57.3084927
  20.7134891  47.1971703  57.9441452  20.1393938  45.1869202  57.5694466
  20.8151364  44.3513870  57.7520847  19.2912674  45.2701378  58.8585472
  20.0039101  45.5095100  59.6478128  18.6428869  46.1265039  58.6732435
  18.6309946  43.9829874  59.4690943  18.0584168  43.5952806  58.6265182
  19.5260429  42.8452730  59.9924564  20.2262783  42.5777721  59.2011213
  20.1137114  43.1829453  60.8461142  18.8069248  42.1241665  60.3810120
  17.7287805  44.3917799  60.6314850  17.0879424  45.2203274  60.3299236
  17.1557045  43.5279369  60.9683275  18.3191359  44.6335220  61.5153074
  19.3612969  44.5263100  56.4124346  19.3719625  43.3204794  56.1382246
  18.7015951  45.4503345  55.7181454  18.6994326  46.4319515  55.9558916
  17.7918494  45.1120758  54.6527576  17.2698069  44.1871548  54.8978853
  16.6852415  46.2303209  54.5570087  17.1905947  47.1960497  54.5477724
  16.0734534  46.1591053  53.6577034  15.7786667  46.1710596  55.7680321
  15.0685108  45.3528976  55.6480837  16.3310242  45.9555149  56.6826582
  15.0345755  47.4776602  56.0035229  15.7758629  48.2766581  55.9898138
  14.2570949  47.6281929  55.2545452  14.4090474  47.3597956  57.3370600
  14.9504673  46.8330193  58.0074883  13.2518208  47.7294159  57.7232504
  12.4859416  48.4737539  56.9468403  12.7064025  48.7608671  56.0039377
  11.6021228  48.8265467  57.2852182  12.9208708  47.6094913  59.0200520
  13.6085868  47.2938347  59.6890116  12.2266769  48.2698107  59.3397045
  18.3591127  45.0344038  53.1892872  17.7319288  44.3690205  52.3692751
  19.5320475  45.5994415  52.9366779  20.0559735  46.0350370  53.6822367
  20.1584768  45.4990244  51.5708113  19.5899236  44.7938871  50.9644842
  20.0810957  46.8768120  50.8418036  20.5457568  47.6245642  51.4844990
  20.9100056  46.9113111  49.5468235  21.9521451  46.6585159  49.7421265
  20.5720186  46.1524153  48.8411665  21.0176396  47.9279900  49.1688251
  18.6241996  47.3499870  50.5708075  18.2496822  46.8806696  49.6610928
  17.9806304  47.0618057  51.4019918  18.5670650  48.4214211  50.3787899
  21.6312981  45.0531197  51.6930532  21.9365048  44.0369701  51.0362244
  22.4530005  45.7698298  52.4858475  22.1222448  46.6414309  52.8744555
  23.9052606  45.5689812  52.3612452  24.0668035  45.6519461  51.2864780
  24.7806072  46.6997004  53.0350494  24.4862247  46.7221069  54.0843010
  26.2811542  46.3295555  52.8805208  26.4016438  45.8995104  51.8862104
  26.8586969  47.2441053  53.0152225  26.5921807  45.5279827  53.5504770
  24.5303631  48.0785084  52.3150206  23.4973741  48.3836985  52.4820280
  25.1758337  48.7692213  52.8575897  24.7581005  48.0198860  51.2506866
  24.2307019  44.1526747  52.7979183  24.7715139  43.3425951  52.0171261
  23.9064908  43.8372469  54.0253067  23.6046553  44.6297169  54.5739269
  23.9999866  42.5389147  54.6257734  25.0343895  42.2864056  54.8589134
  23.4261370  42.6230192  56.0302877  23.8684988  43.4665871  56.5602016
  22.3768878  42.8319693  55.8216763  23.3972669  41.2626600  56.7571545
  22.9981089  40.4903269  56.0996771  24.7657967  40.7347631  57.0831108
  24.6832681  39.7457957  57.5339270  25.2530885  40.6063128  56.1166000
  25.2321744  41.4594793  57.7504826  22.6315475  41.2239695  58.0242300
  22.8623414  42.0156002  58.7370825  21.5516162  41.2385368  57.8771305
  22.8515792  40.2686930  58.5008192  23.3087516  41.4405632  53.8229132
  23.9049411  40.4485750  53.3864689  22.0260096  41.6629457  53.5465002
  21.6968584  42.5172138  53.9730978  21.1127281  40.7695913  52.7670145
  20.8937550  39.8555899  53.3190632  19.8007929  41.4069080  52.5272703
  19.4748282  41.9484377  53.4152985  19.9490452  42.1634102  51.7566681
  18.7514639  40.4274416  52.0460367  19.0342271  39.8393321  51.1729574
  18.6798370  39.6618724  52.8186131  17.3941100  41.0219240  51.8062544
  17.0805526  41.5291691  52.7186584  17.4824417  41.7624235  51.0112906
  16.4425802  39.8616457  51.4643621  16.5774703  39.4340658  50.4708433
  16.6943717  39.1037226  52.2061491  15.0526190  40.2220106  51.5757465
  15.0106788  41.1365080  51.1490822  14.4486225  39.6023035  51.0549307
  14.7575378  40.1760864  52.5405884  21.7220616  40.3607416  51.4558315
  21.6190076  39.1316700  51.0655832  22.3292637  41.3076878  50.7648897
  22.3195696  42.2509527  51.1257935  23.0965805  40.8507347  49.6087790
  22.5104880  40.1868677  48.9732647  23.4894133  42.0547962  48.7592363
  24.2273808  42.6390457  49.3089199  23.9707828  41.5888214  47.4021006
  24.9656057  41.1876011  47.5956249  23.3807182  40.6905460  47.2203827
  23.8925123  42.3919201  46.6692924  22.4068117  42.8947783  48.4385204
  22.2011161  43.3183718  49.2750978  24.3070412  39.9366689  49.8845911
  24.4108605  38.8465929  49.3671036  25.2183771  40.3926706  50.7659340
  24.9670386  41.2034750  51.3132238  26.5278840  39.7768736  51.1039305
  26.9198608  39.7121525  50.0889063  27.3942804  40.7670307  51.8578482
  26.7641973  41.0661602  52.6954746  28.2297111  40.2733517  52.3542690
  27.9219079  41.9467688  51.0826731  27.2098041  42.2477627  50.3142929
  28.2345510  43.1462479  51.9407034  28.4481978  44.0762186  51.4138222
  27.4209929  43.3852911  52.6255989  29.0540600  42.8663778  52.6026535
  29.1943622  41.5621805  50.3259087  29.4767666  42.4186230  49.7136545
  30.0101137  41.2584448  50.9819508  28.9696240  40.7942152  49.5857573
  26.4483690  38.3027768  51.6616488  27.3697829  37.5452518  51.3851023
  25.4501987  38.0632138  52.4746466  24.8506451  38.8591719  52.6392269
  25.1282334  36.7967987  53.1211710  25.9871459  36.3268471  53.6002493
  24.0574861  37.1070886  54.1978550  24.5112967  37.8234148  54.8827124
  23.2161736  37.4540281  53.5979080  23.6824775  35.9304261  55.1044035
  22.6107502  35.1483011  54.8238564  22.0369005  35.1504636  53.9089298
  22.4934220  34.2053008  55.8806658  21.8253422  33.4526896  55.7949543
  23.3616614  34.4618487  56.9411421  23.6143470  33.7803030  58.1558323
  22.9784703  32.9653668  58.4687948  24.6105433  34.2605495  58.9676285
  24.8481369  33.8880467  59.9531174  25.3430653  35.4134536  58.5237646
  26.1796975  35.7701087  59.1062164  25.2398205  35.9428906  57.2596312
  25.9052730  36.6892719  56.8515921  24.2071986  35.5005956  56.4183521
  24.5539165  35.7375169  52.0601988  24.9377394  34.5848632  52.2472382
  23.7374973  36.2026691  51.0442448  23.5415816  37.1933985  51.0306025
  23.2777405  35.3006053  49.9888182  22.9904008  34.4086981  50.5456305
  22.0312095  35.8639908  49.3223763  21.4882231  35.0103068  48.9167976
  21.3622522  36.2921286  50.0688982  22.1460152  36.9520712  48.2338095
  22.4649596  37.9008627  48.6652803  22.8868032  36.6338849  47.5002623
  20.7546186  37.1255255  47.6222467  20.4602051  36.2319398  47.0718575
  20.0902748  37.3474455  48.4574127  20.5811310  38.1744647  46.5177441
  20.8560348  39.1671562  46.8742371  21.2422013  37.8683352  45.7069588
  19.1977906  38.2374787  46.0036230  18.7065864  38.6189461  46.7994261
  19.1771495  38.8449883  45.1970243  18.7616348  37.3684812  45.7302856
  24.4232392  34.8660564  48.9703465  24.3337607  33.8324881  48.2747269
  25.4329085  35.6514525  48.7840843  25.4808927  36.4261723  49.4303131
  26.4473915  35.5192804  47.6753569  25.9863400  35.5807352  46.6895771
  27.4000120  36.6498303  47.7964783  26.9394732  37.6341486  47.8808641
  27.8772926  36.5666723  48.7728977  28.4504080  36.8303490  46.7654419
  29.7092843  36.2124610  46.8216896  30.3652835  36.6622138  45.7029343
  31.3945675  36.4306545  45.4719448  29.5808411  37.4475646  44.9797821
  29.9665713  37.9090285  44.1683817  28.3952498  37.5944662  45.6193447
  27.5578904  38.1833267  45.2751350  27.1672916  34.1250396  47.7561712
  27.4261355  33.6718988  48.8609600  27.4975395  33.6711931  46.5713453
  27.1525908  34.0888262  45.7188845  27.9971194  32.3030353  46.4030600
  27.2901940  31.5095687  46.6454792  28.3278680  32.1162891  44.9319887
  28.6794758  31.1100960  44.7038460  27.4032998  32.1837521  44.3586445
  29.4766283  33.0311942  44.3415403  30.1323390  33.3183694  45.1635408
  29.9347568  32.3601556  43.6149597  28.8314319  34.2253828  43.7174129
  27.6329350  34.4598389  43.7683296  29.5065689  34.9619579  42.9046202
  29.1979742  35.9037590  42.7099943  30.4604292  34.7891593  42.6210928
  29.2176199  32.1330070  47.3367405  29.4958901  30.9870052  47.7837944
  29.9875736  33.1886125  47.6386261  29.8128080  34.0659928  47.1698380
  31.2317801  33.1039667  48.4270191  31.6454792  32.0989704  48.3437204
  32.2358894  34.1046000  47.8259039  31.7587376  35.0835943  47.7812529
  33.0941129  34.2301202  48.4860516  32.8179765  33.7920070  46.4893293
  32.6942325  32.5394011  45.8618021  32.0332003  31.8024349  46.2934494
  33.3882427  32.2154784  44.6596956  33.1210732  31.3193369  44.1193676
  34.3873334  33.0952191  44.2517042  35.0997901  32.7016211  43.5418558
  34.5211101  34.3799472  44.8432684  35.3749228  34.9796915  44.5645046
  33.6182404  34.7420311  45.8983707  33.7071872  35.7200456  46.3477898
  31.1330080  33.4190392  49.9843740  32.1258616  33.1879163  50.6790590
  30.0305390  34.0118599  50.5101204  29.2551112  34.1329479  49.8743916
  29.8907256  34.3054938  51.9374180  30.4386497  35.2339816  52.0980406
  28.3599758  34.6070838  52.2084808  27.9833627  35.0980043  51.3111210
  27.7236080  33.7390780  52.3808432  28.3808589  35.2706885  53.0729437
  30.3078198  33.1797147  52.9270792  30.6409669  33.5576797  54.0312672
  30.1073885  31.9052196  52.6699400  29.8123121  31.6195989  51.7471981
  30.1752281  30.8132744  53.6584091  29.2722774  30.7590175  54.2665577
  30.2658248  29.5807147  52.8257513  29.3862891  29.4809794  52.1896935
  31.0701156  29.6529293  52.0936298  30.4743886  28.3204937  53.5621977
  31.5997934  27.5191379  53.4111404  32.3956037  27.6348686  52.6902390
  31.4847898  26.4696741  54.2789555  32.2178268  25.7756329  54.3115664
  30.4735947  26.6156650  55.2213764  30.0885487  25.8574390  56.3594198
  30.6832767  25.0205898  56.6946554  28.9350748  26.2916064  57.0774126
  28.6670852  25.6671071  57.9168081  28.2529426  27.4229956  56.7008114
  27.3870850  27.7476740  57.2587347  28.6855912  28.1275582  55.5504751
  28.1020236  28.9835167  55.2452183  29.7775745  27.7642703  54.7640085
  31.3649178  30.9200358  54.6996403  31.1324859  30.7943058  55.8918858
  32.6153255  31.2743139  54.3570042  33.2630587  31.5004730  53.0800581
  33.4261417  32.5746584  52.9926825  32.7211714  31.1144972  52.2166443
  34.6441507  30.7976294  53.1979465  35.3394246  31.1732483  52.4472094
  34.4360781  29.7276950  53.2045317  35.0036740  31.2316585  54.6391487
  35.5563617  32.1711397  54.6429682  35.6848407  30.4927802  55.0612450
  33.7025142  31.3265872  55.3561783  33.6720347  30.4831696  56.0459757
  33.6559415  32.5329590  56.3277674  34.4623852  32.6111031  57.2080421
  32.7240157  33.4385848  56.0604763  32.0810080  33.2538700  55.3038263
  32.5850201  34.7122645  56.7312670  33.3545852  34.7780776  57.5003862
  32.8249860  35.8103561  55.7440424  31.9109797  35.6885076  55.1627970
  32.8891587  36.7921495  56.2131500  33.9907503  35.6691027  54.7744083
  33.7797952  35.0513434  53.5462761  32.7846622  34.8437834  53.1815434
  34.9256277  34.8246908  52.7666283  34.6495223  34.3926883  51.8160820
  36.2008929  35.3045368  53.1523705  36.9723320  35.1776195  52.4072742
  36.3378525  35.8895302  54.4202852  37.3239446  36.1767840  54.7542334
  35.2870989  36.0883307  55.2050447  35.4490042  36.4451361  56.2114620
  31.2052298  34.7651649  57.4617434  31.0347104  35.5315256  58.4326363
  30.2107739  34.0654230  56.9145298  30.4110384  33.8032651  55.9599257
  29.0185022  33.7256455  57.6847887  28.4341502  34.6245360  57.8813267
  27.9548335  32.7802062  56.9734764  28.4411240  31.8081927  56.8909454
  27.1396947  32.6482940  57.6849842  27.3982692  33.2886100  55.6296825
  26.9134355  34.2303967  55.8867311  28.2393456  33.4670424  54.9597168
  26.3752985  32.3327494  55.0417137  26.3745618  31.1446142  55.2692556
  25.4109406  32.7465343  54.2699575  24.7878599  32.0553565  53.8773346
  25.4424477  33.7158084  53.9877892  29.3353748  33.1497478  59.0939856
  28.4912205  33.3016109  59.9331045  30.4734445  32.4402332  59.3058157
  31.1494732  32.3340678  58.5629749  30.8164048  31.9388771  60.6261253
  30.3429341  32.5934482  61.3578796  30.3707671  30.4832983  60.8393240
  30.8909798  29.9143457  60.0687551  30.7731128  30.1665950  61.8015718
  28.8869429  30.2130771  60.9259939  28.6283326  30.3601432  61.9746065
  28.3488846  30.9348607  60.3114891  28.4167600  28.7660098  60.4335451
  29.2414618  27.9106951  60.1314020  27.1194577  28.5322857  60.4395533
  26.8517017  27.7150297  59.9099302  26.5019011  29.2613530  60.7669449
  32.3491931  32.0081329  60.8938503  33.1250858  31.9953990  59.9719572
  32.8191519  32.1186447  62.1603012  32.0291257  32.1415901  63.3660841
  31.8099689  31.1167741  63.6658001  31.1608505  32.7445531  63.1003237
  32.8316379  32.8298330  64.4230747  32.4592137  32.4403095  65.3705359
  32.8015089  33.9184737  64.3777561  34.2372108  32.3431063  64.1281843
  34.1864085  31.3369823  64.5444059  34.9160504  33.0957007  64.5292807
  34.1958928  32.3073769  62.5580263  34.5283508  33.2944942  62.2368240
  35.0934339  31.2977839  61.8131065  34.7894597  30.0944281  61.6367579
  36.2420154  31.8128371  61.4283609  36.3749623  32.8124690  61.4845562
  37.2882056  31.0975313  60.6898785  36.9455957  30.8924222  59.6756554
  38.5442996  32.0420551  60.5568266  38.6885619  32.5916481  61.4870071
  39.8126864  31.3864446  60.0812674  40.5502081  32.1003485  59.7145176
  40.2027225  30.9213972  60.9866428  39.5476604  30.5786991  59.3990612
  38.2843995  33.2148671  59.6156549  37.7055573  33.8714528  60.2652311
  39.1306925  33.7480068  59.1824675  37.6724100  32.9624391  58.7497139
  37.6701474  29.8270726  61.4809847  37.6887512  29.7637510  62.6848125
  38.0033779  28.7720728  60.7225227  38.2302117  28.9874291  59.7621727
  38.3098078  27.4882603  61.3013554  37.4326134  26.9333696  61.6341162
  38.8491464  26.6089797  60.1530409  39.7841668  26.9989109  59.7508049
  39.0875959  25.6749892  60.6618643  37.8114700  26.3092613  59.0151119
  38.2728648  25.8655453  57.9381037  36.5868831  26.4570141  59.1420841
  39.2258358  27.5110030  62.5662899  38.8179803  27.1184182  63.6668348
  40.3942680  28.1614852  62.4555159  40.7544041  28.4152985  61.5466833
  41.3417721  28.3264351  63.6188459  41.6686869  27.3248243  63.8981485
  42.6264191  29.0791798  63.0987835  42.4268579  30.1034594  62.7839422
  43.3336306  29.0673852  63.9281273  43.0728531  28.4946394  62.2943497
  40.7507563  29.0676022  64.8428297  41.1992359  28.7606382  66.0076046
  39.7533464  29.8794699  64.7573709  39.4777870  30.0985813  63.8107157
  39.0423155  30.5137396  65.8943844  39.7791839  30.8252954  66.6346979
  38.1517100  31.7504072  65.4486132  37.5439358  31.2855887  64.6723080
  37.3442650  32.1857834  66.7338324  36.8272781  33.1318045  66.5730047
  36.5974879  31.4504290  67.0332956  38.1087399  32.2592926  67.5073195
  39.0030646  32.9621124  65.0822735  38.3401251  33.8221693  64.9878550
  39.7440147  33.1678414  65.8547783  39.5455241  32.8032136  64.1502857
  38.1314588  29.4950032  66.6332531  38.1523156  29.3673110  67.8372526
  37.4723983  28.6385417  65.8376646  37.5001144  28.7739086  64.8371601
  36.6489768  27.5099635  66.2284040  35.8913398  27.7847672  66.9622755
  35.8643460  26.9321346  65.0160789  36.5352845  26.5432525  64.2501068
  35.4136634  25.9856820  65.3147697  34.8317122  27.7893615  64.4038486
  34.2154241  28.3687305  65.0913239  35.3597665  28.5254073  63.7976408
  33.8629031  26.9862700  63.4713030  33.3077335  26.2754035  64.0833139
  33.0882764  27.7204108  63.2497406  34.4206142  26.3085103  62.1462107
  35.3011060  25.6988549  62.3490953  33.6079097  25.6883144  61.7681026
  34.6291590  27.3741674  61.0651827  35.2734590  28.0517125  61.4471579
  35.0415921  27.0356560  60.2076244  33.7579226  27.8237748  60.8224726
  37.5141406  26.3393092  66.7540503  37.0572329  25.6453896  67.6757812
  38.7507439  26.1901259  66.3083363  38.9671540  26.7506862  65.4965210
  39.7944641  25.3448081  66.8989611  39.2752266  24.5205307  67.3879004
  40.7263517  24.8565125  65.8085394  41.0227156  25.7302499  65.2281475
  41.5884447  24.2736125  66.1327696  39.9615121  23.8750410  64.8907375
  38.9945865  24.3119931  64.6412754  40.6409407  23.7623739  63.4552813
  41.7212057  23.6638284  63.5622025  40.2951956  22.8026652  63.0711937
  40.3348303  24.5883489  62.8132820  39.5631719  22.5141263  65.3775167
  39.0797687  22.5779128  66.3523769  38.9576864  22.0146823  64.6211767
  40.5303335  22.0165205  65.4488564  40.6195688  26.1062598  67.9966831
  41.5079737  25.4773688  68.6132240  40.3641796  27.3895550  68.3027601
  39.6124983  27.8570390  67.8164101  40.9530067  28.2401133  69.2979717
  40.6925488  29.2339420  68.9338684  40.3271055  27.9180908  70.6678486
  39.2607951  27.6987052  70.6134939  40.7185316  26.9916320  71.0880327
  40.5496550  29.0741491  71.6839600  39.9493885  30.1257706  71.5540981
  41.2945843  28.8334799  72.7054596  41.4695883  29.5582438  73.3867741
  41.5283298  27.8548861  72.7938938  42.5565767  28.2252240  69.2745209
  43.1211424  28.1424832  70.3861570  43.1969070  28.3067298  68.1256580
  42.6601791  28.6808562  67.3562050  44.6430397  28.3079743  67.9106855
  45.1114750  27.5327182  68.5170269  44.8985958  27.8210497  66.3917923
  44.4506216  28.4694481  65.6387997  45.9577560  27.9575658  66.1734962
  44.4215584  26.3504863  66.1081266  43.3756018  26.2900543  66.4088488
  44.5196867  25.9866261  64.6084213  45.5857515  26.0241842  64.3843794
  44.1027689  25.0295901  64.2948008  43.9735985  26.7236924  64.0196800
  45.2491283  25.3335619  66.9809675  46.2979269  25.3856611  66.6887188
  45.1577139  25.5105734  68.0526066  44.7437239  24.3982792  66.7403078
  45.2422523  29.6707702  68.2986021  44.8640013  30.6914306  67.6565313
  46.2897444  29.7651410  69.1827440  46.9318628  28.6809230  69.9205065
  47.2759485  27.9169536  69.2233324  46.2886047  28.2052827  70.6608391
  48.0881023  29.2952561  70.6197309  49.0178013  29.1094351  70.0819254
  48.1758308  28.8688445  71.6190195  47.6916933  30.6861567  70.9470463
  48.4600306  31.4573169  71.0024881  47.0932961  30.6119847  71.8550825
  46.8086576  31.0068154  69.7302723  45.9280872  31.5739942  70.0319481
  47.6065302  31.7392039  68.5869884  47.7937651  32.9671025  68.6338663
  47.9295444  31.0637307  67.4594116  48.0619907  30.0665426  67.5498199
  48.5692072  31.7235255  66.3302088  49.4357824  32.2391558  66.7440557
  48.9673376  30.8125663  65.1625109  48.1087112  30.2806568  64.7527266
  49.3445301  31.4693260  64.3786097  49.9767590  29.7815084  65.6838703
  49.5260715  28.6247063  65.9133911  51.1593962  30.1177216  65.7793236
  47.7764511  32.8817415  65.6579876  48.3810377  33.8537931  65.2269506
  46.4339876  32.6761794  65.6836271  46.1052465  31.8356705  66.1370277
  45.4676056  33.5800457  65.1425028  45.7211113  33.8409138  64.1149902
  44.1308737  32.7766132  65.0345230  44.3101549  31.8036366  64.5770550
  43.7848759  32.4887395  66.0272551  42.9672575  33.4997606  64.2838526
  42.8676510  33.3361363  62.8929853  43.5470438  32.6437998  62.4181175
  41.9977427  34.1277051  62.1083403  42.0612049  34.0206003  61.0355377
  41.0703373  34.9529696  62.6999283  40.3408670  35.8396220  62.0270205
  40.5340099  35.5666757  61.1271334  41.2601519  35.1750350  64.0668392
  40.5635691  35.8251595  64.5752859  42.2113895  34.4855380  64.8708057
  42.3333454  34.7252178  65.9167910  45.2040434  34.7602129  66.0684299
  45.0549126  35.8956051  65.6613350  45.3293514  34.5324922  67.3872900
  45.4865026  33.6174631  67.7849483  45.1461697  35.6303596  68.3574343
  44.3744135  36.2647438  67.9214811  44.7152853  34.9528980  69.6803951
  45.5860615  34.4094896  70.0472164  44.5489979  35.8101821  70.3327084
  43.3902407  34.2284536  69.6550322  43.3658075  33.1116867  70.4192686
  44.2283821  32.8730202  71.0237598  42.1438694  32.3110199  70.4240608
  42.1399450  31.3980651  71.0010338  41.1336708  32.6014423  69.4919157
  39.9230337  32.0403862  69.5336819  39.8530412  31.4661121  70.2997828
  41.1621666  33.7162209  68.7008190  40.3544426  33.9957285  68.0406189
  42.2747564  34.5599532  68.7789392  42.2666693  35.4313207  68.1409264
  46.3484669  36.5039873  68.5509968  46.3331890  37.6760650  68.8839340
  47.5045919  35.9545898  68.1623507  47.5172234  34.9612141  67.9802990
  48.7602901  36.6589522  68.1561184  48.7667179  37.3743176  68.9784956
  49.9135160  35.6937099  68.4370565  49.7798204  34.9202895  67.6807165
  50.8226490  36.2644362  68.2477140  49.9477625  34.9557304  69.7743130
  50.2298069  35.5343914  70.6539154  48.9179277  34.6658230  69.9828959
  50.7902575  33.6185861  69.6998596  50.6507540  33.0281281  70.6053972
  50.4055309  33.0267930  68.8692760  52.1941900  34.1248965  69.5940876
  52.2352123  34.8477745  68.7793064  52.4296999  34.6918130  70.4947758
  53.1412315  33.0409265  69.4681168  54.0660429  33.4465766  69.4519567
  53.0363607  32.3710680  70.2167130  52.9887438  32.5814152  68.5817194
  49.0010214  37.5160050  66.9449997  50.0668383  38.0483341  66.7988157
  47.9100275  37.7367759  66.1402798  47.0801115  37.1745229  66.2636042
  47.8972292  38.4126306  64.8724270  48.6725426  39.1786313  64.8570633
  48.2907724  37.4237728  63.7358284  49.2137337  36.9258571  64.0330267
  47.2959471  36.3866758  63.4756613  46.4053917  36.8308353  63.0309963
  47.6401663  35.7275200  62.6787090  47.1304798  35.8520913  64.4110441
  48.5349464  38.1955934  62.4596786  47.5842953  38.5340405  62.0475912
  49.2531443  39.0084696  62.5669909  49.3023491  37.2587729  61.3769674
  48.5854912  36.6229081  60.8574581  49.7610426  37.9163218  60.6385040
  50.0704193  36.6123390  61.8015718  46.6032839  39.2677045  64.6907234
  46.7282438  40.4245234  64.3341208  45.4321671  38.7619495  64.9567032
  45.5072355  37.7741551  65.1535082  44.0894794  39.4027066  64.8870039
  44.1118193  40.2412987  64.1910458  43.0205631  38.3502531  64.4398212
  42.8854084  37.5897145  65.2088594  41.7524862  39.1184044  64.4136667
  41.8877077  39.7766376  63.5554409  40.9157324  38.4647536  64.1673279
  41.6054583  39.6673131  65.3438187  43.3409834  37.6632142  63.0905581
  44.0148640  36.8136024  63.2007885  42.4108744  37.2778630  62.6728249
  43.8820982  38.6978889  62.0577812  44.0522146  38.1327438  61.1413908
  42.9824638  39.2987013  61.9244099  44.7720623  39.2750335  62.3087168
  43.8225031  40.0566673  66.2275219  43.2400608  39.4192743  67.1050119
  44.1615391  41.3452578  66.3362074  44.5560408  41.7416859  65.4951859
  43.9474344  42.2141933  67.4782181  44.3358803  41.6576862  68.3311558
  44.7495890  43.5465860  67.4880791  44.3441105  44.2309952  66.7429161
  44.5590734  44.0110826  68.4555721  46.2665558  43.5090303  67.1269941
  46.7890835  43.0659437  67.9747772  46.4013672  42.9607964  66.1945963
  46.8353224  44.9485874  66.9270086  46.4235640  45.4043531  66.0265446
  46.5345526  45.5686712  67.7714825  48.3590460  44.9448204  66.9573212
  48.6645603  44.2499828  67.7396011  48.6965179  44.6241856  65.9717226
  48.8986063  46.2663746  67.2336960  49.8768282  46.2638378  66.9823456
  48.4723616  46.9838095  66.6647434  48.8435888  46.6086531  68.1823349
  42.4364614  42.3311377  67.8227091  42.1142054  42.4680519  69.0260649
  41.5145731  42.1669197  66.8049669  41.9023943  42.1876240  65.8726168
  39.9953389  42.1652794  66.9277906  39.6797204  41.7145729  67.8687191
  39.4499636  43.5378790  66.9093418  39.7670412  43.9876223  65.9684372
  37.8986359  43.4981537  66.9116449  37.5029254  44.5115089  66.8436766
  37.4306345  43.0393791  66.0406637  37.4613118  43.1806374  67.8582335
  39.9067640  44.2537022  67.9985237  40.7506323  44.6439028  67.7592993
  39.3108916  41.2781572  65.8299541  39.0733576  41.6641331  64.6837711
  38.9676571  40.0226831  66.1270857  39.3207479  39.2297339  67.2624683
  38.4889221  39.2442584  67.9667091  40.2314138  39.6047711  67.7295208
  39.4468355  37.8508449  66.7163420  39.3402529  37.1299553  67.5269318
  40.3663445  37.7245760  66.1448050  38.2842755  37.7597952  65.7384586
  37.3211336  37.4290705  66.1271477  38.5313606  37.1318889  64.8824310
  38.1643796  39.1856790  65.2394867  38.6095643  39.2527699  64.2468119
  36.7134428  39.5850086  65.0573969  36.0615253  40.0803328  65.9520006
  36.2238026  39.3306041  63.8005304  36.7225051  38.9201999  63.0240250
  34.8774028  39.7724342  63.3598566  34.1627383  39.7146821  64.1808462
  34.9676800  41.2371397  62.9218149  35.5360007  41.7693710  63.6846018
  35.4919887  41.3819265  61.9772339  33.6059690  41.8573523  62.7281761
  33.6237264  42.9188633  62.4812508  33.2108140  41.4006424  61.8207788
  32.3827815  41.6821384  64.0994024  33.2420969  42.7802277  65.2383471
  34.1595888  42.3023176  65.5817223  33.3117986  43.8082790  64.8828793
  32.5898862  42.9143047  66.1013365  34.2836833  38.8171768  62.3461151
  34.9843526  38.3106017  61.4369297  33.0190015  38.4214973  62.5046921
  32.4823761  38.8179564  63.2629490  32.3093104  37.4828362  61.6110325
  32.8541851  37.5210333  60.6677628  32.2752190  36.0269761  62.1416998
  32.0999980  35.3444600  61.3100910  33.2234526  35.7208824  62.5835800
  31.1844206  35.7814455  63.1639433  30.2749085  34.9282789  62.8770876
  31.1151862  36.3743758  64.2858219  30.9411907  38.0129814  61.3009119
  30.4152489  38.7922883  62.0553732  30.3644562  37.6865506  60.1030588
  30.8003092  37.1649218  59.3560362  29.0680194  38.2884383  59.6834660
  29.2723250  39.3587923  59.6570063  28.7945414  37.8524804  58.2656240
  29.7151804  37.5424767  57.7712297  28.0934739  37.0184422  58.2343006
  28.2176876  38.9876294  57.4004793  27.2376990  39.2756963  57.7809334
  28.8100338  39.8966646  57.5047922  27.7902555  38.4781194  55.6472921
  29.3767738  38.3773351  54.8003101  29.9167824  37.6613522  55.4198790
  29.3302178  38.0226684  53.7706757  29.7489166  39.3971586  54.8981476
  27.9181337  37.9478049  60.5600882  26.9684887  38.6958528  60.7264042
  28.0461526  36.7881489  61.2380886  28.8761616  36.2210798  61.1400127
  27.1243310  36.3205504  62.2981310  26.1239886  36.1474347  61.9013357
  27.5124240  35.4012251  62.7366829  27.0881128  37.4194241  63.4426737
  25.9868073  37.7829146  63.8589716  28.2446027  37.8714657  63.9876461
  29.1369843  37.6226377  63.5853529  28.2236505  38.8869286  65.1243734
  27.5237560  38.5982585  65.9085417  29.6473527  39.0248585  65.6737757
  30.2626467  39.3632269  64.8400974  29.6046638  40.0803995  66.8355083
  29.2934775  41.0490370  66.4443493  28.8906908  39.6455455  67.5349712
  30.6007028  40.1528215  67.2722721  30.1748586  37.8636312  66.2665081
  30.3945541  37.2284174  65.5810595  27.6512361  40.2387619  64.6512651
  26.7584443  40.7080030  65.2669621  28.0131125  40.7243013  63.4533978
  28.6724019  40.2109623  62.8860140  27.5861573  41.9512272  62.7674007
  27.7979732  42.8351212  63.3690357  28.3437181  42.0496655  61.4221859
  28.2822371  41.0820627  60.9241199  27.6979423  43.0913639  60.4505873
  26.6141391  43.0145073  60.3636169  27.9784203  44.0334702  60.9216213
  27.9882932  42.8466082  59.4288731  29.8730326  42.2543716  61.6445732
  29.9626541  43.1842566  62.2061586  30.2950358  41.4897919  62.2968245
  30.5970979  42.3423195  60.2734327  30.3518414  43.2806492  59.7759533
  31.6825986  42.4029732  60.3516197  30.3052616  41.5248251  59.6141624
  26.0274458  41.8667746  62.6548910  25.3794909  42.8780937  62.9292727
  25.5278277  40.7777357  62.0758772  26.1466026  40.0493431  61.7492867
  24.1027069  40.4597998  61.8803883  23.6569977  41.2599945  61.2895060
  23.9396000  39.1653299  61.0690546  24.4068718  39.3133855  60.0954866
  24.5725393  38.4171081  61.5461826  22.4776769  38.6724854  61.0119438
  21.9717050  38.6594391  61.9773054  21.8906784  39.3975616  60.4482079
  22.4244595  37.2174096  60.3976822  22.9997849  37.3170853  59.4772673
  22.8475189  36.5101361  61.1110401  20.9913874  36.9228888  59.9612999
  20.4588199  37.7339053  59.4645834  20.9565902  36.0244775  59.3450642
  20.1283407  36.5789032  61.1178875  19.1760480  36.4464855  60.8085299
  20.3623962  35.7184076  61.5920925  20.0671244  37.3886490  61.7184401
  23.4393668  40.4090500  63.1958246  22.4268699  41.1154890  63.3833647
  24.0881467  39.8326373  64.2267513  24.7930598  39.1217923  64.0929842
  23.5165620  39.7487497  65.6069708  22.4972534  39.4084454  65.4244614
  24.1339278  38.7086034  66.5327168  24.1606784  37.6934814  66.1365986
  25.1118755  39.0585756  66.8632412  23.3525753  38.6225128  67.7865267
  23.4133983  39.6269035  68.2055759  22.3243475  38.3587742  67.5389576
  23.9221239  37.7710605  68.8830757  23.9775300  36.7067432  68.6544514
  24.9518275  38.1227469  68.9472961  23.3367109  37.9875517  70.2478075
  24.0628433  37.6384735  70.9819555  23.0045485  38.9858174  70.5328369
  22.0648313  37.1766138  70.3959513  21.3378930  37.3955488  69.7298145
  22.2092009  36.1808705  70.3078794  21.7383361  37.3434830  71.3370419
  23.3879638  41.1362600  66.1872482  22.2940803  41.4339066  66.7125273
  24.4881082  41.8657589  66.1079645  25.2651763  41.4374208  65.6254768
  24.5334983  43.3262682  66.4298296  24.4051814  43.4645987  67.5033760
  25.9530830  43.9996052  66.1869621  26.3347793  43.6869097  65.2150393
  25.8080602  45.0761461  66.2771177  26.9273996  43.5426140  67.3357105
  26.7873240  44.0609598  68.2842827  26.8021631  42.4616003  67.3976564
  28.3465219  43.7847614  66.8421650  28.6132455  43.0004454  66.1337852
  28.3745360  44.8114634  66.4772081  29.3159509  43.6648655  68.0084896
  29.0173006  43.0322361  68.7369776  30.5112743  44.1697693  68.1203175
  31.1828661  44.9033451  67.3516083  30.7652259  45.0787115  66.4488745
  32.1882367  44.9624634  67.4279881  31.1086535  43.8522577  69.2474937
  30.6153727  43.3463907  69.9692106  32.0706391  44.0988541  69.4315481
  23.3499026  44.0893984  65.8188248  22.6039934  44.7493553  66.5077496
  23.2258701  44.0074778  64.5166492  23.9300632  43.5051775  63.9951992
  22.1517301  44.7533894  63.8029242  22.3103285  45.8200073  63.9619064
  22.3964071  44.5208359  62.2723961  22.5384927  43.4807301  61.9789791
  21.5107131  44.8496580  61.7287779  23.5275960  45.3228140  61.5463638
  24.4733047  45.2684927  62.0856142  23.6986136  44.7077942  60.1415014
  24.5901203  45.1323223  59.6798849  23.9178777  43.6419868  60.2054071
  22.8048658  44.8166943  59.5271254  23.1943059  46.8076420  61.4045334
  24.0933371  47.2792101  61.0077047  22.3940063  46.9811535  60.6851482
  22.9670215  47.2692537  62.3654509  20.7731676  44.2959166  64.3050575
  19.8668444  45.1038933  64.5090103  20.5906796  42.9579353  64.5571899
  21.3470697  42.3119020  64.3822193  19.4026136  42.3633766  65.0203991
  18.6505318  42.7912569  64.3575335  19.3810403  40.8765316  64.6236420
  20.2983475  40.3732109  64.9291182  18.5663271  40.3834724  65.1539612
  19.1416192  40.8389425  63.0921507  18.1987000  41.3449240  62.8848314
  19.9039316  41.4140224  62.5665474  19.0563738  39.3864965  62.5575638
  18.9733720  39.2117763  61.3059092  19.0684128  38.4316897  63.3603334
  18.9670050  42.7164125  66.4037657  17.7675664  42.5380611  66.7401218
  19.9011409  43.1238127  67.2952032  20.8310843  43.3758688  66.9922638
  19.6811843  43.4178638  68.7130260  18.6578929  43.1634474  68.9891768
  20.6484437  42.6506758  69.6532917  21.6368628  42.8512859  69.2399216
  20.7262731  43.1414509  70.6234360  20.2388930  41.2075663  69.7868061
  19.4002104  40.7862902  70.5613518  20.6823874  40.4125929  68.8250923
  20.4493690  39.4322014  68.8932085  21.2530899  40.8242464  68.1005621
  19.6723354  44.9127293  68.9421082  19.6824872  45.3675747  70.0597572
  19.6074247  45.6918192  67.7989101  19.4114721  45.2014399  66.9379616
  19.6300173  47.1865463  67.7942467  19.6157682  47.6112318  66.7904854
  18.3807313  47.8248119  68.4827995  18.2337296  47.6083660  69.5409298
  18.4268987  48.9138031  68.4905291  16.9885731  47.5991917  67.7893877
  16.9535315  47.1416426  66.6821289  15.8736622  47.9451656  68.3721304
  15.0077307  47.9467630  67.8522635  15.7549918  48.2579899  69.3251085
  20.9359145  47.8103828  68.4431458  20.9021163  48.8536930  69.0646839
  22.0836067  47.1832132  68.1831837  22.0748186  46.3850689  67.5643206
  23.2860351  47.5535536  68.9455843  23.0561209  47.5632477  70.0110149
  24.2558074  46.3922691  68.8366365  23.7789750  45.4755592  69.1835928
  24.2983794  46.2494040  67.7568769  25.6426573  46.4235115  69.4107580
  26.0423946  45.5860710  70.4620934  25.3415489  44.8748636  70.8736753
  27.4082136  45.4837179  70.8983564  27.6717544  44.8560953  71.7368317
  28.3476520  46.2892389  70.2010202  29.6716976  46.3499260  70.5463505
  29.9259424  45.8317423  71.3134480  27.9455543  47.0795202  69.1593313
  28.7455320  47.5664139  68.6214018  26.6375542  47.1314096  68.7400532
  26.4430428  47.6960850  67.8402138  23.9844704  48.9066887  68.6541891
  24.6818995  49.4729137  69.5056295  23.8099575  49.3351412  67.4439812
  23.2297015  48.8230944  66.7949724  24.6388698  50.3977442  66.9058704
  25.5786586  50.4499245  67.4555683  24.9652529  50.0979090  65.4640341
  23.9720941  50.0744009  65.0154972  25.4517961  50.9568119  65.0017977
  25.8142877  48.9250994  65.1729774  27.2485590  48.9338970  65.3953314
  27.8165960  49.7710133  65.7734585  27.9817700  47.8047562  65.0029850
  29.0512586  47.8987455  65.1203156  27.3697376  46.6815281  64.5212317
  28.0866313  45.6554365  63.9959431  28.9979100  45.6943321  64.2953730
  26.0029149  46.6807365  64.4180489  25.5313897  45.7611418  64.1043425
  25.1900983  47.8193903  64.7360992  24.1161680  47.8782701  64.6380758
  24.0407920  51.8058157  67.0748711  23.0260634  52.0655680  66.4256907
  24.7406554  52.7184486  67.7601671  25.5114770  52.4737120  68.3651781
  24.4355011  54.1372013  67.6957846  23.4361553  54.3058491  68.0969906
  25.4723620  54.8362398  68.4861851  25.4028368  54.3982887  69.4819069
  26.4949131  54.5205736  68.2791853  25.5722713  56.3025379  68.5831261
  26.5871072  57.0438099  68.1035566  27.4602485  56.7611170  67.5342512
  26.1737418  58.3422756  68.2190657  26.8322062  59.0405798  67.9045916
  25.1028705  58.5057497  69.0966511  24.6468878  59.6293974  69.7666979
  25.1142001  60.6023169  69.7286987  23.4875965  59.4793034  70.6008625
  23.0340648  60.3009796  71.1352396  22.9799438  58.1714535  70.8311844
  22.0746493  57.9895973  71.3913393  23.4997749  57.0221281  70.1542473
  23.1057215  56.0509062  70.4147339  24.6176338  57.1820068  69.2959356
  24.4251466  54.8076487  66.3056326  23.4908557  55.5895472  66.0983610
  25.4184461  54.4800472  65.5398893  26.1766958  53.9805651  65.9822416
  25.7067657  55.0619841  64.2139673  24.8007512  55.5526018  63.8582563
  26.7452955  56.1827278  64.3566990  26.3433266  56.8463516  65.1222897
  27.7659512  55.8175707  64.4708204  26.8170810  57.0209885  63.1302261
  26.4333010  56.6067410  62.0282745  27.2989750  58.2009220  63.3709097
  27.1668196  58.9364719  62.6914978  27.4212766  58.4164429  64.3500423
  26.1647081  53.9425945  63.2629967  27.0247364  53.0817604  63.5051584
  25.5983090  53.9069939  62.0013857  24.8120022  54.5122862  61.8131113
  25.8577585  52.9100895  60.9854603  25.6849456  51.9113159  61.3863420
  24.9447727  53.1833887  59.8109913  23.9156985  53.3287048  60.1396179
  25.2892733  54.0791512  59.2942476  25.0844884  52.4284649  59.0372515
  27.3206782  53.0125713  60.5117989  27.7902293  51.9961262  60.0391674
  27.9648042  54.1617584  60.6130028  27.4235106  54.9095678  61.0227394
  29.4132781  54.3753099  60.4283857  29.6663547  54.2351294  59.3774796
  29.7659445  55.7970047  60.9003735  29.1758513  56.0562563  61.7793941
  30.8447385  55.9345531  60.9737349  29.2403007  56.8099737  59.9022293
  29.5056701  56.4563274  58.9059305  28.1515050  56.8610859  59.9054623
  29.7155619  58.2609701  60.0476360  30.5945134  58.5273218  60.8268833
  29.1150689  59.2080069  59.3440485  29.4193411  60.1480484  59.5534325
  28.5258937  59.1562319  58.5253334  30.2892756  53.3853197  61.2367582
  31.3112807  52.9176807  60.7574606  29.9748063  53.0649567  62.4584389
  29.1328192  53.4616852  62.8505707  30.6164598  52.0218563  63.2913113
  31.6910052  52.1273756  63.4407091  30.0134659  52.1630669  64.6752644
  29.0239120  51.7081308  64.6314955  30.6497908  51.5406322  65.3043652
  30.1147485  53.5213089  65.3281116  31.0257006  54.0383196  65.0265074
  29.3086267  54.1494560  64.9490356  29.9370289  53.5681534  66.8595314
  28.8042092  53.7573242  67.3557138  30.9413791  53.2736635  67.5157785
  30.3938079  50.6750727  62.6640034  31.3477302  49.8628139  62.5827360
  29.1580462  50.3414679  62.4013948  28.3834219  50.8585358  62.7921677
  28.8224769  49.0015936  61.7879343  29.0086746  48.2032013  62.5062704
  27.3505330  48.9594936  61.4878273  26.7650437  49.3032122  62.3405647
  27.2296309  49.6319914  60.6385756  27.0568800  47.2588444  60.9692717
  27.1126485  46.6054821  62.1332788  29.7122693  48.6536264  60.5187559
  30.2855659  47.5681210  60.4008484  29.7513866  49.6969891  59.6666861
  29.2675376  50.5047798  60.0320196  30.6096029  49.9448967  58.5396719
  30.3519416  49.3292189  57.6778984  30.3163815  51.3668871  58.0636406
  30.0250912  52.0559740  58.8563633  31.5747213  52.0194674  57.3117590
  31.2481618  52.9231501  56.7971563  32.3014784  52.3907089  58.0343294
  31.9722009  51.2615776  56.6366959  29.1116786  51.3673258  57.0646524
  29.5398211  50.8823204  56.1874008  28.3438921  50.7781315  57.5660992
  28.6133289  52.8006458  56.7609787  28.4800124  53.2631683  57.7389383
  29.2814732  53.3744144  56.1187315  27.6922059  52.5708580  56.2254143
  32.1015215  49.6150541  58.8390112  32.7661395  48.9918566  58.0275583
  32.5578213  49.9946404  60.0226021  31.9256401  50.4486752  60.6662655
  33.8971972  49.6765900  60.5010223  34.4885159  49.9449158  59.6255541
  34.4370461  50.6031179  61.5238285  34.4711232  51.6235781  61.1422491
  33.6685085  50.5760956  62.2963047  35.8430076  50.3018236  62.1059561
  35.9548974  50.8080864  63.0647421  35.7577443  49.2560434  62.4012089
  37.0504284  50.4752731  61.1902857  36.9198155  50.7708311  59.9890280
  38.2621527  50.2544880  61.6495705  39.0118170  50.2180624  60.9737206
  38.5107589  49.9942160  62.5932646  34.0620637  48.1540155  60.7875252
  35.1127625  47.5714588  60.4560471  33.0260134  47.4193525  61.2680149
  32.2032118  47.9315376  61.5522146  33.0908084  45.9327030  61.5621328
  34.0324116  45.5642033  61.9691849  31.8854547  45.4859686  62.5042057
  30.8809495  45.6454611  62.1122408  31.8943214  44.3961573  62.4859285
  31.7854714  45.9868383  63.9477777  32.7944374  46.4592361  64.4901371
  30.6817031  45.7329702  64.6052313  33.0743265  45.0841618  60.2365589
  33.8452387  44.1462517  59.9906826  32.1514606  45.5661058  59.3524075
  31.5041637  46.2923956  59.6237326  32.0954132  45.0239468  57.9773140
  31.9341230  43.9539289  58.1082726  31.1230850  45.7157755  57.0401144
  30.9597993  46.7608118  57.3034477  31.5422201  45.8095264  56.0382986
  29.7340965  45.1159048  56.9325495  29.4815636  44.0552568  56.0201502
  30.2772927  43.5844469  55.4619789  28.1429172  43.6081219  55.7964802
  27.9961085  42.8173971  55.0756454  27.0101762  44.1901922  56.4860630
  26.0197639  43.7605238  56.4566278  27.3115158  45.2254009  57.4150038
  26.6035199  45.5918503  58.1436062  28.6634827  45.5587769  57.6782227
  28.9282608  46.2787294  58.4384632  33.4639025  45.1034975  57.3007345
  33.8857675  44.0869379  56.6552591  34.2964840  46.1739588  57.5058937
  33.9499807  46.8386412  58.1828165  35.6778955  46.4227200  56.8485355
  35.5539513  46.0416031  55.8348799  36.0744357  47.8731012  56.8796253
  35.2239704  48.5109711  56.6389275  36.3602543  48.2422733  57.8645706
  37.0775652  48.1799936  55.8358335  36.8059373  48.2507706  54.6052647
  38.3071375  48.1532764  56.2921810  39.0569305  48.1883335  55.6163979
  38.5401607  47.8834677  57.2371674  36.7064404  45.5398130  57.5401497
  37.4943042  44.8105955  56.9574261  36.6540432  45.5716562  58.9119387
  35.9412241  46.1439276  59.3414640  37.4557877  44.6504736  59.7730589
  38.4719610  45.0207424  59.6374130  37.1387362  44.7850752  61.2503862
  36.1054969  44.4797182  61.4155340  38.1344628  44.0342760  62.0268774
  38.1013656  44.3284178  63.0759239  37.8055549  43.0073595  61.8676329
  39.0952396  43.9407301  61.5206575  37.2396994  46.1752224  61.5771580
  36.3389087  46.4111376  61.8106508  37.4194789  43.2344103  59.3299770
  38.5477948  42.7169895  59.0835285  36.2029099  42.6580143  59.1799688
  35.4108286  43.2397985  59.4128656  36.0090899  41.2996912  58.8803864
  36.3417196  40.6692982  59.7050476  34.5413828  41.0061407  58.6363649
  34.0284967  41.1662960  59.5847273  34.1806722  41.7809772  57.9598951
  34.1830683  39.6038270  57.9889297  34.5836806  39.4204998  56.9919348
  34.6998620  38.8172841  58.5388136  32.4453664  39.2612743  57.6786041
  32.2079039  40.7417870  56.5982962  32.9958320  40.7038355  55.8460760
  31.2665653  40.5827665  56.0722923  32.2304225  41.6943121  57.1277046
  36.8152428  40.9080124  57.5982618  37.4815297  39.9242353  57.5289726
  36.7143202  41.6867447  56.5060282  36.1496139  42.5217772  56.5687180
  37.4500489  41.4295244  55.2320480  37.2100401  40.4016876  54.9599218
  36.8916440  42.3518038  54.0926886  37.0968032  43.3817959  54.3844557
  37.5374651  42.0558977  53.2659674  35.4137349  42.1486139  53.7699461
  35.0615335  40.8889866  53.2430935  35.7064772  40.0229168  53.2234955
  33.7445450  40.5978918  52.9295683  33.4682417  39.5897245  52.6581669
  32.7483296  41.5605164  53.1351471  31.7269754  41.2536716  52.9646158
  33.0794501  42.8838348  53.5089874  32.2945881  43.6210489  53.5920954
  34.4173884  43.1958294  53.8687992  34.6528530  44.1862106  54.2294979
  38.9613605  41.6302443  55.3385639  39.7582889  40.8538866  54.8224401
  39.3480635  42.6309443  56.0707188  38.5657549  43.1140757  56.4886665
  40.7948303  43.0682182  56.2012625  41.2386942  43.1132126  55.2067471
  40.7415056  44.4692612  56.9277334  40.1724625  44.4734859  57.8573942
  42.0682049  45.1648712  57.1873951  41.7995358  46.1704493  57.5110245
  42.6600122  44.7384834  57.9973698  42.7257919  45.1858425  56.3183498
  40.1057863  45.2770281  55.9898376  39.1654897  45.1515341  56.1371374
  41.5843344  42.0969772  57.0530319  42.7343273  41.8583441  56.6830778
  40.9197903  41.4380026  57.9733706  39.9753118  41.7466259  58.1545162
  41.6919994  40.3744078  58.7181282  42.5918961  40.8266211  59.1350126
  40.7991505  39.9253392  59.9711657  39.8564672  39.7110415  59.4676495
  41.2396812  39.0525103  60.4530382  40.7395506  40.9889650  61.0671425
  41.6954851  41.6295910  61.4534283  39.6369648  40.9417915  61.7985439
  39.5544147  41.3306904  62.7270079  38.9827085  40.2226591  61.5248728
  42.1741247  39.1983771  57.8819275  43.0853605  38.5086036  58.2921171
  41.3893652  38.8965988  56.8162870  40.6568432  39.5761323  56.6688204
  41.6038275  37.7431226  55.9753704  41.7443180  36.8526793  56.5881252
  40.3603077  37.6598096  54.9902010  39.4096136  37.5234962  55.5056667
  40.3480339  38.5774493  54.4020796  40.6283283  36.3108206  53.8414049
  41.6225910  36.9021773  53.1730843  42.8901100  38.0346489  55.2160215
  43.6390305  37.1466184  54.8099995  43.2970667  39.2875409  55.0621748
  42.6025915  39.9888086  55.2767086  44.5465755  39.7019124  54.4857311
  44.8500299  39.1152883  53.6186171  44.4000006  41.0364199  53.7572241
  44.1514063  41.7785501  54.5158720  45.3471518  41.2235451  53.2512617
  43.1317663  41.0816240  52.9230261  42.6684999  40.0120783  52.1433115
  43.2836390  39.1372490  51.9926977  41.4313459  40.0658894  51.4169359
  41.0465765  39.2489982  50.8244514  40.6197691  41.2172222  51.5249920
  39.5106316  41.3540745  50.8035564  39.1679645  42.2502661  50.7715797
  41.0569286  42.2707605  52.3981333  40.4135466  43.1162882  52.5918913
  42.2842169  42.1765041  53.0566692  42.5827026  43.0653620  53.5926247
  45.6790781  39.7808790  55.5167341  46.8270493  39.4440532  55.2486515
  45.3133965  40.1647615  56.7545033  44.3523598  40.4519653  56.8729258
  46.2238312  40.1110744  57.8521347  47.1022558  40.6949043  57.5771475
  45.5792665  40.9188890  59.0617609  44.5406532  40.5882263  59.0689611
  46.3303089  40.7911921  60.3846169  45.9455776  41.4734030  61.1426830
  46.4295483  39.7805905  60.7807636  47.3782301  41.0330772  60.2072716
  45.5280781  42.4538994  58.7066507  46.5547132  42.7770615  58.5343266
  45.0307751  42.5434732  57.7408552  44.9123621  43.4271193  59.7040129
  43.9321232  43.1249762  60.0727177  45.6278515  43.5625267  60.5150890
  44.7308064  44.4444704  59.3574047  46.7138100  38.6547804  58.1735325
  47.9319572  38.5147166  58.2813883  45.8056307  37.7302694  58.1530857
  44.8409557  38.0279899  58.1825829  46.1233568  36.2875390  58.3863354
  46.8974209  36.3201976  59.1530609  44.8470974  35.6754494  58.9893627
  44.5591211  36.2552476  59.8662901  44.0196466  35.6873035  58.2799339
  45.0350046  34.2381859  59.4485331  46.0807610  33.9654255  60.2804184
  46.8613958  34.6642041  60.5425549  46.2527323  32.5594378  60.5591059
  47.1059370  32.2778058  61.1583805  45.3169441  31.5948129  60.1708841
  45.4939604  30.3087497  60.5444336  46.0793686  30.1083612  61.2784290
  44.1775227  31.8986225  59.4490576  43.4643507  31.1261678  59.2018652
  44.0235186  33.2248282  59.1338634  43.2398939  33.4032559  58.4124088
  46.6954517  35.5106282  57.1380806  47.6917839  34.8510599  57.2655535
  46.1322355  35.7123733  55.9588099  45.2688217  36.2360406  55.9388781
  46.5172672  34.9610329  54.7912979  47.1150541  34.0963292  55.0794649
  45.2672482  34.3731713  54.1504383  44.5470190  35.1528764  53.9025927
  45.4965591  33.9285636  53.1820154  44.6502924  33.2837701  54.9985504
  43.8235140  33.5240793  55.9554052  44.9764156  32.0771694  54.7278500
  44.3677235  31.4570260  55.2426529  45.6385088  31.7992282  54.0175819
  47.3894405  35.6666827  53.7593317  47.0211029  36.7793894  53.3680868
  48.3999920  34.8946118  53.3132124  48.6157990  33.9608455  53.6319828
  49.1382360  35.3179359  52.1591568  49.7126865  36.1900568  52.4714327
  50.1930475  34.1962171  51.9080305  49.7286701  33.2695723  51.5707064
  50.8330297  34.6063805  51.1268139  51.1520433  33.8709664  53.0940723
  51.6328669  34.7972465  53.4085846  50.5851221  33.3503437  53.8658571
  52.1645832  32.7707005  52.7413177  51.6639137  31.8432570  52.4633217
  52.6539183  33.0653787  51.8129778  53.2820559  32.4676681  53.6786747
  53.8976812  31.7731285  53.1070805  53.7778473  33.3753920  54.0226841
  52.7812147  31.6008186  54.7921658  53.4490252  31.2124753  55.4427910
  52.2120190  32.2125125  55.3595734  52.1674013  30.8716059  54.4581223
  48.2696629  35.5757380  50.8717632  47.1020460  35.2029586  50.8137274
  48.7530518  36.4008093  49.9849415  49.8135614  37.3827481  50.1900864
  50.7380819  36.8567991  50.4282951  49.4835424  37.9950142  51.0293245
  49.9550486  38.2912278  48.9811945  50.8428335  37.8502131  48.5279369
  50.0794888  39.3210769  49.3158913  48.7592363  37.9401803  48.1050110
  49.0363264  37.4997854  47.1472168  48.0947924  38.7950349  47.9791498
  47.9505253  36.8794918  48.8223982  47.0298338  37.2440982  49.2779112
  47.6232243  35.6937790  47.9143238  48.4548664  34.8223996  47.6335859
  46.3685846  35.6139541  47.4212265  45.7334137  36.2772965  47.8415060
  45.9293461  34.5318341  46.4775991  44.9680376  34.8881721  46.1074495
  46.6502333  34.5240378  45.6600618  45.6286573  33.1245923  47.0450830
  45.4485083  32.1773124  46.3474464  45.6516457  33.0437660  48.3502817
  46.0179043  33.8358831  48.8587236  44.9782085  32.0284271  49.1911030
  45.3477669  31.0202956  49.0034819  45.2747965  32.2726440  50.7168818
  45.1391315  33.3337593  50.9259987  44.5604277  31.6305041  51.2320852
  46.6484928  31.8564582  51.2550068  46.7403364  31.3863420  52.4103308
  47.5961924  32.0605659  50.4501200  43.4943390  32.0336318  48.8886881
  42.9505014  33.1660962  48.6735725  42.7781582  30.9203100  48.7875652
  43.2904100  30.0697613  48.9726782  41.4482212  30.9168243  48.2770348
  41.4357948  31.4814591  47.3447609  41.0414505  29.4971967  47.9529381
  40.0114918  29.5487380  47.5999069  41.5363884  29.2886567  47.0044374
  41.2053680  28.3529425  48.9621782  41.9145918  28.3740830  49.9690199
  40.4714870  27.3863673  48.7694359  40.4601622  31.6079283  49.2602873
  39.5145917  32.2508955  48.7952566  40.7297897  31.5726328  50.5728436
  41.2823057  30.8544660  51.0190105  39.9371386  32.5179434  51.4374065
  38.8775969  32.3626328  51.2340546  40.2146053  32.2236538  52.9401445
  39.9946141  31.1581922  53.0072165  41.7174006  32.4937010  53.1644869
  42.0346069  32.2965837  54.1885090  42.3115969  31.8815541  52.4860287
  41.9188690  33.5395241  52.9326057  39.4333100  33.0247355  53.9914894
  40.0340605  33.3741426  54.8312044  38.9646745  33.8763523  53.4983063
  38.2378101  32.2313714  54.6146488  37.6767302  31.7915344  53.7901258
  38.5765886  31.3829923  55.2092743  37.6834702  32.7745581  55.3799963
  40.0658560  34.0068936  51.0251904  39.0914202  34.7597480  51.0518360
  41.1822224  34.4447041  50.5404425  41.9055510  33.7597299  50.3739691
  41.4279032  35.8305264  50.0684738  40.9846687  36.4707351  50.8312178
  42.9135466  36.1267519  49.9065685  43.1783438  35.3456426  49.1939306
  43.2524204  37.5120640  49.2522383  42.7838945  38.2490087  49.9045420
  44.3332577  37.6484370  49.2882681  42.8968430  37.5026083  48.2219124
  43.6311293  36.0204053  51.2567568  44.6885443  35.9455824  51.0030317
  43.6647415  36.9428420  51.8364906  43.3224249  35.1592851  51.8494368
  40.7020760  36.1599660  48.7406540  40.0928259  37.2655344  48.6651897
  40.6355143  35.2632618  47.7339983  41.0517168  34.3437266  47.7705145
  39.8273110  35.5599165  46.4861727  40.2667999  36.4209151  45.9825563
  39.8439932  34.3295264  45.5603600  39.6320558  33.4131217  46.1111689
  38.9712143  34.5292711  44.9387026  41.1046696  34.1936088  44.5883369
  41.3411999  35.1805902  44.1908121  42.3435593  33.8609219  45.4347229
  43.2009554  33.6256790  44.8041391  42.6325369  34.7000647  46.0675192
  42.1166134  32.9440212  45.9786749  40.9484625  33.2417250  43.3940649
  39.9775147  33.2906032  42.9011488  41.7461872  33.4249067  42.6742172
  41.0216331  32.2340679  43.8031769  38.4060049  35.8847713  46.9393158
  37.9125762  36.9578004  46.5490437  37.8098035  35.0669575  47.8767347
  38.3573198  34.2848349  48.2062960  36.4719701  35.2891326  48.3451080
  35.7358599  35.2703619  47.5414324  36.0605216  34.1399002  49.3099356
  36.8052077  34.0844679  50.1039553  35.0421906  34.3849659  49.6116638
  36.1756539  32.8602028  48.5191917  35.4537082  32.8733420  47.7026606
  37.1013069  32.7255535  47.9596090  35.9928274  31.3320947  49.4792747
  34.2170000  31.0752606  49.4014931  33.7713361  32.0684218  49.4573879
  33.8744879  30.6413817  48.4620619  33.9253306  30.4157686  50.2188683
  36.3295650  36.5910625  49.0242481  35.3700399  37.2969890  48.7801838
  37.2217345  36.9268036  49.9362278  37.8898358  36.2277555  50.2278996
  37.1846104  38.1842566  50.7179213  36.2145281  38.3907008  51.1700535
  38.2740235  38.0904341  51.7925739  38.4512138  39.0156698  52.3408794
  37.9170942  37.4342656  52.5863934  39.2646861  37.9037952  51.3780165
  37.4471736  39.4835997  49.9433613  36.8225336  40.5032873  50.2085400
  38.3742952  39.5134115  48.9863110  38.9628315  38.6929846  48.9611530
  38.5518312  40.4499054  47.8331566  38.6855698  41.4693022  48.1951571
  39.7186708  40.0434351  47.0108652  39.5365262  39.0518594  46.5964937
  39.9126172  40.5870485  46.0862207  41.0344267  39.9734735  47.7774477
  40.8943987  39.7674918  48.8386106  41.6360235  39.1527891  47.3867273
  41.8297100  41.2990570  47.7511120  43.0208492  41.0450506  47.9928827
  41.3306761  42.4772024  47.5656462  37.2969127  40.5416155  46.9729757
  36.7980003  41.6445160  46.7220688  36.6442513  39.4832659  46.5128708
  37.0372176  38.5779047  46.7273521  35.3589225  39.5336032  45.8196068
  35.5075645  40.1557112  44.9370003  34.9883699  38.0573606  45.4182339
  35.8380604  37.5547409  44.9561739  34.7696447  37.5098777  46.3350296
  34.1579461  38.1286621  44.7157955  34.2641377  40.2321768  46.6504240
  33.5523081  41.1518764  46.1613083  34.0832925  39.7767663  47.8572845
  34.5717549  38.9665627  48.2109451  33.0055428  40.3395271  48.7540102
  32.0579052  40.3494406  48.2155037  32.8332305  39.2800760  49.9024105
  33.8508153  39.1321182  50.2639771  32.2682142  39.7580242  50.7026768
  32.2245836  37.8763866  49.6438503  32.4423313  37.4830651  48.6508799
  32.6133776  36.8221951  50.7247496  32.1389937  35.8919048  50.4123116
  33.6988783  36.7300057  50.7606983  32.1945310  37.0832705  51.6966105
  30.7241845  38.0953002  49.6977806  30.4221392  38.6251140  50.6012011
  30.4391217  38.7860870  48.9042664  30.2541876  37.1131349  49.6472788
  33.2422781  41.7243242  49.3358135  32.3576236  42.5816536  49.2355824
  34.5065498  42.0869732  49.5816994  35.1777291  41.3355112  49.6518326
  34.9097013  43.4571695  49.9286985  34.2645121  43.7630606  50.7522631
  36.3784647  43.5932446  50.3507996  36.4323282  42.8348064  51.1318111
  36.9083643  43.2308817  49.4698906  36.8983603  44.9469471  50.8070612
  36.6832948  45.5963278  49.9584389  36.3806772  45.3079891  51.6957426
  38.4217548  44.9973154  51.0218620  38.8453341  45.9038019  51.7603731
  39.2097640  44.2633533  50.4349756  34.7014260  44.5389509  48.8074970
  34.1686177  45.6665850  49.0229511  34.9895453  44.1662121  47.5656796
  35.3183389  43.2338190  47.3591805  34.5976663  44.9802589  46.4209557
  34.9171519  46.0127115  46.5626287  35.3858328  44.5321560  45.2351141
  35.5738306  43.4625101  45.3279448  34.7596788  44.7272491  44.3644953
  36.7657971  45.2185965  44.9081278  37.3499632  44.5775700  44.2478657
  36.4729953  46.1963272  44.5254898  37.6283455  45.5603695  46.1737156
  38.4707046  46.1455488  45.8047962  37.0560193  46.0580397  46.9565725
  38.1354141  44.3073654  46.8153238  37.3984957  43.8788509  47.4946022
  38.2231593  43.4800386  46.1111021  39.3708348  44.4726753  47.6011181
  39.2727995  44.6416712  48.5920477  40.1127148  43.8217974  47.3864794
  39.8082495  45.3291273  47.2924852  33.0601978  45.1085901  46.1015654
  32.5953555  46.1711931  45.7468367  32.2856331  44.1159010  46.3719082
  32.7357435  43.2333660  46.5684652  30.8300662  44.1893530  46.3265371
  30.5046105  44.5024729  45.3345013  30.1973724  42.8174591  46.5647459
  30.5588794  42.1263361  45.8033228  30.5277610  42.4548340  47.5381136
  28.6988926  42.8850079  46.4657974  28.3774734  43.4402561  47.3469830
  28.1386900  43.4216785  45.2002621  27.0749497  43.1858778  45.2312422
  28.2833409  44.5019150  45.2166462  28.6874008  43.0292416  44.3441057
  28.2841969  41.3758230  46.5880680  28.8914824  41.0088301  47.4154902
  27.3267746  41.2702274  47.0982599  28.3871675  40.7761765  45.6836748
  30.2572155  45.1207685  47.4399376  29.3900251  45.9685802  47.2135735
  30.8027482  44.9368763  48.5755491  31.3477778  44.0935802  48.6846352
  30.5319047  45.7214451  49.7716475  29.4938493  45.5194950  50.0357676
  31.3469267  45.2180195  51.0217810  30.9845281  44.2515230  51.3720083
  32.3451710  45.0569010  50.6147814  31.3586211  46.2094593  52.1742487
  32.5951791  46.8231392  52.5628710  33.4266305  46.4388895  51.9906425
  32.6825929  47.7322865  53.5850239  33.6106157  48.1864023  53.8996077
  31.5942502  48.0952072  54.3343592  31.6920519  48.7510395  55.1868391
  30.3816724  47.3788023  54.0956593  29.6211028  47.4715710  54.8567963
  30.2671099  46.4442348  52.9744720  29.4174743  45.7899618  52.8461838
  30.7500458  47.1936798  49.4876766  29.8055339  47.9494858  49.7111607
  31.9559050  47.5583839  49.0154457  32.6862454  46.8705845  48.8986683
  32.2795463  48.9276600  48.6969995  32.0784521  49.5209503  49.5889997
  33.7565756  48.9790916  48.3028555  33.8833618  48.2862711  47.4709749
  33.9011478  49.9956274  47.9370022  34.7714376  48.7180996  49.4747591
  34.3477297  47.9150486  50.0778294  36.2227273  48.4014845  49.0522861
  36.6160011  49.2379332  48.4745407  36.9178128  48.2082891  49.8693800
  36.1126065  47.5257158  48.4127522  34.9220991  49.8740053  50.4374123
  33.9005232  50.2354240  50.5551147  35.3884077  49.6735525  51.4020205
  35.4699087  50.6611776  49.9193668  31.2646627  49.4498920  47.5981569
  30.5043674  50.3827047  47.8538084  30.9073472  48.6413240  46.5801048
  31.3271141  47.7261400  46.5004969  29.9917436  49.0049505  45.4872322
  30.3071332  49.9756145  45.1045561  29.8179579  47.9729366  44.3384790
  30.7520700  47.4777317  44.0733242  29.0630436  47.2312784  44.5995235
  29.3217492  48.7359524  43.0403662  28.8276076  49.6645451  43.3260918
  30.1575851  49.0620899  42.4214029  28.2858372  47.8227663  42.2456741
  28.0636740  46.5901232  42.4274683  27.5876498  48.4168291  41.3430643
  27.0317268  47.8189707  40.7484055  27.8772259  49.3299723  41.0230446
  28.6368608  49.2653847  46.1372423  27.8586555  50.0703335  45.6027031
  28.1863475  48.5095215  47.1793890  28.7392163  47.7965927  47.6334476
  26.8724656  48.7281704  47.8768730  26.2096548  49.0946817  47.0930052
  26.1492491  47.5323296  48.4386826  26.4683652  46.6356373  47.9074430
  26.4952350  47.2786999  49.4407129  24.5937490  47.5520897  48.2709455
  24.2375183  46.6455936  48.7602901  24.1421747  48.4291458  48.7345791
  24.1459155  47.4966097  46.8202400  24.0953231  48.4843254  46.3620234
  24.9363875  47.0068598  46.2515545  22.8258395  46.7634630  46.7093945
  22.9919195  45.9700680  47.4381208  22.0489883  47.4399710  47.0656776
  22.5274038  46.1208630  45.4100895  22.2570848  46.8746233  44.7945595
  23.3284450  45.6445408  45.0207901  21.7481041  45.4822159  45.3399277
  26.8896604  49.8894548  48.9322042  25.8561778  50.6351280  48.9763451
  27.9753971  50.1481342  49.6787405  28.7315106  49.4987440  49.5153904
  28.1793952  51.3462114  50.5267620  27.3146629  51.3693714  51.1899376
  29.4868660  51.2232733  51.3711309  30.2685094  51.0771894  50.6256151
  29.9197483  52.4657440  52.0811510  29.0116048  52.7554464  52.6097679
  30.7276225  52.2633934  52.7843523  30.0847173  53.3426857  51.4551687
  29.3629050  50.0980330  52.4179792  29.1873980  49.1439486  51.9209719
  30.3470039  49.8962641  52.8409910  28.3031058  50.2102566  53.4541702
  28.2701159  49.3035603  54.0582514  28.5335255  51.0698557  54.0835333
  27.3367310  50.2857542  52.9556513  28.1343579  52.6627207  49.7944117
  27.5205922  53.5686064  50.3282595  28.7564349  52.8091192  48.6203718
  29.2824817  52.0255136  48.2607412  28.5938406  54.0081739  47.8110933
  28.9604282  54.8407650  48.4115219  29.5146346  53.9749241  46.5879345
  29.0507054  53.3222961  45.8483744  29.5092797  54.9868059  46.1827660
  30.8575249  53.3869743  46.8660355  31.5336514  53.5424423  47.8913975
  31.4315963  52.7038336  45.8963442  32.3535800  52.4040222  46.1794662
  31.0713744  52.4579859  44.9853563  27.0817876  54.3257999  47.4599218
  26.7225266  55.5119324  47.3392582  26.1640596  53.4064817  47.4006319
  26.5183210  52.4639654  47.4797344  24.6882272  53.5557842  47.3310184
  24.4213390  54.3743277  46.6625452  24.0656018  52.2795582  46.7739105
  24.2203450  51.4554787  47.4703646  23.0065060  52.5005436  46.6413164
  24.5871425  51.8602514  45.3954887  25.6626272  51.7067766  45.4842663
  24.0796542  50.9708023  45.0220728  24.6142793  52.9419804  44.3206501
  25.7107878  53.5665941  44.2084265  23.6104584  53.2019377  43.6030054
  23.9406347  53.8550043  48.6667681  22.7494454  54.1569996  48.5109138
  24.5463514  53.6833239  49.8607779  25.5224943  53.4546804  49.7384501
  23.8663888  53.7882137  51.1774015  23.1036901  53.0095053  51.1754179
  24.9643612  53.6555719  52.2839546  25.3947997  52.6541615  52.2836781
  25.6144691  54.4890070  52.0177889  24.6211004  53.9192581  53.7369871
  24.5056939  54.9977255  53.8451004  23.4963512  53.0922079  54.2526531
  23.5128999  52.0888281  53.8271427  23.5924721  52.9163504  55.3240728
  22.5157571  53.5312414  54.0688467  25.8395696  53.7512732  54.6163082
  25.5474234  54.0145206  55.6328917  26.2016630  52.7245188  54.5637465
  26.5255237  54.5045519  54.2288256  23.2141471  55.1599169  51.2467670
  23.9686823  56.1353779  51.2145996  21.8964767  55.3723574  51.5452719
  20.8731890  54.4095612  51.2978029  20.6133938  54.0095758  52.2779131
  21.1915255  53.5546684  50.7012129  19.6866369  55.1279116  50.6738806
  18.6890638  54.7736788  50.9336329  19.8114252  55.2532959  49.5983315
  19.8049963  56.4795113  51.2305212  19.1813338  56.4810228  52.1244717
  19.5552421  57.2577143  50.5093241  21.2585759  56.6306210  51.8302584
  21.7880702  57.3692513  51.2284565  21.2469840  56.8918562  53.3719444
  21.0781503  56.0262728  54.2601061  21.5219331  58.2074499  53.6088371
  21.7289877  58.7822294  52.8045559  21.4401460  58.8833475  54.9353218
  21.9907427  58.1946945  55.5761862  22.0866156  60.2575350  54.9289465
  21.5069962  60.8533621  54.2238617  22.0745659  61.0551214  56.2556601
  22.2869158  62.0741415  55.9322262  21.0890889  60.9995031  56.7180920
  22.8116465  60.6436825  56.9452429  23.4188747  60.1774263  54.5123053
  23.4539461  59.4901657  53.8429451  20.0040436  59.0096426  55.4113579
  19.1305757  59.8173809  54.9555206  19.7766244  58.0783224  56.2681580
  44.4667006  61.1178970  39.6223211  47.6901484  59.7423744  49.3939924
  18.1873333  23.9502239  35.8592391  68.2356930  36.7559195  28.4121633
  42.9566336  77.3343897  12.7577579   2.9494539   2.6447967  68.7010288
  12.7851284  16.6603673  57.2772837  82.7196598  30.0803494  37.9047227
  88.9131260  62.7448845   9.7115821  88.8140965  63.1186438  10.5872118
  88.0401802  62.8081322   9.3240356  61.6885996  77.4003839   4.6138814
  61.3525391  78.2395935   4.2991990  61.9646358  77.5751114   5.5136061
  18.2494044   4.7848517   3.2231024  18.0726182   3.8452119   3.2684427
  18.8893390   4.9419424   3.9173922  45.9302282  15.0937700  14.5440054
  45.7100439  15.4478371  15.4056251  46.8871737  15.0774086  14.5291913
  88.7195778  33.1150556  29.5610213  88.2157135  32.4868679  30.0784469
  89.1127110  32.5902891  28.8636661  49.8156977  44.3418121  73.6018705
  49.8897362  44.5520067  74.5327663  48.8733864  44.3230295  73.4347725
  81.8061447  78.1961298  35.0823092  81.6463375  79.1398573  35.0736928
  82.6206589  78.0866385  34.5915937  35.3112006  49.6813345  14.4469404
  36.1194181  49.2220974  14.2186522  35.5787158  50.5928183  14.5646977
  29.2874312  11.4303660  16.3688552  30.0730157  11.0133696  16.7226911
  29.2943048  12.3111200  16.7436314  42.3529720  19.5174384   7.0559609
  41.6076946  18.9173734   7.0826662  43.1155968  18.9590526   7.2071141
  88.4489059  81.4434910  29.8871374  88.3298588  82.3549843  29.6202374
  88.8082218  81.4981937  30.7726502  32.6251912  85.9209538  72.4716425
  32.7948737  84.9869919  72.3485470  32.6680017  86.0493088  73.4192276
   6.1859787  65.6053114   4.7100982   7.0684946  65.2348375   4.7221971
   5.9299046  65.5840302   3.7880325  65.2091408   6.7354095  41.1459589
  64.7587538   6.6094869  40.3107834  64.7614670   6.1440623  41.7510462
  45.9917021  76.8908215  14.5659101  46.5988588  76.2296009  14.2336774
  45.3589249  77.0121861  13.8580275  80.4688072  65.7254601   8.9910442
  81.0983276  65.4676485   9.6644461  79.6182156  65.4696989   9.3478429
  20.1951075  76.6065645   1.9911861  20.6657004  76.8603468   2.7851433
  19.8961592  75.7139969   2.1649228  34.5313931   0.0496448  59.1827202
  35.3619361   0.5010109  59.0320683  34.2704320   0.3161359  60.0642633
  10.8101559   2.5346962  18.8372111  11.4205194   2.2453982  19.5154393
  10.7703602   3.4854695  18.9405465  52.1650982  41.3648510  68.4692287
  51.9743299  42.2566366  68.7600040  51.4199495  40.8483076  68.7760973
  14.0415430  55.1568604   5.7009846  13.2003736  54.7032309   5.6472570
  14.1796732  55.2951336   6.6380179  85.3667641  53.1736040  29.4368219
  84.8076916  53.0248070  30.1994038  85.5978584  54.1011524  29.4865918
  12.0894241  58.3140182   6.1537325  12.7191305  58.2315493   6.8699038
  11.9125938  59.2530441   6.0972250  76.2392044  14.1491759  25.1918721
  75.8769417  14.3065906  26.0637760  76.6876078  14.9646807  24.9680018
  52.8302908  63.9959812  72.8621817  51.8732262  64.0118837  72.8624916
  53.0596447  63.3963156  72.1522331  87.5144958  62.5340223  16.7294192
  88.3247757  63.0215406  16.5810680  87.1585274  62.9015589  17.5383914
  85.5990314  23.0598593  14.7939658  86.0418606  23.7402868  15.3010690
  84.6692562  23.2766056  14.8629713   9.3696618  82.5754738  34.1730261
  10.2495587  82.2001934  34.1387463   9.5140052  83.5132885  34.2991233
  78.7219906  52.9678774  70.0615788  79.0728426  53.0923176  69.1797352
  79.4845581  52.7380514  70.5925226   3.5793811  63.2236099  22.6150608
   2.9527539  63.2498407  23.3381677   4.1179329  64.0055847  22.7363443
  49.5625782  40.5836535  73.5284758  48.7889242  40.6713152  72.9716921
  50.2840710  40.9063578  72.9885292  81.5135098  44.4577932  14.0523291
  81.7337036  44.0635061  14.8962998  80.7044315  44.0202761  13.7873673
  32.3528576   6.8267870  14.5472980  33.2697773   7.0385563  14.3722510
  31.9476128   7.6691359  14.7533512  64.7893333  32.1121335  71.2371302
  64.0706062  32.4537396  71.7690802  65.1750612  31.4187765  71.7725754
  67.0103502  84.9673843   3.6982155  66.4133692  84.4293118   3.1782779
  66.7147350  85.8654976   3.5491347  16.8514645  82.8975677  13.8454449
  17.2119761  82.0441246  13.6048329  16.0429192  82.9677391  13.3379376
  26.9738364  59.4954967  26.3671541  27.2650957  58.6231184  26.6323948
  26.0655451  59.3713284  26.0917997  29.1981554  59.8191881  45.1268864
  29.2325401  59.6259212  46.0637379  29.4139409  60.7497692  45.0662231
  60.2607584  17.3400390  31.5352988  59.5400953  17.7150965  32.0414710
  60.6807423  18.0941379  31.1215591  13.3657682  78.4419727  34.4720221
  13.2109773  77.7256298  35.0877523  13.3778703  78.0206871  33.6125994
  86.9876575  79.5766401  57.4978018  87.1195316  79.2483425  58.3872175
  86.0703564  79.3830824  57.3046017  78.5528469  65.5647755  36.0739112
  78.7766123  64.8948860  35.4278398  77.6123810  65.7022285  35.9605169
   0.1706804  46.4322281   4.4590420   1.0049451  46.2591743   4.0228245
  -0.3578936  45.6539822   4.2824623  65.2668142  69.3018866  12.5964546
  65.7944632  68.8797235  11.9185150  65.7453871  69.1381121  13.4090900
  55.4445982  80.0076580  33.1518078  55.6480980  79.0848303  33.3041501
  56.0841560  80.2891254  32.4976134  24.3976235  24.6112800  47.7013016
  25.0811267  24.5203400  47.0373869  24.6128488  23.9497662  48.3588028
   2.8073880   8.1240582   1.3521807   2.9708290   7.9918462   0.4183503
   3.6497650   7.9458344   1.7703542  88.7666512  23.5321689  48.6749411
  87.8490639  23.7570691  48.5210371  89.1827106  24.3643165  48.9000130
   3.4261748  67.3782730   4.2899215   4.2650598  66.9823503   4.0538105
   3.0019781  66.7260313   4.8474804  19.6506286   6.4632004  24.1515112
  20.5575562   6.4102745  23.8499904  19.2182171   5.7133675  23.7428522
  36.7480397  22.9465318   9.4197327  36.0727525  22.7283025   8.7773985
  37.2151661  22.1237946   9.5650834  27.1678638  72.6285696  19.6411562
  26.2579250  72.4042463  19.8358905  27.5700331  71.7981291  19.3864775
   5.3833187  78.7193298  17.0038116   5.5802393  78.4920216  17.9125392
   6.2386614  78.7582254  16.5759015  58.5947752  72.1586800  12.0301461
  59.3471098  72.6352835  12.3809731  58.9780045  71.4146185  11.5656626
  75.5939150  64.1106224  33.5972786  75.6832504  64.9648952  34.0197349
  75.4398918  64.3145323  32.6748204  58.4241724  45.3111553  64.0856218
  58.5580063  45.5084991  63.1585932  59.0695238  44.6319056  64.2814970
  52.7358246  81.8661022  27.3171973  51.9352245  82.2412491  27.6839805
  52.8994226  81.0859776  27.8471684  86.9565582  11.9890225  18.5834074
  86.9699955  12.2375679  19.5076787  86.4188576  11.1975896  18.5560071
  49.1603518  54.9473476  57.0931578  49.7702789  54.7897577  57.8138447
  49.5780754  54.5425129  56.3329935  54.3981218  56.5667105  61.3450146
  53.9529085  55.7318974  61.1997700  54.9396753  56.6882038  60.5651474
  72.1201992  68.9670086  50.1074266  72.5641012  68.6878586  49.3066406
  72.0663929  69.9196959  50.0317907  43.6730099  11.4863074  19.6232390
  44.0103436  12.2767925  19.2018497  42.8160048  11.7433381  19.9634016
  51.0451174  62.6837587   3.9609033  50.3521442  63.3432913   3.9930964
  51.7020082  62.9959679   4.5831963  75.7726049  84.7165585  30.5228996
  76.2507439  85.3775692  31.0235810  76.3286924  83.9383984  30.5612874
  79.5453262  84.6924400  21.9217110  80.1412773  83.9981747  22.2028875
  80.0779057  85.2501678  21.3546681  64.0934753  62.3638344  20.0352073
  64.9535036  62.7346802  20.2328324  63.4804201  63.0807781  20.1976538
  60.0402212  85.0662899   7.7380282  59.9426079  84.8303986   8.6605561
  59.2921162  84.6549416   7.3051715  32.1152234  67.7470350  21.4112449
  31.4583516  68.2857800  21.8522668  32.5802636  68.3571386  20.8387566
  54.5432425  71.9357157  30.3900003  55.1838350  71.9365644  29.6787524
  53.6943436  71.9302702  29.9477601  38.9353681   3.7717161  16.4396262
  38.4088445   4.2455736  15.7958364  38.4597826   2.9533789  16.5823627
  31.1042786  31.8945980  27.3113108  31.9614220  31.8776917  26.8855739
  30.8860445  30.9725475  27.4470568  85.1596355  73.0260992  24.1613650
  86.0667896  73.1638765  23.8887286  84.6944046  72.8206062  23.3504605
  34.0131688  27.5583649  12.4499714  34.7974873  27.1257353  12.7874720
  33.5132146  27.7920413  13.2320666  30.1071119  67.8043699  19.3854082
  30.4016781  66.9403839  19.0973282  30.7348967  68.0581808  20.0619435
  15.7631946  51.7847157  34.7633696  15.7037294  52.1250153  35.6560564
  14.8819757  51.8943310  34.4060612  82.9349613  72.0132732  42.6981926
  82.8854275  72.9650402  42.6092052  83.4443951  71.8735409  43.4964323
  21.2834501  77.1330023  33.9610481  21.0425711  77.8499842  34.5476842
  21.2335992  77.5138569  33.0842948  29.5195794  40.3812122  37.7156568
  29.4432735  39.4326568  37.8188634  28.9797783  40.7428122  38.4185743
  19.7198713  58.4695768  37.6746535  19.2126560  58.3164167  38.4718418
  20.6271386  58.3075285  37.9331875  56.9621801  48.2139349  59.8771286
  57.6642323  48.5928154  59.3481731  56.8526697  48.8268089  60.6041956
  65.6240559  74.4219494  17.0690954  66.5353441  74.5902538  17.3088014
  65.1127005  74.8550463  17.7525985  18.8149977  21.1654377  21.8209219
  19.3814206  20.7598805  22.4773669  18.9487553  22.1060634  21.9373870
  41.3035523  19.7240810   0.1275182  41.6163861  18.9824466  -0.3905034
  40.6312071  19.3512849   0.6977821  41.4983082   7.7767074  47.7442074
  41.2845612   7.0295453  48.3030415  41.6349840   8.5011137  48.3547735
  23.7726450  63.5844707  20.6072164  22.9351759  63.1362486  20.4889989
  23.5636187  64.5131111  20.5063701  36.8838954  11.3115907  22.0357919
  37.2024679  11.2050188  22.9321098  37.6520705  11.5965164  21.5408635
  34.3718791  50.2242184  33.9332438  35.3258538  50.2664948  33.9993906
  34.0760279  51.1024857  34.1727161  39.9013114   9.9872571  18.0410159
  39.3965459   9.5542276  18.7294412  40.8017683   9.9831676  18.3656538
  27.8175640  69.9612284  28.1186891  27.1761942  69.5802641  28.7184739
  28.2322788  70.6604242  28.6240315  58.5746479  23.5598254  18.9468956
  59.1619158  22.8136706  19.0677369  57.7040482  23.1694436  18.8701677
  33.9094424   6.9499576  24.7278619  33.5911608   6.4675862  25.4909110
  33.9897394   6.2871832  24.0419197  90.2925777  66.5660429  30.6258345
  89.9090672  66.1251545  31.3839698  90.6149483  67.3987150  30.9707451
  67.3718834  85.8081055  15.4792547  67.7965069  86.6217804  15.2074885
  67.9765129  85.4225922  16.1133158  29.1827512  10.6630719  24.3140626
  29.0672398  10.6760156  25.2641797  29.0225887   9.7526354  24.0656972
   8.4206164  85.4902077   1.1394221   7.7022254  85.6593704   0.5298898
   9.1109163  85.1096821   0.5963576  87.0041752  75.2348900  32.5283718
  86.7799473  74.5680475  31.8793154  86.3503838  75.9223509  32.4011564
  53.3033705  83.4454155  13.6351144  52.4344826  83.0656719  13.5045075
  53.7837744  82.7803516  14.1281998  73.4469509  72.1087313  30.0425506
  72.5087452  72.2123718  29.8836303  73.6873531  72.8739452  30.5649400
  15.4048073  44.2136717  46.3665342  14.9986625  44.5800066  47.1520758
  15.9318733  44.9302340  46.0130262  16.1309171  41.1887550  10.6628144
  15.5363584  40.7590628  11.2777126  15.8386517  40.8929396   9.8006612
  13.2399368  16.0755610   8.6569327  13.1937480  16.3170481   9.5820177
  13.7396562  16.7829680   8.2493931  36.2674308  47.8688955  20.0704122
  36.0608935  47.8226852  19.1369045  37.2058845  48.0552101  20.0991488
  42.8372335   4.9962392  45.9236765  42.5737810   5.6776184  45.3051710
  42.0989418   4.9233538  46.5285254  23.4044003  26.9272304  32.8604031
  23.5094047  26.3803625  32.0818520  22.4843884  26.8237257  33.1034946
  13.6568046  34.3551350  22.6655841  14.1284752  35.1670218  22.8515887
  13.8219285  34.1894746  21.7374015  19.8028874  84.6246433  20.2887154
  20.3771901  84.5334244  21.0490370  20.2353048  84.1197681  19.5999885
  83.1558228  65.6554985  41.1453581  83.6142826  64.8565245  41.4055443
  82.6433182  65.3987265  40.3787899  86.7837048  77.0281792  12.0900321
  86.8938160  77.7642632  11.4881265  85.9461117  77.1953630  12.5221479
  12.8696764  68.4613132  54.6993208  12.1043241  68.8142490  55.1530838
  13.5850024  69.0484238  54.9439430  21.6746664  14.8848689  24.1365695
  21.1825848  15.7025874  24.0629315  22.5382137  15.0919926  23.7793279
  86.1333942  30.5993772  63.8964224  85.2342701  30.7945061  63.6323309
  86.6762733  31.0610890  63.2574129  30.0570035   0.8116538  19.8383379
  29.3815994   0.6797097  19.1730165  29.5769644   0.8319098  20.6662178
  87.2264290   1.1154507  56.3345337  86.6092110   0.7143168  55.7226801
  87.0033455   0.7346480  57.1839237  75.6479979  78.6947823  20.0051808
  75.9632587  78.8524628  20.8951139  75.9889841  79.4303989  19.4964314
  71.6386461  80.0635529  31.1407971  70.7994795  79.8269844  30.7457471
  71.4711618  80.8992481  31.5764546  79.2358875  79.9967480  24.6245480
  78.3581495  80.3767776  24.6617699  79.2347765  79.4691372  23.8258862
  81.7147541  83.7107658   4.8537782  81.1121559  83.0630589   4.4882810
  81.8841934  84.3149662   4.1309625   3.9600641  71.6684532  23.8205647
   3.8348433  72.5893164  23.5912943   4.4672018  71.3074160  23.0934477
   8.9977473  48.2125759  23.5207796   8.0461115  48.3144331  23.5051107
   9.1361398  47.2813368  23.6936164  27.1168399  16.6257453  60.3393364
  26.9554234  17.2179317  61.0738373  27.4645185  17.1899879  59.6486998
  73.4522533   6.3754392  44.5344257  74.3993282   6.5081596  44.4936275
  73.3231640   5.8013004  45.2893686  16.4895511  85.8690834  16.4908659
  15.6920815  85.4445267  16.1745942  17.1718228  85.2060318  16.3854837
  66.1959648  64.1956472  57.2942209  66.8871450  64.8414803  57.1479464
  65.5599451  64.3638659  56.5989399  29.4343591   3.5929474  22.2908640
  29.6076059   3.2870990  23.1811857  30.2566266   3.9956558  22.0116949
  17.1236980  -0.0625433  27.3751712  17.6327717   0.7143747  27.1439266
  17.2104621  -0.6401901  26.6168666  35.9482932  79.6432590   9.2170101
  36.2366247  80.2933598   9.8576820  36.3299966  78.8203096   9.5224464
   4.6453291  69.8377132  39.7392511   4.5618373  69.0017891  39.2804503
   3.7445033  70.1430416  39.8465753   9.1209590  58.2508659  39.8997021
   8.6818385  59.1001844  39.9451232   8.7976897  57.7729464  40.6634569
  58.9739847  62.2869110  69.8487949  58.1844902  62.1572351  70.3742599
  59.6713400  62.4149847  70.4918575  38.9590716  21.3714242  11.2596047
  39.6710682  20.7634473  11.4587450  38.1825328  20.9652138  11.6445899
  65.4979372  70.9388781  62.8456593  65.5755234  70.1191282  63.3337402
  64.8967505  70.7350826  62.1292257  12.0601463  76.6043186  11.5240097
  12.3602414  76.6305923  10.6154478  11.2553346  76.0869217  11.4955544
  84.2966938  25.5031204  21.9003892  84.4924164  26.3489485  22.3035026
  83.6134624  25.1260138  22.4546528   7.8979027  76.2267637  48.7309074
   8.1571752  77.1399021  48.6076593   8.6383134  75.7203770  48.3968449
   6.1991751  39.0453935  40.2293730   5.4079545  39.1649437  39.7041035
   6.1995232  39.7873163  40.8341694  11.7671907  24.3190503  13.4072208
  11.7678452  25.2704430  13.3019531  12.2854137  23.9961553  12.6700532
  53.9780712  37.1893787  68.2530594  54.3866825  37.8450489  68.8181829
  54.4274902  37.2835302  67.4131870  83.3272839  85.8505630  23.2412839
  82.9287815  85.8497334  22.3709822  82.6359749  85.5318069  23.8215590
  20.5932164  10.4428422  68.2371187  20.6807756  11.1335778  67.5802708
  20.3749442  10.9070849  69.0452480  57.5798559   2.5594217  43.8512182
  57.1966553   2.2114486  44.6563911  57.7514458   1.7860535  43.3139181
  58.0496168  76.8529463  26.2333083  58.7297392  77.5118303  26.0935307
  57.2275448  77.3370886  26.1556220  23.4120202  25.1980257  25.8060956
  22.5925994  24.8246741  25.4814601  23.5875273  25.9352922  25.2214003
  81.3513756  75.3897476  71.2724781  80.5495167  75.6671286  71.7155600
  82.0040226  76.0416317  71.5280724  42.7148676  13.0037248  48.9470291
  41.7937136  13.1731403  49.1445351  43.1213045  13.8703084  48.9385176
  27.7361083  68.1413269  53.4504128  26.9309163  68.5473442  53.7714195
  28.2149553  67.8995228  54.2431688  71.9191122  35.6711745  35.6206226
  72.5479078  36.0805392  36.2149858  71.6020203  34.9046707  36.0982847
  41.2872553   9.8930949  15.5533659  42.1367788   9.6005428  15.8834481
  40.8166838  10.1893580  16.3324821  29.8651767  77.4207020  20.9607720
  29.1792440  76.8071175  20.6976271  30.0396562  77.9368210  20.1737452
  53.9057493   6.8184221  43.3551264  54.2240953   7.6546532  43.6951303
  54.6703196   6.2430626  43.3800459  84.2848587  49.8617315  19.1413128
  84.6048641  49.6392632  18.2670510  84.2639160  50.8186388  19.1523838
  91.3310909  66.7987204  18.7466776  91.3873577  67.7470922  18.6298192
  90.4507446  66.5722609  18.4467793  75.9165668  75.1570368  33.0930471
  75.6101465  74.8131943  33.9321589  75.8595896  76.1077499  33.1885958
  20.1152468  56.5645504  24.5865917  20.9385204  56.2651110  24.9723196
  20.3810287  57.0796442  23.8248348  57.9276848  76.6986799   9.0193230
  58.4480906  76.8994999   9.7971916  57.2606945  76.0859394   9.3290097
  64.8686123  58.7840652  24.7238278  65.0232792  59.3362141  23.9573812
  65.7418203  58.5013008  24.9954581  44.7824717  64.7492456  24.0469861
  45.6425190  65.1212168  24.2424035  44.1710186  65.2766371  24.5609999
   0.9075385  70.4912996  47.8402567   0.2380574  69.8495865  47.6031303
   0.7340164  70.6895447  48.7604856  87.8463554  47.9206944  21.2978125
  86.9760799  48.3180666  21.2671423  88.0426216  47.7032423  20.3865337
  29.2281747  43.1739330  22.4421096  29.3077278  42.7865362  23.3137894
  28.5298514  43.8225222  22.5310802  90.8135481  24.4951081   1.2247188
  91.2588567  23.7477493   1.6239533  90.3834677  24.9367738   1.9569713
  12.3951256  81.3055611  72.7444792  12.6952469  82.1194935  73.1490326
  12.7641511  80.6144714  73.2944345  70.9783077  66.7510796  20.9506583
  71.3594294  66.5706968  21.8099833  70.1664114  67.2204018  21.1424732
  87.1270275  76.5978527  15.3799582  86.3830853  77.1352911  15.1080346
  87.8653336  76.9372940  14.8740685  64.5885658  64.7341919   1.7387609
  65.4686737  65.0056124   1.4780401  64.0056038  65.2171135   1.1529485
  25.6422901  85.9303474  60.8493471  25.9376121  85.1273441  60.4201603
  25.4131961  85.6568623  61.7375755  12.0296371  -0.1242965  38.8898134
  12.4691272   0.7255231  38.9195991  11.2349892  -0.0013148  39.4090819
  53.7289858   5.1177341  65.6670094  54.2056608   5.2657956  64.8502541
  53.5566425   5.9960192  66.0063362  39.1856360   5.4763758  67.2736263
  39.4866586   4.5733830  67.3747206  38.2528496   5.4430687  67.4858427
  59.4095182  75.0597286  32.8915477  59.1349983  75.9126854  33.2282066
  59.1162825  74.4348335  33.5546827  50.2490997  74.0094709  29.0022731
  50.0564766  74.5835018  29.7436357  50.9968138  74.4208574  28.5687733
  64.0392113   8.6749309  42.6245260  64.3910885   8.3918244  43.4684849
  64.4143295   8.0630219  41.9912148  33.0500126   4.3326446  12.0985925
  32.4907136   3.6244234  11.7794669  32.4393797   4.9784514  12.4539721
   7.4291575  17.0210254  54.8499489   6.9409758  16.2331963  54.6107054
   8.0151957  17.1739733  54.1087341  23.4222865  78.2477093  59.9653769
  24.2620707  78.7049770  60.0089884  23.0337834  78.3773184  60.8305311
  73.5120773  83.6965561  61.3230371  72.5677013  83.7762165  61.1887217
  73.6571980  82.7594948  61.4537716   1.9003317  61.5510321  24.7495365
   2.6776257  61.1587000  25.1471829   1.5983662  62.1907234  25.3943968
  36.7636466  26.2587428   0.5250095  36.4921832  25.9988260   1.4053410
  37.5878024  25.7935882   0.3813875  84.5633411  32.6495385  15.6391835
  84.4808102  33.4014893  16.2256896  83.9229488  32.0183539  15.9674060
   9.4246864  41.0745192   4.6682519  10.0329232  41.4823389   4.0518382
   9.9399102  40.9482288   5.4650122  87.7572155  73.5771847  23.3639479
  88.6601353  73.4263182  23.6436081  87.6392841  72.9969072  22.6118803
  89.7806931  82.5650024   1.9844706  90.1719475  82.5660896   1.1108834
  90.4443645  82.9674816   2.5446394   1.3269594  52.0585442  27.2991180
   1.6421823  52.9180622  27.5785685   0.4227012  52.0220709  27.6109171
  52.0833778  33.5848284   6.7908919  51.5960932  32.9078674   6.3213074
  52.2834969  33.1905484   7.6398480  81.9807243  76.6759253  32.1761417
  81.6692448  76.1224556  31.4599776  82.1525192  76.0655928  32.8932261
  86.6360950  27.3705888   5.9952164  87.4380016  27.8766704   5.8645779
  85.9595203  28.0296850   6.1503816  10.5758834  51.0404921   7.5427747
  10.0763071  50.6616879   6.8194735  10.7843888  50.2951908   8.1060517
   7.9304457   3.0392611   4.8301908   7.0397443   3.0253875   4.4799185
   7.9792321   3.8551670   5.3283364  86.4950371  34.1111326   6.1703688
  87.3617554  34.4464064   6.3997585  86.6219425  33.6761522   5.3272086
  58.2243824  45.3183746  31.0851264  59.1815758  45.3218412  31.0841060
  57.9881954  44.5538330  31.6104078  34.8631072   2.4630889  54.4887590
  33.9267230   2.5342202  54.3033981  34.9127030   1.8935576  55.2564859
  46.5568876   5.5765331  62.9047441  45.6240702   5.4124951  62.7662706
  46.8250847   6.0914427  62.1437120  39.7452092  16.4090025  56.2541676
  38.8127923  16.1975563  56.3002539  39.7903466  17.3408639  56.4682436
  83.0525494  53.8575077  22.6439357  83.2651806  54.6609497  23.1188107
  82.8447533  53.2221985  23.3290863  77.1789980  42.1401739  29.4099426
  76.9779110  41.6933298  28.5876751  77.8096962  42.8177404  29.1663098
  74.3452883  82.8516197  42.5196743  75.1588440  83.1404114  42.9331446
  74.2913294  83.3643913  41.7132092   4.0269378  43.0681849  25.2142334
   3.0739236  43.0223036  25.2909851   4.3511537  42.5013733  25.9141207
  47.8565931  23.9872575  61.7237520  47.7002192  23.8719511  62.6610231
  48.7835550  23.7784529  61.6081095  35.6501007  17.7239740  11.5342414
  35.7451630  16.7977285  11.7561972  35.5285192  17.7315032  10.5848241
  88.7736988  55.1652288   1.2646896  89.1322994  56.0484648   1.3514796
  88.3329582  55.0026560   2.0986852  67.3936987  35.6621695   4.9989662
  66.8188477  36.1848044   4.4398281  67.8303528  35.0596404   4.3968710
  72.1365452  45.3839922  67.4320745  72.6299191  44.7489738  67.9512739
  72.1162701  45.0092936  66.5514946   5.0223708  22.0950198  23.7537766
   5.0030404  21.1598706  23.5504127   4.5675689  22.1670914  24.5929384
  54.2189312  13.5023606  48.4071922  53.6679506  14.2850482  48.3999681
  54.0910864  13.1274915  49.2786074  25.4281473  46.4319563   7.2452068
  26.1163139  46.4510822   7.9102576  25.8920598  46.5542984   6.4169252
  53.2609415   3.3342963  56.3858652  53.1633425   2.9463136  55.5162859
  54.0470791   2.9227987  56.7448759  16.8766975  61.1595869  18.6666894
  17.4264872  60.4333210  18.9608026  16.3951766  60.8075666  17.9180551
  10.7153797   5.2299523   4.6481016  10.8833838   4.4115961   4.1808760
   9.9393141   5.0481790   5.1781130  43.9949478  24.2683066  74.5306208
  43.3264984  23.6497582  74.8252482  44.4669498  23.8006676  73.8415916
  36.2896633  85.0153065  18.0815279  35.8438849  84.1682529  18.0792153
  37.2122169  84.8000813  18.2186425  82.8798008  20.2299786  63.0159092
  83.1750202  20.9494066  62.4577856  81.9831657  20.0567293  62.7290916
  42.9747009  71.5073109  65.0291061  42.4057436  71.0215473  65.6262255
  42.3770809  72.0594740  64.5249176  55.8831406  59.9495745  23.8129735
  56.0321712  60.6151533  23.1413937  56.7500305  59.5797634  23.9802170
  64.5614529  14.8126221  51.1210346  64.5865822  15.5002964  50.4556751
  64.3625355  15.2745199  51.9354773  88.8510227  60.8770943  20.2143550
  89.6679497  61.0371161  20.6868458  89.0228367  60.0889969  19.6989787
  57.1149635   2.4364392  51.2736750  57.4430895   1.5690970  51.0364389
  57.8391695   2.8450602  51.7477894  69.2120028  34.6070862  48.0600357
  69.8142576  34.1705251  47.4575949  69.0179825  35.4448152  47.6395607
  39.4432783  82.4286461  49.6024990  40.3086519  82.8134346  49.4635773
  38.8390160  83.1680965  49.5368433  87.4584866  19.0576267   7.0753777
  86.7840195  19.3404770   6.4578676  87.8014660  18.2464290   6.7004645
  56.8672752  75.0341463  55.8017874  56.2038851  74.7399902  56.4259815
  57.6913977  74.9821997  56.2858915  58.5171366  84.0766048  34.4267917
  58.1661701  83.7239742  35.2445364  59.3823195  83.6754036  34.3447542
  40.9842062  21.9538832  52.4643326  41.7383718  22.4922681  52.7043486
  40.3092289  22.5849319  52.2144938  69.8331690  52.9997444  37.1882653
  70.3759480  53.7879562  37.1697283  70.4448509  52.2836351  37.0172071
  45.8666039  75.2323627  42.5100756  46.1483335  75.1379442  43.4199905
  45.4489183  74.3969250  42.3007536  14.7765589  44.8392010   9.9210280
  14.4579422  44.0812540  10.4111624  14.7068918  45.5689716  10.5365074
   2.6524118  37.9449916  27.5371361   2.6854625  38.5531187  28.2755923
   2.3747054  37.1142888  27.9231977   6.0369480  28.9941454  25.8756876
   6.5501350  28.2284594  26.1337471   5.1576596  28.6507654  25.7170248
  32.8482676  60.1779747  11.8529630  32.9575920  60.9620237  12.3910630
  33.1546855  59.4614124  12.4087298  52.0370960  36.7884421  64.0668774
  51.9688702  37.7371931  63.9598894  52.7608013  36.6681743  64.6817112
  86.8242168  52.0274878  24.8539972  86.7774868  52.4179554  23.9813089
  86.2810135  52.5957966  25.4000664  46.7765474  19.6889508  70.0691319
  46.8498468  20.5821061  70.4054832  46.0047960  19.7087097  69.5032358
  15.0594687  49.9149990  70.4772663  14.7414649  50.5910158  69.8788452
  16.0008371  50.0758886  70.5418777  73.5761166  35.0953078  32.9824448
  72.7872896  34.9864650  33.5136151  74.1290760  35.6865931  33.4931755
  12.6644576  49.8950529   4.8029995  12.1350276  49.7877455   5.5932027
  13.0672157  50.7579708   4.8998955  87.4044418  48.2775927  18.4055519
  86.6844273  47.6683140  18.2425153  87.1167278  49.0999651  18.0091226
  78.0753672  28.5475052  74.2645977  78.9393485  28.1388796  74.3174746
  77.6540494  28.1211651  73.5183022  29.0968990  46.9179010  26.5609646
  29.7485662  46.6654873  25.9068656  29.6083760  47.1099520  27.3469281
   6.0963935  75.1595497  17.9456997   6.0315204  74.3221951  17.4865079
   7.0140541  75.4145622  17.8503036  52.3000669   4.9271563  14.0481293
  51.9672060   5.6563652  14.5712852  51.6096783   4.2656371  14.0927100
  71.4177942  25.6293941  61.3528633  71.9879341  25.3234029  62.0582294
  70.8649921  24.8754048  61.1475754  78.9867067  72.3027802  18.4257901
  79.2330217  73.2039165  18.2172108  78.9959288  71.8505812  17.5821877
  71.7180681  17.3674262  74.1205692  71.0487223  16.8314862  74.5459843
  71.2241602  17.9750812  73.5700750  68.0375051  81.0229301   4.1251066
  67.5595903  81.2372303   3.3239192  68.7746239  80.4890251   3.8287464
  68.7310648  32.7324319  69.0199757  68.7305355  33.4484124  69.6552753
  69.0295315  33.1357479  68.2048178  82.8824139  78.0769682  28.4772301
  82.7753639  78.3671284  29.3830872  82.1459961  78.4721088  28.0105495
  11.9679487  46.3488626  16.4917815  11.7523599  47.2796774  16.5495884
  12.0191753  46.0578823  17.4022412   1.5317392   0.1751392   1.2195636
   0.6027794   0.3616493   1.3554879   1.8392515  -0.1414425   2.0689425
  81.7816067  38.6789107   7.0827395  81.0364819  38.6817646   7.6835889
  82.1131802  39.5764875   7.1081138  38.0751634  -0.1079465  14.4260466
  38.8099241   0.2925787  13.9613545  37.8083229   0.5518235  15.0661480
  19.3690145  68.8961458   2.3865658  20.2588964  68.5496140   2.3213023
  18.9793694  68.7183571   1.5305293  11.7087102  60.7839537   7.4042124
  10.8683646  60.7673645   7.8622246  11.6525578  61.5464067   6.8282425
   3.6803564  34.5110440   3.8868421   3.3275583  34.5568252   2.9982087
   3.7069127  33.5751867   4.0860781  48.0000448  14.7045279  20.1307011
  47.7438211  14.6508515  21.0514069  47.8558636  15.6209826  19.8949993
  19.7183073  64.9401283  38.9009666  20.1746225  64.5064783  38.1798863
  19.4318175  64.2242527  39.4681311  60.4571104   1.7634206  45.6795120
  60.0840998   2.6105294  45.9234381  59.8730898   1.1200122  46.0809803
  79.4740105  57.9284906   0.4846108  80.4020023  57.7652693   0.6531829
  79.3212843  58.8116980   0.8205464  48.9591885   5.1121867  71.5093946
  48.0022430   5.1229769  71.4901447  49.2199659   5.6091487  70.7339859
   5.2773440  60.0873470  13.9365494   5.8127064  60.7772970  14.3284476
   5.7151854  59.8849392  13.1097746  45.7838678   1.0297543  49.5838404
  46.3176250   1.4906791  48.9366293  44.8821402   1.2544741  49.3544531
  69.8140287  32.1020794  19.2503703  70.7198858  31.7943907  19.2189467
  69.5417643  31.9531488  20.1558661  19.8519766   2.7654463  20.2782917
  19.9315321   2.4437083  19.3803012  20.5957174   3.3580947  20.3871489
  53.8517094  13.3997643  62.8432322  54.6209049  13.3527696  63.4110022
  54.1515350  13.0497777  62.0042753  84.9715805  70.3945827  11.2112951
  85.6648636  71.0400391  11.3490415  85.3181171  69.8112631  10.5361032
  20.4621816  53.0680370  11.9901991  21.4029837  53.2071686  11.8817246
  20.1175904  53.0541754  11.0972846  30.9539342  51.0537243   2.2106978
  30.0180459  50.9255600   2.0560479  31.1109042  51.9702625   1.9836523
  87.3894787  44.9910831  35.1348019  86.4581966  45.2029657  35.0712395
  87.8133106  45.5864620  34.5166326  71.9146490  75.1563931  14.5437622
  71.0805559  74.8297167  14.2064130  72.5610256  74.8776436  13.8951278
  26.1681604  11.8389750   5.2321261  26.5196991  11.1882186   4.6245325
  26.8253016  11.8988466   5.9255320  32.7111864  10.7187951   7.7996093
  32.0982313  10.1818633   8.3018273  32.2846532  11.5733576   7.7361602
   9.0858358  78.7085295   0.7184575   9.6579349  78.7516212   1.4846674
   8.2489240  78.3955288   1.0617354  34.0239573  83.0478382  55.2077723
  33.6769414  82.1593380  55.1279259  33.7352991  83.3409405  56.0720634
  54.5816898  24.9745703  72.9076719  54.3012190  25.3373671  72.0674658
  55.4440308  25.3612351  73.0596352  55.8915472  24.7005057  69.6550608
  56.7255259  25.1366687  69.4805098  55.2492952  25.4100347  69.6728659
   9.0265280  37.7010918  20.4393005   9.7218746  37.0847321  20.2094579
   8.8583636  37.5372958  21.3672686  79.1931772  18.9360857  74.5434999
  79.7541618  19.4959772  74.0067959  78.4743071  18.6891806  73.9616966
  68.3353853  54.5216513   4.1863132  68.3737278  55.4780340   4.1766229
  68.4064388  54.2697573   3.2655889  69.9052000  77.2180367  39.0945792
  70.0680399  77.2343445  38.1514740  69.0101624  76.8889952  39.1774392
  38.1290913  67.7535629  58.0894947  37.9066586  68.6375904  57.7975130
  37.8221059  67.7161789  58.9953613  51.8043041  71.2657404  54.5572329
  51.9160414  70.5141926  55.1393986  52.5403357  71.8412876  54.7651672
  34.1470599  47.9505968  71.3637543  33.8240123  48.0579519  70.4691315
  34.7120714  47.1789980  71.3233995  79.7004747  53.2977009  13.9986265
  79.1397572  52.6745605  13.5365391  79.2331934  54.1309023  13.9381802
   5.4219711   5.1360017  14.5745146   4.8238963   5.2251875  15.3165293
   5.0484771   4.4280535  14.0495932  75.0220108  58.2870150  65.7408619
  75.9294462  58.2181025  65.4441452  75.0230408  57.8857088  66.6098785
  28.6491394  77.2025776   3.5224193  28.2888365  77.9761791   3.9559519
  29.3488479  76.9059801   4.1043723  52.0337820   0.6647686   4.4463786
  52.1380663  -0.1002804   3.8806432  52.9276228   0.9080330   4.6874201
  16.6271448  30.9859467  31.3004065  16.9321346  30.1009965  31.5006018
  16.8596256  31.5000558  32.0736313  77.0150089  46.4994764   4.6698189
  77.3721886  46.3827467   5.5501747  77.7669716  46.7625761   4.1391963
  83.4452820  22.9449534  67.5472546  83.8335991  23.5120821  66.8810654
  84.1946602  22.5346804  67.9789305  88.2602310  57.2317123  22.4313617
  87.6968956  57.0656443  21.6755176  87.8513527  57.9740524  22.8763151
  33.1939220  71.4108133  18.0300689  34.0273952  71.8240976  17.8047884
  33.2465601  70.5378389  17.6409948  43.1093836  81.3694954  31.9189215
  42.3167086  80.8329391  31.9161582  42.8540564  82.1716404  32.3745680
  81.3714695   7.6947492  73.7767887  81.4700603   7.8017467  72.8307104
  80.8864021   8.4711391  74.0563726  34.0221691   7.2863412  66.7649746
  33.6956787   8.1335944  66.4619923  34.6266031   7.0033032  66.0788393
  24.4834531  86.0726082  57.1320343  23.9600147  86.3411470  57.8871059
  24.0956033  85.2426043  56.8547297  69.3417072  19.6572125  68.4615326
  68.7670851  19.1783559  67.8642559  70.2183914  19.5406640  68.0953836
   3.9334130  48.8305569   0.2517694   3.9239186  47.9255486   0.5633818
   4.8224464  49.1364336   0.4314717   1.0603315  70.7579231   2.3653597
   1.8201205  70.8286142   1.7874712   0.9083060  69.8164082   2.4470298
  86.0814095  26.6645479  63.5545635  85.7913971  25.9756637  62.9566002
  86.9615078  26.8890595  63.2524729  59.3653774  35.4776740   7.9817152
  59.1170692  34.5867014   7.7352619  60.2496386  35.5854464   7.6314270
   0.5924761  30.2863264  56.6288614   0.8387399  31.1974549  56.4693928
  -0.0346949  30.0827765  55.9349871  64.2666006  31.8563557  60.4785681
  64.8910952  31.4432001  59.8822975  63.8928318  31.1287856  60.9757328
  54.6196842  63.1847382  65.3466654  55.2133131  63.6776257  64.7801876
  54.1088629  62.6432514  64.7449303  48.7292957  25.9724236  52.2038937
  47.8766537  25.7016826  52.5443888  48.6186695  26.8988872  51.9902182
  15.4351723  38.9856100  26.6261721  15.6297731  39.1046953  27.5557852
  15.5791247  38.0524468  26.4689589  19.6410036  49.1892242  28.7703395
  20.1684856  48.5569143  29.2583752  19.2927766  48.6907387  28.0310965
  11.9247770   9.1779834  74.6608019  12.2753978  10.0433302  74.4499159
  11.3818729   8.9491731  73.9063931  17.2294855  73.5157681  25.5331635
  17.3079419  73.0272388  26.3525653  17.0844996  74.4213772  25.8071804
  70.2663803  44.7461939  71.0648966  70.5089188  45.4221630  70.4320669
  70.4282475  43.9209557  70.6077147  84.4893265  13.0464482  23.3264494
  84.4501781  12.4027979  24.0338492  84.5205784  13.8921976  23.7736225
  52.1147680  21.7660618  56.5334845  52.2520161  21.3789392  55.6688833
  52.2485256  22.7043891  56.3997459  82.5464344  14.9485028  54.0935278
  82.4304295  14.0384233  53.8205290  83.0917072  14.8954535  54.8784447
   1.0194117   9.1791075  19.1308904   0.1632068   9.1235137  18.7065625
   0.8207388   9.2241335  20.0661612  64.6865034   9.1089106  54.7160149
  64.7414684   8.6049128  53.9041042  65.5057716   8.9176482  55.1725769
  54.8127937  10.9724200  10.8322322  54.9418020  10.1399362  11.2867200
  53.9177179  11.2297642  11.0532439  10.1172757  55.8649921  12.9247999
  10.2128124  55.7554770  13.8709021   9.6340483  55.0888300  12.6414299
   9.6862477  70.8590555  70.3649092   9.6452719  70.5007172  71.2515593
   8.8583481  70.5970669  69.9621964  85.4513931  77.6923656   8.5376900
  84.4988251  77.6077366   8.4965593  85.6039047  78.3594227   9.2070198
  43.2132578  76.4536428  68.5703421  43.3642006  76.5259981  67.6278925
  42.2603703  76.4549017  68.6610842  50.0516319  65.2372885  69.7729301
  50.5008411  65.1345634  68.9339495  50.0696087  66.1795473  69.9404478
  29.5605540  52.8775692  37.2287846  29.5085979  53.2516956  38.1083083
  29.7414827  53.6261654  36.6603708  34.8064590   9.7393978   6.3713288
  34.1373110  10.2021194   6.8756729  35.3970242   9.3777210   7.0321274
   0.6212663  36.1953735  20.7060266  -0.0732435  36.6699624  21.1628127
   0.4852338  36.4030075  19.7815740   9.0696585  81.2816620   6.4201641
   8.7552559  80.6212330   7.0375925   8.9883047  80.8653259   5.5620956
   8.5781795  67.5447702   3.8992226   7.8883684  68.1389475   4.1947594
   9.1022205  68.0686808   3.2933110  40.7916307  37.7415776  71.1487627
  41.4276838  37.5379562  70.4630470  40.3198051  36.9206738  71.2892103
  56.0046339  81.1056709  49.9817896  56.3318682  81.4406013  49.1469431
  56.1588955  81.8177700  50.6025553  83.1177807  31.6959119  65.9932661
  82.3698235  31.4827967  66.5512657  83.7499714  30.9975386  66.1630869
  46.0414648   2.9673961   9.7550535  46.7344332   2.9708883  10.4153645
  46.3160753   2.3029101   9.1231692   8.9884400  84.2287064  23.4985042
   8.2752788  84.1915131  22.8611279   9.7848290  84.1736984  22.9703283
  26.6691709  86.2476158  74.7011423  26.1411262  85.4537392  74.7857428
  27.1565294  86.1254215  73.8864136  37.1486902  27.3609018   8.2170606
  37.9313755  27.7907372   8.5618490  36.4194274  27.8547049   8.5919821
  88.5743809  71.3570929  14.5894682  88.2190323  70.4717350  14.6675885
  87.9260731  71.9142437  15.0201797  84.5614719  15.4011893  67.7996159
  84.7747707  16.0105181  68.5063314  83.7905788  15.7823253  67.3792696
  63.3696032  18.5864794  62.0467281  62.8230095  18.5870969  61.2609386
  63.2316637  17.7219486  62.4337578  65.3636503  68.5631466  29.5901227
  66.2426662  68.2306719  29.7718334  64.8927307  68.4595919  30.4170132
  59.8407602  53.1407738  70.6285954  59.5627069  53.1203651  69.7128963
  59.3495703  52.4319172  71.0439110   9.8037755  35.4997897   5.5059952
   9.8956734  35.7196093   4.5789206   8.8978451  35.7255936   5.7170284
  80.4448032  74.1468382  20.5349803  81.3865376  73.9766836  20.5550170
  80.3489876  74.8944521  19.9449575  83.7294483  59.8325825   0.7519182
  83.7110329  59.6264362   1.6864747  83.5163593  59.0054083   0.3199420
  62.4735022  53.5722733  70.4487705  62.8329325  53.3902025  71.3170385
  61.5696383  53.2604122  70.4934978  20.2311468  54.5826769  14.5097065
  20.3325605  53.6394262  14.6370935  20.9438109  54.8223543  13.9173448
  26.4268507  85.8118422   1.0434742  27.2316946  86.2265963   0.7329323
  26.2964357  85.0699479   0.4528676  76.7056799  45.6805706  53.7234354
  76.9875860  46.2302256  52.9922438  76.9533110  44.7927856  53.4650850
  59.3492842   3.8635078  52.6432848  60.2460051   3.5364056  52.7149010
  59.4411325   4.7289211  52.2447205  41.1421394  11.7692387  57.5665998
  41.2090492  11.6969240  56.6144848  41.7324972  11.0936487  57.9001951
  86.9531441  46.1524391  62.7448082  87.0701981  47.0933390  62.6135397
  86.0113049  46.0443926  62.8770733  62.5832367  43.9540720  66.3187456
  62.4072313  43.0779696  65.9756708  63.3882141  44.2265224  65.8782768
   4.6345612  53.8799572  54.6849489   5.2500826  54.5894003  54.5004177
   3.9664042  54.2810678  55.2407455  37.3095798   5.5476719  14.5481527
  36.9320393   6.4049047  14.7452497  36.5529966   4.9695933  14.4499636
  88.1969833  16.6953480  50.5227661  88.8556767  17.3679352  50.3496361
  88.2235909  16.1297607  49.7509956  21.7920518  30.8585334  15.0066781
  21.7092800  30.8866191  14.0534770  20.9244967  30.5965495  15.3148079
  48.6420679   8.0291396  54.5593929  49.4601107   7.8667146  55.0291300
  47.9814959   7.5441313  55.0540066   5.9434086  25.2710176   5.4576612
   5.0912052  24.8412085   5.5300874   6.5771961  24.5805192   5.6519789
  72.8318357  56.8533468  44.7666597  73.4255219  57.2955942  45.3734398
  72.1379709  57.4919176  44.6022987  27.5321364  81.8389893  21.3456082
  28.3566904  82.3036957  21.2028527  27.1223593  82.2979736  22.0788527
  34.9809527  17.0433819  22.8862095  35.7201481  16.4362109  22.8520823
  34.2216969  16.4868736  23.0595899  63.8005400  50.3931236   6.2734085
  63.0675268  49.9639416   5.8321297  64.5240259  50.3330803   5.6495571
  10.3302968  66.7187834  18.8004410  10.9063852  66.5442228  18.0562091
  10.8161271  67.3444319  19.3378127  44.3339968  79.8012114   4.7565481
  44.4475317  79.0487337   5.3371650  43.4122086  79.7692966   4.5005807
  42.3987007   3.5976705  59.7077560  41.9469976   3.5828248  60.5515385
  42.5680399   4.5252579  59.5430231   8.4673947  46.8535376  27.4506140
   9.1980374  46.6547155  28.0361605   7.7086169  46.9241047  28.0298448
  71.0317373  83.0654526   3.5367224  70.4888105  83.8074398   3.8030049
  70.6454086  82.7696133   2.7124274  10.0157905   5.1717383  67.6811218
  10.4974902   5.7525277  67.0921564   9.1174555   5.5016166  67.6609564
  70.6679773  71.6127253   8.6674422  69.8219633  71.1721659   8.7474316
  71.2649202  71.0827017   9.1956133  16.5223598  47.5174236   6.5991986
  16.3715637  47.3509359   5.6687284  16.2289751  46.7179251   7.0361888
  30.5439997  26.0891581  62.3272800  29.8068404  26.3005543  62.9001141
  30.4556465  26.6935635  61.5903187  70.3886986  16.5798104  11.8623435
  69.7358274  16.6260147  12.5608075  71.1288500  17.0892966  12.1922433
   9.3700206  35.0813651  17.2171664  10.2411115  34.8069763  17.5037718
   9.3346095  36.0161901  17.4198520  29.4729495  66.7051649  47.9317856
  29.2485881  67.4273872  47.3450279  28.9815593  66.8860579  48.7330627
  85.0585175   7.6229525  36.2224603  85.4402447   8.0017662  37.0143056
  84.1869545   7.3330182  36.4917922  40.7093287  69.5668507  69.0567684
  40.8395767  69.9850607  69.9078703  41.1879587  70.1221418  68.4413004
  47.8216934  16.1530304   9.6716017  47.6238441  15.2716172   9.9881423
  48.0486298  16.6454804  10.4604137  78.9974689  68.3109236  40.2077723
  78.5817862  67.9446411  40.9883356  79.0057850  67.5887346  39.5795965
   3.6224875  61.9403648   2.3186766   3.6782789  62.0555353   3.2672831
   2.7951160  61.4789343   2.1816795  11.3713205  24.4513178  34.2038393
  11.6850758  24.1894412  35.0694084  10.5745924  23.9373636  34.0722775
  84.5580292  42.0487976  36.6224718  84.0232277  41.4838696  37.1802139
  84.0554237  42.8603220  36.5514588  85.5417728  38.7325382   0.8722341
  85.0398922  38.3859086   1.6099298  86.0900116  38.0002713   0.5903628
  78.6458588  84.2966175  25.1621675  78.3929873  84.3195438  24.2392588
  78.0886173  83.6198235  25.5464482  34.9858642  65.1792097  18.3572507
  34.2693973  65.1669216  18.9918816  34.9965215  64.2949486  17.9909146
  87.1899986  40.2601385  19.0531814  86.9123268  41.1761522  19.0603459
  87.6556873  40.1445436  19.8814356  28.8688135  67.1019220  71.2975597
  28.4416723  67.8755093  71.6654539  29.5638871  66.8926239  71.9215012
  54.6447802   0.7499199  19.5226765  54.4079828   0.0811859  18.8800609
  54.3000078   0.4181699  20.3517175  51.7205048  17.5737655  49.4895220
  50.9606314  18.1541967  49.4456482  52.0727634  17.7064669  50.3696012
  51.9410658   6.2773335  50.8764744  52.3809385   5.7596564  50.2021217
  51.2926769   6.7933601  50.3973722  69.6221781   6.8206501  67.9176569
  69.1449308   7.0795524  68.7059689  70.0490761   7.6244837  67.6212788
  38.0242729  12.7534413  18.3440769  38.1382513  13.6238849  18.7256134
  37.2751760  12.8461587  17.7554429   5.3972620  73.0069113   8.0710381
   6.3400078  72.9160786   7.9324341   5.0260592  73.0242634   7.1889162
  84.2959976  62.5391102   4.7837618  84.4519901  61.5947962   4.7710252
  83.4185505  62.6419115   4.4153124  81.7962646  17.3900318  74.1977739
  80.8500576  17.5278437  74.2418623  81.8980694  16.4392388  74.1546297
  44.1256237  61.1521435  10.4504704  44.9787283  61.3069105  10.8560395
  43.4918737  61.4125729  11.1188817  77.0859003  78.1160259  38.8885617
  76.4430952  78.8230419  38.9447474  77.3509312  77.9606819  39.7951269
  72.2645473  29.4111729  62.1585321  73.2050133  29.2340922  62.1784878
  71.9688082  29.0414262  61.3266325  88.7002277  10.3612006  60.1048660
  88.4076500  10.1026773  59.2309093  89.2077923  11.1598992  59.9610090
  90.8609808  64.8147106  20.5321789  90.9068759  65.5447292  19.9147677
  90.9783862  65.2199459  21.3913822  28.3648539  83.9356518  23.8234568
  27.9811907  83.6404514  24.6492219  29.0048385  83.2593727  23.6014104
  76.5437365  81.4181042   7.1129072  76.3241386  80.8255291   7.8318357
  76.0455513  82.2142029   7.2980303   7.0495600   4.7701141  55.5940247
   6.2677127   5.1227593  55.1690674   7.4445051   5.5238456  56.0323620
  70.0416994   7.7265394  51.3673973  69.3831921   7.7474904  52.0617723
  70.7332706   7.1604306  51.7101574  45.5035019   7.5526905  18.9698231
  45.6991863   8.4742713  19.1390228  46.1376810   7.0716530  19.5014679
  26.1589813  47.1152210  16.8051565  26.8328810  47.5283146  16.2652981
  26.5385795  47.0888233  17.6834726  91.2621403  34.7263408  61.3193798
  91.2454128  35.3464746  62.0483398  90.5177975  34.1466188  61.4809608
  33.8891101  11.9269347  21.6937518  33.2174468  11.2929630  21.9451046
  34.7155333  11.4567220  21.8040204  35.6421018  18.9268720   5.9538406
  34.7201872  18.9918590   6.2030101  35.7425785  18.0282247   5.6398845
  51.7137051  70.9968710  23.1284165  51.4474726  71.4180231  22.3111153
  51.3482237  70.1139307  23.0730033  83.2542801  13.7236679  60.1620531
  82.4234200  13.7941098  59.6920061  83.0853844  13.0822802  60.8522177
  36.7876744   0.0081541  29.1562128  36.6061401   0.5219901  29.9431372
  37.1886039   0.6314248  28.5503888  19.4429004  11.2806547  11.0978103
  19.7304761  10.6842089  11.7890310  18.6376679  10.8871901  10.7616282
  36.3198328  53.7532234  62.7905321  36.1380267  54.1949940  61.9610596
  35.6123543  54.0334129  63.3712196  78.3783245  65.4351854  69.9189425
  77.9102373  65.7026196  69.1279888  78.3253908  64.4794559  69.9169731
  19.2723739  78.3157587  12.6611853  19.8434985  78.4741449  11.9095445
  18.3886135  78.3102798  12.2935307  63.4677267  33.8117576  47.1339321
  62.5688267  34.1000485  46.9755173  63.4588480  32.8766298  46.9297457
  74.7904253  75.1312113  10.0028193  74.9116135  74.4070530   9.3887019
  73.8439989  75.2730942  10.0220680  31.1225104  40.8891582  16.7588019
  31.1337852  41.8423796  16.8452442  32.0069909  40.6160879  17.0024371
  68.3248043  39.1851640  57.1557713  68.4713602  40.1283836  57.0844507
  68.1259966  38.9054298  56.2622070  48.8909531  41.9448423  65.1758099
  48.0706978  41.5371037  64.8980331  49.3871355  42.0609426  64.3655300
  69.5074844  45.3402138  60.0127506  70.3794098  44.9916887  60.1985121
  69.6505547  46.2741327  59.8592567  22.9068995  81.6140842   8.3289742
  23.7235403  81.1453533   8.1568867  22.7127194  82.0662975   7.5079805
  53.5411345   0.0442188  21.7618799  53.5856019   0.5339592  22.5831079
  52.8218757  -0.5741532  21.8904209  58.2943058  56.8563747   6.6742533
  58.1545877  57.6511765   6.1594737  58.7079525  56.2455750   6.0642904
  69.2619133  30.5675673  70.7555723  69.6065474  29.9655032  70.0960398
  69.3348742  31.4323878  70.3518438  68.7782145  81.1002445  14.1250515
  68.2858276  80.5828190  13.4878230  69.4399500  80.4969978  14.4633341
  12.6279998  46.9736624   6.8088007  13.0959952  46.5538788   6.0870010
  11.8201983  46.4677620   6.8968850  77.9781342  37.1428514  73.3545685
  78.0903196  37.6499295  74.1586304  78.7313366  36.5524268  73.3366966
  39.0210176  61.8895578  34.6306109  39.0702415  62.6025152  35.2673984
  39.9342155  61.6727495  34.4427323  34.5830488  40.3036547   8.3592170
  34.2255330  40.7315350   9.1372490  33.8281274  39.8802352   7.9505110
  63.1527948  14.6398175  65.9054804  63.6633205  14.2594278  66.6202545
  63.3057594  15.5820131  65.9769011  60.6824017  14.1377985  12.5298154
  61.0643435  13.8450158  13.3572376  61.4264297  14.1981602  11.9306445
  90.3119183  41.7571163  39.4941401  90.3468990  42.2247410  38.6596727
  91.2252808  41.5483618  39.6901822  86.7671204  65.7029867  55.9958696
  87.3606300  65.1670122  55.4698324  87.3443890  66.2073040  56.5691566
  47.3841476   3.4759429  25.9686923  47.4191332   4.1869122  25.3287458
  46.9352245   2.7645087  25.5120063  89.8227596  24.4528389  55.3409815
  90.7585430  24.6356487  55.4253864  89.5910454  24.0083170  56.1564207
  14.4726658  44.7974873  23.9941669  15.3292680  44.8489714  24.4182134
  13.8622332  44.6157074  24.7087026  56.2930679   7.6405865  27.5718594
  57.0026207   7.9359466  28.1424093  56.6712189   6.9147277  27.0755100
  10.8207357  46.5010834  33.6774182  11.0640538  45.6147861  33.9448333
  11.4785612  46.7437410  33.0257964  50.6982851   0.5241521   0.8570604
  51.0506868   1.2688869   1.3443100  50.8586073   0.7412884  -0.0612966
  84.0102196  69.9213648  32.5818014  83.9445877  70.8242416  32.2707725
  84.7528744  69.5558262  32.1010828  82.7111816  62.7165318  14.0360463
  82.2940636  62.1124697  14.6503329  83.5055542  63.0047321  14.4856429
   4.6878189  43.8690805  46.2717581   5.2232212  43.2120609  45.8268976
   4.1385332  44.2385387  45.5803680   8.1308943  80.9406185  63.0487347
   9.0852726  80.9338951  63.1218719   7.8653210  81.7654705  63.4553289
   9.6299499  29.4493175  31.5605307   9.5334125  30.1975083  32.1497011
  10.4071712  29.6528983  31.0402274  52.3051596  49.5029306  64.0785789
  51.6675472  48.8738632  63.7410021  51.7884684  50.2832317  64.2795658
  23.2506466  40.9510612   9.5248908  22.5703192  41.0399580  10.1923394
  23.8760066  40.3318119   9.9013025  58.1335211  60.9240627  67.6946068
  57.4445152  60.5796719  68.2628489  58.3530092  61.7753601  68.0732203
  27.2994566  17.0738101  15.5379450  27.6828408  17.3749423  16.3616967
  26.4239979  17.4606609  15.5256653  36.9257808  15.0881267   8.6101997
  37.0460391  14.3412876   9.1967160  36.2167931  14.8213887   8.0250335
  20.9001946   1.3397349  68.1961441  20.0029874   1.3990068  68.5243797
  21.2134171   0.4904073  68.5072136  45.8724689  14.1224337  38.9157581
  45.8164692  13.7676013  38.0285215  45.0184965  13.9322996  39.3041015
  19.4049740   1.3555062   1.9406384  19.6816719   1.5561523   2.8347364
  19.0550661   0.4660419   1.9921154   6.4891255  52.2876310   9.6602911
   6.9935501  51.5262699   9.9468482   5.5776775  51.9970179   9.6925163
  60.7334805  32.1891594  62.9751110  60.0940037  32.8810692  63.1441259
  61.5270424  32.6554370  62.7122974   8.6573303  35.5628896  36.4159131
   7.7082556  35.4751658  36.5041971   8.9112771  34.8450971  35.8358097
   2.0732440  74.9941969  13.3442557   2.5290883  74.9750185  12.5027871
   2.2469373  75.8693695  13.6908555  69.9198437  28.5845733  69.2236710
  69.4061232  27.8266048  68.9447403  69.9565601  29.1468906  68.4499264
  26.5030742  29.2822194  63.4467220  26.8751812  28.5305142  62.9855204
  25.5734992  29.0721726  63.5361671  52.5631332  22.7731276   9.6581930
  51.9056559  23.4673047   9.6126354  52.7742147  22.5827980   8.7441623
   5.7413530  14.5671594  63.4308100   4.8653865  14.5789409  63.8165236
   5.6431264  14.0535927  62.6290417  63.0948400  13.9041531  37.8090501
  63.9664841  13.5328102  37.6727796  62.5552750  13.5056019  37.1262193
  58.8555574  84.3386841  17.9821086  59.3591022  85.1477242  18.0722630
  59.4713545  83.6455441  18.2199550  87.3270798  55.8790541  16.9909179
  88.1011009  55.7605696  16.4403880  86.7164230  56.3718319  16.4427423
  50.6460571   2.7483806  23.0315900  50.7645845   2.1193489  23.7432814
  50.2808046   2.2315392  22.3134708  49.8927832   6.6757220  12.7503705
  49.5355368   7.1161664  11.9792569  50.4575300   7.3309106  13.1602728
   3.6270356  65.4599094  56.5355921   3.3647078  65.8696222  55.7112455
   2.8565457  65.5387115  57.0980597  83.0840969  81.3077259   5.7957405
  82.8948212  82.2420692   5.7097149  82.4310970  80.8791351   5.2424490
  59.6783018  37.4403763  62.1906090  59.3163157  36.6786790  61.7378283
  60.6237650  37.2909498  62.1924543  19.1742015  58.7232113   7.0103812
  18.7175775  59.2657661   6.3674480  19.4508040  57.9502296   6.5182221
  41.5399075  16.6432071  15.9857380  42.2885799  17.1967626  15.7637060
  41.5753746  15.9268343  15.3518724  38.2061791  51.0695457   0.7514601
  38.1831503  51.0431719  -0.2050993  37.4585104  51.6157675   0.9940732
  34.4499826  16.9333172  29.0649390  35.3100300  17.1138430  29.4443560
  34.6075892  16.8951952  28.1215739  49.2676984  49.4144236  -0.1283049
  48.5414468  48.8885652  -0.4633641  49.2207931  49.3096822   0.8219886
  17.6310146   9.1264433  35.2135921  17.0021200   9.8249513  35.3947306
  17.7337027   9.1374558  34.2619801  81.3866329  74.0247440  17.4129462
  82.1089268  73.4661102  17.7000916  81.8139458  74.7932720  17.0347977
  80.2224541  63.6915255  12.5181627  80.3516483  64.6014833  12.2507334
  81.0093212  63.4748459  13.0182898  44.0792894   2.7801797   3.7338352
  44.4618082   3.4288496   3.1429577  44.3176794   1.9364007   3.3498576
  54.4676208  15.4175568  28.8907099  54.1293478  15.1640749  28.0318999
  54.8231602  14.6076787  29.2566586  47.8908205  41.3852835  71.6274595
  47.3511124  40.8505440  71.0452271  48.5278368  41.8025398  71.0475111
  88.8187313  68.8256884  17.0343733  88.7640476  67.9357958  17.3827028
  89.6073437  69.1916275  17.4348962  84.6140194  79.4107723  15.5409503
  85.4291153  79.6735859  15.9684682  84.0229034  80.1513481  15.6764472
  35.4155779  61.2354136  35.4217196  35.5939817  60.3839827  35.0223780
  36.2308717  61.7254877  35.3151703  60.3424549  82.3910332  42.0304537
  60.6828117  82.6761818  42.8784370  60.6819153  81.5025711  41.9225979
   0.5061780  39.3111515  19.8655081   0.5729884  39.2333412  18.9138186
   1.4116704  39.4007134  20.1626515  27.2182918   4.4268543  15.8230698
  26.8522787   3.6630064  16.2689435  26.4731908   4.8175350  15.3665352
   3.7043414  57.7418995  29.8540497   2.8517106  57.9339170  29.4636893
   3.7678093  56.7870378  29.8330259  22.4107051   1.8887818  25.4108667
  22.5626469   1.0052367  25.0754666  22.9152584   1.9265793  26.2234116
  67.2133064  22.0974183  71.4679861  67.4573088  22.2432518  70.5539703
  66.2707424  21.9328809  71.4409351  22.7924037  69.3950605  44.2468166
  22.0894384  69.9876404  44.5131254  22.9640341  69.6224546  43.3329964
   2.8448558  31.8015790  69.0964651   2.8737357  32.6478791  69.5427513
   2.7414235  32.0223355  68.1708288  63.6609936  28.3855486  59.1234827
  62.9042482  28.3679414  58.5375977  64.2959785  28.9462328  58.6777735
  70.9561443  84.7826099  42.6535082  70.9653425  85.3800774  41.9057178
  70.4507113  84.0281010  42.3510456  63.0132675  25.8887434  16.6245699
  63.4999847  25.0786090  16.4728403  62.9124689  25.9330940  17.5754142
  19.5615590  51.0982847   3.2344607  19.7831368  51.3530064   4.1301453
  19.5650053  50.1412153   3.2498276  34.9210310  14.5523143   7.0073563
  34.4324780  13.8574708   6.5660650  34.7164655  15.3430665   6.5082610
   6.9975156  74.5285082  11.6760266   6.5234560  75.0284481  11.0115278
   6.5378684  74.7204924  12.4933994  72.1344709  49.6843767  62.2271872
  71.2567759  49.5460749  61.8711519  72.7168369  49.2492390  61.6045046
  70.0719738  76.1742544   6.6626686  70.3991652  75.5207777   6.0444891
  70.2993679  75.8241129   7.5240201  35.3535962  38.8487887  21.5346980
  35.1644135  39.1825533  20.6577468  34.6773648  38.1896448  21.6911411
  66.6703749  53.0638790  68.1853771  67.4644136  53.5750723  68.0291224
  66.9119072  52.4530554  68.8816452  56.7306662   5.3208470  12.6536953
  56.0085630   5.7918322  13.0695868  56.9490147   5.8476818  11.8849277
  25.1033616   3.4419337  47.5153255  25.7067490   2.7266890  47.7167702
  25.6611967   4.2179263  47.4615812  66.5633869  13.9161170  16.2007630
  66.2715483  13.3717167  16.9319880  66.7289019  14.7739208  16.5919292
   1.8610987  66.5816593  64.9262190   2.0021176  66.4507723  65.8638811
   0.9849282  66.9624567  64.8666430  13.2007575  64.0383005  35.6536889
  13.7065363  64.6296406  35.0962567  13.5722554  63.1726551  35.4837418
  18.8883531  65.6301355  16.9812012  18.1795740  65.3549957  17.5627172
  18.4429038  66.0036612  16.2207484  70.8005857  48.0435658  65.6172800
  70.4969358  47.6683521  64.7906923  71.2000370  47.3080873  66.0817575
   2.0199816  53.0312443  38.8992143   1.0664538  52.9611015  38.8534284
   2.2016306  53.2309198  39.8175645  13.1241024  60.3224134   4.5150346
  12.7082050  60.3715134   3.6543083  13.3652413  61.2265778   4.7164559
  31.4547372  40.7761288  72.9850674  32.1436429  41.3711739  72.6891565
  30.6624818  41.3132095  72.9954052  66.1746264  40.0420475  69.6358585
  65.5387068  40.2755260  70.3121138  67.0097876  40.3705406  69.9687767
  23.5889077  84.0701294  18.8472462  22.8438330  83.5793495  19.1939998
  24.3571377  83.6046982  19.1780436  83.9795494  37.2731876  68.4600067
  83.5866070  38.0830503  68.1344986  83.6473656  37.1881199  69.3536758
  48.4143877  46.7829514  32.2343397  49.0699196  46.0976839  32.3644066
  48.4834146  47.0074081  31.3063931  81.3152504  41.8868971  65.6777334
  81.8702602  42.6071262  65.9768486  80.8475018  42.2427940  64.9222374
   9.9003464  11.6442513   6.6286564  10.8266413  11.5593541   6.4028186
   9.4467437  11.6376984   5.7857847  72.0132303  35.5568361  64.5724440
  72.8088188  35.7032323  65.0841475  71.3504696  35.3221750  65.2219963
  16.2277365  53.6216831  12.0514309  16.3635015  52.6863575  11.8999004
  15.4655409  53.8428593  11.5162945  88.3104897  68.9746761   8.2853961
  88.2079315  68.8022804   7.3494518  89.1235542  68.5290861   8.5233301
  42.4459219  16.1507416  10.7083964  41.7519665  16.7229855  11.0358012
  42.9486036  15.9138024  11.4877570  83.2939529  75.3591681  29.4884229
  82.3732185  75.2516174  29.7269940  83.3417797  76.2359047  29.1072702
  -0.2189810   9.6342784  62.5793457   0.0735401  10.5452347  62.5506592
   0.4797670   9.1728342  63.0430841  23.2346845  51.5693331   9.2945671
  24.0395474  51.0604715   9.3919581  23.4201479  52.3978233   9.7366494
  50.5344582  30.0769973  58.4991646  49.8890114  29.5711255  58.9928436
  50.0311470  30.7916069  58.1089878  40.5454206  65.2250910  11.4937294
  40.6259108  64.4763136  10.9028888  40.9824514  65.9415245  11.0333443
  90.0950146  50.9493494  72.8191948  89.2025661  50.8470726  73.1497860
  90.6530476  50.6803608  73.5489082  80.8308506  48.3666229  28.4267044
  80.2607822  48.0014467  29.1033840  81.6183090  47.8233385  28.4581089
   9.6522099  52.9323959  15.2949023  10.3364682  53.0724144  14.6403658
   8.8464791  53.2173109  14.8637962  26.9516635  66.7467213  14.7281361
  27.4341059  65.9571934  14.9733424  26.2639689  66.4342785  14.1401839
  86.5577698  41.0858011  64.5964241  86.5668106  41.5420341  63.7549973
  85.7706928  41.4084244  65.0353575   3.4524113  77.0468616  14.9124694
   3.6944246  77.6889658  14.2451155   3.7305865  77.4431515  15.7381833
  24.5396757  84.9079132   8.7146288  24.2418194  85.2462006   9.5590633
  23.7396502  84.6150017   8.2782841   1.7071351  84.6407890  19.5982850
   1.7308497  84.6191406  20.5549455   1.1453655  85.3871441  19.3894541
  50.2811050  64.3147898   7.6383537  50.4208946  63.9371300   8.5067236
  49.3413973  64.2185020   7.4837399  22.9373121  32.3661661   4.4618812
  23.8055897  31.9949174   4.6184173  22.6182532  32.6044965   5.3323007
  66.9428396  42.7129936  63.5988283  66.7864466  41.9451141  63.0491638
  67.2487307  42.3532534  64.4314432  89.1296196  26.4258552  13.4957492
  89.7860050  27.0980692  13.6788225  88.3927345  26.9069028  13.1191409
   0.6734359  64.9441195  32.4328661   1.1680458  65.2877951  31.6889024
   0.8623824  65.5521965  33.1475472  58.9163160   4.2651042  19.8904192
  58.3479977   3.5067412  20.0250769  59.4217873   4.0494540  19.1066945
  75.9209347  35.9914994  57.4225569  75.0845861  35.5410075  57.3050308
  76.1149454  36.3645554  56.5626621  51.4696169   4.8122773  21.5492201
  52.3339176   4.4846949  21.3004088  51.1427593   4.1707087  22.1799231
  90.5390549  33.1470275  68.4791517  90.3263569  32.3044062  68.8803768
  89.6887779  33.5385036  68.2791519  25.2925825  25.3709912   3.3914694
  25.1195145  24.5959759   3.9259154  25.4693770  26.0651565   4.0263790
  56.1085176  41.2012863  67.5098658  56.6843319  40.9581041  66.7849302
  56.4623928  42.0315647  67.8286839  45.7342196  10.1084471   3.8579684
  46.3174820   9.5035315   4.3163484  46.1005259  10.9748626   4.0350991
  71.6122484  23.2324314  65.9165955  70.8483982  23.2728028  65.3411531
  71.5626431  22.3658323  66.3200521  24.8957467  47.7700663   3.2806709
  24.2202330  47.7250099   3.9573413  24.7258472  48.5957575   2.8272331
  52.6493168  81.3432693  38.7268782  52.8260803  80.4103374  38.8477802
  53.1248903  81.7713737  39.4387698  63.9058018   5.9812278  28.3832383
  64.3241453   6.7450356  27.9859734  62.9838181   6.0584188  28.1378436
  27.4075818  76.4172459  53.2212257  27.4839258  77.0810366  53.9066315
  26.6542864  75.8879709  53.4832239  70.2604008  35.4081583  66.8570089
  70.1209259  36.3548136  66.8820190  70.6114292  35.1948571  67.7216005
  31.5600801   8.2991284  20.0676394  32.0100498   8.0673838  19.2552030
  31.8508649   7.6407480  20.6986809  75.3308821  36.1045551  72.7736092
  76.2198067  36.3889623  72.9861259  75.4215050  35.6346774  71.9446135
  22.4290085  67.6656866   5.1291376  21.7799544  66.9808149   4.9681669
  22.7756882  67.4674225   5.9990442  52.1629286   8.2752109  25.4259491
  52.0770168   9.1944915  25.6784868  53.0782938   8.1840599  25.1613212
  15.5480444  52.0657873  29.9669933  15.4413605  51.4971972  29.2043924
  15.3018641  52.9359579  29.6532679  74.3840325  86.2224131  49.3771839
  73.9962542  85.3523591  49.4713449  73.9175487  86.6139034  48.6387014
  86.1877632  68.1699276  70.6556034  85.6179047  68.5591745  71.3189173
  86.4636803  67.3361540  71.0362959  64.0784311  13.6767995   1.2984653
  63.1862545  13.4670234   1.5745921  63.9817476  14.0033734   0.4039073
   9.4499838  75.4543066  11.4746404   9.1906983  76.1927557  10.9235537
   8.6336792  74.9843502  11.6449928  25.3798747  62.3739100  22.4252009
  24.8615575  63.0018139  21.9218922  26.0401416  62.9079056  22.8669357
  10.0079012  51.1781836  69.8486853   9.4732606  50.8053970  70.5497026
  10.2063298  50.4356718  69.2781258  32.9799223  62.2999763  48.7491274
  33.9049006  62.0695305  48.8359880  32.7208161  61.9357777  47.9026937
  68.0640841  63.5340977  36.1318970  68.1436968  64.1761541  35.4264474
  68.8804960  63.6171865  36.6246414  76.3636971  71.9817781  14.3483460
  76.4888191  72.9237890  14.4631767  77.0148134  71.5816641  14.9247015
  80.6593990  68.1641817  36.6473603  80.2212524  67.6900148  37.3540640
  81.5896797  67.9784822  36.7751098  50.6028461  40.2866030  59.8540878
  50.7009459  39.6089339  59.1852283  51.0455322  39.9292302  60.6238604
  55.4325771  59.3891191  61.2317514  55.9660673  58.5953093  61.1932135
  55.7488441  59.8528385  62.0071030  24.4985127  18.1089675  32.1345806
  24.9284315  18.5277677  31.3889217  25.1090026  17.4250615  32.4099112
  88.8250637  55.1537704  34.1032624  88.2665634  54.5775652  34.6250844
  88.6458206  56.0312748  34.4410253   0.8174117  83.1958580  15.9829915
   1.2887371  82.6519871  15.3518891   1.0328922  84.0943336  15.7329047
   3.5432491  76.3031816  18.5178471   4.3117723  76.1669111  17.9637408
   2.8617778  75.7616806  18.1195962  84.9721909  47.0583820  38.4812045
  84.1038132  46.9918537  38.8783526  85.5778980  47.0154715  39.2211437
  85.3773689  62.8918743  67.1415472  85.8903980  62.1033812  67.3185158
  85.2488995  63.2920647  68.0015326  16.5658212  50.9337807  11.3718104
  16.8670976  50.3830671  12.0944309  15.8358419  50.4476213  10.9883893
  45.5157280   7.3430252  11.6730917  45.4127216   7.5999367  12.5893986
  46.4624453   7.3328811  11.5321589   7.9874158  18.7242270  26.3884234
   7.6279712  19.6009457  26.5240598   7.4519545  18.3515608  25.6879735
  50.9910202  10.8873665   6.9121158  51.0784292  11.5718210   7.5755262
  51.5952063  10.2009857   7.1950847  21.2891984  34.7047544  16.2258899
  21.5930867  35.5005598  16.6624415  20.5230188  34.9841499  15.7247519
   3.1257638  69.6459389   5.9973818   3.1171042  69.0029097   5.2883887
   3.7813967  69.3161201   6.6118699  60.9912157  69.9793816  52.7856302
  60.8951044  70.3456497  53.6647463  61.6652822  69.3062162  52.8789997
  25.1834965   1.9570833  10.3262496  25.6265545   2.2036082   9.5143652
  25.8637547   2.0142801  10.9972262  26.1662006  16.9409668   2.4659212
  25.7419372  16.1196709   2.2175132  27.0794320  16.7009068   2.6228034
   5.2930343  34.4914103  74.1187859   5.5676019  35.4044938  74.0343952
   5.1456547  34.2014408  73.2185507  76.1525249  65.4829168   7.0275700
  76.7849636  66.2014246   7.0279735  75.3220797  65.8949375   6.7891830
  48.0668783  12.0408964   9.2985153  47.3544645  12.1962452   9.9186444
  48.8639116  12.1916449   9.8066974  12.8547168  36.5426302  60.1899004
  13.1743920  37.4266696  60.0095892  12.1273696  36.4218116  59.5794868
  22.9556108  80.0481987  25.4312563  22.9342794  80.8071327  24.8483419
  23.8798761  79.8024178  25.4707360  43.3343267  74.3291616  33.4628105
  43.1029606  75.2513361  33.3519220  44.2842197  74.3330526  33.5807896
  68.4194136  61.2767029  70.6245804  67.5783110  61.3548136  71.0747719
  68.6544657  62.1765900  70.3983450  69.1362524  66.4096308  69.1169119
  69.6496487  66.2102461  68.3340359  68.4996271  65.6970930  69.1737366
  27.4943829  85.0818825  38.4553099  27.2881603  84.2329025  38.8463783
  28.4098220  85.0056267  38.1862617  16.3420093  81.0185623  21.4666724
  15.8649528  81.8457317  21.4000392  15.8671117  80.4209805  20.8890939
  20.3568149  19.2657173  74.3182755  20.6924486  18.8223457  73.5391712
  20.8887005  20.0582361  74.3906689  38.2033753  20.2993131  14.5409083
  38.9466834  20.8510685  14.2974102  38.6009407  19.5162642  14.9217045
  23.0473852  62.4272251  37.3823524  23.7554336  61.7831421  37.3749828
  22.8880024  62.5973415  38.3107305  57.6726198  49.0766382   0.0165817
  58.2308006  48.5815096   0.6161764  58.1094790  49.9236059  -0.0730624
   8.0732048  74.3019438  30.0889063   8.8093257  74.2010117  29.4854403
   8.2611090  73.6898136  30.8003998  60.7369232  57.9480505  66.3169146
  60.9834576  57.0269108  66.4003229  59.7969294  57.9616737  66.4970636
  13.8629746  24.9245334  63.4493399  14.8074687  25.0644708  63.5170221
  13.6526525  25.1446652  62.5418520  37.5426435  19.1625535   7.6846963
  36.9786024  19.3084192   6.9252133  37.9969692  19.9958134   7.8091848
   4.0069824  22.3527598  46.6298771   3.5353684  22.8623033  45.9709549
   3.4499079  22.3924947  47.4072599  38.9601541  18.5095167  67.7591705
  38.5206890  17.7282691  68.0949545  38.2503033  19.1279018  67.5861311
  44.8909760   5.0263846   2.2972897  44.6212101   5.7405066   2.8747746
  45.7277107   4.7310877   2.6563260  25.3688598  57.5080109   8.5205400
  25.5529976  58.3761406   8.1618160  24.7975731  57.6748800   9.2702180
  19.8026681  36.3021970  24.8538923  20.7074714  36.3067150  24.5415735
  19.3251646  35.7951736  24.1972733  66.9654608  12.1371484  54.0235710
  67.5234175  11.4209616  53.7202692  66.2503576  12.1692741  53.3880997
  50.0202847   7.0056623  17.6379037  49.1349459   6.9841123  17.2746658
  50.1664829   6.1181849  17.9653835  42.8039742   0.4634391   5.5188650
  43.3888197   1.1923119   5.7260704  43.1846952  -0.2865111   5.9758735
  79.5806503   4.7550395  27.5079346  79.1045523   4.2982569  28.2014108
  78.9864445   4.7373074  26.7577100   6.1676663  60.8569384  55.4321241
   5.9602809  60.1353884  54.8383379   5.5820173  61.5645742  55.1628685
  58.4288836  63.4973001  73.7025213  58.8264656  63.0852270  74.4695616
  59.1408396  63.9971161  73.3031082  44.1319990  14.8035645  12.6394832
  44.7844696  14.9226296  13.3296585  43.3446312  14.5155299  13.1013477
  43.6940145  23.8326931   5.3879964  43.2625294  24.3955278   4.7451377
  43.5872984  22.9470611   5.0408649  35.9769988  74.2284012   2.6404247
  35.3199339  74.5921612   2.0469795  35.4987860  73.5823917   3.1602463
  35.4800320  30.2341199   7.1749532  36.3683271  30.5744672   7.0685256
  35.5178833  29.3486500   6.8133706   1.4552648  28.3529115  23.4112430
   1.0835320  27.5712109  23.0026031   1.1821859  29.0731311  22.8429627
  73.0902386   9.5216805   5.5772662  72.9504108   8.9351743   6.3206983
  72.2149992   9.8387009   5.3543699  26.6899967  30.0889683  15.5768907
  25.9899378  30.3049159  16.1929381  27.0331597  30.9376454  15.2972102
  75.7581568  21.0055685  56.4037275  75.0767660  20.3337669  56.4285421
  75.6743908  21.4627028  57.2405338   2.7997896  24.6702361   8.1412083
   2.6505148  24.5389318   9.0775359   3.0284712  25.5963945   8.0626917
  13.8234520  85.5218983  23.5758710  14.4168139  86.2678146  23.4877276
  13.0277765  85.7934189  23.1182551  23.5123706  44.4500875  40.8714867
  23.4338331  45.3591442  40.5822134  24.4543219  44.3100262  40.9681463
  88.1393337  24.8096466  64.7342157  88.8527012  25.3544044  64.4016838
  87.3600674  25.1334596  64.2824078  46.2118196  61.5263128  66.9758081
  45.4871321  62.1481466  67.0419931  46.8605566  61.8469810  67.6023436
  64.1387415  47.7010775  55.9566498  63.5004282  47.4329281  56.6176224
  63.9789438  48.6369896  55.8351660  79.9552584  52.5049257  67.4899435
  80.1326752  53.3395290  67.0561266  80.5396938  51.8816805  67.0584011
  86.2453747  46.8705559  67.0409393  87.1022224  46.9870043  66.6304827
  85.6942368  47.5424004  66.6395569  76.7564440  79.5806265  72.1801472
  76.8143606  78.9180183  71.4917946  77.3695087  80.2633476  71.9076061
   4.0537980  47.5714540  64.6942186   3.8344783  46.7875481  65.1978254
   3.2940811  48.1441355  64.7995567  63.8846684  39.4742203   7.1911126
  63.8693666  39.7495389   8.1077361  64.5414257  40.0381422   6.7825830
  50.8477306  11.2931252  18.8311386  50.9252548  11.9961619  19.4760895
  51.6063309  11.4083552  18.2588768  16.9173288  17.7817380  72.0804501
  17.1704555  18.6485076  72.3980474  16.8630660  17.8813481  71.1299944
  75.4697180  32.2852874  55.8987713  75.6714869  31.8712020  56.7378521
  76.3000822  32.2787595  55.4226494  80.9794903  45.3694391  63.7616777
  81.5269470  44.8801994  64.3758106  80.6566429  46.1139774  64.2692852
  40.8925104  54.9144459  11.9587052  40.3659153  54.1519928  11.7187285
  40.5271435  55.2044010  12.7945650   1.6586377  70.6836319  73.9994001
   2.1985644  70.2409649  73.3446074   2.1184823  70.5391407  74.8263836
  48.8938141  17.7718627   4.3717372  48.3229113  18.2193184   3.7471718
  49.0702391  18.4270239   5.0469184  82.3840618  67.2847700  68.3053589
  82.0813465  67.0663500  67.4239492  83.0784035  67.9290342  68.1673384
  62.2545815  58.2394886  58.6308289  61.4959145  58.8190174  58.7001419
  62.7664804  58.4197187  59.4193125  61.0409021  17.2003198  16.9528818
  60.7639217  17.1619868  16.0374331  61.4808130  18.0464876  17.0347857
  77.9503822  75.5238962  66.4271641  78.3251810  74.8424864  66.9852304
  78.6624098  75.7675362  65.8356476  18.4836555  37.3926711  27.0069098
  18.6834478  38.3266330  26.9434357  19.0498590  36.9816828  26.3536620
  25.6011701  64.1164446  10.2691436  26.0093141  63.5102177  10.8873200
  24.6651077  64.0601587  10.4611075  91.1451912  77.2996807  53.4324884
  90.3468800  76.9725752  53.0178452  91.0267735  77.1098280  54.3631649
  40.5377531  84.5774841  47.2161055  40.7767773  85.4721165  47.4584866
  40.9097338  84.4586086  46.3421917  53.3417988  40.8660746  58.1734657
  53.2473993  41.2741947  57.3127890  52.4881506  40.9849882  58.5898542
  80.6509781  63.0335093  40.8277225  79.7424746  63.0024815  40.5279160
  80.8116055  62.1645498  41.1956072  44.6038723  81.8126392   7.8790998
  45.0154114  82.4416447   8.4717441  44.5467520  82.2739315   7.0423335
  43.6964703  60.0240993  16.1891651  43.2198906  60.8428335  16.0521424
  44.2148066  60.1779890  16.9790244  58.5740995  41.5186024  71.4612246
  57.6541424  41.5865278  71.7167568  58.7939644  42.3872900  71.1246634
  83.0834198  83.5640717  59.4341707  82.9354382  82.8198147  60.0176239
  82.9190445  83.2173347  58.5572481  63.7474251  19.9323153  71.4315557
  64.0509748  20.4734349  72.1604443  63.8783932  19.0324783  71.7305088
  82.5846958  27.1866512  10.5526936  81.6862202  26.8579888  10.5219090
  82.6199532  27.7130127  11.3513994  67.5851011  48.7095118  74.4643831
  68.2922268  48.4186029  75.0402117  67.6818943  48.1740713  73.6768770
  21.9638610  17.1278405  10.0553310  22.2223210  16.2213516  10.2217853
  21.2721729  17.3008084  10.6939876  68.8938904  45.7865477  33.1255054
  69.2503500  46.2212372  33.9002395  68.9575768  44.8524094  33.3244133
  40.0712633  16.3644743  70.2055073  39.3716288  16.2017179  69.5728540
  40.4312658  15.4975522  70.3927898  19.0676248  48.2797289   3.7426046
  19.4231164  47.7662706   3.0171967  18.2331359  47.8582382   3.9480424
  84.6008778  74.2169189   5.8650404  85.0028419  73.4809923   5.4034519
  84.8510361  74.0909815   6.7803508  44.9299765  12.6747847  60.6245327
  44.7855711  11.9285464  61.2063456  44.0533113  12.9227519  60.3309393
  65.5125380  31.0648298  64.9041367  65.4122782  31.9122791  65.3377390
  65.0016737  30.4591084  65.4411173  38.7658167  10.5857909  63.0143023
  39.2703390  11.3441265  63.3086061  38.9601755   9.9044025  63.6578608
  38.3847809  22.7954483  51.9335794  37.5046372  22.5508928  51.6476250
  38.2540655  23.5791206  52.4674368  28.4127402  19.4046926  52.1424818
  28.1315565  19.6202087  53.0317020  27.8077364  19.8847365  51.5770054
  84.2204189  58.4174919  23.5900688  84.1066551  59.0137577  22.8499651
  83.3322525  58.1361198  23.8096714   4.6900707  83.4884739  58.7936115
   4.9051109  83.2291317  59.6895647   4.4378853  84.4091129  58.8647366
   7.6038015  23.6838484  54.1977501   7.2666073  24.4582033  53.7473011
   6.8301475  23.1428051  54.3557501  76.5867949  27.4133086  72.5996876
  76.9967842  26.6994810  72.1112299  76.2129688  27.9809642  71.9257069
  79.9678707  29.6845961  33.5633016  79.3480587  29.8589826  32.8550267
  80.8222008  29.6567345  33.1325054  41.8050432  40.6075573  22.8365898
  42.5029755  39.9621463  22.9486752  41.1766672  40.4035521  23.5292363
  14.5323551  85.8894444  40.4165602  15.1650929  86.5727806  40.6377554
  15.0046337  85.3102303  39.8184824  63.3579731  52.1415758  27.2410154
  62.8186083  51.3980389  26.9718075  64.2575932  51.8529510  27.0873690
  53.2858276  24.5389414  55.9686041  53.3360386  25.2678084  56.5870428
  53.4532785  24.9374890  55.1145840  61.7764473  70.9523249  18.8218939
  61.8906260  70.3442621  18.0915117  60.8719444  71.2552404  18.7422025
   8.9513582  84.4976425  60.7957840   9.8412865  84.1458511  60.8181143
   8.8378578  84.8051167  59.8964453   9.2499864  40.9145260  22.8707862
  10.1528883  40.6984186  23.1038046   9.2953128  41.8134117  22.5449252
  86.7682457  48.6061478  69.6754837  86.1695576  48.3956861  70.3920841
  86.2911797  48.3571815  68.8838673  80.6294060  53.2598734  21.6569138
  80.0534439  53.1064606  22.4058914  81.4753819  53.4805822  22.0465755
  11.3415670  55.8568096  23.3252287  11.8671203  56.5573359  23.7116051
  10.5725968  56.3024616  22.9698277  46.1682940  15.9132516  55.8697557
  46.6800976  15.1160908  56.0069513  46.0728121  16.2900829  56.7444658
  15.1523280  36.5221930  37.8957438  14.6844220  36.0547614  37.2037888
  15.0078976  37.4478459  37.6994300  31.0148120   7.1870923  10.5788493
  30.9907913   6.5675706  11.3081276  31.8043876   6.9525218  10.0912225
  77.5611591  12.7885151  67.7655697  77.2264051  12.4481380  68.5952187
  76.8066502  12.7691638  67.1768618  56.8559933   1.3528837  69.3921804
  57.2286749   0.4712324  69.3978930  56.3665962   1.4113609  70.2127314
  14.6766341  70.3342199   7.9433149  14.7351527  70.4052830   8.8960779
  15.5308509  69.9953699   7.6754957  44.5057392  83.0827332  61.9218636
  44.1082764  83.4169388  62.7259588  45.4472733  83.1049633  62.0929050
  76.3594007  34.2176676   7.5505674  75.9827423  35.0068378   7.1612477
  75.7128763  33.5333037   7.3777032  64.6809244  18.6436629  36.1099887
  64.6112013  17.8171337  36.5877128  65.0087357  19.2676842  36.7575741
  68.1517124  21.9363976   4.9187747  67.7751303  21.3857079   4.2323667
  67.7694750  22.8010535   4.7687876  61.3958406  17.1411598  37.9123616
  62.3169422  16.8922448  37.9888129  61.4174604  18.0533099  37.6229739
  62.9499626   3.9838368  52.7519560  63.3262682   3.8472834  51.8824816
  62.8209162   3.1009308  53.0984449  86.1574173  51.2915182   7.9593873
  86.1483002  50.6504488   7.2486275  86.2553024  50.7668066   8.7539506
  53.6382723  39.9578285  66.6275930  53.2511282  40.2913094  67.4370050
  54.4356441  40.4747772  66.5127516  33.4797549  78.6863995   9.5061165
  32.9758382  79.0546846   8.7804008  34.3723989  79.0002394   9.3614680
  75.4185009   7.6941323  63.7010193  75.6320238   7.0727372  64.3970823
  74.9158621   7.1813440  63.0680609  17.7214170  80.0904846  54.0327597
  17.8526711  79.1440964  53.9748335  17.5855696  80.3693199  53.1272078
  79.6592617  20.0785851  50.3510237  79.3328333  20.6714606  51.0279131
  79.9465036  19.3019092  50.8311272  31.8146586  84.1336250  41.4218760
  31.9442844  83.2384777  41.7351580  32.4377275  84.6565437  41.9264221
  39.3355584  82.9380322  55.5766916  40.2451229  82.9456806  55.8748007
  39.3483734  83.4303379  54.7559023  66.3706112  53.8229465  16.1030197
  67.2055197  53.9426708  15.6504440  65.8993244  53.1820965  15.5706334
  46.2616110  58.5721493  25.3402686  47.1223831  58.7104177  25.7354712
  45.6906605  59.1990519  25.7843852  75.2669048  27.6520944  14.0884757
  75.2037811  26.7896032  14.4987917  76.0650396  28.0334806  14.4541955
  69.2569208  15.3347504  52.1155691  69.4715500  14.5975041  52.6870918
  70.0507116  15.4770994  51.5999508  31.7892337  58.0716753  53.3085489
  30.8785343  58.3454037  53.1993341  31.7392135  57.2834969  53.8493872
  12.6296258  56.6051340  11.9595325  13.1975746  56.5788507  12.7295816
  11.7626619  56.3745737  12.2933686  42.8423977  76.9323015  33.1179595
  43.4225798  77.6219463  32.7954483  41.9843006  77.3516226  33.1818056
   8.2602561  20.7487178   0.2841521   9.1813719  21.0076475   0.2570738
   8.2549924  19.8481178  -0.0400781  48.8095522  26.6831088  67.4307966
  48.7940407  25.9451985  66.8213081  48.9177704  27.4528718  66.8722391
  59.1860867   9.2317635  38.0199075  60.0589037   9.5884585  37.8550005
  58.6146688   9.7091776  37.4184179  50.1294899  15.8813202  51.4206553
  49.5777369  15.4131603  50.7940578  50.7673120  16.3452566  50.8782721
  31.4941740  76.3342333  62.9097843  32.0124340  76.9877052  62.4400902
  31.5837908  76.5750694  63.8318443  67.8890991  16.1576819   6.8804407
  67.2577715  16.8619430   7.0276690  68.3975410  16.1185908   7.6904953
  11.7615533  50.1905823  36.8585205  11.0475826  50.5894089  37.3559284
  11.4462423  49.3111515  36.6501546  86.1097717  23.1124473  56.1079597
  86.0569477  23.8948441  56.6568661  85.2768612  23.0938625  55.6366301
  24.9054599  85.1754951  63.2247210  24.9186349  84.2185020  63.2394600
  25.3369331  85.4335403  64.0392590  77.6122999  19.6875346  63.4772158
  77.0692587  20.4749894  63.4417868  77.1495152  19.0526497  62.9304218
  86.3389587  50.3802490  13.9567888  86.4062881  49.6194315  13.3798468
  85.7443619  50.9753036  13.5000694  40.2675438   1.7097971  29.2253971
  40.2999878   1.9469622  30.1521850  39.5408845   2.2230250  28.8721299
  77.5743484  59.7635269  64.9853373  78.1215048  59.5417309  64.2319059
  77.9969263  60.5311775  65.3705263  57.6242256  12.5862217  11.2297070
  57.9692316  13.0128658  12.0140386  56.7298269  12.3394561  11.4650607
  78.6578131  11.5396607  12.3847008  78.9261961  11.9363093  13.2134771
  79.3851376  10.9641743  12.1479678  77.6812029  43.5709476  11.0033405
  76.9534016  43.0304241  10.6961417  78.3950710  43.3795977  10.3950560
  57.5787497  32.0966387  57.6459408  57.4075699  32.0428085  56.7057133
  58.5170031  31.9261861  57.7287149  74.7267771  16.4073658  38.3053350
  74.8832941  15.4742551  38.4503770  74.7092819  16.5020955  37.3529935
  89.2405415  12.3378026  21.3762522  88.3709621  12.7227521  21.4852333
  89.1197395  11.6566432  20.7146931   2.2686455  42.5754166  14.3412578
   2.7365360  42.4911976  15.1720500   1.4243218  42.9582119  14.5796180
  54.9313498  12.1088481   8.1242716  55.6467676  11.5975416   8.5023880
  54.4757986  12.4789798   8.8803864  78.3107567   7.6656950  35.9563327
  79.1155434   8.0010790  35.5612779  77.9349995   8.4194887  36.4111209
  51.6758823  73.9607525  46.9858074  51.4637375  73.7896729  47.9033899
  50.8252621  74.0415859  46.5543652   3.5666248   6.2786871  39.3736053
   3.4007633   6.8820649  40.0979376   2.7082011   5.9075129  39.1697192
  56.2265730   3.5850117  67.6474190  56.4231634   2.8655913  68.2474327
  55.2717352   3.6514390  67.6578188  12.5232661  45.7514048  29.4475913
  12.0307124  46.0782766  30.2004385  12.6023984  46.5078402  28.8664079
  19.7950578  84.0130329  60.6778669  19.2058337  84.4729233  60.0799131
  20.0031805  84.6589184  61.3529539  20.7435107   6.8167818  27.6842237
  19.9557996   6.4476091  27.2849059  21.4447045   6.2169778  27.4296737
  70.3653431   5.0387722  65.9543991  70.1244211   5.5750030  65.1989889
  70.1922607   5.5991477  66.7108727  22.9717135  20.3494167  68.7765837
  23.5339141  19.6729898  69.1542196  22.7505684  20.9168291  69.5150757
  82.9396248  28.3187652  43.1523466  83.5400963  28.6981010  43.7940407
  82.7999592  29.0171957  42.5128794  83.9438629  56.4950514  61.1087084
  83.2530212  56.6886330  60.4750729  83.4762478  56.2022543  61.8909073
  87.5050068  83.8542175   1.0986955  87.8708553  83.4100056   1.8635890
  87.6836872  83.2610416   0.3690119  38.2907057  82.5033951  59.4050264
  37.8092146  83.0597782  60.0172663  37.6209879  82.1669769  58.8095999
   9.7854453  38.4161210   8.2427257  10.5823374  38.4724474   7.7154469
  10.0811768  38.5666943   9.1405582   3.8380390  12.3909342  74.4071007
   3.7846994  13.1944692  74.9245119   4.7699401  12.2934937  74.2114019
  71.1261034  74.3755054  17.2967553  70.6714487  73.6061573  16.9537890
  71.8249416  74.5424461  16.6643095  66.6697359  34.3809652  59.9734640
  67.0155239  35.1425076  59.5079327  66.7605734  33.6587143  59.3519068
  20.7623148  37.6177692  12.4705875  21.6396928  37.4048018  12.1526539
  20.3999186  38.1992054  11.8021309  87.1168327  42.0283270   8.0457991
  86.4187336  41.3964128   8.2177919  87.8097725  41.5131664   7.6326609
  62.6188469  10.3011727  71.5846109  62.2853184   9.4166231  71.7348099
  61.8356133  10.8506095  71.5547132  63.5541534   8.8157028  49.5095015
  62.7631140   9.2952883  49.2635584  64.1350985   8.9086825  48.7544632
  60.3306866  82.4391270   0.4753720  60.8761454  83.0996418   0.0482624
  60.2235746  81.7539024  -0.1843390  69.4519711  26.8135524  74.1831446
  69.8691940  27.6382113  73.9339638  68.8576984  27.0512700  74.8948765
  68.4192419  80.2860451  70.3061867  68.5244608  80.6187916  71.1975002
  68.4075212  81.0703373  69.7575617  44.4756460  53.1813049   4.0991613
  44.3833780  53.0227947   5.0386244  44.2772532  52.3374367   3.6932582
  75.8068419  85.7976627  17.7442241  75.1057005  85.2652168  18.1199038
  75.6531954  85.7643604  16.8000221  29.8044515   5.5312258  16.2053823
  29.4867468   6.4296198  16.2958467  29.0218735   5.0200480  15.9992242
  39.2327142  13.3743882   5.7622480  38.2780766  13.3474994   5.8268690
  39.4039154  13.7809622   4.9127656  23.6396432  65.0051498  17.6272416
  23.7062168  64.0693712  17.8172791  23.7936497  65.0696945  16.6847193
  62.4910164  32.4450445  68.2328939  63.4227991  32.4233699  68.4509373
  62.2673416  31.5331697  68.0466509  76.5395212  42.6452780  37.9440641
  77.1167850  42.1466064  37.3658514  75.9586763  43.1210470  37.3503542
  83.5035896  81.0610771  22.2184086  84.3911552  81.4107800  22.2970033
  83.6258411  80.1164150  22.1240520  14.9551213  73.5153151   0.8161017
  15.5439496  74.1208887   0.3657796  15.3053534  72.6472855   0.6158655
  12.1960235  69.4306993  31.0404110  12.2941744  69.1379833  30.1343679
  12.7520025  68.8373041  31.5453863  23.9916015  68.0827427  25.9533095
  24.2566133  68.8778400  25.4909015  23.0938601  67.9239798  25.6616116
  39.5087147  11.4836121   2.2957349  40.3036976  11.1213577   1.9045722
  39.8051691  12.2672570   2.7586040  79.2838907  58.9717817  14.3202031
  78.6866903  59.3004560  14.9921834  80.1545429  59.0664339  14.7065032
  12.8179133  82.6026249  66.7010880  12.6220810  82.7151966  65.7709217
  12.3005188  81.8415737  66.9643879  71.0973263  59.9936867  42.4001169
  71.4471006  60.7437181  41.9191313  71.4989090  59.2322922  41.9815063
  38.9149404  67.1883249  42.0555115  38.4879303  68.0284309  41.8878365
  38.1966710  66.5563202  42.0854521  50.5643082  66.9807768  66.3928032
  49.6632957  66.6670895  66.4702892  50.9822607  66.3629627  65.7929230
  11.7143881  46.9367790   1.7030528  11.9921756  46.0309887   1.8394879
  11.7654514  47.0628262   0.7555635  85.1497841  56.8691301   6.6728789
  84.3644142  57.1108437   7.1638113  85.7729149  56.5861130   7.3420841
  56.6159058  77.1114206  12.1469843  57.2971630  76.4396286  12.1755159
  56.5775585  77.4517632  13.0408132  84.6824360  10.5588996  24.6557903
  85.3448582  10.0019479  25.0647283  84.1047096   9.9477565  24.1986561
  66.4827967  59.1493034   6.9833225  66.5403414  60.1011181   6.8998462
  65.5433273  58.9663458   6.9960111  71.3730526  38.1677866  68.2107210
  70.9679270  38.4631872  69.0260983  70.6750011  38.2331276  67.5590420
  82.4257946  12.8998113  66.6401243  82.3680115  13.8256609  66.8761253
  82.0175266  12.4397612  67.3735476  11.9414163  54.4371796  29.7299528
  12.6424694  54.4175196  29.0785146  12.3969996  54.4612741  30.5714369
  82.8674030  24.2227793  71.2691402  82.0623493  24.1183925  70.7619715
  82.5939941  24.1066360  72.1790791   3.6889002  35.7834649  51.0083342
   2.7605912  36.0070324  50.9413195   4.0975440  36.2330675  50.2686739
  71.2125254  45.0971699  40.5906963  71.3117933  45.6240273  41.3836670
  71.5222311  44.2267609  40.8411169  22.6998782  43.9149284  20.7831860
  23.0949807  43.1645870  21.2271595  22.4973965  43.5939074  19.9044490
   9.9514407  56.9016600  32.6650453   9.5538676  57.7149343  32.3539996
  10.7030165  57.1860790  33.1851149   4.5780295  69.9751282  67.9518747
   3.8426551  70.1893806  67.3778057   4.9552801  69.1817141  67.5718689
  15.0692523  44.7775459  62.2332239  15.5825913  45.3084278  62.8422165
  15.4267752  43.8944054  62.3252678  11.1972427  71.8238449  26.4532876
  11.9175303  72.1838951  25.9358120  11.0633969  72.4620104  27.1540451
  60.6718111  12.2453499  39.7493505  60.8728361  13.1576109  39.5405388
  61.0980463  11.7414308  39.0560794  67.7860832  80.5104542  59.4138145
  67.4943972  79.6005201  59.3575382  68.3914852  80.5224991  60.1551437
  44.6199608  10.7082129  62.1297455  44.8030615   9.8025531  61.8797779
  44.7866440  10.7350016  63.0719423  84.6796131   9.3478751  14.4009447
  83.8148785   8.9432263  14.3322456  85.2625370   8.7476718  13.9359832
  78.5005045  10.7362974  63.2987118  78.1096888   9.9058497  63.0269575
  79.0985584  10.4990029  64.0074110  84.5476818  56.4619064  20.8554125
  83.7103748  56.0053778  20.9374309  84.3667412  57.3508263  21.1608768
  77.4786186  21.1814117  43.0727959  77.7365065  20.2637482  43.1601048
  78.0862331  21.5404749  42.4261808  60.0841093  67.4123096  24.5639968
  59.1814852  67.5822544  24.2945123  60.0752783  67.5238276  25.5146384
  49.7191858  76.1419296  68.5432196  50.5741739  75.7363558  68.6872339
  49.1187716  75.6358290  69.0905714  91.0491085   9.2624688  68.8988304
  90.9572506   9.6257287  68.0180120  90.1724720   8.9490300  69.1212749
  67.1834278  28.7190056  55.9165716  66.6604328  29.0902376  55.2060127
  67.5503492  27.9149294  55.5490589   6.3404900  61.7505503   3.2490876
   6.0778081  61.8301821   4.1660872   5.5180925  61.7849398   2.7605066
  20.1592827  61.0713911  37.4402571  20.1054740  60.1279593  37.2876787
  19.9412704  61.1770678  38.3662891  17.1472156  54.0618610  33.6179662
  16.6904581  53.3073092  33.9897990  17.7130806  53.6898041  32.9415011
  19.7720885  32.4459076  64.7115421  19.5367420  33.3473325  64.9312592
  20.7233143  32.4150109  64.8137522  49.8657513  64.7275639  57.9440260
  50.3326368  63.9703369  58.2973719  48.9462280  64.4616795  57.9403925
  64.7844696  85.1154423  46.2619162  65.5817032  85.5456352  46.5710831
  65.0237942  84.7515869  45.4095268  71.4702463  57.6178694   5.5835873
  71.2158298  56.7840099   5.9787792  71.7910099  57.3823547   4.7130269
  11.2637782  42.0303917   2.8939962  11.3547194  42.8418207   3.3935407
  12.1204734  41.6090965   2.9634160  31.4118314  69.5221138  69.4988441
  31.8939066  69.6704578  68.6853170  31.6833997  68.6491442  69.7823954
  20.7980299  81.7067242   6.0934764  20.5592632  80.7800198   6.1144149
  20.4769778  82.0177174   5.2470464  18.7902725  52.5047302  16.5833104
  17.8611898  52.7154398  16.6762519  18.8705003  52.1632767  15.6926906
  16.3257754  80.7956409  48.9210987  15.8693302  80.0319195  48.5680723
  15.8445764  81.5453148  48.5708666  42.5293064  66.8446589  66.7547989
  42.1924019  66.2355947  66.0977030  42.5525236  66.3346767  67.5644970
  44.4464397  32.2084188   2.8648135  44.3189764  33.0935788   3.2060987
  45.2837372  32.2481704   2.4026686  48.4853315  10.4767466  66.0397816
  49.1580677   9.9175805  66.4283609  48.2566595  10.0410652  65.2187347
  62.2783852  31.3040590  57.1664953  62.8501081  31.7579842  56.5473700
  62.5108004  30.3801203  57.0740032  52.4491787  79.8197269  51.0706472
  51.5082932  79.7608328  50.9048367  52.8468084  79.2770672  50.3897333
  50.1051569   6.9017053  56.9834328  49.2003822   6.8193036  57.2848082
  50.5285025   6.0934007  57.2726631  20.0625968   4.1031313  65.2207756
  20.7367253   3.4723884  65.4736471  19.8550153   4.5694000  66.0305500
  62.9067612   4.9659070  64.3698740  62.8322792   5.2451223  65.2824068
  63.6496401   5.4628515  64.0272188   6.7543930  64.4763899  21.3642859
   7.6340115  64.6200752  21.0152030   6.6860068  63.5262108  21.4576292
  42.8683615  44.5845699   3.7115234  42.1485996  45.1381493   4.0143806
  43.2904959  44.2798471   4.5147535  50.3189850  33.5585904  16.5750611
  50.0437832  34.4702816  16.6715801  50.0119019  33.1298614  17.3738873
   9.7806323  77.0321989  13.9139485   9.0174264  77.1422720  13.3468223
  10.5251825  77.2741365  13.3631837  63.7687922  58.5873842   6.3440698
  64.2905807  58.2081795   5.6368387  63.0307674  59.0048361   5.8999020
  68.0770540   4.4048172  62.4305153  68.6702394   3.9027160  61.8717146
  67.8124380   5.1496351  61.8906450  34.2260575  34.3762064  11.8940878
  34.5703077  34.2523313  11.0095656  34.8506761  34.9679589  12.3135042
   4.3943205  23.9707017  59.2281485   4.2554188  24.8664999  58.9207649
   3.5860699  23.5112786  59.0003490  75.4529524  24.9950409  14.4462752
  75.8187294  24.1791010  14.7878587  75.2622843  24.8059177  13.5275209
   2.7358729  79.7266054   8.9137286   2.9173014  80.3680897   9.6006167
   3.3367756  79.9577284   8.2053995  83.6413670  47.5113821   0.6189361
  83.5329342  48.3401108   0.1523681  84.5756721  47.4720240   0.8232594
  19.9809921  73.6527872  65.3253078  19.4786501  74.1771126  65.9489822
  20.8838677  73.9516115  65.4337168  81.5494728  10.4349029  72.1671867
  80.9310722  10.6018126  72.8784943  82.1782970  11.1544299  72.2227335
  81.5138149  30.4938293  67.9133368  81.3656235  30.2651572  68.8309336
  81.2432671  29.7157359  67.4258900   1.3000351  83.0354118  10.6643021
   0.7032903  82.3498344  10.3641033   0.8957094  83.3715057  11.4641702
  63.0611038  56.4780378  73.3082485  63.3694220  57.3112106  73.6646175
  63.8524485  56.0495710  72.9820156  62.9231548   5.8591485  54.7198200
  63.3313751   6.4981544  54.1356468  62.7906179   5.0849354  54.1727734
  88.2893085  14.2519414  58.2045078  87.8231907  15.0748718  58.3520079
  87.8754139  13.6313999  58.8043833  51.6260386  12.4418712  57.3259926
  51.6857576  12.7758121  58.2210588  51.8863487  11.5233493  57.3951769
  18.9814031  50.6701279  10.0561905  19.0440893  51.4106798   9.4529593
  18.1754363  50.8290005  10.5475259  14.9959540  62.0208120  73.6987925
  15.5215669  61.2877846  73.3784246  14.2493486  61.6083717  74.1331911
  23.9664221  67.6034975  28.7749124  24.5975900  66.8846178  28.8076282
  23.9838338  67.8962278  27.8637385   3.2989970  80.9839821   1.2085283
   3.4549537  81.7551517   0.6633630   2.9445097  81.3356781   2.0251545
  33.4726501  23.8018990   4.3312839  33.3387423  22.9376245   4.7202966
  32.9978251  23.7669659   3.5008898  54.9807262  65.9529972  63.5220242
  55.3803539  65.9839582  62.6527882  54.0778065  66.2376404  63.3807993
  61.3234186  14.8386395  31.9466805  60.4156590  14.5484197  31.8573594
  61.2587452  15.7781720  32.1179366  50.3445530  12.7891469  66.9829273
  49.5586777  12.2589982  66.8503714  51.0050011  12.3828900  66.4216852
  20.3602743  31.9350338  46.6504622  20.1570749  31.0038567  46.7390490
  19.5055032  32.3643303  46.6143465  76.6989183  79.2286015  64.9198103
  75.8716822  79.5143747  64.5321941  77.3211670  79.2411804  64.1925669
  62.1172190  64.3918419  20.6611323  61.1951923  64.2133188  20.8461428
  62.1008730  65.1332283  20.0558949  27.2360563  83.4300518   8.8826501
  27.7678180  83.0591869   8.1784284  26.4965987  83.8400269   8.4339315
  59.8248339  19.4528937  67.4479008  60.0862503  18.6644697  67.9235935
  60.6030178  19.7003794  66.9484901   3.6055124  50.0162792  15.7132316
   2.9901749  49.7120047  15.0461411   3.9398959  49.2140818  16.1143577
  65.1449537  11.5453207  72.1021652  65.3466940  11.1063159  72.9284859
  64.3227530  11.1484277  71.8145943   1.4833924  41.2772274   7.6236773
   2.2247145  41.2049341   8.2248825   1.3519925  42.2194195   7.5176585
  74.3488550   6.9812703  70.9011889  75.0368977   7.5957763  71.1565590
  73.9768648   6.6801929  71.7301702  34.3499994  14.9593580  71.0103321
  33.5715199  14.7808504  71.5379047  34.9958444  14.3208683  71.3127375
  65.6922388  32.3189998  55.6325912  64.8884439  32.7707767  55.3755951
  66.3961601  32.8629637  55.2792883  74.0987825   4.5523471  49.8953533
  74.5445490   4.6721250  49.0567923  74.7494316   4.8043531  50.5506229
  71.8444490   9.5176786  56.6873121  70.9027624   9.3700314  56.5998173
  71.9144869  10.2971268  57.2384834   8.8548183  48.9655352  44.7132206
   9.1145593  49.2518282  43.8375473   9.4430119  48.2368040  44.9112463
  87.4821793  63.2965910  -0.1043295  87.2997414  64.1833769  -0.4150652
  86.8909108  63.1768261   0.6388307  16.2594724  14.3529594  48.6605215
  15.9104621  13.4734583  48.5159540  15.5145693  14.8548472  48.9913702
   6.6211671  45.2800703   5.6761712   6.3951385  45.1754045   6.6003942
   6.5894336  44.3922520   5.3198069  38.2876801  62.7344227   6.3222176
  38.7152934  63.5491419   6.5860593  38.7925029  62.4326229   5.5670333
  62.0817566  23.6517358  63.1172466  61.6592646  23.7208033  63.9733791
  61.4339638  23.9954543  62.5020552  30.6396818  25.6398296  66.1501741
  30.2914500  26.2196064  65.4728079  31.2658596  25.0817299  65.6890249
  40.0690413   1.0563264  12.8228796  40.7917643   0.5885191  13.2412887
  40.1628447   1.9602275  13.1235385  85.8449078  68.1939459   9.2873108
  85.1698589  67.9572105   8.6513132  86.6351414  68.3200550   8.7620860
  72.4874926  18.8938463  70.5099869  72.3341656  18.2847428  71.2322855
  72.2355700  19.7484779  70.8597994  89.2067242   8.2030714  73.6041975
  88.2804489   8.0682147  73.8043547  89.3463135   9.1407490  73.7365198
  46.2346792  28.2142687  51.0552216  47.0846605  28.1107020  50.6273937
  46.2830257  29.0707874  51.4798021  90.5346489  50.5792856  10.2948999
  90.4409695  50.6686163   9.3464929  89.7558308  51.0047150  10.6536329
  79.7628927  85.3108883  49.5726728  80.5411339  84.9916840  49.1158438
  80.0996780  85.9466362  50.2040434  73.9216471  15.0483644  32.4461293
  74.4935274  15.6461549  32.9276156  73.8784218  14.2647791  32.9941797
  82.7401638   5.2859586  53.6569071  82.7275562   4.4728345  54.1617870
  82.1690655   5.1121724  52.9086590   4.0068194  12.4989581  55.6727028
   4.6842903  13.0893302  55.3429699   4.2209607  12.3818338  56.5982628
  44.7755575  13.2818639   1.3321893  44.1809750  14.0320027   1.3319477
  45.0874662  13.2237589   2.2352764  90.5946827  33.1338358  31.6243005
  90.1230335  33.1130910  30.7916260  89.9500465  32.8486800  32.2718787
  23.2004929  37.3820472  21.9430542  23.7507796  36.6025496  22.0191932
  22.3102665  37.0619488  22.0888758  87.3911858   6.4964497  71.2511826
  86.4713955   6.3476247  71.4704561  87.8637218   5.8097720  71.7217255
  91.0466645  37.9614429  -0.0035691  91.5428803  38.2276420   0.7704711
  90.7649038  38.7847690  -0.4022812   4.6650174  46.5872145  73.3226919
   5.0133163  47.1265936  74.0326118   4.2575878  45.8426905  73.7653160
  68.9839554  61.4819288   4.8490158  69.2188025  61.1182356   5.7027161
  69.1174841  60.7591629   4.2358193  15.8546507  44.7243404  66.7755890
  16.4900160  44.1510105  67.2043514  16.2139809  45.6046915  66.8855953
  38.8635159   1.8420570  49.8328781  38.5976124   2.7401096  50.0304317
  39.8023748   1.8239294  50.0184727  74.3860960  24.7721267  38.3076811
  74.1846418  25.3094602  37.5415754  74.8477840  24.0124702  37.9527164
  13.0757093  82.1057129  28.2454062  12.2894645  81.9607925  28.7717605
  12.9804337  82.9983902  27.9133177  62.2031641  28.4639025  56.6271639
  61.3644028  28.0814934  56.3693333  62.8428125  28.0521512  56.0461807
  52.5009823  43.3364153  66.1967325  52.6233912  43.0492163  67.1015930
  51.9544125  42.6571178  65.8017015   7.7882916  74.1523886  21.1265564
   8.0580956  73.5197401  20.4608321   8.3939022  74.0079784  21.8536139
   4.6888468  41.2571621  -0.1762623   5.4583871  40.9370518   0.2944516
   4.6931428  42.2026920  -0.0273297  55.7572031  20.6169915  53.0996466
  56.1872387  21.2612605  52.5373077  56.4151859  19.9336863  53.2276487
  64.7195946  -0.3203614  69.1047525  64.2831289   0.1550548  69.8116541
  64.9634444   0.3578823  68.4748602  66.8663216  56.1396551  17.7240419
  66.6850281  55.3886843  17.1588826  66.0384893  56.6189718  17.7583504
   2.4453683  83.7501049   7.2259182   2.9061756  83.5774136   8.0469346
   2.9650664  84.4306469   6.7981321   7.7539390  61.3515854  62.3955917
   7.0781785  61.0923338  61.7691994   7.2924966  61.4189768  63.2315111
  69.1157818  34.8967433  71.0267210  68.3724928  34.4296932  71.4083195
  69.3955994  35.5028033  71.7127419  19.6208775   1.1721465  14.0644741
  20.3950667   0.6098077  14.0897071  19.8606670   1.9336584  14.5925200
   1.1672015  31.0281992   9.6088886   1.3094597  31.9491029   9.3899584
   0.2627919  30.9930134   9.9203962  18.2416272  47.3658800  14.3300331
  18.7642348  46.9280386  13.6581624  18.8624454  47.5479937  15.0354779
  10.1633358  22.1719170  16.0530508  10.7412529  22.9307675  15.9731197
   9.8038948  22.2367358  16.9378293   3.9640471   7.4327201  68.1041050
   4.8192126   7.0043343  68.0665636   4.1516566   8.3141267  68.4268427
  14.2700815  51.3819885   2.0117033  13.3495128  51.3573599   1.7505935
  14.2656171  51.1143398   2.9307118  63.3373260  27.7896810  40.3028822
  62.7605772  28.4972310  40.5909252  63.0847597  27.0402527  40.8421421
  80.9009838   1.5622471  14.9988854  81.8517971   1.5194152  14.8970771
  80.6649017   2.4331681  14.6795237  81.8944645  54.7140789   3.4492981
  82.0731735  53.7809277   3.5655922  82.3819923  55.1409292   4.1538188
  41.2540674  78.2443047  62.1995211  40.7518673  79.0084028  61.9163656
  42.0629120  78.6089802  62.5587034  44.2411613  26.4541197  51.6942692
  44.5847225  25.9648776  52.4418259  44.7382641  27.2721148  51.6944695
  27.7636600   4.8794311  10.0188553  27.9405403   5.5765641  10.6504810
  28.0480361   5.2395332   9.1788018   4.0220827  23.4730220  62.3138523
   4.5475215  22.6729298  62.3141909   3.9948529  23.7412906  61.3954163
  65.3183222  49.9701214  73.3461523  65.6318235  49.3011951  72.7374792
  65.9470320  49.9509716  74.0676689  46.4516449  79.2832184  44.6066141
  45.6554270  78.9426661  45.0144100  46.1367607  79.8389053  43.8936710
  29.3932033  61.6943932  65.0845861  28.5926795  62.2076797  65.1938152
  29.0988612  60.7838583  65.1072359  32.9872823  25.3327656  73.8490248
  33.6827469  25.8933234  73.5050297  32.1843815  25.6832242  73.4633303
  85.0834084  63.1279421  26.5724778  86.0293102  63.2099533  26.4509082
  84.9787903  62.9131413  27.4993801  19.2732668  70.3745937  59.1661263
  19.4961834  71.2939453  59.3121910  19.5953321  69.9231768  59.9463367
  90.8504616  74.0876876  -0.1346850  91.3171278  73.3304369  -0.4882741
  90.4096066  73.7539255   0.6466461  65.7122040  70.9596252   9.9958903
  65.1483679  70.6949377  10.7227063  65.6760693  71.9161320  10.0007641
   0.5443700   9.4783294  54.4678068   1.1206442  10.0820696  53.9991522
   1.0326013   8.6555374  54.4973898  58.6638546  34.4413114  69.2267513
  58.7290573  35.1226425  68.5575962  59.0720129  33.6732507  68.8270998
  35.1085210  82.4686050  17.7914023  35.9454393  82.0130825  17.8825319
  34.7253084  82.1078682  16.9918692  11.4672768  53.8666487   5.0189304
  10.8820546  53.4308720   4.3993780  11.9063246  53.1505585   5.4779321
  84.6684170  25.6557083  52.9365015  84.6200943  25.1688290  53.7592030
  85.5162334  26.0987949  52.9698467  16.0133231  41.4011097  43.8858843
  15.1273680  41.2189198  43.5726404  16.0140383  42.3405695  44.0693331
   9.9586028  79.6729803   3.9275780  10.6893754  79.0835667   3.7410477
  10.3294659  80.5506706   3.8361931   6.0668582  32.2408056  60.3286028
   5.3370440  32.8470135  60.4555416   6.5523416  32.6023579  59.5871067
  84.4743538   0.5759931  11.5396178  84.8905563   1.0758902  12.2418368
  83.8063812   1.1654155  11.1894429  84.5826054  75.0563765  42.8753328
  84.9481297  75.0926447  43.7592506  85.1694584  74.4704103  42.3973322
  41.4714956   4.7949553  48.2324171  41.1982346   3.8783410  48.2695150
  42.0150137   4.9145597  49.0112066  87.5281143  40.6063557  59.6926498
  86.6555214  40.4707432  59.3232918  88.1248856  40.2510929  59.0339470
  90.1067638  44.8872709  50.1762772  89.4903851  44.4262457  49.6072721
  90.9588718  44.7600889  49.7591877  81.2912846   2.0862956  61.3095093
  82.1299267   1.6861326  61.0797596  81.4986897   3.0089828  61.4573717
  71.6777658  80.9033489  65.9685326  71.8235588  80.0315666  66.3359261
  70.7255507  80.9989738  65.9492779  88.8673306  17.6721001  65.1656675
  89.6883392  17.8365135  65.6295013  88.9236736  16.7552018  64.8966789
  10.1019406   9.6938819  25.9350157  10.7861698  10.2791011  26.2599468
   9.4190890   9.7285712  26.6048956  26.5811777  25.7426167  59.4963121
  27.2828221  25.2002478  59.8565388  26.1474442  25.1788163  58.8558149
  14.3841314  65.1993275  50.4552412  14.3513942  64.5198298  49.7818613
  15.2114737  65.0449896  50.9112167  60.1919508  62.9973841  61.2675905
  59.7587395  63.4818172  60.5648232  61.1253071  63.0686331  61.0675764
  26.4316726  64.0598917  18.6710715  25.7396507  63.5546017  18.2444346
  26.0478473  64.9265385  18.8045979  76.0224867  86.2034988  41.8140936
  75.5582237  85.6218052  41.2121630  76.9266844  85.8896828  41.8008375
  41.5917730  42.5299025   1.9994219  41.6742182  42.9316759   1.1345450
  41.8353653  43.2250834   2.6106644  36.1405659  64.0160847  21.1806512
  36.2081552  63.5203171  21.9966650  35.2000642  64.0722847  21.0117435
  72.6131487   3.9155683  15.9276271  71.7144442   4.2315388  16.0210347
  73.1085587   4.6833634  15.6425166  49.1764927  54.9640894  62.8344059
  49.9307823  55.0167656  63.4213495  49.1258144  55.8307219  62.4311543
  77.7182913  45.7113171  27.3760438  77.5828218  46.4396954  27.9821301
  78.5978079  45.8518791  27.0254397  82.6388359  40.8125257  73.2439995
  83.1827927  40.7861185  74.0311670  82.3638630  41.7266607  73.1734324
  67.2979879  49.9574852  46.8276119  67.8658199  49.2674875  46.4845419
  67.7388525  50.7722807  46.5868187  63.8316298  38.0093861  50.6859112
  63.2601357  37.3573279  51.0914278  63.7725067  38.7712765  51.2623310
   1.2351787  28.3019519  65.0916910   0.5240676  27.9447842  64.5597315
   0.7990640  28.6617279  65.8640909   7.8514427   4.0186781  18.1021857
   8.6419266   4.3793809  17.7006137   7.3433548   4.7868514  18.3629310
   1.3798004  75.8147192  22.5785613   1.3092421  76.1515379  23.4717607
   0.6808429  76.2593699  22.0990014  38.0613089   6.1549449  23.6847472
  38.4407139   6.2829679  24.5541692  38.1091499   5.2100682  23.5393119
  62.2890472  11.2800109   7.6997000  62.0930815  10.3628826   7.8912872
  62.7384901  11.5975642   8.4828943  23.8486242  65.1178503   2.6822701
  24.4046617  64.6882772   3.3322829  24.4476819  65.6749821   2.1853116
  41.6430521  49.2365980  61.1063910  42.1653843  48.8485193  60.4043961
  41.0332012  49.8210335  60.6561136  73.1719160  55.7738590  51.2002468
  72.9442549  56.2277222  52.0116711  74.1040516  55.9541512  51.0783863
  24.4045687  46.2082577  73.7840557  24.2765737  47.1529818  73.8697720
  24.9790478  45.9771872  74.5139933  57.5395966   6.1152923  32.6385736
  57.2620106   5.4884100  31.9705963  57.2292089   5.7402599  33.4627342
   3.3385897  61.2958288  17.2587848   3.8341048  60.6480646  17.7598798
   3.5525435  62.1326113  17.6714003  82.5051212  24.0716410  14.4496179
  82.5517464  24.0380907  15.4050934  81.9029808  24.7922945  14.2643571
  29.6292853  46.7331457  20.9206057  29.2157125  46.1757994  21.5798092
  30.3919315  46.2336111  20.6289434   7.7181292  77.2775936  10.6023800
   7.0241028  77.6705217  11.1316860   7.2798711  77.0067644   9.7956496
  12.9664350   7.4829990  63.6973333  12.4867129   6.7184532  63.3786392
  13.8836241   7.2871596  63.5059071  53.6801910  22.2730112  19.6759701
  53.5684443  22.1173120  20.6137872  52.8135443  22.1142125  19.3018794
  28.0673766  52.7753878  34.1798115  27.1231580  52.6600838  34.0730977
  28.3941817  51.8990469  34.3834305  11.3436484  38.6507416  56.7561865
  11.8952930  38.1797862  56.1315918  11.6198313  38.3249497  57.6128149
  67.0563507  11.7920887  65.4319811  67.8505707  12.2758532  65.2052307
  67.2351122  10.8940136  65.1531649  57.6428652  18.9133775  72.0152855
  57.1697664  19.1896367  72.8002024  57.4401522  19.5853925  71.3644934
  16.3966167  12.2559202  68.3276415  16.8427527  11.4742923  68.0016756
  16.1095464  12.7146482  67.5380898  15.8786285  27.2301435  36.7486429
  15.6653988  27.9132628  37.3843408  15.7252955  26.4100409  37.2178459
  30.8499885  10.4730082  40.8369112  30.0080538  10.8762324  40.6252813
  31.2182903  10.2279472  39.9880695   9.4510490  17.9091835  60.9801865
   9.9203038  17.0850599  60.8503771   8.6528391  17.6595354  61.4457703
  16.5608919  49.2597151  19.8984039  17.3904169  48.9259100  20.2400088
  16.7792964  49.6023464  19.0317225  45.2932024   8.4476095  60.6575155
  46.1419535   8.5997790  60.2419472  44.7127581   8.2067460  59.9355030
  82.8177929  24.3580699  40.6565189  83.4306335  23.7571836  40.2327394
  83.3717823  24.9298000  41.1879826   2.0521002  44.8556900  55.8769846
   1.9291882  45.7946682  56.0164404   1.5402755  44.4413567  56.5716743
  66.7593718  27.9379439  32.9935479  66.8114519  27.1327829  33.5085559
  65.8886766  28.2875538  33.1830144  37.1183324  78.1520414   4.8194793
  37.2014737  77.2189713   5.0162047  37.9681492  78.3961582   4.4528034
  89.9518108   9.9441260  52.5280714  89.2992592  10.6444108  52.5253201
  90.5351162  10.1631451  53.2547140  85.2394962  38.2071543  53.1773996
  86.0858154  38.2737088  53.6196041  85.2554035  38.9058614  52.5233459
  57.6753998  83.5061169  22.4616790  58.4923840  83.3790970  22.9440022
  57.0730877  83.8797665  23.1049848  33.9826202  -0.0828637   6.2445825
  34.6084881   0.5679250   5.9267849  33.1251597   0.2857651   6.0321957
  64.3378162  37.1025014  48.2207203  64.4114828  36.1571002  48.3511877
  63.9751434  37.4303079  49.0436745  72.2405863  83.1715965   7.1321070
  71.3300753  83.3250618   7.3843998  72.4464464  83.8874245   6.5309078
  78.0887318   6.9403696  43.1018353  78.7220621   7.0220613  42.3887777
  78.3886337   6.1818868  43.6028290  44.4322157   9.5944083  42.7923965
  45.0641584   9.6349627  43.5101938  44.8003626  10.1637542  42.1167183
  83.2688332  11.5743756  57.2340012  83.2094669  11.2022352  58.1138992
  83.0269814  10.8536875  56.6523266  90.9516048  30.5743098  52.9473209
  90.3700829  31.2673450  53.2600021  90.7447720  29.8206186  53.4999514
   9.1751027  85.4304409  27.9889464   8.7674683  85.5672359  27.1337557
   9.2051816  86.3026047  28.3822060  22.9674578  37.8134298  27.4487805
  23.1075692  38.3767223  28.2098985  23.5690045  38.1524873  26.7858982
  26.3250136  26.3164926  50.0679159  25.5714202  26.4908266  50.6317711
  26.1200047  26.7663217  49.2482471  12.4874604  76.4186239   7.8089595
  12.4132764  75.9953117   6.9536597  13.3732903  76.2081718   8.1043333
  23.8564062   7.1623909  72.4889278  24.3143106   6.4511985  72.9369926
  23.0434084   6.7648512  72.1771097  69.8262930  24.5614052  72.5781250
  69.6384811  25.3459048  73.0934095  69.2944574  24.6605134  71.7884684
  44.1155506  79.0657159  74.3337600  43.3710028  79.5952340  74.0482965
  44.8492588  79.6797915  74.3622924  70.2722406  74.3481731   8.9344764
  70.8330107  74.2926645   9.7082239  70.3120136  73.4739685   8.5466373
  58.9293575  21.1611533  46.3257265  58.1079006  21.3945079  46.7581511
  58.6591721  20.7300067  45.5149603  38.4419990  53.8298750   6.0544044
  37.7973199  53.4586382   5.4520732  37.9272890  54.3735218   6.6508579
  68.9019585  24.5461917  57.1577454  68.5890484  25.3453946  57.5815296
  68.3789301  23.8467908  57.5495481  71.9824314  20.1443434  50.4107571
  71.5109825  20.7334232  49.8217297  71.4806604  19.3295538  50.3867245
  74.3205070  34.0201068  74.7587538  75.2356100  34.1967344  74.5405293
  73.8538265  34.1139483  73.9283085  88.6651230  22.0265532  64.3482018
  89.0557384  21.7715955  65.1840496  88.4888649  22.9627156  64.4418383
  83.9989376  78.0032825  33.6900854  84.0082550  77.4853897  32.8851414
  84.5865059  78.7370586  33.5095978  39.1027522  40.8390856   4.8676184
  39.8882389  40.2935076   4.9074709  39.4312286  41.7185926   4.6810579
  20.2792168  86.0797215   8.2197237  21.1664701  85.7621288   8.0519515
  19.9256039  85.4710579   8.8683528  19.3076897  74.0478277   2.2378762
  19.6635485  73.1817722   2.0390177  18.3724427  73.9716673   2.0488156
  79.1789246  68.1767035  11.3563061  78.6972666  67.5964642  11.9458461
  78.6871719  68.1462097  10.5356479  15.2346742  60.4785776   0.9991985
  15.4057133  60.9111977   0.1626474  15.4309487  61.1447716   1.6579038
  74.2775106  36.2102437  65.6931829  75.1369190  35.8232760  65.5261278
  74.4680977  37.0262647  66.1558008  90.6158161  59.2988586  44.5589542
  91.2385559  59.7759962  44.0105391  90.1029682  59.9827528  44.9896574
  77.7142954   7.0110559  48.5674238  76.9715023   6.4593983  48.3221483
  77.5632524   7.2201878  49.4892073  53.5018158  13.6665928   6.0052073
  53.4707928  14.5605135   6.3460541  53.8916826  13.1537187   6.7131585
  82.8719234  68.4104300   4.2171082  82.2176075  69.0234518   3.8820019
  82.5755692  68.2047939   5.1037395  65.3802204   0.3262630  26.4565229
  64.4784498   0.2738465  26.7732191  65.6117725  -0.5774790  26.2423611
  66.8040371  11.3988793  58.5073662  65.8622026  11.2470508  58.4290934
  67.1458054  10.5911481  58.8907671  75.5046272  13.3383477  50.7759190
  75.1379776  13.9112651  50.1024437  76.2864733  12.9627132  50.3711367
  89.2966747  77.5882864   9.1322345  90.2382278  77.5431442   9.2985696
  89.2043018  78.2635069   8.4600937  16.6000104  59.6921825  24.0224004
  17.3306549  59.7497940  23.4067130  16.8066418  58.9340734  24.5690346
  18.7024927  20.8016706  57.6415920  18.8223481  20.4943299  56.7430305
  18.0778313  21.5230680  57.5666666  12.0797086  41.4810085  64.1311216
  12.6241744  42.1836185  64.4862652  12.2209084  40.7445717  64.7260571
  32.0493007  82.1442604   1.7738986  32.0664430  81.2197495   1.5264754
  32.9373980  82.3265266   2.0809746  89.3260860  30.8666396  62.9520416
  89.4446087  31.0066295  63.8915014  88.9618111  31.6915584  62.6310396
  33.6274290  58.8458157  14.2238641  33.7338090  59.4562387  14.9534535
  32.7236986  58.5391951  14.2979407  50.8099270  74.6800566  39.6650958
  50.0184441  75.1003742  40.0014257  50.7465315  74.7756386  38.7147927
  86.0163116  65.9788513  60.4199648  85.2927494  65.5674648  59.9472523
  86.2370110  65.3541374  61.1108017  84.8924065  82.5989056  19.0785027
  84.5825481  82.2080803  19.8954928  84.0937710  82.7932262  18.5879493
   1.7431763  34.7769403  47.2491074   0.9072145  34.3478489  47.0666790
   1.5862019  35.7005382  47.0527458  55.4062319  83.9605999  24.1370368
  55.5887794  84.0881538  25.0679708  55.0137377  84.7866631  23.8545465
  64.9745464  46.6402531  47.7001286  65.3763151  46.4321184  48.5436249
  65.2250433  45.9135532  47.1296978  82.6063824   6.8990636  63.4595203
  82.4845123   5.9644365  63.6264133  82.0329380   7.0864248  62.7163553
   7.9617584  55.3196764  24.7365093   8.2667083  55.3079367  23.8292623
   7.9018861  54.3961763  24.9810362  45.2674437  70.3442383  14.2734194
  46.0730314  69.9466705  14.6038806  45.5612469  71.1221266  13.7992871
  60.2580643  25.3032780  44.2480230  59.7883320  24.4736266  44.1627932
  60.7907581  25.1970434  45.0361776  75.2301884  21.1646032  15.6470227
  76.0103703  21.7063379  15.7656527  75.0063658  20.8703923  16.5299582
  31.2972617  33.2951808  16.2672853  31.2180924  33.3652067  17.2186315
  32.1878934  33.5908628  16.0786545  37.0065904  78.8852072  12.9842317
  37.4620676  78.2039595  12.4895871  37.3175001  78.7769938  13.8830411
  66.9534445  24.8350811  39.3343711  66.9125128  25.6428504  38.8224506
  67.7745152  24.9017978  39.8218369   0.3368370  42.4851322  70.7955313
   1.0935279  42.9904842  71.0926342   0.3317418  42.5979185  69.8450136
  26.1261249  81.7002487  31.4133739  25.6409240  82.4828815  31.6747022
  25.7100391  81.4217663  30.5975604   3.1294632  21.3105488  65.7078934
   3.5074911  22.1753860  65.8672237   2.6165766  21.1247396  66.4944363
  16.1166787  25.0127578   9.6051705  16.6476285  24.5158052  10.2275538
  16.6228831  24.9976563   8.7929136  47.2043085   4.8779121  35.3957009
  47.0353508   4.0768436  34.8997426  48.0408049   5.1972187  35.0572515
   7.1136731   8.6460537  65.5294180   6.8149096   8.0252743  66.1939526
   7.0820850   8.1529671  64.7096014  68.2518101  47.3652697  37.8845024
  67.4764633  47.5271702  37.3470497  68.7909985  46.7768955  37.3559880
  74.5871592  71.9851446  57.2546816  73.9181995  72.5841761  57.5861692
  75.3636694  72.1790361  57.7797222  18.9280105  63.0334139  18.2515979
  19.3734705  63.8096142  17.9120207  18.0320942  63.3256435  18.4194362
   9.8225468  32.6824141   1.6340452  10.6090546  33.1476641   1.3491204
   9.9733263  32.5031257   2.5621361  28.1652093  53.9046574  31.4911127
  28.9098883  54.4895887  31.3513136  28.1489825  53.7594652  32.4370980
  44.5058060  66.3768721  15.7936859  43.9941788  67.1785545  15.6852067
  45.2837372  66.5142250  15.2531397  84.0986538  42.7700424  62.4028349
  83.8409042  41.8486357  62.3744488  85.0539398  42.7534246  62.3446131
  17.6155949  50.7793808   6.9431621  17.2655606  49.8917437   6.8669569
  16.8485641  51.3252974   7.1159899  82.1254253  83.4784603   1.8112460
  83.0393600  83.2960606   1.5928678  81.6255093  82.8412056   1.3011312
  36.7950034  47.2086620  24.0857744  37.7156425  47.2360086  23.8251925
  36.8103576  47.3407745  25.0336885  45.4737949  55.0650072  61.3713455
  45.7201910  54.5341873  60.6138802  44.9505281  55.7776022  61.0044193
  79.7448730  59.8092842  34.2463827  80.5341339  60.1290512  34.6834779
  79.9288702  59.9141598  33.3129072  34.4257450  80.4742050  28.9595366
  33.6875868  80.2625465  28.3880877  34.9721098  79.6883726  28.9460325
  13.3672488   2.8221729  68.9213562  13.2636619   3.6180645  69.4429493
  12.5859809   2.3046479  69.1163445  29.9786043  83.0500126  20.6053114
  30.3760910  82.9012585  19.7473443  30.1839924  83.9623547  20.8094978
  60.7789660  68.4321451  27.3113656  61.6690063  68.0923176  27.2187066
  60.8871746  69.3828249  27.3383546  41.3119507  84.5810890  71.3842154
  42.1713257  84.8732281  71.0803127  41.4037275  83.6339188  71.4876223
  62.6404190   8.5744339   8.0682898  63.0917501   8.1648540   8.8063818
  62.9040813   8.0554330   7.3084521  68.0411673  61.8094778  15.7496583
  68.6322737  62.5616360  15.7827032  67.6867294  61.8222809  14.8605895
   4.5536605  16.4722776  61.5643167   5.0705743  17.1535277  61.1342812
   5.1375741  15.7146025  61.5990305  25.5183744  55.8620644   3.5834995
  26.4229012  55.8118439   3.8925940  25.5023217  55.3130627   2.7995539
   7.3559320  14.1279924  44.6783257   7.3275799  13.6134875  45.4849958
   6.5880328  14.6970975  44.7301102  83.2848167   9.9511594  10.2734101
  82.6951122   9.7559631   9.5451367  83.5017586   9.0948504  10.6420588
   5.3799343  38.1649351  50.0204611   5.5494910  39.0109706  49.6060896
   5.0707287  37.6065493  49.3071365   7.0224118  70.6214476  69.3828773
   6.3628805  70.0779152  68.9518070   6.7220050  71.5193319  69.2422009
  56.9427395  30.4235458  62.2349930  57.8711843  30.2390838  62.0928526
  56.7196321  31.0639596  61.5594769  55.0391817  10.1665962  72.8793240
  55.0343800   9.7786134  73.7543583  54.5076513  10.9579957  72.9653072
  73.1700373  25.4115677  58.9240789  72.7159166  25.1531672  59.7261000
  74.0164804  25.7427573  59.2242050  89.4765186  20.1630235  34.7668862
  89.5357895  19.3803000  34.2191052  90.3048897  20.6201768  34.6218085
   9.6916080   6.4655912  53.3053684   9.0863025   7.1718377  53.5313225
  10.3777373   6.8930316  52.7927732  84.4674492  24.0886354  62.2692204
  84.8087406  23.3412004  62.7602339  83.7711811  24.4414210  62.8232813
  76.8389797  19.6526182  70.6427526  76.6117001  20.5662823  70.8153534
  76.2626934  19.3942165  69.9234819   3.6823976  66.1956358  32.5453448
   3.8856062  65.5664396  33.2374787   4.1294718  65.8530378  31.7714047
  18.6445856  47.3541927   0.9482878  18.5069942  48.2901669   0.8025062
  18.2524586  46.9325113   0.1836614  89.3092632   8.0042046  63.7853193
  88.3746529   8.1781739  63.6736488  89.7384357   8.5942835  63.1657553
  39.6455622  73.2349539   5.0866216  39.5493126  73.0988026   4.1440552
  40.4223537  73.7879133   5.1706582  90.2203751  60.3995609  30.2004528
  89.7685909  61.2397051  30.1212263  89.7199154  59.8048735  29.6417761
  76.8268633   7.4389398  55.2477837  77.4705076   6.7732465  55.4902887
  76.1417103   7.3627937  55.9118605  17.1602726  63.2206821  13.9342141
  17.0203984  63.2464218  14.8807883  16.9621289  62.3173523  13.6872971
  33.9367294  82.0107174  21.7686033  34.0118146  82.5384617  20.9735680
  32.9962754  81.9723701  21.9426942  29.2417002  24.4766045  17.6503408
  29.0787816  25.3748322  17.3624611  28.3897662  24.1646481  17.9554975
   6.9743705  72.0964050  10.3798401   7.1268183  72.8579330  10.9393680
   6.2146938  72.3370600   9.8495489  56.6092730  76.6893435  59.7216225
  57.1839285  77.4486256  59.6241951  55.9765625  76.9520426  60.3901291
  26.9157648  81.2914371   1.2865627  27.5258732  80.8841038   0.6716800
  27.3202682  82.1311378   1.5045142  14.6651399  68.7470961   0.0893434
  14.8354661  69.4200993  -0.5696601  15.3925121  68.8266373   0.7064612
  11.7327762  70.5392885   9.0046376  11.6232061  70.0231266   9.8032629
  12.4172950  70.0821829   8.5160494  87.4029732  21.2886381  45.1714468
  86.5140724  21.3598657  44.8235893  87.8053951  22.1347308  44.9754429
  34.5256853  85.5878258  15.7406175  35.0154924  86.1606693  15.1505542
  35.1488209  85.3682327  16.4332294  14.8373248  82.7120491  74.6629340
  14.6017816  83.5187407  75.1211897  14.7596814  82.9324766  73.7347021
  20.9357548  53.0548573  18.5319328  20.3645468  53.5789633  19.0934205
  20.3647017  52.7508640  17.8264391  18.6818063  15.6938171  73.3065653
  18.2905674  16.3978696  72.7893877  19.4877529  15.4730999  72.8396940
  63.6589336  42.9453135  54.3730450  63.6076021  42.9218674  55.3285837
  63.2722187  43.7873697  54.1330051  63.0777884  31.7331648  54.5115232
  63.7088013  31.0665584  54.2400646  62.2289848  31.3845587  54.2390585
   2.1084803  30.5142498  74.1267872   1.1532446  30.5708456  74.1503096
   2.4016307  31.4248657  74.0940285   0.1163496  23.3045173   8.2463014
   0.7301248  23.9648008   7.9245341   0.3763689  22.4983573   7.8005147
   8.7582988  14.4930184   9.3291676   8.6533433  14.4912922  10.2805948
   9.3099630  13.7321234   9.1476780  12.3992932  69.8804426  73.4593964
  11.4705181  70.0990200  73.5357571  12.4585462  69.3641806  72.6555347
   0.1173490  54.9558115  71.9937515  -0.0395176  54.2196608  71.4023924
   0.2385210  55.7074642  71.4136028  57.2098207   8.3647943   4.6469367
  57.5381708   7.6004660   4.1734141  56.5096283   8.7079036   4.0917495
   0.6027859  36.4173651  73.3151722   1.3872683  36.8533230  72.9823637
   0.8636006  36.0747814  74.1700649  56.9143820   9.1200066  64.2221498
  57.5099134   8.3738279  64.2913961  56.3034916   9.0072769  64.9503899
  39.6138406   2.3315464  58.7800837  40.3701925   2.1134761  59.3246984
  39.8576236   2.0369220  57.9025888  19.2025113  85.2704811  10.5199051
  19.6314144  85.3665066  11.3702309  19.3378937  84.3523121  10.2856851
  43.6519384  19.8354197   9.8682481  44.1274452  19.3524361  10.5441546
  44.0571547  19.5588303   9.0463412  90.0833416  54.4765949  61.4335251
  90.0727272  55.0771666  60.6882524  91.0056591  54.4214630  61.6835785
  74.1689968   6.7896700  73.8306952  74.7057676   7.5566334  73.6310101
  74.6845531   6.2959665  74.4684219  57.6863480  31.4794779  48.0241013
  57.8256512  31.4811563  48.9711046  58.3231020  32.1097875  47.6872253
  33.4690213  28.3347058   0.8389911  33.2630730  29.1021347   0.3052596
  33.5601616  27.6212025   0.2074531  20.3639364  24.3804908  48.7445593
  20.4859257  23.9113998  47.9191494  20.3995633  23.6984348  49.4151974
  82.8796768  26.9762111  74.0294695  83.6420345  26.8161130  73.4732199
  83.2106590  27.5314569  74.7354317  85.3287697  47.1823311  60.2555561
  85.0529385  47.2141838  59.3395138  86.2765980  47.0546627  60.2159834
  20.9644675  82.4769783  13.5035288  21.5451598  82.1676064  14.1987407
  20.2692771  81.8202877  13.4622097  80.6424522  40.8773136  54.2278290
  81.3687038  41.0213852  54.8344851  81.0007286  40.2928209  53.5598183
  67.5033188  16.1756563  27.2476244  68.2334709  15.8748341  27.7885604
  66.9306374  16.6423047  27.8563166  63.9064455  64.4481421  66.1302185
  63.1915379  63.8554573  65.8981276  63.5762262  64.9384737  66.8830538
  21.8757534  77.6025963  51.8936872  22.4692106  76.9091749  51.6052389
  21.0799909  77.1416855  52.1593046  64.0891123  58.9381170  68.7395573
  63.6824417  58.1061649  68.4972715  63.9497662  59.0067339  69.6840715
  47.9342175  31.9087744  11.8158317  47.8282499  31.3140225  12.5583100
  47.1616602  31.7535162  11.2724316  38.3766127  64.0142059   9.8030436
  39.1627908  63.9211178   9.2650008  38.2832885  63.1673288  10.2393043
  39.7515488  85.9450912  60.6150913  38.9458060  85.4289055  60.5913830
  40.0221062  86.0089779  59.6991491   6.6610265  73.4907913  32.3299766
   6.6936958  74.0919352  31.5858030   6.3550556  72.6641273  31.9568372
   7.3551768  27.4188375  39.6534181   7.5282580  26.6357684  39.1308522
   6.4567643  27.6621127  39.4300246  61.4084816  85.3964520  71.1613941
  60.7004452  85.0251579  71.6877556  61.0333824  86.1911011  70.7818127
   5.7280928  40.0297546  13.6217678   6.6720390  39.9071479  13.7225866
   5.4234362  39.2189956  13.2142329  17.6354456  28.9850879  61.2130737
  17.7446580  28.0422616  61.0890627  18.3530545  29.2348027  61.7952394
  28.1210256  12.0885980  72.5799608  28.2635570  12.0368099  71.6348505
  27.2663140  12.5098956  72.6705551  24.2989588  81.0532951   0.8713381
  25.2493525  81.0893822   0.9794074  24.1660380  81.0393810  -0.0764857
   9.1159171  75.8391714  16.6918111   8.5217780  75.2086401  16.2847996
   9.9008477  75.8164644  16.1444545  17.5417244  62.3117113  26.6154456
  18.2069039  62.5304699  25.9628272  16.7226517  62.6352024  26.2403369
  76.6176176  40.1253557  52.4391174  76.2623787  41.0121870  52.4988604
  75.9298325  39.6205711  52.0050955  87.0888996  27.7026725   1.1336824
  87.4529648  27.9322433   1.9886602  86.7028046  26.8363309   1.2625623
  21.8675089  44.9525404  42.9309464  22.5494123  44.9356604  42.2594166
  21.0955858  45.2944899  42.4799061  67.5156641  44.2736053  50.0806427
  66.6708899  43.8344812  49.9818230  67.7548122  44.1295815  50.9962273
  33.7751722  82.2375488  39.3587303  34.1829300  83.0625534  39.6220183
  32.8349924  82.3994446  39.4367337  90.7239437  77.4244118  21.2642145
  90.9263420  77.3384619  20.3326154  89.7768021  77.2962284  21.3163614
  51.0575581  37.4121833  58.4334993  50.6057167  36.6319799  58.7549925
  50.7093906  37.5443125  57.5517130  39.1291022  13.5585833  74.6051645
  39.1233873  12.7996588  74.0218687  39.8779678  14.0788221  74.3139887
  70.3785324   9.5226556  67.0378590  69.9897957  10.3056145  67.4278498
  70.3357458   9.6785355  66.0944033  13.8802910  79.8628139  57.6337910
  13.9001560  79.8892784  56.6771650  13.4718847  79.0224552  57.8417158
  83.0452156  31.8062758  70.4580736  82.4819756  32.3377657  69.8954773
  83.5479259  32.4440432  70.9647989  81.5441990  38.4629107  63.8882065
  81.0444164  38.6351538  64.6861935  80.8790779  38.3390188  63.2110834
  72.8313398  55.0925875  64.6247673  73.3381224  54.6309328  63.9567327
  73.4452486  55.7264805  64.9956131  28.8345671   0.0783794  70.8325815
  28.5182238  -0.4459698  71.5682507  29.4394541   0.7058780  71.2283039
  45.5487156  18.9125633  11.2485838  45.8179617  18.9777207  12.1648240
  46.3552284  18.7065196  10.7760191  44.9352884   3.3692768  18.8747227
  45.1844931   2.8896123  18.0847538  44.3254900   4.0392828  18.5657465
  13.2190120  27.5702453  56.6732216  13.4139776  28.5071492  56.6524887
  13.0621564  27.3379350  55.7579851  83.9625835  45.6863737  73.6554766
  83.5197353  45.6302595  74.5022202  83.2555962  45.6396484  73.0118752
  50.6199408  74.5339155  34.0975833  49.8404408  74.9806356  34.4278145
  50.2790928  73.8644743  33.5043693  65.2923679  44.9019575  38.5835171
  65.3767824  44.4201136  39.4062757  65.1478195  44.2244816  37.9229379
  42.8395510  62.9288864  25.8670020  43.3227015  63.4706593  26.4909220
  42.2944450  63.5492325  25.3829956  87.0283342  12.2718180  74.2898427
  86.8275356  13.1758440  74.5320293  86.3735557  11.7488516  74.7524433
  88.7747097  37.8997302  68.7717485  89.0083313  38.8273263  68.8065863
  88.7630653  37.6211190  69.6874332  46.3211632  53.5725451  59.0888357
  45.4039383  53.6843395  58.8389635  46.6941166  53.0295324  58.3943748
  17.9873741  82.6460648  45.6928253  17.3701298  83.2820606  45.3312254
  17.7453387  82.5757122  46.6162443  12.9358137  72.1722364   6.7569023
  12.1631753  71.7595196   7.1428156  13.6754942  71.7619848   7.2050101
  13.5738027  63.8597345  72.1971226  13.2835126  63.0242729  71.8311119
  14.3198895  63.6319065  72.7518129  63.8194704  22.7301025  13.9394629
  62.8907204  22.9200196  14.0720892  63.8295031  22.0208120  13.2967818
  75.8763027  82.9147530  46.2428617  75.9918880  82.8706551  45.2936935
  75.8700991  83.8513851  46.4401245  12.0180488  54.5644951  56.7846680
  12.3247123  55.4676914  56.8648481  11.5215242  54.5518875  55.9664154
  69.9428892   8.0338329   7.9068559  70.1069117   8.6799085   7.2198957
  70.2300882   7.2030997   7.5278711  86.0798264  55.0508451  23.3633208
  86.4927769  54.3501472  22.8586149  85.9365463  55.7517052  22.7273178
  30.8315206  75.6197166  29.9436355  31.0183239  76.5135050  29.6564364
  30.2080131  75.7244587  30.6623149   9.7822076  75.1494884  28.0358458
   9.5249033  76.0637903  28.1544995   9.4388074  74.9139452  27.1739697
  71.0176992  41.7089558  69.5135498  71.5515661  41.7955399  70.3033066
  71.5427303  42.1149826  68.8238287  89.7119617  21.2962580  39.1684437
  89.1633034  20.6107950  38.7871909  90.2740955  20.8346915  39.7906923
  55.0785017  73.1143570  65.3818035  54.7462130  72.8253317  66.2316704
  55.7991982  72.5143909  65.1897907  47.8727865  63.6437654  48.6054373
  48.3248997  63.8385057  49.4263554  46.9537735  63.8420343  48.7852669
  24.6437407  84.0919685  15.9661865  25.1678300  83.3059692  16.1203563
  24.0527678  84.1370296  16.7178190  60.5553341  43.7605333  54.4407034
  59.9931860  44.4427109  54.8079252  60.8857489  43.2860804  55.2035666
  90.1114559  82.4048615  57.8946400  89.7342014  82.5113106  58.7679005
  90.4938221  81.5273952  57.9042530   5.2777666  46.4727974  53.1344032
   5.6621307  47.3485756  53.1732178   5.0159931  46.3664389  52.2198582
  25.6666803   9.6262115  24.6760559  26.0879135  10.0143647  23.9091611
  25.2352023  10.3620052  25.1104140  30.6676674  17.4240625  62.4037504
  30.7383752  17.4869275  61.4512396  30.8357882  16.5015697  62.5960398
  39.1012001  47.3451948  65.7022142  38.4045935  47.6220322  66.2974739
  39.9017596  47.4125671  66.2225962  63.7523746  37.5023985  71.2266159
  64.3096495  36.9529819  71.7778111  63.4105730  36.9053245  70.5611086
  66.6275215  67.0059538  53.7713146  67.2444916  66.4727259  54.2725611
  65.8322334  67.0163584  54.3038940  81.7568111  17.5912952  53.8705015
  82.2031212  17.7869880  54.6943617  81.6649246  16.6385174  53.8683128
  74.9711704  29.6531296  47.1115828  74.2552853  30.2077985  47.4215555
  74.8168373  29.5663047  46.1709023  81.8682384  16.5670884  12.2247279
  81.1506462  15.9618878  12.0375526  82.3713112  16.6010499  11.4110982
  66.0373116  10.8687639  37.9382944  66.0685921  11.5919960  38.5645461
  65.4875994  10.2091873  38.3613873  70.4271364  15.6132841  37.5925875
  70.8116198  15.9313607  38.4094286  69.9625254  14.8143435  37.8417134
  46.0004711  15.8827913  50.0606108  46.7149067  16.3037431  49.5824766
  45.8053493  16.4849210  50.7786655  75.4067183  26.1356640  60.2628708
  76.3456821  26.1798501  60.0822306  75.3514194  25.8490872  61.1744928
  75.6666946  35.2830148  61.1043787  76.0938263  36.0712194  61.4398241
  76.3135147  34.5885444  61.2291241  11.2896895  26.1154675  27.4667168
  10.8532619  25.4328942  26.9569540  11.3891876  25.7357407  28.3397222
  72.0070314  81.4930344  34.4979191  72.3839521  80.6307316  34.6728230
  71.1486864  81.4695072  34.9209094  61.9585848  14.7759569  21.8001342
  61.7918396  15.1959884  20.9563327  62.2985411  13.9102757  21.5737319
  66.3590431  42.6793146  10.1210797  65.7103586  41.9836426  10.2282095
  66.0225868  43.4038115  10.6484592  48.8447332  80.0798893  60.6519794
  48.7075043  80.9858894  60.9286880  49.3132305  80.1517963  59.8203707
  36.9559288  52.3859644   4.1608268  36.9256902  52.4823618   3.2089734
  36.0421276  52.4538183   4.4375855  73.9638138  71.6570044  39.5255303
  74.5525217  71.4123154  38.8115406  73.9569855  70.8934116  40.1026869
  62.5585985  38.3816385  57.0196295  62.2566128  39.2741060  57.1885586
  63.0632067  38.4489298  56.2090302  69.3439674   5.2045065  46.0488653
  69.3061304   4.2571414  45.9173393  68.4327745   5.4639369  46.1854458
  56.0720015  30.0887895  72.8938627  56.3790703  30.8923721  73.3136225
  55.9528351  30.3290129  71.9749880  90.8999729  57.4865866  22.2522807
  89.9947357  57.3614836  22.5370979  91.3685703  56.7297745  22.6042604
  84.3192291  37.8616214  65.1060247  83.4415627  37.8523517  64.7241259
  84.1701603  37.9584074  66.0465813  77.0805883  31.6300774  39.4891500
  78.0098295  31.8220186  39.3630719  76.9181347  30.8622098  38.9412284
  20.5990982  18.0074453  48.0556059  19.9217796  17.6410294  48.6241198
  21.4169240  17.6378810  48.3885002  74.3329430  30.2519178  37.7867222
  74.8577738  30.8531904  37.2582769  73.9948273  30.7929230  38.5003209
   5.2689427  26.6324925  56.8497610   6.0067022  26.7998028  57.4362326
   4.6330509  27.3151040  57.0640326   1.3450679   7.1458942  58.3780003
   0.7423871   7.6263225  58.9456272   0.8408366   6.3890940  58.0792761
  76.0634279  26.8015814  50.3384590  76.9603729  26.7314982  50.6652737
  75.6345129  26.0017323  50.6426048  73.5603952   8.5664266   1.8579665
  74.1129351   9.3462676   1.8052310  72.6768875   8.8860559   1.6749761
  66.6127110  48.4873581  49.8719978  67.0559931  47.8115177  49.3591928
  65.9542608  48.8461256  49.2770529  78.0222273  43.3228254  56.7818642
  78.5826540  43.2033062  56.0151339  77.3973227  42.5991488  56.7369223
   1.7568581  38.8939548  53.9140892   0.8334185  39.1184497  54.0285110
   1.8877548  38.8944650  52.9658794  32.8818798  53.1138372  -0.0769677
  33.2689977  53.9692211   0.1092865  31.9463897  53.2335711   0.0865948
  44.7547770  54.5293999  48.1329107  45.1102304  55.3795385  48.3920431
  45.5146360  53.9475775  48.1146908  69.4010592  19.3509400  52.9556608
  68.9075041  19.9333739  52.3782492  69.7588921  19.9287593  53.6296892
  48.5785055  65.5063343  15.1423788  48.9568853  65.9673786  15.8910429
  47.7479410  65.9537315  14.9804091  84.6497726  36.2301230  50.0410700
  84.1730118  36.3257504  49.2165756  83.9668179  36.0993767  50.6988764
  37.8859997  66.5240479  10.4404426  38.7155247  66.5551901   9.9638385
  37.5290704  65.6579638  10.2436483  26.9714093  23.1839156  58.2625198
  27.3593402  22.7225232  59.0060616  27.6215267  23.1028056  57.5646639
  15.2643156  32.2093320  60.3553963  16.0944545  32.3812866  60.7998419
  14.6097064  32.6621938  60.8870316  75.2660942  19.0053689  36.0692692
  75.2354956  19.9225914  35.7972407  74.5657206  18.9240479  36.7166424
  72.5222445  21.3166022  38.8121963  72.7675152  21.6223907  37.9389453
  73.3170795  21.4222813  39.3349814  83.0489063  23.0435109  58.7944365
  83.6823273  22.4713778  59.2276525  83.5291195  23.8563585  58.6366034
  47.2238350   2.0686789  60.5692911  46.4488745   2.3263873  61.0685444
  47.7031612   1.4837217  61.1560631  65.8428478  81.8349171  50.1074982
  66.4394045  82.3119926  49.5306444  64.9724436  82.1530914  49.8679352
  82.6642895   9.1002321   3.9524844  82.1982193   9.8826903   4.2470425
  82.0728302   8.6932468   3.3194175  71.4270592  32.6281071  28.7831020
  71.0468435  33.2456684  28.1583738  71.3464499  31.7752457  28.3560634
  32.1963334  71.3327456   3.2774371  32.0124674  70.7176256   3.9874059
  33.0155325  71.7563820   3.5337126  68.4268665  20.4957771  37.7874994
  68.8147497  19.8294806  37.2202015  69.0492535  21.2226152  37.7634978
  89.7262669  75.7897043   3.5462555  89.2534924  75.4156208   2.8027633
  89.8324013  75.0586414   4.1549504  63.4684372  39.8660922   1.6005734
  64.1644859  39.2098498   1.6335382  63.6971140  40.4924917   2.2872786
  71.7816925  42.9465008  59.8050928  71.1503410  42.2333956  59.9005508
  72.4121952  42.8042841  60.5111122  89.4820881  41.6206312  24.5425534
  90.3179264  41.8572664  24.9445677  89.6191120  40.7338047  24.2093897
  10.7398844  22.2400022  40.4232788  10.1100922  22.9338908  40.6185007
  10.8816159  21.8021131  41.2625599  75.7666159   2.8783751  24.7786617
  75.3100824   3.6159939  25.1832986  75.4853868   2.8953370  23.8638639
  82.9996967  27.3457766  67.1461248  83.1280899  27.4012113  68.0930567
  83.8225746  27.6628661  66.7738867  68.7356043  19.5078516  30.8197284
  68.4467459  19.8456264  29.9719644  67.9673386  19.0595424  31.1733055
  14.9718571  62.6321459   9.8715246  14.1055977  62.3794842   9.5521665
  15.1286530  62.0561647  10.6197870  43.6968899  63.9142752   8.4415740
  44.5092201  63.5219526   8.7616313  43.6969233  63.7320948   7.5018704
  72.6587391  25.3631234  71.9937849  71.7217064  25.1900220  72.0845604
  72.9489565  25.5810547  72.8795099  86.9839191  18.9634538  74.1004848
  86.1532974  18.9457321  74.5758724  87.3353672  18.0786133  74.1993189
  44.6687746   8.1192589   9.0584910  45.2042198   7.7660000   9.7689420
  43.8031483   8.2407129   9.4485801  16.9201946   3.4198678  56.4881468
  17.5254893   3.4968126  55.7506323  17.3885417   2.8829539  57.1273708
  -0.2021491  12.8632212  43.1042528   0.4126466  13.3328724  42.5406265
   0.2862085  12.7054286  43.9122343  81.4371967  26.7206097  40.4024076
  81.0555840  26.9830680  41.2400913  82.0558453  26.0259724  40.6281948
  57.2531080  36.0681057  59.7920561  56.6779423  36.8126273  59.6156931
  57.5615120  35.7938457  58.9284039  35.0328851  53.1558800   9.0940559
  34.6194696  53.9840984   9.3377125  34.8505354  53.0631399   8.1589729
  71.6346264  23.2963490  49.0598774  71.5685129  24.0216708  49.6809769
  72.1552944  23.6466599  48.3370876  87.6775551  38.4309053  54.6210432
  88.3316803  38.7730742  54.0117264  88.0292892  37.5855780  54.9002028
  85.4746723  33.0863023  39.0398026  84.8737526  32.6184702  39.6196842
  84.9934292  33.1747818  38.2171202  26.0713506  71.4754915  14.7825992
  26.9629073  71.7992115  14.6539044  25.6541991  72.1360302  15.3356814
  80.2170372  13.5585523  60.2535915  79.7090054  12.7493751  60.1955462
  79.9985361  13.9173579  61.1136818  21.7673969  34.3418121  68.7817907
  21.0739493  33.7394476  68.5124922  22.2530532  33.8630414  69.4534636
  72.1062517   6.6842121  34.4302678  71.2947416   7.0435905  34.0717530
  72.1013975   6.9520611  35.3492141  63.2524300  71.6993189  57.1741962
  63.2324696  71.3341951  56.2895966  64.1512442  72.0092297  57.2851706
  82.6537323  31.0108590   7.3965728  82.0332527  31.7124319   7.1990144
  82.5572968  30.8637333   8.3374691  69.6631384  28.3509707  47.7536297
  69.3461800  29.2523313  47.6960135  68.8699436  27.8159094  47.7256107
  51.3722801  47.7357531  73.3251190  51.1196661  48.6490154  73.4606504
  50.9156084  47.2558594  74.0160465  13.8906825  52.1711016  68.5688353
  13.0825567  52.2900963  68.0698347  14.2338240  53.0572414  68.6838818
  86.9332981  47.6117373  32.1520591  86.7975521  48.5141563  31.8631816
  86.5740204  47.0770121  31.4440918  66.9398260   6.8370986   4.9207583
  67.7112246   6.6884071   4.3738848  66.9750357   6.1425555   5.5784833
  47.9475212  25.5912089  10.4307830  47.6803255  25.5867219   9.5116425
  47.1295214  25.6922269  10.9175122  71.8883801  33.5179043  48.7789822
  72.4902391  34.1857409  48.4503603  72.3996830  32.7087736  48.7687159
  20.2066660  73.0723047   4.9689293  20.4657865  72.1656895   4.8042145
  20.0980878  73.4525204   4.0972188  10.4105341  41.9708443  25.9055471
  10.3966355  42.6484776  25.2296376   9.5549226  41.5471315  25.8375359
  40.3472757  84.3029499   5.3658837  40.5661154  83.6366177   6.0172963
  41.1645412  84.7822857   5.2296990  33.3954096   0.4945510  39.1148496
  34.0753460   1.1232699  39.3569851  32.8459048   0.4235668  39.8953843
  72.8438807  12.2603464  55.7308674  72.8204250  11.9729435  56.6436005
  73.7692261  12.4339092  55.5581188  26.4731741  26.2581730  62.5511408
  25.7035208  26.7589426  62.2807837  26.8331766  25.9126544  61.7342901
   5.6000751   4.7290432  69.1003990   5.5358368   4.8216242  70.0509405
   4.8356822   4.2061561  68.8584805  39.9040818  19.7371149  51.3590050
  39.5195341  19.9102938  50.4997206  40.1894379  20.5958104  51.6711664
  87.9913807  58.5176897  48.2518005  87.0351315  58.4778738  48.2667065
  88.2670021  57.9145336  48.9420700   2.7302524  59.0857410  70.4537487
   3.3388126  59.4189739  69.7943211   2.5230157  58.1980848  70.1616049
  17.9493988  10.3200889  67.3435211  18.7927067  10.3112507  67.7962732
  18.1627357  10.1047778  66.4355803  83.9909935  63.6032915  74.6119022
  84.4801331  62.8158855  74.3732405  84.5275974  64.3262768  74.2869663
  16.6747773  37.1756172  54.7415113  16.0440803  37.8943038  54.6974277
  17.0340979  37.2262740  55.6272602  20.2468634  61.3026619  12.8624952
  20.8745074  60.5799913  12.8690231  20.6698895  61.9919300  13.3745420
  84.0051174  10.7698786  66.2321711  83.6310577  11.5900922  66.5539837
  84.5732307  11.0334682  65.5082941  84.1553879   4.8625344   3.0134666
  84.7089100   5.0332993   3.7754950  84.6067715   5.2940834   2.2880328
  69.6608114  73.2861328  57.5177145  70.0552082  73.6191225  56.7116117
  69.8878574  73.9368343  58.1819963  66.6853905   2.6456332  42.4634933
  67.0699739   1.7746569  42.5621223  67.3066330   3.1206700  41.9115639
  48.4526157  82.4213791  44.1514301  47.8925705  81.9520473  43.5331154
  48.1288862  83.3219624  44.1318512   0.7116712  44.5647907   7.9769003
  -0.2088152  44.4697189   8.2216686   1.1013139  45.0595617   8.6977398
   6.2761194   8.6460280   8.6491692   6.8308121   9.2403728   9.1544431
   5.3964508   8.7819946   9.0012032   7.8626496  56.5531778   9.6449107
   7.4211144  57.3988152   9.5663470   8.2753521  56.5777588  10.5082202
  30.4693103  81.5064526  49.0257215  29.9408436  80.9458637  49.5937777
  30.6077313  80.9842396  48.2355547  18.8388669  63.1823683  24.3529987
  19.4635427  63.7463570  24.8089910  19.3523765  62.7675104  23.6598682
  18.7793970  48.0187559  46.8656158  19.3733692  48.6021852  46.3933468
  18.2472730  48.6039352  47.4047279  63.3954382  45.8891439  54.0773487
  64.2501831  45.8150864  53.6529064  63.5341597  46.5157604  54.7875166
  24.0234160  55.0668764   8.0903935  24.5889497  55.7117701   8.5152638
  24.6156001  54.5550823   7.5393820  52.2241020  66.4096451  56.1683607
  51.7857170  65.5887938  56.3925266  52.9430962  66.1478901  55.5932331
  40.1404953  80.5240345  46.3443661  39.9677444  81.4585400  46.2299919
  39.9076343  80.1326180  45.5024624  14.0421593  62.8379154   5.4019034
  14.0850723  63.7938356   5.3771460  14.2085266  62.6143312   6.3176346
  60.4795980   0.5514379  37.5691342  60.7296467   0.6852048  38.4833646
  61.2955236   0.3104607  37.1304655  72.9312706  27.4730468  54.0204048
  73.5972500  28.0494237  54.3952274  72.8556204  26.7544413  54.6481943
   7.3804224  10.2499783  69.1570854   8.0169666   9.5417780  69.0596437
   6.5935957   9.8203278  69.4925499  13.9120412  50.7671690  32.0920515
  13.4582448  51.5190554  32.4727917  14.5216632  51.1497355  31.4609957
  14.4515145  62.3156881  19.4184601  14.4079244  62.4968958  20.3573394
  15.2796233  61.8497944  19.3026412  73.2967854  31.0042667  49.0333986
  73.8639116  31.6589332  49.4408417  73.2333040  30.3045082  49.6834278
  80.8347511  44.6397924  47.8802204  80.5373955  43.7376547  47.9983330
  80.0983238  45.1753044  48.1753922  12.4648345  38.9862466  25.7976222
  12.5004864  39.6786356  25.1376534  13.3738327  38.7033939  25.8973622
  72.5783634   3.9673635  36.7937422  72.8221035   3.0750561  37.0399332
  73.3888960   4.3544120  36.4628887  83.7083626  17.0367002   3.8208973
  82.8989315  17.2382545   4.2904079  84.2622471  17.8053164   3.9575338
  88.0493736  25.9539533  37.3805070  88.1871414  26.7478275  36.8637705
  87.1400070  25.7103515  37.2074842  17.7287853  53.1551838  27.9164958
  18.0733395  52.6369667  28.6437941  16.8251252  53.3477545  28.1665897
  84.4064236  31.8848395  44.1937876  84.8606014  31.0879636  43.9200306
  83.7975121  31.5924907  44.8720121  20.1561785  58.4120893   2.1952584
  19.6319771  57.8850031   2.7982700  20.1687288  57.9055166   1.3831869
  10.7732868  81.2578869  70.6007957  11.3090754  81.4251232  71.3761616
  10.1855850  80.5496693  70.8639860  17.4287736  58.4920740   0.6809262
  16.6173220  58.9973640   0.7304924  17.2630823  57.7192974   1.2209275
  17.9449427  21.8328238  60.8903074  17.3588300  21.7303228  61.6401052
  18.6236989  21.1714172  61.0247040  66.0408688  45.1269674  56.9391489
  65.8762407  45.6680870  56.1669302  65.2766848  44.5534706  56.9970798
  14.8054087  66.7510843  20.0262880  14.1565514  67.0686817  19.3983150
  14.2906260  66.4814091  20.7868838  76.3608503  36.2407064  20.3872705
  76.3670063  36.2320709  21.3444114  75.6653214  36.8569875  20.1577759
   2.7889034  30.3595328  43.6341238   2.3546360  30.2411056  42.7893639
   2.7358755  31.3006091  43.8008451  23.2821369  63.0392742   0.4763602
  22.4730730  62.7874374   0.9215882  23.7172079  63.6332607   1.0880178
  18.2361472  67.9791212   4.6363023  17.8331733  67.2263575   4.2036444
  18.5860634  68.5083246   3.9195484   1.5841009  48.4890079   6.2220144
   1.0443427  47.9469919   5.6465924   1.0257711  48.6636734   6.9796365
  54.9750757  36.1782908  63.1434298  55.6914663  36.1283588  62.5105667
  54.8575687  37.1154690  63.2987356  89.5320129  27.0846725  26.7128825
  88.8371563  27.4164939  27.2814846  89.1379452  27.0628810  25.8408332
  74.9827623  21.2747407  40.4468298  75.5536461  20.5064940  40.4357815
  75.5459166  21.9956923  40.1652002  72.6435328  85.2428436   1.9124958
  71.8539810  85.2132416   2.4528307  72.3811960  84.8436642   1.0829978
   5.5277795  23.1354928  19.6211159   5.2376801  23.1688404  18.7095451
   4.7843790  23.4719396  20.1215053  15.4917729  10.1880872  -0.1681891
  16.2728286  10.7148588   0.0012065  15.2997971   9.7679228   0.6701659
  68.5740137  19.3928337  25.8253956  68.0034828  19.6321034  26.5557885
  68.0323219  19.5203793  25.0465918  65.2042627  51.1006308  16.8004632
  64.5909166  50.3726053  16.7003751  64.8024893  51.6629744  17.4627197
  67.3689413  43.4412432  60.2036476  67.4442053  43.1353283  61.1075211
  68.1713295  43.9407253  60.0522423  12.3652673   2.8534749  10.2551091
  11.9037735   2.1921261   9.7394800  12.8153288   3.3929452   9.6049941
  89.5291328  75.3186607  40.7508564  90.0734615  75.0800419  41.5011930
  90.1546764  75.5720711  40.0721025  84.9293709  14.8973155  30.1762843
  84.4400120  15.6195843  30.5700970  85.8483028  15.1337838  30.3023124
  62.6915169  61.0464811  22.4080467  63.1549501  61.3121510  21.6137671
  63.3405018  60.5541039  22.9106569  88.1022358  77.0956898  21.5940332
  87.4068928  76.8880224  20.9698486  87.8740311  76.6000128  22.3804545
  66.8670654  16.2639022  17.3381054  67.4368477  16.8380618  16.8263221
  66.4431381  16.8467712  17.9680109   7.6613539  15.3397608  24.8888755
   7.6810247  16.2713981  25.1077271   7.3630029  14.9114919  25.6912518
  21.7757869  18.3653843   4.9776819  21.9765830  17.5798225   4.4689530
  21.8027377  18.0739272   5.8890319  12.3649335  23.7537837  36.7187262
  12.2536135  22.8145742  36.8661118  12.3463106  24.1376591  37.5953817
  43.8530350   0.6184771  12.0954859  44.2500448   0.9445290  12.9031384
  44.2622662   1.1356036  11.4016974  25.9503865  57.8453922  72.4097061
  25.2263451  58.4045935  72.1281195  26.7083693  58.4294081  72.4346590
  36.0263491  12.9804850  68.3721066  36.6943812  12.3495197  68.1040621
  36.3166356  13.2860875  69.2315102  25.4469061  40.3982401   7.5846124
  25.8300757  41.1368275   7.1114266  24.7856522  40.7944345   8.1520677
  65.5362701  55.9413671  26.5606499  66.1691332  55.2386141  26.7084718
  66.0483122  56.6447735  26.1615682  68.9440155   0.6329571   1.2049484
  68.3601141  -0.1238136   1.1540279  69.3031549   0.5991452   2.0915753
  78.8541651  62.6633167  52.1226072  78.3600521  63.2360649  52.7091599
  78.6051035  62.9484892  51.2434721  70.6329536  81.0628510   6.0028791
  70.9258223  80.3003693   5.5037969  71.4114809  81.3503933   6.4797926
  71.8169451   7.1277392   3.8499209  72.3952961   7.8739411   4.0077940
  71.9753981   6.8910295   2.9360870  71.8084431  56.5775967  69.2894077
  72.4851513  55.9163952  69.4346905  71.7787743  56.6850758  68.3387232
   4.6505097  38.9798045  43.3611441   3.9799365  38.6450768  42.7657270
   4.7011077  38.3248830  44.0573835  64.4407034  79.8836756  20.8258748
  65.2191544  80.1832771  20.3563190  64.3441963  78.9666462  20.5690217
  78.2951069  59.6814251  10.1505578  78.8618803  60.4526091  10.1671731
  78.4166241  59.2763329  11.0092592   1.1678944  77.7226734  45.7710552
   1.3695253  76.9221878  46.2556219   0.2143883  77.7948856  45.8139849
  85.2567482  16.9497120  21.3666105  85.6134319  17.5108480  20.6780386
  85.9261131  16.9552648  22.0508242  23.5190129   3.9176086  17.3410118
  24.2095137   3.6281601  17.9373860  23.8646793   4.7173131  16.9445014
  58.0773306  12.3206925  18.8621485  58.4280634  11.4538467  18.6577046
  58.8356924  12.8208888  19.1636884  27.1536851   9.8676729  32.4950647
  27.3702359  10.3532100  31.6990805  26.2010312   9.7781366  32.4692988
  20.2812099   8.0474371   5.0387466  20.9969711   8.6535227   5.2299994
  20.1399183   8.1335342   4.0959552  58.8299179   0.5457770  23.4824681
  59.7602940   0.7661207  23.4368086  58.8113022  -0.4109157  23.5074592
   3.5507333  44.1891766  10.0565898   2.7641255  43.6803055   9.8603004
   4.0207520  43.6634779  10.7038593  12.0111287  34.1618872   0.9692986
  12.5675690  34.4825673   0.2595314  12.6010478  34.0824795   1.7189130
  61.0271692  76.2803507  50.0388336  60.7404518  77.1854448  49.9170542
  60.9856462  76.1412001  50.9849548  84.7605324  22.8133631  39.3081951
  85.6896973  23.0366850  39.2532182  84.4542503  22.8379631  38.4016562
  78.2981396  26.4822555  59.6667910  78.8629198  26.1111999  60.3447056
  78.3989811  27.4292612  59.7629404  88.5998440  80.4205227  72.4113703
  88.8298607  81.1916447  71.8930101  88.1556034  80.7738304  73.1821203
  77.8064966  68.7647486  30.3619957  77.7843761  68.0261421  30.9704375
  78.5865021  68.6123276  29.8285270  84.6868515  76.2606907  52.1562433
  84.8181534  75.9619808  51.2563753  85.1208115  77.1131420  52.1913719
   1.2088536  14.6642816   9.6118915   1.0780259  14.4651163   8.6848265
   2.1542646  14.7855985   9.6997094  85.0105762  32.2118139  60.1223469
  85.3054714  31.4325333  60.5935144  84.2040539  32.4704313  60.5682898
   0.1675367  42.8948069  26.4841986  -0.1917253  42.6993036  27.3496127
   0.1866850  43.8509369  26.4432263  51.3521004  77.6593876  32.4974227
  50.9434938  77.8246880  33.3471012  51.3614368  78.5137415  32.0658827
   6.0836136  24.8172569  43.4353304   6.3007283  25.7493114  43.4161854
   6.4845717  24.4944620  44.2423391  30.5417156  16.5425003  31.3966894
  29.8258448  17.1536446  31.5706444  31.1902142  16.7341626  32.0741439
  79.1643333  27.5300908   7.1735471  78.5462332  27.7916861   7.8560078
  79.4740677  28.3558941   6.8016016  62.4967623  77.1896648  15.0634742
  62.0581341  77.1929026  14.2126930  63.2938385  76.6794348  14.9200606
  79.2727184  65.3509712  72.6617718  79.8981953  64.6608305  72.4410486
  78.4735680  65.1084852  72.1940184  67.1517515  51.3204050  70.2001762
  66.5573311  50.6153631  70.4567099  67.9020023  51.2266254  70.7871675
  67.4386740  68.1205845  71.5174007  67.3897123  67.8403473  70.6034517
  66.7487240  68.7784529  71.6034889  15.0330937  48.1955957  32.0947909
  15.1722002  48.0232096  31.1635733  14.7311425  49.1033173  32.1278453
   3.7428531  69.0982246  72.7455091   4.1134414  69.2890596  73.6071825
   4.2293906  69.6630478  72.1451044  57.2253513  81.0238457  31.1907458
  58.0834627  80.6064129  31.2657380  57.3814535  81.9371319  31.4310908
  15.6295037  17.2829998  27.9344010  14.9814057  16.6376996  27.6519322
  15.2424097  18.1277001  27.7044630  88.6411667   6.4907938  27.4903154
  89.5443535   6.2015712  27.3605728  88.6039352   6.7547852  28.4096384
  36.6786075  82.6472664   8.3858627  37.4531245  82.4148846   8.8980699
  37.0261192  82.9212761   7.5371063  76.5588999   4.1439918   5.9458864
  77.0279121   4.9184492   6.2564951  76.6757965   4.1581574   4.9959567
  72.8213310  59.3554449  68.1690264  73.3131647  60.1708412  68.0717325
  72.1545315  59.3946791  67.4834108  11.6000175   3.9646399  12.4900723
  12.2202480   3.8303331  11.7734766  10.7457960   3.7620810  12.1086180
  65.7376099  53.5519314  71.3032913  66.2263823  52.8649616  70.8500767
  66.4108181  54.0888834  71.7212772  14.1903269  60.1606607  55.7581615
  14.9853158  59.6478319  55.6124496  13.7795091  59.7540712  56.5211487
  56.5998793  51.1496687  12.4008250  56.8215656  50.6207848  13.1672215
  56.3659286  52.0055342  12.7599847  36.9632816   7.1866536  71.9195557
  36.1945629   6.7421597  72.2769403  37.5939131   7.1907747  72.6396370
  75.9906769  81.1331844   4.3523353  76.3035917  80.9460640   5.2373785
  75.0387335  81.1814594   4.4400722  85.6697559  63.0782747  45.6817961
  85.7540417  63.7324905  44.9881601  85.5315304  62.2529411  45.2170897
  73.6432219  70.6527996  13.8651288  73.4597063  70.5093956  12.9366958
  74.4784355  71.1203098  13.8747585   3.5163465   9.6834821  25.6987429
   3.4210733   9.3643248  26.5961242   4.3499199  10.1539993  25.6991053
  90.9699439  11.2524652   7.8265989  91.8342410  11.2190783   8.2366079
  90.8530962  10.3833187   7.4429798  15.0881350  11.7656898   6.8600190
  14.6257019  12.2050345   7.5737154  15.9358370  12.2080398   6.8157429
   8.7286568  25.0674391  66.7634583   7.8562981  25.2018499  66.3931084
   9.0616274  25.9512854  66.9189548  79.8684835   2.2040869  20.3139472
  80.0923443   1.3448328  20.6714392  78.9790201   2.3692815  20.6266785
  89.7204971  43.0145836   1.9427654  89.3623543  42.8443670   2.8139645
  88.9617729  42.9771614   1.3603878  64.3922234  76.3818789   3.9082101
  64.9468946  76.2743521   4.6808740  63.7862539  77.0842457   4.1442460
  37.8359222  53.9602852  21.7279720  38.2137060  54.6805620  21.2232780
  36.9118452  53.9518547  21.4784884  51.1929035  34.9285388  25.0638008
  50.9808207  33.9998674  25.1577377  52.1459389  34.9659562  25.1448107
  60.5150127  76.8541813  35.0563002  60.2930832  76.8127108  35.9864926
  59.8593998  77.4411154  34.6795821  26.7462826  48.5831881  73.9780903
  27.3917079  49.2900229  73.9849377  27.2511816  47.7999258  73.7594414
  11.6619015  34.4385362  38.7632465  10.9725964  34.9796867  39.1482735
  11.5396452  33.5763741  39.1606903  24.7355103  17.3678350  42.0685959
  24.7495270  16.4137316  41.9929647  24.1526127  17.5409591  42.8078461
  38.3307123  11.5694427  24.6402192  38.2356858  10.8619022  25.2778625
  38.9976048  11.2541687  24.0302300  21.8131089  47.1736002  27.0625091
  21.9245505  46.2413168  26.8763375  21.6438127  47.2112942  28.0038643
  75.9531832  53.6204243  43.8620615  75.0211620  53.5700846  43.6498451
  75.9813118  54.0501642  44.7169065   7.7058297  41.2627697  25.9124017
   7.5344235  40.8164740  26.7416620   7.5401318  40.5980062  25.2439237
  69.4306993  34.1491413  10.5174303  70.0667381  33.4659076  10.3055906
  68.6680555  33.9422154   9.9772537  32.6419091  77.6503038  73.6472082
  33.0812240  76.9694805  73.1375933  32.2272158  78.2105303  72.9911566
  68.3046913  40.9011364  16.9404972  69.1282415  41.3757706  17.0532882
  68.2344389  40.7645273  15.9957039  46.8414593  10.5945957  34.0092540
  47.1075773  11.4861524  34.2340684  46.0138845  10.4674935  34.4731426
   8.2083482  41.1301947  65.7118654   7.8297544  41.6421556  66.4265633
   9.1076708  41.4497042  65.6386089  68.3777380  23.5191560  21.1755657
  68.6695957  23.7107134  20.2842975  69.1471386  23.6848593  21.7203569
  67.2972393  30.7058287  35.4359579  67.7544308  31.5426135  35.3523064
  66.3686419  30.9365964  35.4098248  15.7700312  16.3004482  21.9136763
  14.9055076  16.1283767  21.5405512  15.6218076  16.3277960  22.8589344
   5.8105421  65.4891872  51.1528492   5.9483939  64.7223711  50.5967665
   6.5889943  66.0286474  51.0142040  86.4853764  27.1967363   8.9937490
  86.7752743  27.6529312   8.2037640  87.1999931  27.3215103   9.6182477
  80.5647850  54.4893408  73.5672474  80.1082611  55.3306437  73.5719872
  79.9059916  53.8577175  73.8558149  14.6668744  18.4614182  33.2120728
  15.0535047  18.2958543  32.3522258  14.5494175  19.4108784  33.2430696
  88.7049770  84.0843105  73.4153986  89.4222355  83.6548710  73.8816118
  88.9348030  85.0134563  73.4259319  62.6530981  77.6480675  33.8210559
  62.8779221  78.4045601  34.3627238  61.8754625  77.2773600  34.2382908
  67.8821325  36.5140295  25.0488067  67.1099281  37.0772362  24.9965882
  68.0894136  36.4777446  25.9825897  38.5889244  39.4313669  15.2432501
  39.5193529  39.4012856  15.0204766  38.2127237  38.6685514  14.8041379
  88.7969780  36.8208003   1.5687926  88.3368969  37.1078610   0.7800252
  89.7046280  37.0902324   1.4280809  34.0567803  70.6976700  21.3446498
  33.7513161  71.5549374  21.0479641  34.0275025  70.1486349  20.5611086
  86.6747856  75.9268236  24.0242720  85.7988644  75.7845688  23.6654425
  87.1300220  75.0971031  23.8808727  38.4885621  81.1335754  52.0052242
  38.9923120  81.4579201  51.2587214  38.5759830  81.8179703  52.6686907
  80.4743481  19.1122472  59.6330214  79.8160839  19.0402460  58.9418316
  80.3269577  18.3443010  60.1850748  30.8265972  51.4714384  17.6976860
  31.4592171  50.8317137  18.0244422  30.9556699  52.2407770  18.2523859
  16.2943637  30.0127053  47.8275013  15.6823611  30.2217698  48.5331774
  15.7435238  29.6564436  47.1304464  19.9852085  57.5346804  72.6602602
  20.0323367  58.3252573  73.1978512  20.6482816  56.9526863  73.0315399
  16.5859163  15.9361541  54.5770073  15.9525836  16.3956273  54.0256405
  17.4392653  16.2096012  54.2404795  50.3514767  51.3498592  64.0132570
  49.8348141  51.0481310  64.7604227  49.7782707  51.2202406  63.2577038
  87.1879578  36.1879516  14.7059917  87.0288467  36.7791915  13.9702249
  87.2145557  35.3162813  14.3113852   3.7793624   5.2425885  26.5852046
   3.7140495   6.1797327  26.7688513   3.3717072   4.8212615  27.3418641
  52.1101427   6.9799912   1.2125646  51.9675350   6.2673324   1.8354708
  51.4738607   7.6492411   1.4645237  11.3927484  27.3516774  17.5487411
  11.4836764  27.8286004  18.3736706  12.2924602  27.1767712  17.2727752
  86.0600471  33.6760068  42.9611874  86.9593430  33.3530688  43.0177879
  85.5329609  32.9899120  43.3706903  45.2629089   7.9024804  22.8848910
  44.3095922   7.9403019  22.8074718  45.4365301   8.1006992  23.8051057
  19.5277143  32.3926067   9.9622536  18.7853062  32.5956345   9.3931824
  19.6624506  33.1902695  10.4739285   0.7349335  75.7374096  31.9604993
   1.2758689  75.4599237  31.2211585  -0.1192464  75.9294510  31.5735531
  73.2023335  30.5919814  72.0963383  74.0532303  30.1634526  72.1889210
  73.0137205  30.9406900  72.9675770  16.4765692   6.7370927   8.3719075
  15.8295238   6.3375926   7.7905607  16.9671786   7.3357880   7.8087926
  13.5592997   1.1903451  21.7984748  12.6880944   0.8030751  21.8836546
  13.5147548   1.7053550  20.9928632  42.7498293  43.3764219  10.1588130
  42.1985912  43.6527824   9.4266939  42.3869038  42.5321150  10.4265094
  27.5376940  16.9616652  46.3607216  28.1110001  17.6669085  46.6610289
  27.7899027  16.8201041  45.4482603  45.6904268   2.0761383  16.6153061
  46.0968256   1.2143642  16.7070580  45.0832033   1.9777347  15.8819401
   1.1701152  20.7780862  18.6537552   0.6372023  20.2852988  19.2777717
   2.0488495  20.4099345  18.7460732  79.5738745  66.7573547  61.0397387
  78.8209343  66.1690092  61.0959721  79.8928261  66.6531610  60.1432753
   9.5481342  12.8352714  52.3780537   9.7505695  13.6374772  51.8966818
   9.8375690  13.0133986  53.2728863  72.4941730  83.0511951  30.6105876
  71.9280434  82.5056839  30.0645661  71.9576550  83.2639122  31.3742161
   8.6188245  79.4954109   9.0779597   8.2627624  78.9762545   9.7990209
   9.0705818  80.2223873   9.5065045  31.5443349  17.1770799  17.3157012
  30.6833339  17.4230647  17.6539290  31.4020586  16.3311970  16.8908799
   3.3865491   8.5093176  28.0712843   3.8137221   7.9698735  28.7366819
   2.4507323   8.3611614  28.2074022  40.3926277   7.8949511  35.9038568
  40.8278036   8.5917431  36.3951182  39.4820213   8.1821489  35.8364677
   7.1879417   5.5317444  11.8790448   7.5876862   6.3264465  12.2324359
   6.2665755   5.7608575  11.7572927  29.3126154   1.4638214  31.7378068
  29.8831034   1.4811119  30.9693813  29.7935557   1.9545068  32.4042559
  68.0752134  20.0273037  15.6130731  68.0225468  19.0731680  15.5575550
  68.5745430  20.2851105  14.8381960  85.2384663   4.4811285  33.8368487
  84.5077705   5.0566286  34.0629292  84.9069118   3.5979939  33.9992642
   7.4787748  84.8857403  39.5182824   6.7330366  85.0246143  38.9344835
   7.1721655  84.2326069  40.1472759  25.7342529  17.5275779  26.9744682
  26.5982723  17.1600497  27.1605468  25.6357861  17.4398732  26.0263944
  86.4417744  65.3753662  24.9214196  85.7112312  64.7587013  24.9689341
  86.4668846  65.6467009  24.0038252  25.2874112   5.3454018  45.5270910
  25.0121117   6.0179782  44.9041271  25.9156823   5.7892972  46.0967112
  19.8441231  45.0859594   7.3549366  20.1500988  45.8810043   6.9184572
  19.0295243  44.8636055   6.9041371  17.3625827  34.9585271   5.5008590
  17.5319779  35.1253486   4.5736551  17.7949333  35.6804943   5.9570038
  13.9675701   8.8380027  19.7329450  14.7065723   8.5990787  20.2924299
  13.1980324   8.5150445  20.2017093   0.6133951  69.3632317  21.1766744
   1.5533842  69.4100094  21.0021091   0.3840650  70.2382898  21.4895797
  49.0152979  84.1783142   0.6605137  48.3489609  84.8085117   0.3865212
  49.6874619  84.7103786   1.0863578  13.4822452   6.2070906  70.2803230
  13.3904064   6.8379134  69.5662737  12.6427174   5.7478750  70.3036785
  81.9651890  -0.0658568  18.9039969  82.4878788   0.7314025  18.9900100
  82.0020008  -0.4710335  19.7704303  48.0641747  49.1908550  70.7183981
  47.4170303  49.3694973  70.0361061  47.5675964  48.7558413  71.4115095
  28.5457420   2.1193506   2.2239125  29.0646744   2.8158498   2.6261926
  27.7545857   2.0697722   2.7604243  81.7028046   5.0624090  60.9338522
  82.0255375   5.1947498  60.0424719  81.1324692   5.8138239  61.0961151
  36.8660617  74.6643448   9.3098778  37.4043822  74.1410542   9.9036926
  36.3612366  74.0200281   8.8136518  86.2522221  58.1899881  15.8366978
  85.7026768  57.8072214  15.1527953  86.7791367  58.8465023  15.3810859
  85.0286293  10.3855562   4.0538162  84.2548752   9.8466808   3.8890675
  84.9965572  11.0634303   3.3787680  47.7189350  12.3759639  59.1907549
  46.8412161  12.6643944  59.4410467  48.0226183  13.0412030  58.5731220
   0.5523604  82.8792667   5.1664180   0.3824406  82.0333385   5.5808711
   1.1042587  83.3466434   5.7934719  45.5027390  54.0063953  28.7044239
  44.5930338  53.7601709  28.8718700  45.5056858  54.3090725  27.7963424
  68.3156967  26.7035055  65.9282780  68.3467388  26.3870358  65.0254440
  68.5605383  27.6268291  65.8669806  42.3216343  11.6044664  72.0247030
  42.6378298  11.7513800  72.9161453  42.9663849  11.0131490  71.6362810
  53.0060244  51.7044830   0.9517100  53.3342600  51.4286804   0.0958929
  52.7883863  50.8869982   1.3995764  76.1381960  41.3718605   4.9977964
  76.1849499  42.0576763   4.3316877  75.7985306  40.6079578   4.5316303
  27.3458171  10.2156579  68.0210733  27.2595668  10.6038475  67.1503830
  26.8331838   9.4085962  67.9753399  47.8328705  78.9666653  15.9453154
  47.2667408  78.7360811  15.2087271  47.8506660  79.9236965  15.9432960
  86.1151981  57.9762936  36.5189743  87.0205593  58.0129099  36.2104011
  86.0905170  57.2154236  37.0992351  24.7549891  16.4783883  46.5900373
  25.6273460  16.7432237  46.2983418  24.7878957  16.5546346  47.5436306
   8.5988456  84.4950199  67.6443863   8.2419217  85.0499821  68.3378220
   9.4422561  84.1977882  67.9857683  13.1517947   0.9277420  59.7593069
  13.1285596   1.3388492  58.8952017  13.5653269   0.0776539  59.6090651
  36.1092043  36.8120861  59.2006779  36.6393447  36.2246227  59.7392559
  35.8630466  37.5228906  59.7926235  80.5147171  21.1677003  56.3841915
  80.0646687  20.9159040  55.5777931  81.4359379  20.9691453  56.2163544
  43.7237835  22.1014047  54.8122501  43.4785986  22.3485684  55.7038927
  43.4826517  21.1775255  54.7449207  66.8606281   2.6967269   3.4537867
  67.5870848   2.9567462   4.0202492  66.0819578   3.0458236   3.8874212
  79.3398809  22.6421690  26.2985182  79.2248297  22.6994991  25.3499889
  78.4490824  22.5922942  26.6452551  48.8325119  65.7039309  19.3334758
  48.6878538  64.7807026  19.1262090  49.1853762  66.0781956  18.5262299
  59.4895220  18.5114443   7.4988288  60.2845001  18.5798120   8.0275744
  59.2793226  19.4153738   7.2643930  87.9691124  84.6119118  23.2473111
  88.7360954  84.1769695  22.8747535  87.7008247  85.2402115  22.5768590
   5.1222950   6.1364204  42.7597857   5.3241384   5.3868455  43.3198118
   4.9430004   6.8507725  43.3711672  10.0703061  11.7817247  67.5253916
  10.3389668  12.3188424  68.2707500   9.1662002  12.0451617  67.3538542
  52.2419500  61.0344982   6.9379544  51.2932062  61.1519670   6.8897843
  52.4488497  61.1348820   7.8671193  49.7899199  71.2396336  29.9469995
  50.5245781  71.3634062  29.3460131  49.0216827  71.1866570  29.3784571
  66.2632704  76.3089228  25.7489777  66.6998529  77.0908880  25.4111075
  66.9280052  75.6221533  25.6970072  53.4899712  26.7819834  63.7653303
  53.2723761  26.5150952  64.6584463  53.4458637  27.7379918  63.7835693
   0.1483251  10.0864863  11.8177187  -0.1180100  10.2829564  12.7158821
   1.0892340   9.9211627  11.8776381  41.4771271  79.3499041  37.7096343
  42.3925972  79.3720341  37.9883075  41.3194609  78.4347439  37.4775696
  68.7986851  72.5265503   4.6226832  69.3897533  71.9101334   4.1903621
  69.2975855  73.3419371   4.6724689  30.1678228  43.8228703  32.4216247
  30.1108861  44.3380213  33.2263660  29.2594719  43.6068392  32.2107625
  34.3123531  47.9630327  22.2317505  34.9254227  47.7064610  21.5428758
  34.8579264  48.3943224  22.8894544  39.4529176  59.9455738   6.7079014
  39.0543079  60.7499504   6.3757658  39.6228147  59.4215298   5.9251189
  60.7598066  76.8076611  21.1032748  61.6307259  77.1166849  21.3527489
  60.1716232  77.2050428  21.7454219  46.0779715  64.4807148  11.7556643
  46.7775726  65.0694942  11.4725876  45.9259081  63.9098978  11.0024869
  22.6963353  20.7110691  12.4302340  23.0777597  21.5716052  12.2563827
  22.6500654  20.2915931  11.5710890  16.0095942   2.6802692  25.3987241
  15.9054780   1.7309915  25.4640174  15.4877448   3.0287343  26.1215496
  64.8191929  82.1830654  40.6155825  64.9898195  81.3450241  41.0454750
  63.9507103  82.0802212  40.2264977  35.6488204   2.4784487  39.7794485
  35.9647608   3.3819330  39.7680736  36.1462951   2.0595780  40.4818010
  20.5922246  49.8761463  74.5018435  21.2593794  50.5358982  74.6912241
  20.8153009  49.5537281  73.6286211  75.4307890  38.0731845  30.3578305
  74.6756744  37.7930117  29.8405910  75.0502062  38.4871936  31.1324191
   5.0588423  68.6591721   7.5001210   5.8145517  68.1019354   7.3140454
   5.1993531  68.9615393   8.3973742  34.8962617  10.7950962  25.4607677
  35.5381083  10.5158460  26.1136723  35.2247763  11.6376412  25.1470351
  72.3540640  59.8115921  53.1496286  72.4885178  58.8646507  53.1878185
  73.1917381  60.1837587  53.4253645  14.8262012  72.7393055  21.1853647
  14.0621960  72.9790688  21.7098093  15.3566408  72.1968269  21.7689610
  41.5341663  80.4081059  14.6814537  41.2895870  79.6824312  15.2557445
  42.4913454  80.4062939  14.6876097  86.7182064  25.0377822   1.5775540
  85.8792019  25.0666738   1.1176962  87.2696781  24.4745183   1.0345592
  89.4368649  57.7531719  15.8918977  88.9540100  57.9043818  16.7044353
  89.9228096  58.5650921  15.7474184  51.6000748  54.5594358  16.0942233
  50.8679199  53.9503288  16.1899674  51.4993572  55.1714849  16.8232512
  85.5518913  70.9055948  16.4157248  85.0664616  70.7154131  15.6129646
  85.9904385  71.7378569  16.2389565  41.9375753  55.0274515  16.2152696
  42.2473049  55.8723450  16.5415466  41.0908031  54.9011993  16.6433632
  76.3037968  46.4951181  73.1668949  76.2863731  46.0177660  72.3373985
  76.7818499  47.3006105  72.9696941  87.3419380  71.5801477  12.0378017
  86.9032764  72.3523521  12.3948872  87.9184532  71.2848616  12.7425480
   1.0785250  77.1208763   2.9297936   0.2549348  76.6518164   2.7959469
   1.1916814  77.6384449   2.1325803  43.0989265  10.2941513  58.9470720
  43.9477110  10.6397057  58.6706924  43.1701899   9.3489724  58.8136911
  80.7712460  44.3789768   5.9201831  80.6477547  45.2308035   5.5014074
  80.0217915  44.2906952   6.5090477  21.5852118  11.6209185  57.3550320
  21.5639997  12.3530030  57.9713392  21.7762971  10.8561587  57.8980398
  35.6646729  18.0301523  70.1931620  35.0346899  17.8437078  70.8892870
  35.5677772  17.3008621  69.5808077  31.1605024  49.0653086  73.6074543
  30.7369113  49.4774342  74.3604183  30.4636598  48.9820480  72.9565287
  27.0740843  50.3218031  70.3537035  27.3434472  50.8599615  69.6093512
  26.1556339  50.1154852  70.1801729  63.7558746  78.0993986  12.1436357
  63.8957214  79.0452766  12.0990288  64.4483757  77.7819633  12.7232122
  34.6871114  55.3866816  14.4286335  34.4219184  55.9250546  15.1743269
  33.9827228  55.4981947  13.7901735  23.5580587  70.1099205  41.6447592
  22.6914644  70.4753542  41.4666986  24.0077138  70.1373482  40.8001947
  64.6904802  18.9159763  49.0317583  64.3964386  18.0196261  49.1940308
  64.8884535  18.9373100  48.0955029  80.8508968   4.7747892  35.7064199
  80.1704025   5.1363111  35.1385593  80.4368973   4.0207115  36.1261845
  34.3167830  30.4087758  69.9634695  34.1959310  30.3529930  70.9113693
  35.2660871  30.4382491  69.8443699  48.0842543  72.0942545  20.4236102
  48.2507563  72.6570511  21.1797643  48.6644173  72.4319983  19.7412848
  73.1950235  46.3396025   3.9014596  73.8668728  46.9727135   4.1544849
  72.7764273  46.0921812   4.7259545  43.1873941  83.2236671  16.0820103
  42.3273039  83.4827328  15.7513130  43.0664444  82.3237228  16.3848329
  67.6342773  54.2466497  12.0216215  68.3830976  54.5296144  11.4968085
  67.5616074  54.9069500  12.7107906   7.2990847  19.5566082  17.5306070
   8.1855756  19.3896842  17.8507674   6.7325586  19.0704334  18.1297016
  43.5599422  45.6537676  61.9834614  42.8123522  45.7349968  62.5756979
  43.2130241  45.1885700  61.2222290   6.3835216  75.1431942   1.2737943
   6.2911516  74.7056675   2.1201202   5.5271852  75.5401850   1.1146764
  61.1343765  24.2045879  65.9587955  60.7634306  23.6421132  66.6386843
  60.4565859  24.8601151  65.7941151  59.2108059  64.6206093  18.6061203
  59.3055677  65.4139137  18.0789387  59.9234104  64.0522718  18.3138597
   1.3456567  69.8590469  43.2076454   0.6714495  70.5165768  43.0363750
   2.1721430  70.3294849  43.0988312  80.9378910  74.9319887  30.3882933
  80.2077293  75.0741005  29.7858763  80.9557247  73.9845896  30.5237532
   2.2331747   4.0045416  11.5337837   1.7489901   4.7058213  11.0978889
   1.9429138   3.2046974  11.0953438  55.8341026  42.0699263  72.1688795
  55.7478333  42.4327660  73.0504322  55.1923943  41.3603544  72.1380711
  46.2178612  78.6054659  62.4009752  46.9492960  78.2756853  61.8789768
  46.6091681  78.8339901  63.2441139  57.2731590  15.6145871  18.7337351
  57.5310946  16.4973223  18.9992130  58.0999327  15.1412916  18.6406243
  90.0326729  21.1440635  16.7358303  90.5790997  21.7679644  16.2579215
  90.5259705  20.9562159  17.5343323  74.5456982  48.0862188   1.0059591
  74.3661356  48.9808273   0.7167208  73.7135077  47.7792501   1.3657765
  10.3604722  22.6004624   2.9871646   9.4190103  22.4363899   2.9327482
  10.4291379  23.5258341   3.2221261  20.2248120  61.9031382  61.8952847
  20.1931787  62.8526640  61.7785311  19.8682249  61.7575598  62.7715731
   1.5627444   4.4407099  21.9276810   2.4870671   4.6494612  21.7924690
   1.4985840   3.5044521  21.7391682  32.3325586  19.9671495  38.0870914
  32.0171404  20.7411981  37.6206231  32.1065354  20.1306605  39.0027380
  14.3053138  63.4640169  26.4757752  14.5912504  63.3094645  27.3761010
  14.0601778  64.3891239  26.4577985  55.3638506  77.6639271  14.5103025
  54.4924164  77.4484587  14.1780221  55.4556990  77.1346855  15.3025758
  50.1741028   8.7194896   1.8129921  50.3567076   9.6094829   2.1143222
  49.8626471   8.8299525   0.9146459  49.5458794   0.9789918  21.2704873
  49.2169428   0.6077297  22.0891428  49.9627066   0.2421544  20.8237648
  69.8905420  49.9651766   7.9525781  69.4469452  49.4384289   8.6173999
  69.3785810  50.7726097   7.9058778  78.8134384  78.0636358  15.4858768
  78.2996798  78.1820583  16.2847888  78.8576269  78.9375162  15.0977933
  10.3948379  14.5557737  24.5398068   9.5304924  14.7251916  24.9145532
  10.9897113  14.5795691  25.2893353  58.2954264  77.3335505  69.6745872
  57.8967571  77.5513411  68.8320541  59.0904617  76.8519878  69.4460201
  33.0249715  19.0299618  11.6755211  33.9096522  18.7098515  11.8518698
  32.8289461  19.6098197  12.4114370  26.0708332  65.5915117   0.9270865
  25.8336592  64.9134254   0.2944921  26.6290212  66.1935282   0.4349114
  78.1338930  78.1490517   5.2631724  77.5835323  77.6319075   5.8513033
  78.2851028  78.9680433   5.7349986   4.7416589  76.2336874  64.1507864
   4.6762511  76.9464207  63.5152054   5.6396782  75.9146452  64.0613079
  25.0968289  73.3572531  59.3454552  25.9640503  73.7294388  59.5055580
  24.4931507  74.0860415  59.4892168  10.9959722  76.5274763  74.5192766
  10.7377028  77.4183369  74.2828465  11.3714135  76.1659050  73.7164450
   2.2239473  54.8503447   1.4069124   1.7778121  54.1731215   1.9154036
   1.8298203  55.6708431   1.7030160  21.7731094   5.2936912  40.5127048
  21.9440460   5.1108700  41.4366055  22.1713352   4.5592445  40.0455475
  88.8304901  54.5053673  68.0150795  89.2093945  53.9718199  67.3165226
  88.6748123  55.3575611  67.6079321  75.3737020  60.2898598  22.7019978
  74.7587585  61.0210609  22.6435304  74.8675728  59.5280790  22.4195886
   9.8503077  12.0082235   9.2632437  10.5913043  11.4545810   9.5094883
   9.7735065  11.8980050   8.3155167  82.9330540  58.7505293  12.5932729
  83.7141800  58.2689285  12.8655493  82.5708103  58.2326078  11.8744087
  23.9166999  20.9244204  39.8201585  23.5147095  21.7842007  39.6959996
  24.8577499  21.0892224  39.7610402  80.0144100  14.1094875  11.1342824
  79.5135784  14.5540893  10.4503787  79.9117088  13.1780267  10.9391820
  53.8986588  61.6822290  67.7269363  54.3421507  62.3338652  67.1838713
  54.6074438  61.1537933  68.0938339  80.6085205  19.5434713  29.4612789
  81.3569069  19.4939673  30.0560045  80.4180431  20.4790664  29.3933558
  33.3946490  49.1171885  69.0777731  32.5943947  49.6423292  69.0851688
  33.6712670  49.1150570  68.1614161  63.7873459  70.1465702  34.7612762
  64.3910694  69.4661522  34.4633198  63.3749533  69.7759342  35.5415249
  65.9000444  55.5085659  43.1808329  66.3021040  55.0847054  42.4225950
  64.9596119  55.4682302  43.0070734  74.9531174  17.2764063  22.3093557
  75.4072332  16.4586926  22.1060061  74.7064018  17.1907568  23.2302403
  74.6779060   1.3666491  47.3079300  75.2763510   2.0724818  47.0631838
  74.8111820   1.2552364  48.2492352   6.9839859  69.3042183  71.9448471
   7.3687148  68.7449169  71.2700176   6.2984407  69.7925520  71.4890099
  73.8458252  82.5325584  65.4514551  73.1244040  82.1083069  65.9160042
  74.5164299  82.6660824  66.1212969  19.9920022  12.7885926   4.8025912
  20.9386706  12.8028810   4.6617189  19.6418190  12.3424256   4.0315276
  10.5615926  66.4576149  70.7945251  11.3647461  66.9499302  70.9642315
  10.2164888  66.8340063  69.9849176  86.7990685  65.9274149   1.1370485
  87.2220707  66.6678333   0.7022078  86.9026279  66.1073875   2.0714563
  72.1643448  57.8077269   2.8813353  72.7456570  57.0977354   2.6089066
  72.7144766  58.5906458   2.8563580  81.9158077  58.6140347  31.3687253
  81.4030457  58.0489540  30.7908106  82.3233414  58.0125809  31.9919443
  70.9950590  62.2132730  58.8129282  70.8406258  63.1567240  58.8606644
  71.4781237  62.0906925  57.9957056  33.7651157  30.8561492  72.9265642
  34.6265316  31.2278104  73.1164742  33.6363721  30.1917815  73.6035204
  42.4198961  57.8335381  56.5245628  41.9596720  57.9238272  55.6901312
  43.2712555  57.4643469  56.2898064  69.8564482  70.6631231  57.7850151
  69.9036312  71.6191149  57.7940989  70.0464678  70.4225492  56.8782330
  67.7320719  62.1436691  21.9050050  67.4203396  63.0234194  22.1173477
  68.0544996  62.2141838  21.0065079  67.5376844  15.9069157  64.6707821
  67.3335886  15.1642227  64.1024685  67.2532797  16.6740036  64.1738701
  28.3470464   5.3965855   7.3281407  28.9496446   5.7088822   6.6531771
  28.0055499   4.5722848   6.9815278  68.3674002  82.4359798   6.5675420
  69.1563463  81.9401455   6.3485759  67.8452826  82.4218178   5.7654047
  71.1838007  13.8922453  11.9656408  71.0187006  14.8350847  11.9603717
  72.1169806  13.8135993  12.1636939  19.3338823  14.5941424  26.0893679
  19.2865455  14.8398948  25.1654649  19.0824056  15.3879023  26.5615296
  75.2371788  83.7509727   1.3246091  74.7083998  83.0033970   1.0457724
  74.5970201  84.4146919   1.5813324  53.8197899  79.6939754   9.2256057
  53.9050627  78.9713049   9.8474622  52.9759455  80.0934029   9.4368249
  35.0406981  12.3021638  56.4719009  34.7264838  12.2603738  57.3750925
  35.0206280  13.2340634  56.2542009  10.2215624   5.3772795  30.1921105
  10.6090832   5.0657034  29.3741989   9.2775071   5.2980667  30.0552988
   9.8184878   7.0905662   8.9092290   9.3800545   7.7999187   8.4393066
   9.2112619   6.3529831   8.8502461  80.9393215  11.9470644   9.5584685
  81.3724709  12.4465084  10.2506936  81.5874958  11.8999410   8.8556987
  21.0362434  41.0727119  11.1679649  20.7191753  41.7824936  10.6094742
  20.3804922  40.3819370  11.0728526  44.3999052  67.5374556   1.8687977
  44.9538946  68.0304813   2.4739847  44.4793940  68.0042458   1.0369220
  84.6625805  84.4928837   7.6151597  85.4694271  84.9596596   7.8327769
  84.2594147  85.0201607   6.9254720  21.1445022  21.8564010  70.7799530
  21.2914276  20.9126544  70.8431053  21.1202145  22.1563506  71.6886187
  81.4898014  81.4738846   9.1965437  81.4479542  82.4030685   8.9704716
  82.3799610  81.3471222   9.5248318   1.7763609  24.8788881  12.9677582
   2.6482671  25.0395942  12.6069462   1.4867562  24.0711617  12.5435674
  16.8754649  77.6811504  24.1288948  16.2579083  77.0669699  23.7318659
  17.2116220  77.2197485  24.8972297  46.6643572  52.0407915  67.5276518
  46.2589169  51.4746189  68.1843853  46.3464594  51.7024183  66.6905880
  60.7846832  58.7912035  14.7887719  60.2318668  59.3706560  15.3130400
  60.6125021  57.9163313  15.1368821  41.5313578  83.3768463  19.9968708
  42.2680616  82.8179932  19.7495282  41.9284678  84.2271328  20.1853800
  15.2487695  62.9344273  48.2498407  14.6713400  62.1844053  48.1074381
  16.0050678  62.5704622  48.7100315  68.6610937  77.4175024   8.9619082
  69.5476151  77.4126434   9.3228585  68.7821484  77.2506094   8.0271769
  48.4466743  62.7130890  68.0302286  48.2866716  63.1160975  68.8835859
  49.3843555  62.8336716  67.8804350  53.1372070  60.9572697  19.2830443
  53.3236885  60.8825445  20.2189255  52.9056120  61.8775368  19.1577029
  81.3297176  20.1325607  10.2871835  81.1953545  19.9365103   9.3599600
  82.2687244  20.0077391  10.4247618  62.1559572  74.4443989   5.5184436
  63.1036520  74.3419695   5.4311877  61.9729328  75.3068209   5.1456660
  35.2991199  45.8767319  74.4249773  34.4735646  46.2476015  74.1132927
  35.1520181  44.9309063  74.4247389  81.3598061  12.4393559  39.2346692
  81.5476608  11.8586850  38.4972668  80.4176521  12.5992203  39.1796684
  87.6346588   2.9038563  28.3042240  86.9691277   3.3888090  27.8162551
  87.8324509   3.4604406  29.0574336  72.6670837  23.8676310  23.9884853
  73.2645988  24.6047711  23.8626504  72.6636219  23.7208939  24.9343657
  68.4100533  81.3587666  56.8342066  67.9289198  81.2157631  57.6492500
  67.9786777  80.7881641  56.1981535  35.9218001   4.1705963  10.7930231
  35.4771113   3.3386523  10.6306887  36.7894030   3.9204332  11.1106980
  32.3005939  57.0228338  19.6730757  32.7995539  56.2757587  19.3426967
  31.6689634  57.2144222  18.9798439  75.1503038  60.1915407  11.6634023
  74.8276281  59.5183945  11.0642493  75.0770426  59.7946835  12.5313687
  85.9110260  58.0144453  54.5959187  86.1699772  57.5202370  55.3736925
  86.4036083  57.6113415  53.8810110  17.8200471   6.8568599  13.2607877
  17.7959955   6.7817968  12.3068380  16.8998158   6.8970543  13.5211551
  40.9162235  77.2658920  45.6550312  40.7737207  76.4125872  45.2453947
  40.2130604  77.3423815  46.2999678  53.3584261  42.4427843   1.0793627
  53.0436325  42.9008055   1.8586919  52.9035854  41.6007280   1.0963497
  62.2555447  81.7380333  20.3707099  62.7548456  80.9524155  20.1477194
  61.8658161  82.0173168  19.5422494  15.0634277  11.2094295  41.0738420
  15.4066503  11.5928137  41.8809652  14.6760046  11.9478095  40.6038094
  88.0206394  71.8840694  34.9861312  87.1177292  71.9699001  35.2921081
  88.2054710  72.7153635  34.5490766  72.2577047  74.7291613  28.5518599
  72.7419090  75.0343561  29.3190861  72.9330778  74.4068480  27.9550219
  44.9570179  31.2151480  74.8760796  45.2951860  32.0907855  74.6886396
  44.8560810  30.8081222  74.0156269  78.1426668  79.9590492  13.6034477
  78.2888460  80.7396793  14.1377497  78.8012075  80.0159168  12.9111159
  26.8785453  30.4427862  72.0009375  26.9092369  30.2531242  71.0632181
  27.7513814  30.2138758  72.3202944  24.4895148  27.4079967  69.4552851
  23.7202334  27.8871584  69.1473246  24.4145966  27.4224997  70.4094410
  74.0345192  64.6480846   4.2198741  74.1585636  65.2248859   4.9736261
  73.1325150  64.3382502   4.3012583  19.4798303  64.8813915   9.6435773
  19.5223832  64.0695715  10.1489139  19.6081305  64.6055794   8.7359989
  72.9119825  57.6654387  56.0181808  72.3827124  57.0272064  56.4964724
  73.7782145  57.6085234  56.4214563  67.5348377   4.1420293  30.8414221
  67.4297667   3.3899137  31.4241004  66.6742897   4.5611137  30.8337331
  22.2890902  17.3586690   7.4128443  22.9617023  16.7036951   7.2262096
  21.9631124  17.1261978   8.2822853  24.2959642  11.3788116  54.3489504
  24.4086790  10.7581341  55.0688696  24.8223257  11.0169053  53.6360693
  26.0520577  82.3283863  39.8151994  26.8563247  81.9650936  39.4445205
  25.3524494  81.9636440  39.2732191  88.8931179  31.4918208  20.2975559
  89.2581940  32.1660709  20.8705688  89.5854092  30.8342338  20.2301621
  83.4691906  76.2561750   2.1967238  83.1850338  76.9048166   1.5527090
  84.4178772  76.3716412   2.2504336  77.9682064  76.8420935  36.5790963
  77.8819275  77.3204517  37.4036932  78.9094830  76.6965294  36.4839983
  81.6490364  60.8026552  23.6173344  81.9211197  60.6656027  24.5247579
  81.7904568  59.9557018  23.1943607  77.0597029  38.4519410  70.5792570
  76.4256763  39.1070771  70.2876425  77.0635843  38.5303855  71.5332317
  62.6610327  62.9512930  24.3093586  62.1895599  63.7055206  23.9556885
  62.6381016  62.3029566  23.6055350  86.9243813   4.4972503  20.4626918
  86.1559010   3.9923069  20.1968122  87.6410961   4.1346443  19.9420476
  38.7415814  75.4573441  32.3852563  39.1477537  75.7261419  33.2092714
  39.2523980  75.9034014  31.7097354  55.9429312  74.5177746  25.8690286
  56.2563229  73.7847662  26.3988519  56.6994047  75.0993967  25.7935357
  60.6856728  14.4962871   9.6781403  60.8906460  14.6503580   8.7559259
  61.5022898  14.6862257  10.1399767  29.5937109  74.8946238   2.1597794
  29.3409419  75.7267857   2.5595838  30.0856614  74.4400311   2.8435665
  73.0276585  65.2542925   9.1715652  73.6684465  64.5432472   9.1651124
  72.3419619  64.9642324   8.5699743  79.9967337  39.1931486  66.0677958
  79.0753460  39.0570021  66.2885761  80.2006817  40.0612020  66.4158249
  73.7705040  74.9459648  31.1564064  74.6083498  74.8126364  31.5996528
  73.5466480  75.8589411  31.3369393  81.3381958  84.8426628  24.7715449
  81.6950035  84.4088173  25.5465937  80.3915119  84.7207165  24.8433018
   8.3333308  31.9837356  69.5742464   7.5391841  31.5393758  69.2774153
   8.9825779  31.7912579  68.8977385  36.8616843  14.9161255  16.5599024
  36.6408753  15.5041766  17.2821701  36.2635756  15.1665163  15.8557701
  50.0637531  58.1500053  23.1067562  50.3256607  57.2461319  22.9316950
  49.7476006  58.4752893  22.2638655  56.8994331  82.9955864  20.0249505
  57.3181581  83.6253452  19.4381869  57.1892691  83.2539940  20.8998513
  56.3655615  66.4372492   5.4065013  56.3301229  65.7780457   6.0996276
  55.5308867  66.3465500   4.9468029  78.8344097  26.2656999   1.2718560
  78.0978537  25.6935167   1.0566264  78.6139345  27.1033955   0.8645657
  42.6755142   3.7190816  68.4901190  42.5659466   4.3220389  69.2254210
  43.2887840   3.0582064  68.8116360  18.8074017   0.1485637  11.3768327
  18.4491813  -0.6147364  11.8299139  18.9908850   0.7772036  12.0749569
  53.0195904  84.2931080  11.1976874  53.5706234  83.7755394  11.7848086
  53.1219625  85.1937962  11.5051198  38.4736681  51.8836403  43.4849834
  38.4413075  50.9494114  43.2790661  39.2585373  52.2003937  43.0379105
  63.2899570  80.1377773  56.5753841  62.8541851  79.4835567  56.0291862
  63.9843082  80.4903793  56.0188103  90.5204296  59.4299078   2.4671191
  89.9473381  59.5298100   1.7069730  90.0957489  59.9410200   3.1560642
  70.6928682  36.4496374  72.7438974  70.3870916  36.2696385  73.6329031
  71.6117239  36.6951871  72.8517723  31.0423017   2.3005891  11.6726696
  30.3283739   1.6648978  11.6233277  31.0754061   2.5524268  12.5955522
  51.9379711   1.7535903  12.0404160  52.7581882   1.9757149  12.4810255
  51.2717390   1.8258141  12.7239013  88.5587788  19.3190646   9.7161406
  87.6296043  19.5181632   9.6011460  88.7238979  18.5916781   9.1162431
   4.3734145  14.4706726   9.6747303   4.9302116  14.5776772  10.4459369
   4.5645195  15.2364933   9.1332233   0.3456122  46.7207575  37.7161598
   0.1374986  46.2417698  36.9139791   0.8129774  46.0862970  38.2595420
  61.2019920  78.6555862  63.1711578  61.3224363  79.0515566  62.3080683
  61.6382980  79.2577076  63.7739182  80.5984402  70.1848030   0.8304832
  81.4725208  70.4736710   0.5682565  80.4510975  69.3824339   0.3297585
  58.1535578  25.7634211  68.7818718  58.6998224  25.0632715  69.1391087
  58.6755276  26.5573382  68.8979483  61.5992546  68.1622601  45.3553295
  61.9317913  67.2703552  45.2545452  61.4090681  68.4493208  44.4622135
  41.9437933  66.9220638  54.8842049  42.2669649  67.2634697  55.7180119
  41.0126925  66.7603731  55.0363398  31.2665176   6.2496561  23.5480976
  31.7043233   6.8880850  24.1110945  30.5075359   6.7178023  23.2002234
  91.1726939  64.9478137   0.5650640  91.8267571  64.9775492  -0.1331877
  90.4604947  65.5043422   0.2499700  79.9453306  67.5993919  24.9916267
  79.1240644  67.3658848  25.4243255  79.7938681  68.4805775  24.6498537
  74.5518732  22.5620532  18.2112694  73.6526394  22.8763580  18.3052135
  74.9675655  23.1964660  17.6273584  14.1934383   4.2965022   8.4140462
  13.8344789   4.3651927   7.5293648  15.1244926   4.1181245   8.2815659
  57.3427248  81.6727352  16.9166040  56.9627333  81.6589451  17.7950394
  57.2384691  82.5783634  16.6247320  26.4358521  76.1341715   2.2697662
  27.2912574  76.5507746   2.3744334  26.2277436  75.7926750   3.1394228
  67.6025248  55.1264715  23.3937788  67.8511524  55.6221390  22.6135683
  67.1708775  55.7682085  23.9577699  57.3777580  66.2535906  26.0630536
  58.0914116  65.7301044  26.4275885  57.4055910  67.0732260  26.5566754
  80.4886913  69.6869802  22.0380259  80.4506207  70.2684164  22.7974415
  81.4240932  69.5768738  21.8673372  57.6008606  82.6089954  11.6363549
  57.3470259  82.9916668  12.4762166  57.7362776  81.6808414  11.8272007
  72.5020075  62.7722645  34.3772173  72.9275465  62.5460815  33.5501814
  71.5745211  62.8535557  34.1549659  48.8817883  14.1224802  49.8571253
  48.1074715  13.7611270  49.4257402  49.5469904  14.1524148  49.1694880
  78.3991575  83.9390278  15.4837942  78.2324600  84.8798561  15.5411327
  79.3179607  83.8740158  15.2233934  62.0344162  39.8140287  70.0090885
  62.5791740  39.6159649  69.2473555  62.6520920  40.1248503  70.6709814
  25.0799942   0.7825346  37.0221829  25.7988429   1.2323858  37.4661660
  25.0700736  -0.0929847  37.4089646   8.4873748   6.6035306  70.2985382
   8.2313406   5.7544506  69.9383402   8.8863218   7.0659208  69.5614719
   9.2303020   1.2449075  16.9715202   9.7599387   1.8558332  17.4838543
   8.6277759   1.8036695  16.4806235  54.6882820  49.4770718  69.1265345
  54.1322422  48.7010050  69.1955853  54.4889307  49.8384809  68.2628965
  76.8597221  34.3764806  18.5418665  76.5870714  35.1672626  19.0072250
  76.5977144  33.6576962  19.1171348  78.6634827  70.1633644  25.0690770
  77.8106260  69.8638248  25.3839588  78.4581947  70.7378149  24.3314481
   7.7130806  85.0006580   9.1750908   7.5289679  84.7917461   8.2592893
   8.6408168  85.2361012   9.1852087  76.7189550  76.9238997   0.2528556
  76.5648413  77.2205544   1.1497827  76.5935993  77.7069044  -0.2832637
  73.3231211  85.2146244  36.2113976  72.5532579  85.3337097  35.6551981
  72.9893398  85.3018093  37.1042681  44.7450161  19.4988883  61.8385744
  45.4878139  19.4145477  62.4363756  43.9782286  19.3184984  62.3823833
  51.7280531  39.3438649  64.7903967  50.9321690  38.9797521  65.1779890
  52.2955894  39.5293689  65.5385399  26.5282679  23.5167694  32.1632886
  26.3423133  24.3508148  32.5945878  25.7808065  22.9610753  32.3840618
  12.6235998  35.9989285  67.9254007  13.4466577  35.5347514  68.0782080
  12.5635350  36.6241193  68.6477327  78.6492014  80.1797867  40.9295225
  77.7255249  80.4130268  41.0225534  78.8546705  79.6923590  41.7272902
  56.0837650   6.8008322  20.4930973  55.6072235   7.6289040  20.4344726
  56.1704636   6.5096021  19.5854080  58.9464903  81.1748791  38.4530067
  58.0439568  81.1607075  38.1344700  59.4810295  81.1362934  37.6599050
  34.5462370  61.4141560  51.9032955  34.2042518  62.2966909  51.7604351
  35.0774980  61.4885807  52.6960468  72.1845722  11.8154907  16.6488039
  72.6222134  12.2508931  15.9172797  71.7606926  12.5253642  17.1311319
  76.9633818  18.7996244   6.3161218  76.5449762  18.4047747   5.5510968
  77.4258709  18.0748725   6.7369205  73.1602240  63.0581474  29.9713039
  73.3254528  62.3724699  29.3241715  72.2192669  63.2229519  29.9107027
  72.7550840  52.5955915  13.4776688  71.7999554  52.5678492  13.5341072
  72.9992676  51.7391062  13.1268990  61.1254549  62.7601433  17.8888202
  60.3464651  62.5325203  17.3812819  61.8584347  62.5447273  17.3121333
  35.8524871   4.2291278  52.0019054  35.8421588   3.6543044  52.7672195
  35.7194281   5.1068687  52.3598146  59.2907810  75.7130527   4.4082862
  60.1798105  75.7126188   4.0535203  59.3344498  75.1280594   5.1646650
  79.2837429  76.0157013   8.3865088  80.0542831  75.8611345   7.8400666
  79.5822954  76.6359758   9.0516073   8.3621806  57.8955936  12.0699823
   8.6165571  57.1877623  12.6620138   8.8536900  58.6559534  12.3806334
  34.5384049  13.5416532  18.8201678  34.1115046  13.1012762  18.0852830
  35.0724435  12.8610241  19.2297745  58.0486727  67.6160908  30.4386592
  58.2494354  68.5469961  30.3419757  58.8618994  67.1698952  30.2024245
  67.9248142  64.4274092  72.9983568  68.0905247  64.0694332  73.8704967
  67.1523714  64.9816227  73.1097317  69.1435146  41.0417747  50.4405212
  68.2430696  41.2986708  50.6391001  69.1073847  40.0891209  50.3545952
  10.9192300   3.9446196  28.0313110  11.4603269   3.3175224  27.5515246
  10.1533914   3.4398982  28.3051372  26.0521150  14.2362094  53.2142782
  25.5358243  14.1335058  54.0137291  26.1739278  13.3433545  52.8914690
   5.4618663  78.9932632  35.5487299   6.0340154  79.7585344  35.6056285
   5.0813377  78.9131546  36.4233780  85.2845383   7.4676937  27.2612000
  85.4101372   7.5514615  28.2064199  84.5333195   8.0288196  27.0687389
  43.5140038   8.0379748  68.8618946  44.1042900   7.3315585  68.5996532
  42.6404238   7.6493222  68.8167048  85.1377487  15.4009283  16.1434305
  84.8298931  16.0601664  15.5214477  85.7043076  15.8847427  16.7443991
  64.8619652  46.2017298  62.5194359  64.4063568  46.2219191  61.6778612
  64.6748638  45.3318310  62.8722811  20.7761788  24.6240735  25.2069664
  20.6552052  23.7009382  25.4292679  20.0888109  25.0795579  25.6930637
  18.3208263  42.8110266  15.5355275  18.4690034  41.8730783  15.6560588
  18.2258201  42.9188347  14.5891750   0.7511469  15.4366279  22.3880243
   0.4454804  15.0561357  21.5646029   0.8058787  14.6938932  22.9893398
  66.8271303  28.6815572  63.7366152  67.1006393  28.6000371  62.8229523
  66.6450119  29.6144319  63.8497925  58.2978344  79.9541187   1.6579162
  58.6035633  79.8342705   0.7588064  58.0800533  79.0711546   1.9565466
   2.2496116  26.9074130  37.9840541   1.5760541  27.5531936  38.1974125
   1.7598261  26.1330152  37.7072001  68.8492203  85.4188061  73.8270998
  69.4535589  84.8010254  74.2386198  69.1200066  85.4434586  72.9093313
  59.4055319   7.8752178  10.4487967  58.7477541   8.2058835   9.8370588
  59.2271900   8.3398163  11.2664604  61.3214731  18.7138176  71.0710144
  61.8872118  18.0773902  70.6338310  61.9271469  19.3089068  71.5128946
  62.3509598  57.3348045  70.8196926  62.5987959  56.4374685  70.5969715
  62.4650764  57.3862696  71.7686749  82.5432682  10.3793347  15.9716201
  82.6191425  10.2347624  16.9147921  83.4473610  10.4635847  15.6687284
  27.0202017  41.3197803  69.8366928  26.8162179  40.3859854  69.8881578
  26.1694598  41.7544222  69.8963070  17.0907223  38.8424921  28.9038944
  17.8195250  38.3967495  28.4721637  16.6390181  38.1504583  29.3868923
   7.4900728   1.9420490  59.4573879   7.6431155   1.5072519  58.6184835
   6.7807728   2.5601041  59.2809439  47.8505802  46.0736799  69.8904324
  48.0722189  46.7420912  70.5387640  47.1375656  45.5773306  70.2922869
  55.7055092  58.3864498  65.1905823  55.2055073  57.8565168  65.8113861
  55.1645899  58.4045553  64.4010830  11.6987956  65.3101540  66.4255714
  11.2864840  65.1893044  67.2809219  11.9643414  66.2297249  66.4154625
  17.8167844   2.1925870   4.3673155  16.9995415   2.6475242   4.5707282
  17.7566445   1.3662669   4.8467004  11.9051063   6.8881959  15.9719121
  11.6212440   7.2162962  16.8251443  12.6880145   7.3994088  15.7671010
  68.2934999  68.9306164  46.7571688  68.9065170  68.9530611  46.0223627
  67.8796387  68.0695677  46.6976070  22.9513526  51.8550253  13.5384738
  22.7872252  51.7874622  14.4790745  22.5081897  51.0943127  13.1627667
  89.8588085  83.4059715  21.6317511  89.0771770  83.2537556  21.1006045
  90.4679203  82.7177334  21.3642550  19.8153496  73.9211941  37.5996423
  20.7663703  74.0061045  37.5319481  19.6016121  73.1718636  37.0437193
  79.5418167  66.3841391  38.2993841  79.1414928  66.1873627  37.4524784
  80.2646446  65.7610035  38.3731961   0.0958539  45.2095270  16.8950355
   0.8184748  45.1483727  17.5197840  -0.6239147  45.5906868  17.3979092
  47.4653625  67.3971987  49.7865152  47.3070383  66.6926336  50.4148102
  47.1289635  68.1827497  50.2177668  90.6581974  63.5889339  25.8393002
  90.8695126  63.5477400  26.7719746  90.8848000  64.4825077  25.5816126
  63.3156919  50.8820534  69.5342779  63.9156437  50.9652519  68.7930822
  63.2030725  51.7775965  69.8529530  67.2559357  72.3140478  58.5778856
  67.4202156  71.4785337  59.0150976  68.0965376  72.5476885  58.1841469
  63.2961893  47.5916481  73.0416155  63.8442945  46.8179178  72.9106188
  63.9091539  48.2772255  73.3071041  64.1702557  83.2844067  48.4003496
  64.2397690  83.9494801  47.7154589  63.9637709  82.4767876  47.9298782
  14.2290843  82.4276638  18.7115741  15.0206232  82.0689487  19.1128528
  14.1411543  83.3006859  19.0941072  58.6797762  77.2225285  48.9016771
  57.9867792  76.7946911  48.3987427  59.1187763  76.5068769  49.3614101
  31.5553212  15.7453275  42.9101896  32.1806669  15.8755136  42.1972942
  31.1541224  14.8962677  42.7248049  57.7427578  80.5109692  20.7308626
  58.2236433  80.0634956  20.0346231  57.4596071  81.3351440  20.3348804
  57.3072147  76.6273260  16.9057429  57.5809479  76.0364532  16.2041938
  57.1425247  76.0520172  17.6528239  49.5289803  73.3811331  12.8655708
  48.7553215  73.9447641  12.8635204  50.2604818  73.9778852  12.7073514
  22.6802301  14.0463209  26.5535617  22.2496605  14.4738102  27.2938967
  22.3371840  14.4989169  25.7830358   4.7601101  72.4638319   5.3211719
   3.8385239  72.7100182   5.2417743   4.8099059  71.5923262   4.9284536
  26.4341593   6.3613385  13.1094003  26.9763517   6.9508970  12.5853002
  26.1652923   6.8885368  13.8617325  52.3079634  49.9628830  71.5797043
  53.2489538  50.0893974  71.4581919  52.0597601  49.3403959  70.8962297
  82.5994682  71.6070938  72.3481560  82.5787735  72.3631334  71.7614651
  82.8857613  70.8813381  71.7935848  40.9905577  13.9131141   9.7014505
  41.5580559  14.4895279  10.2132332  40.5682755  14.4934535   9.0681130
  71.1862135  69.6822882  10.5054617  70.3732204  69.3805456  10.9107041
  71.8762445  69.2140913  10.9754395   3.2958797  73.0099535  37.5952005
   3.9747146  73.6465836  37.3713398   3.0800644  73.2009268  38.5079885
  49.8171331  51.3423016  74.4178098  50.1999403  51.4426633  73.5462490
  49.0097548  50.8499720  74.2695460  16.7392123   9.7807032  10.9262633
  16.2359488  10.4304826  10.4356074  16.1851823   9.5652968  11.6765189
  10.6744468  81.2723351  13.3494055  11.3287473  81.9471359  13.5304129
  10.0057518  81.7200089  12.8310704  22.2759652  20.1543164  28.7384200
  22.1031213  20.1533198  29.6798849  21.6058087  19.5778477  28.3712602
  59.7056007   7.0121253  45.3486919  59.4802761   6.4165783  44.6339989
  59.1732216   7.7912354  45.1880932  62.9922676  81.7547035   6.0702288
  62.8517294  82.6931858   5.9447938  63.4666538  81.6922569   6.8992573
  22.2729492   4.7070402   6.3041967  23.1151175   4.9993616   6.6528147
  22.4906349   4.2894581   5.4708481  14.4905472   9.2992568  45.2245712
  15.1837897   9.5777011  45.8230019  14.9325597   9.1829461  44.3835449
  67.8602076  24.9454427   3.2879597  68.7716341  24.7913885   3.0393642
  67.8875017  25.0627518   4.2375520  28.9748883  10.4309416  27.2239184
  29.2123914  11.0498321  27.9144239  28.0994368  10.7033038  26.9489026
  48.7325287  25.4250193  69.8614025  48.5519552  24.5117259  69.6388769
  48.7049723  25.8858061  69.0228653  69.8890877  83.7565708  22.3584437
  69.8217678  83.0514526  21.7146230  69.9860668  83.3063030  23.1975389
  30.7579303  32.6369572   3.1048143  30.8281422  32.5810361   4.0577966
  30.9571624  33.5512304   2.9032123  46.4320660  40.3771019  69.5492983
  46.1374426  39.4663715  69.5509672  46.9433117  40.4619694  68.7445307
  20.6608295  20.5372286  19.2360985  21.3684177  20.2752447  19.8250914
  19.8859930  20.5795169  19.7965193  60.6347799  42.0068502  69.3251896
  61.0926199  41.1845684  69.4997406  60.4917860  42.0051336  68.3787346
  23.1987619  27.2676802  19.6066427  23.5420251  27.3028755  18.7138021
  22.9471707  26.3524938  19.7306144  59.7878361  45.1927280  57.1148586
  59.7028446  44.2641640  57.3311329  60.6515980  45.4378366  57.4466181
   9.3344861  40.2234173  69.1713810   9.8160458  40.5515909  69.9307442
   8.4948385  39.9328923  69.5274973   9.7843337   7.9167169  23.8663197
  10.6773567   7.5753039  23.8196349   9.7307891   8.3303595  24.7278666
  28.5332489  34.3818998   2.0278908  27.6644826  34.2580628   1.6456087
  28.3756137  34.8974323   2.8188452  22.7998233  16.0805869   3.2789102
  22.1348023  15.8697200   3.9342827  23.6052608  15.6933844   3.6218062
  61.9418192  52.7343273  58.3719873  61.7532587  53.6234617  58.0717945
  61.2409019  52.2011900  57.9968786  64.0396452  22.6679397  21.1696601
  64.3956900  23.5218596  20.9241271  64.2592049  22.0963597  20.4339147
  70.6393385  61.7942476   8.0687058  70.5432606  61.0461855   7.4792987
  70.7436323  61.4036942   8.9363587  70.1772594  16.7729545  63.9686203
  69.5718431  17.0512211  63.2814026  69.6823502  16.1316526  64.4785500
  63.6446857  52.4498320  72.7187872  64.4090652  52.7814341  72.2476244
  63.8461113  51.5287447  72.8838921  82.1827126  84.2668152   9.2141706
  81.4885235  84.7783756   8.7986767  82.9559135  84.4288921   8.6736828
  23.8437009  32.5635767  70.3185081  24.0116978  33.0827498  71.1049366
  23.4867740  31.7387056  70.6477833  31.8916464  12.5281346  10.4025280
  32.1604514  12.8811431   9.5543766  31.5392065  13.2822990  10.8750260
   1.7571615  20.1653218  15.5470860   2.5980109  20.3418708  15.9690273
   1.2503682  19.6962690  16.2099457  81.7518139  79.1965389   4.2141625
  81.3282013  78.9555168   3.3903357  81.8600845  78.3670759   4.6794522
  85.2655602  24.1096735  33.4211969  85.0967026  23.1677485  33.3988786
  85.9782124  24.2401385  32.7956343  59.8585510  64.9781752  27.5447369
  59.2945147  64.5982361  28.2183409  60.3039074  65.7018137  27.9854608
  63.1046534  62.5981379  43.8022661  62.9490614  61.8572569  44.3880320
  62.3826265  62.5631332  43.1748247  90.5804729  72.8786993  15.7979524
  90.2351189  71.9930363  15.6858408  90.4524708  73.2953453  14.9457479
  34.2191315  22.2339487  17.0459783  33.9145327  21.3432097  16.8726742
  35.0187492  22.1180367  17.5592113  59.8704815   9.1649187   7.8770870
  60.7574415   8.8711965   8.0850697  59.9956894   9.9829257   7.3960274
  19.5085788  46.0665798  37.4993610  19.0166736  46.7414761  37.9670954
  19.4836938  45.3061771  38.0802250  65.0104666  51.0101938  65.2209091
  64.7074604  51.3664722  64.3857527  65.8940887  51.3630772  65.3253698
  76.8539619  71.9048738   9.2383820  76.6468716  70.9703445   9.2371446
  76.4829826  72.2313166  10.0581622  14.9967325  28.8145494   2.1644363
  14.6839452  29.2871284   2.9358408  15.2616549  29.5021081   1.5534447
   7.0883405  27.5980568   4.7589144   6.5223128  26.8992424   5.0867915
   7.8467417  27.5857830   5.3427887  60.3739262  69.0281534  36.1095190
  60.4413128  68.7244606  35.2042794  61.1230326  68.6294127  36.5523171
  16.2969720  25.9413815  17.9112816  16.8504953  26.2266493  17.1843243
  16.8776870  25.9498739  18.6721563  28.6032391  66.0883522  66.5720177
  28.5072947  66.9213343  67.0337105  27.9513955  65.5147457  66.9748878
  73.2715511  72.3246527  63.9559603  72.8290939  72.9872704  64.4864321
  73.1731892  72.6339054  63.0554485  32.4689436  17.3072886  33.1897140
  32.5082970  16.5577340  33.7837267  33.3827853  17.4843001  32.9665780
  84.8978424  37.6078653  11.2399447  84.0837288  37.5860429  11.7429125
  84.7226715  37.0573759  10.4767215  80.5299759  38.8149095  56.0043526
  80.5968189  38.0068541  56.5130854  81.3878250  38.9088655  55.5902195
  17.2030652   5.0297350  60.9633589  17.8506696   5.0117993  60.2587175
  17.2859156   4.1752037  61.3866091  45.7144499  41.8365145  73.4776688
  45.3964186  41.4807844  74.3074512  46.3807392  41.2127066  73.1893158
  16.5059793  37.5892663   8.9947915  15.7006526  37.7603507   8.5065168
  17.1468031  38.1928039   8.6188674  83.4582710  17.1745825   9.9951732
  84.0373039  17.9342973   9.9336588  83.9233589  16.4805079   9.5280749
  19.8817396  15.6677580  35.1223588  20.6714106  15.6190252  35.6611300
  19.9888277  16.4707649  34.6125102  12.3154426  26.4155650   5.3115070
  12.9418170  25.9253240   4.7790140  12.3151505  25.9653378   6.1562115
   7.2050375  49.3508863  10.4228127   6.3357449  49.2392254  10.0379837
   7.5225413  48.4584093  10.5603135  12.4897218  16.7550683  44.1978359
  11.6153777  16.3988543  44.0401459  13.0845332  16.1015177  43.8300037
  79.2034483  12.9340684  29.5671415  79.6578074  12.9965091  28.7269664
  79.2378378  13.8213706  29.9245548  52.4693155  58.0001116  58.7119389
  53.2270813  58.0412006  59.2953253  52.8199530  57.6638508  57.8871918
  87.1754217  85.4772714   7.8887922  87.3029566  84.7363267   7.2963667
  87.6634979  86.1943328   7.4840236  29.7199345  10.1068652  36.2522888
  28.9021182   9.8091209  35.8538461  29.4571042  10.8198655  36.8343401
  75.3267956  26.8207788   1.0746255  75.6610394  25.9364462   0.9247240
  74.6847010  26.9554877   0.3776278  89.6145916  44.7019243  60.7175493
  89.0913868  45.4317427  61.0489845  89.0221214  44.2281437  60.1338100
   6.6283154  34.9961996  11.0482800   7.4746883  35.2694035  11.4021790
   6.7954171  34.8442936  10.1181006  68.6884451  28.7661457  61.3011837
  68.2739401  29.4715071  60.8043098  69.5758390  29.0822434  61.4710331
  30.9625340  61.7196941  67.2580099  30.3702068  61.7266178  66.5061283
  30.7914996  60.8827925  67.6899576  90.2409458   4.7860327  36.9808269
  90.7099247   4.8909399  36.1530089  90.8536339   5.1019961  37.6449156
  79.5040655  16.3590169  14.9216783  78.9880371  16.2708497  15.7230365
  80.2687740  16.8713117  15.1843786  32.6015139  83.3498573  73.4950161
  32.0969248  83.2560539  74.3029881  33.5101056  83.4228992  73.7871742
   3.1309769  73.0406237  52.9373646   2.5213152  72.4065065  53.3147717
   3.8547060  73.0785179  53.5626745  53.5276031  71.2109566  19.3753839
  52.7874041  70.6195498  19.5116568  53.9934492  71.2082386  20.2115726
  33.2595015  21.6214490  26.6583633  34.0712094  21.7379475  26.1646128
  33.3105898  20.7271051  26.9956613  87.2696781  83.4365654  52.0989132
  87.9272652  82.7897358  51.8431520  87.0467186  83.8865376  51.2840223
  17.1322465   5.1282704  19.6629465  17.0452499   4.3748164  20.2468729
  16.4442027   5.0051701  19.0089786   9.4662553  24.7906184  40.4171562
   9.5274401  25.2943325  41.2287998   9.7615087  25.3957987  39.7368526
  83.9307117  49.6585417  59.7978354  84.4789124  49.0250206  60.2608252
  84.4768810  49.9635696  59.0733480   4.3043396  76.6535664   0.1808066
   4.1386172  77.3765945   0.7857845   3.5008004  76.5835714  -0.3346130
  13.3687782   2.9317841  16.3686776  12.6623201   3.5651335  16.4952362
  14.0725899   3.4363449  15.9608805   3.6702260  57.0917177   6.3967788
   3.6819905  56.5444946   7.1820414   3.6018285  57.9866266   6.7294836
  69.6437597  40.7449436  66.8288565  70.5617237  40.6757164  66.5665865
  69.5995188  41.5568972  67.3338366  33.2141709  42.6604271  72.0904398
  33.9704919  42.5748396  71.5100193  33.5926580  42.8181267  72.9553699
  45.5929422  63.3188248  14.3031585  45.8415842  63.7928534  13.5096180
  44.7574997  63.7074614  14.5624495  83.1144333  85.7735538   5.7816750
  82.6893997  84.9608135   5.5077487  82.6184368  86.4635277   5.3410482
  13.5728776   6.3449013  22.7521300  14.2970967   6.6830575  22.2254515
  13.8476098   5.4615682  22.9980516  67.6615286  57.6013613  73.1811953
  68.0951023  56.9412374  73.7220097  68.2892752  57.7893543  72.4834728
  86.7413807  51.8510342  67.1582317  87.2220802  52.2431231  67.8872252
  85.8899307  52.2882032  67.1700621  51.1141109  72.5395346  67.1514750
  50.4224062  71.9871187  66.7873192  51.4092779  73.0719137  66.4127731
  86.9865417   4.9678448  49.7950888  87.5039291   4.2756435  49.3835020
  87.2848797   4.9812964  50.7045078  11.8413496   5.1502830   0.2468937
  12.0902681   5.3141236  -0.6627370  12.6730740   5.1065159   0.7186466
  42.4693775  61.5889883  66.7028666  42.7287579  61.0566664  67.4549246
  42.5005150  60.9857655  65.9603119  31.6103005   2.3644212  14.4620085
  31.9209599   2.9223740  15.1750386  30.8752704   1.8809095  14.8390746
  12.6542497  21.4229155  22.2442126  12.6651871  21.6012836  23.1845832
  13.5729921  21.2799025  22.0168567   8.9154434   0.5247767  29.6916056
   7.9788315   0.3911364  29.5462394   9.1763788   1.1485281  29.0140510
  74.1441250  83.1776237  24.2296624  74.7242308  83.8623333  24.5626497
  73.3348656  83.2854080  24.7293735  61.4455318  67.7420902   3.5715324
  61.0505772  68.5574389   3.8804796  61.5012693  67.1918726   4.3528044
  79.8302603  81.7095184   3.3711076  80.6871414  81.3541031   3.1351677
  79.3459988  81.7348957   2.5458336  62.1798611  68.6953306  62.7831221
  62.8783989  69.2428589  63.1415701  62.3036861  67.8439522  63.2027054
  34.2375374  12.7558410  38.0764294  33.3459878  13.0201352  37.8494549
  34.2722535  12.8248632  39.0305066  17.7739239  25.8012128   0.6144090
  17.8951371  24.9516177   1.0383534  17.0141554  25.6786442   0.0452334
  17.8869057   8.0322492  25.7809210  17.9400241   8.9340055  25.4643059
  18.3800709   7.5231040  25.1376557  42.8293705  47.8249693  59.1288567
  43.4876060  47.5168228  58.5059547  42.1900368  48.2915163  58.5905123
  88.1739902  52.6254606  70.2557755  88.8949490  52.4431038  70.8584404
  88.6032104  52.8724861  69.4366407  47.3862028  80.2562809   4.5195037
  47.6849747  80.4246235   3.6258453  46.4356518  80.1738548   4.4427231
  34.7241068   5.9735227  41.4737797  34.1497207   6.1067677  40.7197523
  35.2249265   6.7865580  41.5399981  39.1770720   2.9653111  20.9705329
  39.5328546   2.3607892  20.3192234  38.5080838   3.4603354  20.4976273
  17.2324252  45.8574867  19.8341382  17.5031805  46.7444992  19.5972192
  17.2863197  45.3639793  19.0157378  30.7148290  44.6712637  72.5831366
  31.5118980  44.4387770  73.0594349  30.1442170  45.0596762  73.2462835
  13.7349200  44.9371386  71.6958237  12.9583049  44.4746971  71.3807821
  13.5948956  45.8469152  71.4332771  82.3080730  79.1317129  31.1287332
  81.4659786  79.5866871  31.1391783  82.1647453  78.3502817  31.6626406
   4.8767573  12.8585589  31.9746852   5.0578195  13.6645460  31.4911222
   5.7317901  12.4388003  32.0693064  71.8315220  79.8598480  20.8661032
  72.4005079  79.8160410  21.6345882  72.2661114  79.3094444  20.2146292
  87.5148964  11.5924752  26.6329551  87.4831963  10.6791162  26.3483453
  86.5973568  11.8615687  26.6770935  86.8348598  83.9486408  41.0949373
  87.0749855  83.5680485  40.2501202  85.9352207  84.2523003  40.9737921
  20.9875894  71.8596649  70.6484032  20.9082890  72.5792265  71.2746429
  20.1280189  71.8103409  70.2301455  72.1787453  45.6895161  62.5243568
  72.3358870  45.9664726  61.6216707  71.5791178  46.3476372  62.8758621
  18.5055232  31.6987920  19.6786511  17.9708529  31.8138194  20.4642272
  18.3180130  32.4716926  19.1460216  17.8887451  77.6890135   0.8172999
  18.5027468  77.0979214   1.2530129  18.4252357  78.1692457   0.1865990
  48.6974049  84.4662952  56.6725826  48.3990335  83.6624622  57.0980883
  49.4755840  84.7242165  57.1666956  80.0649548  13.1182814  71.7549896
  80.6572533  12.8973901  71.0362244  79.2089891  12.8022254  71.4657307
  36.3295007  68.5452080  70.0117350  35.7156324  67.8879499  70.3394794
  35.9098887  68.8937044  69.2251539  60.3342676  83.7681389  23.8653874
  60.6557941  84.3315697  24.5692325  60.2943325  82.8954124  24.2565203
  69.0732336   9.7964960  56.2911463  68.9913321   8.9280838  55.8969593
  68.1841660  10.1508725  56.2767649  30.6251836  15.8289051   1.4365613
  29.9368978  15.4626167   0.8812903  30.2066565  15.9490168   2.2889936
   0.6051671  58.6979151   6.8076885   1.1972645  58.9297199   7.5231743
  -0.1630491  59.2526150   6.9432861  41.6218042  48.1777668  66.9002199
  41.9409275  48.5995102  66.1023951  41.8275070  48.7993813  67.5984478
   5.0502163  84.6741009  14.7455835   5.5482322  83.8803768  14.9410427
   5.7169706  85.3437901  14.5933163  12.9378724  16.7853844  47.0149803
  12.6710248  17.5147963  47.5744247  12.6366305  17.0316362  46.1404228
  18.7567174  18.7180674   7.6303601  19.1846788  17.8679323   7.7321017
  17.9969132  18.6747336   8.2109213  13.3899260   5.7692409  29.8890972
  12.5086212   5.3960270  29.9047494  13.5216606   6.1095643  30.7740021
  80.1532555  77.8550529   2.4862355  79.2502832  78.1503916   2.3694459
  80.1029396  77.2003460   3.1826967  65.0778341  78.4596348   7.1605223
  64.5190382  77.6922464   7.2833633  64.7966385  78.8291645   6.3234979
  67.5736713  81.5559387   1.4621924  68.0274391  80.9500217   0.8763652
  66.6905069  81.6237164   1.0993513  32.5765276   2.6208749   5.1113689
  32.6709557   2.7966821   4.1752028  33.0365372   3.3435684   5.5383801
  42.6021147  79.9853897  50.9604836  42.5822210  80.5415249  50.1816750
  41.7372561  80.0955296  51.3556051   3.7943697  12.5288177  22.7675271
   2.8858292  12.2420180  22.6751566   4.3086445  11.8282735  22.3662901
  90.5189514  71.4157438  42.3817539  90.5816936  72.2884941  42.7698326
  90.6670856  71.5581226  41.4468622  62.9644060  54.5585442  65.1699305
  63.1746721  53.7428379  64.7153521  62.2290039  54.9240685  64.6781874
  50.3507280  12.0407689  11.1326385  50.8318615  12.2683966  10.3370702
  50.8807516  11.3595355  11.5464354  56.7092609  26.7321563  72.5838423
  56.4677525  27.6539278  72.6746368  56.8923426  26.6233301  71.6506386
  12.9128551  31.7238855   7.7670896  13.8693786  31.7312407   7.7318424
  12.6708603  30.8318639   7.5181508  60.6152773  55.3997564  74.3755722
  60.0893641  55.5852461  73.5975981  61.2532616  56.1125660  74.4089317
  10.7877529  69.2132759  57.5598383  11.0210586  69.6564007  56.7440939
  10.5417061  69.9213123  58.1551313   2.4838951  67.9498816   1.5789577
   1.6448905  67.4983835   1.6708948   2.8273833  68.0009985   2.4709414
  40.6542063   3.5084561  13.7310064  41.1549568   4.2176992  13.3279467
  41.0965252   3.3464617  14.5642793  83.1812668  85.7426929  15.8575058
  83.4138298  85.8484459  14.9350286  82.8724861  84.8391533  15.9246099
  77.1163559  32.1894169  53.3495522  77.6849270  31.6404176  53.8895178
  77.5373125  33.0490613  53.3557415  24.1337276  19.2091537   2.9891625
  24.3541527  18.4367824   2.4685009  23.2673025  19.4694889   2.6764911
  14.3467534  83.0753422  12.3443675  13.5195220  83.3934593  12.7059245
  14.0905058  82.5492287  11.5868926   9.6039551  15.5362833   1.1044634
   9.2478865  15.3968489   1.9819626  10.5348217  15.3295732   1.1880751
  42.6046228  52.4983358  68.6757994  42.1868563  52.5556898  67.8164911
  41.8862009  52.3085737  69.2792034  62.8681993  32.8641772  72.9731655
  62.2960567  32.3060799  73.4998655  62.2738600  33.4807587  72.5455952
  40.9112692  51.2956572  71.4425039  40.0341988  51.5827036  71.6966295
  41.2953997  50.9553337  72.2505045  34.9177337  24.9839568   9.6710986
  35.8081937  24.6329451   9.6813649  34.9890065  25.8035946   9.1818672
  89.4667435  78.8147020   1.1376495  89.0056705  79.5895243   0.8162375
  89.4665718  78.2106829   0.3950922  75.6486082   6.2193984  38.5396504
  75.0218439   6.5563923  39.1798377  76.4782095   6.1783195  39.0153646
  51.0722971  22.2445798  19.1481161  50.9313774  22.4850535  18.2323945
  50.6331539  22.9334521  19.6469569  78.2051420  66.6933489  32.0173144
  78.9660120  66.9077110  32.5570917  78.3280230  65.7729673  31.7848754
  47.4793768  49.4582987  74.1761160  47.0522308  49.7188950  74.9921227
  46.7861032  49.5039272  73.5176897  17.3763728  76.2502289  26.4333081
  18.1001031  76.0352659  27.0217276  16.6873538  76.5784121  27.0110440
  82.3378372  13.0925548  13.9565182  82.4127483  13.7351704  13.2510650
  83.1527805  12.5924110  13.9124489  89.2573738  34.2841935   2.2839886
  88.9051247  35.1025629   1.9341010  90.0218582  34.0997934   1.7382783
   1.5571609  40.9940863  40.7405186   2.1593799  40.4306841  41.2264681
   1.4984615  41.7917824  41.2663221  83.8083744  64.0610266  60.7185221
  83.1628513  64.1856289  61.4142227  83.4914207  64.6049500  59.9974680
  76.4918852  65.0795126  20.0563502  75.9785986  64.4062328  19.6097386
  76.6726637  65.7314062  19.3791616  28.2210612  30.0085592  29.0788054
  28.5166621  29.8084950  28.1906462  28.2353282  29.1653609  29.5316219
  32.4244809  53.2840443  73.0420160  31.6487050  52.7710104  72.8157377
  32.9980111  53.1996107  72.2803307  42.8810310  63.1406784  58.6097336
  42.8542185  63.9390802  59.1370535  42.5238228  63.4020758  57.7610302
  38.0177855  79.7403955  59.9325562  38.5487127  80.5249023  59.7950792
  38.0770063  79.5729065  60.8731270  21.8516850  32.0761323  28.5491180
  20.9328246  31.8949080  28.3514261  21.8494725  32.9650092  28.9042592
  30.1207137  50.1402760   5.3609753  29.8355889  50.1847887   4.4483125
  30.5277586  49.2778206   5.4429471  42.7024889  79.9003601  67.9584026
  41.8699217  80.3725147  67.9468250  42.4552298  78.9813089  68.0605936
  72.0424318  61.8725634  40.6704140  71.0887003  61.9515848  40.6509304
  72.3597097  62.7618694  40.5132437  40.8346701  11.8436766  19.8713899
  40.4539776  12.7012944  20.0605869  40.3799915  11.5485680  19.0824604
  62.9357576  55.7889223  67.5013924  62.9403400  55.1919556  66.7531633
  63.3030510  55.2746725  68.2203341  36.8443966  72.5242424  74.1344833
  36.0062838  72.1757793  74.4384146  36.9345856  72.1876574  73.2429647
  21.9500542  49.2599440  12.6921833  22.3767614  49.0971136  11.8509710
  21.9647884  48.4121370  13.1362998   2.3189396   2.9653305  71.9685507
   1.7685454   2.2346602  72.2503614   2.2891676   2.9327333  71.0123682
  77.0309305  77.0111418  41.2483025  76.8309784  76.6372108  42.1064520
  76.1748028  77.1972990  40.8627844  18.7329471  28.3488464   1.3717674
  18.8132405  27.4962044   0.9442329  18.3551264  28.9182425   0.7014899
  41.2346840  18.6422741   4.5116627  40.7208443  17.9454482   4.1034541
  41.1805391  19.3724179   3.8950667  73.1134367   5.4303700  23.3040547
  73.2099724   5.1752335  24.2215610  73.6565065   4.8056981  22.8233361
  65.8315802  61.5405369  58.6209249  66.4640284  60.8481026  58.4291553
  66.1455584  62.2960186  58.1240416  61.8208599  70.9412813   1.8285629
  61.7134380  70.4160023   2.6215145  60.9330940  71.0398912   1.4844936
  89.2879677  79.3047190   6.6791695  89.4019699  78.8494444   5.8449274
  88.3437538  79.4460678   6.7478085  11.1622095  17.9011405  65.8315563
  11.3865256  17.6642597  66.7314434  11.2042832  17.0755589  65.3489828
  27.4194503  -0.0428668  68.3847570  27.4845243   0.8828930  68.1503105
  27.9134893  -0.1184979  69.2011118  48.3272791  41.1646700  15.1371813
  48.5179138  40.6749582  15.9372270  48.0868626  42.0391893  15.4432046
  70.9591722  68.1816387  70.5228472  70.8767223  69.0820742  70.2087593
  70.2135038  67.7235079  70.1351261  27.6252246  39.5961523  18.9464116
  27.8985023  39.1966248  18.1206226  28.3202457  39.3687773  19.5640492
  16.0836887  40.6196356   1.5753782  16.7235434  40.5482531   2.2837010
  16.2150133  41.4993668   1.2217408  57.3884583  15.4300642  23.6086726
  58.0944109  14.8489177  23.3255935  56.8067837  15.4872119  22.8506374
  60.8104277  61.5271139  55.2062893  61.5574503  62.0488596  55.4994869
  60.1988411  61.5497589  55.9422827  12.0219731  12.8105342  21.4134264
  12.0602202  12.0640993  22.0114279  11.1289036  13.1432843  21.5025115
  11.2106359  38.7634659  33.2271433  11.3026834  39.5931911  32.7588296
  11.3922834  38.9828038  34.1409969  48.6103058  21.5297580  11.0218275
  48.1268692  21.4047313  11.8384624  48.1641150  22.2572422  10.5883336
  38.7647653   3.3883789  23.8314986  38.6729407   3.1323791  22.9137468
  39.4320917   2.7969447  24.1795135  11.8858695  25.1782584   7.7389437
  11.1637068  25.1210880   8.3645982  12.3284519  24.3321800   7.8060514
  21.5026522   3.1588730  23.0689001  21.2783647   2.6272163  22.3051810
  21.7773628   2.5239295  23.7304235  39.5428538  68.1094217  55.6315470
  39.1242313  67.7490425  56.4132833  39.7820473  69.0028286  55.8782196
  20.4880476  85.1374340  13.0879653  21.3227749  85.5935955  13.1946421
  20.7159328  84.2085934  13.1274760  44.8768234   4.4589576   7.6820379
  44.9501514   3.6065027   7.2528809  45.2570105   4.3236315   8.5500109
  77.8956556  20.6716037  66.6144657  78.7801886  20.8753967  66.3106585
  77.3377228  21.3135195  66.1752748  44.0076923  60.5155373  59.6149349
  44.0621281  61.3733959  59.1938019  44.6250343  60.5673265  60.3446150
  49.2832041  80.7281208  12.2725904  49.3599606  79.8023510  12.0417356
  48.3653307  80.8376980  12.5210500  86.8538380  38.4295583  64.1314077
  85.9270763  38.2896686  63.9370728  86.9107628  39.3536329  64.3744659
  35.8401799  43.2706404  27.6698232  34.9116468  43.4915400  27.5972891
  35.9181237  42.8399420  28.5210896  88.6987495   1.6990711  68.1345940
  89.0389252   2.4571708  67.6594067  88.4181309   1.0928585  67.4490356
  10.8927548  55.4231882   2.1490522  10.7677746  55.8992290   2.9700252
  10.2230251  54.7394753   2.1642910  10.6003141  76.3654709  24.0690923
  10.8237422  75.8183622  24.8220778  10.1964509  75.7616711  23.4457517
  29.0103030  67.4230146  27.7391648  29.4432950  67.0284796  28.4961915
  29.0521145  68.3650923  27.9033852  52.3943186  36.6976285   9.2653662
  52.7438593  37.4741173   8.8281941  51.6901970  36.3961363   8.6913043
  84.7181797  26.1817002  71.3243294  84.2138100  25.3686118  71.3512611
  85.6291485  25.9015107  71.4129972   4.8110712  16.0674131  25.1315904
   4.7864681  15.6455851  24.2727041   4.8591208  15.3415000  25.7536626
  24.8210669  14.3196905  28.2657409  24.0903258  13.9587641  27.7637625
  25.5965257  13.8949752  27.8989816  54.7654629  81.2215996  73.5754108
  55.5746365  81.7312908  73.6164618  54.9933243  80.3784943  73.9671850
  58.0048847  52.3765373  19.7653055  57.6716042  51.5688181  20.1561403
  57.9152250  52.2409344  18.8220108  89.6022701  55.2762747  44.2784119
  90.4951000  55.5593824  44.4757318  89.6946430  54.7082758  43.5135078
  52.1077490  10.1536536  11.9984412  51.5320301   9.6332401  11.4381301
  52.5159597   9.5141804  12.5821114  90.5693364  86.4222705  15.7265329
  90.4480052  86.2135460  16.6527867  90.2366185  85.6541203  15.2623391
  40.6012249  36.9677305  10.9852219  41.5305328  37.1153021  10.8095884
  40.5033493  36.0156322  10.9727001  26.7828083  83.4121609   5.8917606
  27.7271962  83.3005619   6.0008770  26.6971159  84.0389729   5.1734269
   4.1554758  33.0698371   0.5166040   3.5601810  32.3364305   0.6714261
   3.6009601  33.8470292   0.5853017  81.8984032  49.1234636  20.1240420
  82.7749634  49.2794800  19.7725868  81.7576218  49.8397303  20.7432151
  27.9773068  35.6900835  16.9398475  28.1323695  35.8949518  17.8619206
  28.1144142  34.7447634  16.8781877  67.1933365  85.0080776   6.6980368
  67.7284002  84.2937756   7.0440465  67.2124863  84.8837280   5.7491410
  12.0846367  84.9132347  21.9059205  11.9970667  84.8150826  20.9578013
  12.6589644  84.1941357  22.1691203  12.9779589  40.2108622  10.9238720
  12.1786404  39.8512220  11.3085568  12.9841244  41.1279249  11.1980724
  82.7741146  53.0588913  61.4323711  82.0805359  52.4685431  61.7267704
  83.5528088  52.7695227  61.9078970  65.1686764  45.5391073  72.0113564
  65.7393599  44.8528004  71.6656208  64.4795799  45.6315804  71.3534594
  35.3319144  19.6601772  21.4656210  34.5415425  20.1286936  21.7340183
  35.2737045  18.8161516  21.9133544  30.7861280   1.7085494  71.9798279
  31.1752653   2.5647628  71.8017817  30.3915596   1.8004555  72.8470659
  62.2171879  65.6778812  32.4499202  62.3687220  65.6193829  33.3932376
  62.9783392  65.2497149  32.0580602   8.4043461  85.4322433  51.0657549
   7.5192976  85.0767899  50.9846878   8.3402073  86.3182449  50.7091999
  19.3342304  76.9795227  62.7657890  19.9111867  77.2008562  63.4967899
  18.4579718  77.2110939  63.0736494   1.1411305  11.6779828  58.4866285
   0.6251891  10.9207320  58.2098436   1.1677561  12.2444487  57.7154970
   7.1199036  75.8412170  52.0586157   6.9948167  76.6694021  51.5952587
   6.5562159  75.2207422  51.5965557  47.2277975   9.7414261  58.6424828
  47.5155973  10.5043507  59.1438341  46.6807890  10.1048768  57.9461241
  78.9016008  79.4010782  21.6745234  79.8139429  79.1119480  21.6908741
  78.8413000  79.9599266  20.8997416  20.8445168  13.7032473  69.0559864
  21.0985255  14.6257257  69.0832806  21.6074586  13.2554579  68.6904240
  77.3302126  23.5326862   4.6381310  77.4761057  23.2093263   3.7490946
  76.3779020  23.5791349   4.7228357   0.7632119  72.2117424  18.2696724
   0.4355147  72.6837444  17.5041282   0.9771506  72.8986168  18.9010704
  47.2287560  17.9699075  51.4020109  47.4699688  17.6809156  52.2820854
  46.2813234  18.0997396  51.4438152  45.2693081  74.0728188  26.5912175
  45.3252840  74.3434715  27.5076485  44.4044018  73.6703110  26.5127540
  44.5964909  30.0616360   4.9017385  44.3318987  30.4872489   4.0862155
  44.5913792  29.1266942   4.6965820  52.5445318  26.7786837  10.8897209
  51.9142771  26.0638738  10.7999277  52.0109892  27.5420952  11.1105609
  78.1612921  62.7346277  17.2994423  78.7937546  63.2336140  16.7824972
  78.3517122  62.9735851  18.2065642  76.2703657  24.3431640   0.3810286
  75.6995344  23.7620616  -0.1216631  76.7935371  23.7537885   0.9243144
   8.8922101  51.3716984  47.4548435   8.9736617  52.2554350  47.8134632
   8.2920277  51.4676666  46.7153835   4.3764871  82.0211887  38.6983800
   3.4741968  82.2205734  38.4486842   4.3199795  81.7702866  39.6203828
  81.0622025  84.0179729  68.1494474  81.1611748  84.2104435  69.0818596
  81.9401455  83.7671280  67.8621578   5.2540779  84.9831867   0.6048179
   5.4949564  85.8876228   0.4043018   4.8430622  85.0305367   1.4679843
  30.9838176  29.4239759  49.5352030  30.3697348  28.6931801  49.6064043
  30.5774164  30.0176787  48.9038706  20.5230427  83.3320141  41.9860935
  19.8569238  82.6477718  42.0518732  20.7668090  83.5169601  42.8930712
  13.4712565  75.0461292  57.6177263  13.7523246  75.2973843  56.7378950
  13.7509573  75.7723522  58.1750441  53.5539770  18.0761087  57.5609159
  53.4413052  18.6543334  58.3153677  53.4205103  17.1956432  57.9119110
  24.1845489  73.4628534  62.8311682  24.8977399  72.8966999  63.1262302
  24.6065235  74.0975904  62.2521353  69.3474340  74.7974682  66.1668396
  68.6905909  75.0176287  66.8273830  69.1143942  73.9136457  65.8826065
  38.3894610   8.1613803  59.0456772  38.8240695   8.9727545  59.3083906
  38.0532837   7.7941811  59.8632240   1.4747374  76.7645359  61.5954018
   0.7171176  77.1702862  61.1739588   1.9847694  76.4003468  60.8718920
  29.3626952  11.8382120  45.2540255  29.8149562  11.2186813  44.6814251
  30.0439906  12.4520528  45.5283737  79.6621418  79.2253160   8.6760765
  80.5701923  79.3392372   8.9566112  79.6178198  79.6614981   7.8251886
  47.7808952  13.5400879  56.0889244  48.0269480  12.6285803  55.9313011
  48.3434439  14.0450037  55.5016994  58.1811905  36.2305856  21.5031219
  57.3124409  36.3354301  21.1151695  58.6961603  36.9485426  21.1349177
  29.3097019  74.4207954  69.2501926  29.5052147  73.4910822  69.3669510
  28.9428282  74.6957636  70.0904512  49.8480654  10.1653135  69.8091650
  50.6042480  10.7298267  69.6487141  49.1143322  10.6265497  69.4027996
  84.0562344  81.3111591  13.1733418  83.9064693  81.7988873  13.9832354
  83.5321522  80.5162811  13.2720411  12.8968048  41.7053509  68.3034182
  13.7387550  42.1546888  68.2295990  13.0598748  40.9906960  68.9189720
  72.7834558  62.7677441  64.5016623  72.2038746  62.5012493  63.7880135
  73.5669422  62.2298336  64.3874836   4.1974875  20.7506180  17.1271384
   3.8827866  20.3740072  17.9489410   5.1456255  20.6216168  17.1521270
  10.1353443   7.4238753  73.1424856  10.2822196   6.8620354  73.9034033
   9.1992599   7.3408633  72.9605818  74.0979290  76.3147736  52.1553469
  74.8434448  76.4271975  52.7450895  73.3635330  76.7182350  52.6180649
  16.8316150  59.2862177  68.1265116  16.7562044  59.3500280  69.0785980
  17.2996259  58.4645748  67.9778481  13.4301186  10.3252280  49.9894905
  12.7826142  10.2111244  49.2938232  13.3449316   9.5380932  50.5274439
  23.8276744  17.2972012  66.0900497  24.1785908  17.8531110  65.3943110
  24.3588352  17.5098968  66.8574238  55.4855299   7.4762958  55.2631283
  54.8486853   7.9304868  54.7114277  56.1770296   8.1213158  55.4114819
  49.6238232  19.6344125  49.3435049  48.9335966  20.2741289  49.1686249
  50.0019836  19.9121308  50.1778316  65.5927467  51.7079067   0.1079988
  64.7137451  52.0830202   0.0543121  65.5746126  51.1672592   0.8976837
  75.8716583   5.6146336  28.6236691  75.8775330   5.1016772  27.8155398
  75.6418276   6.5005445  28.3433652  38.4330344  24.9051595  72.5995255
  37.9532909  25.4078746  71.9412279  38.1292319  24.0051103  72.4818563
  91.0377979   4.4994199   7.9784071  91.7961884   4.0805429   7.5714374
  90.4226971   4.6336102   7.2573853  14.2531645  71.9010735  63.1217051
  14.1724265  71.0242510  62.7463388  13.3737826  72.2728539  63.0531788
  46.2627411  69.7179270  60.0146675  46.5321350  69.7904825  60.9303093
  46.0352135  70.6122351  59.7603607  54.2875242  62.4098873   0.8811040
  55.2092791  62.5131273   0.6445833  53.9148378  63.2857752   0.7803051
  35.4170489  18.0461442  46.2605524  35.3814054  18.9887619  46.0979700
  34.9659085  17.6566792  45.5115366  90.7721233  80.9237671  62.5470829
  90.4235077  81.8152142  62.5496340  90.8833218  80.7074261  63.4728622
  34.6197534   4.9407876  56.0543251  34.4817138   4.0706977  55.6800032
  33.9275956   5.0323874  56.7091227  41.2237644  14.6333170  73.3334541
  42.0405149  14.2504454  73.6537123  41.3242865  15.5731201  73.4847784
  73.0579948  61.6890526  21.7498136  72.7081871  61.9103718  20.8867455
  72.7803040  62.4113417  22.3132157  16.6687036  21.4423275  71.6177464
  17.1246147  21.6564822  70.8037949  17.1513271  20.6961298  71.9734097
  87.3286343  78.2426310  64.5430422  86.8564129  77.5493860  64.0818977
  87.1678352  78.0662584  65.4700089  70.5741692  36.1871290  12.0500326
  71.1280966  35.6670666  12.6322138  70.2204990  35.5530190  11.4262915
   2.0807660  83.1271267  47.2697973   1.8148153  82.2775459  47.6215172
   3.0146807  83.0280495  47.0848131   7.4981672  73.3212328  41.5201664
   7.3744100  73.1774998  40.5819464   7.8061318  72.4782705  41.8530416
  57.5172806  16.4140046   7.7855438  57.6099825  15.9291875   6.9654274
  58.2954597  16.9700253   7.8243589  34.3489957   5.2510828  59.7420883
  34.1580415   6.0113066  60.2914762  33.5835576   5.1682675  59.1733313
  28.4430718  16.3270259   5.8884376  28.6135817  16.4406884   6.8234456
  27.8189015  17.0199597   5.6728309  22.0134068   9.4302493  26.6165662
  21.2477589   9.7903150  26.1689425  21.7479944   8.5467863  26.8720698
   9.5744777  34.6823263  56.7949915  10.3334117  34.2456746  56.4082241
   9.2445862  35.2505493  56.0989141   8.0649924  17.0592630  52.0780277
   8.5189402  16.4823246  51.4637756   7.1926934  16.6753674  52.1671867
  86.9410610  24.8121238   7.1960711  87.5404835  24.9549437   7.9285538
  86.7680836  25.6890798   6.8536472  68.2826757  51.6982031  26.6387343
  68.9270926  51.1300564  26.2166286  67.4638224  51.2043047  26.5965247
  88.0556297  83.6007118  44.3022537  87.1772957  83.9810276  44.2917442
  87.9072094  82.6566124  44.3559551  40.0046682  27.7098751   7.4761260
  39.3601823  27.1132827   7.0954049  40.1202869  28.3916354   6.8142593
  18.3558834  -0.3234746  30.2329111  18.7735403  -0.1197029  29.3960881
  18.4893727   0.4612175  30.7645774  64.9548197  58.9106894  13.4404099
  65.0505257  58.9864302  12.4910235  64.9070311  57.9684210  13.6018991
  59.8580456  58.0791903   3.5868657  59.8115635  57.1990252   3.9601985
  59.4685984  58.6435270   4.2547613   2.8008845  84.7476101  74.1494942
   3.3738250  84.2898560  73.5343313   2.8167978  84.2070198  74.9392653
  66.5291214  66.0567045  31.0851264  67.2034311  65.3902149  30.9535003
  65.7143736  65.6281757  30.8228755  11.4026546  81.2170982  49.9725246
  12.0671630  80.5593300  50.1774931  10.8414531  80.7958221  49.3215179
  68.3191681  77.1357489   3.9719984  69.0499020  76.5552092   4.1846815
  68.7151623  77.8421259   3.4616521  87.1309757  60.2990198   7.3317087
  87.0218658  61.2380600   7.4818110  86.4662457  60.0821257   6.6780150
   7.6336658   1.8914635  37.9898643   8.0645472   1.0380368  38.0371499
   8.1904489   2.4700758  38.5108566  85.9594727  63.0023909   9.1309547
  86.0551548  63.6755753   9.8046732  85.1525307  63.2357883   8.6720407
  54.0911484  20.9644413  72.4569798  53.9367962  20.2310061  71.8615961
  54.5767784  21.6008329  71.9321918  82.3262787  32.1240854   0.8569388
  82.3933697  33.0748248   0.9454063  82.7105427  31.7807722   1.6636071
  34.3863821  23.9639306  50.0382853  34.4452929  24.7845697  50.5274820
  34.8685122  23.3320141  50.5716372  27.8459811   4.5215487  49.8771286
  27.3548913   4.9759960  50.5616283  27.7704382   3.5945594  50.1034355
  77.8247738  48.7259245   0.8179656  78.4013605  49.3719101   0.4099405
  76.9861603  48.8365602   0.3699490  -0.2135264  11.0222542  14.5890427
   0.6565679  11.4030910  14.4702017  -0.2779471  10.8611917  15.5303931
   5.6058997  63.3327007   7.2900236   5.9878135  62.9066706   8.0574042
   5.9858811  62.8682280   6.5442932  45.5047798   4.4430265  12.1872008
  45.3425455   5.3329003  11.8740928  46.4218998   4.4490120  12.4612296
  61.8423271  23.2912016  72.7732086  62.7993298  23.3087635  72.7646065
  61.5841961  24.1747189  72.5105381  24.9022818  14.4930625  21.2444568
  25.0961804  15.2141607  21.8433332  24.6542907  14.9219918  20.4254627
  84.4694519  11.2638927  53.5445595  85.2661991  10.8420837  53.2228470
  84.7836399  11.9742262  54.1039705   8.3389992  56.0333014  34.4870806
   9.0489292  55.9468317  33.8508773   8.0751771  55.1326656  34.6754527
  21.7870760  32.5973630  52.7851629  22.4690413  31.9840980  53.0591393
  21.9095707  32.6851225  51.8399000  14.7248268  -0.2078564  74.2111111
  14.1753960  -0.0222046  73.4496069  14.4499683   0.4331081  74.8667479
  54.1376543  70.9223175  51.7492342  55.0193834  71.2007618  51.9967318
  53.6386347  71.7365837  51.6846037  57.2657728  46.0093021  28.6874771
  57.6570415  45.6852484  29.4987273  56.4829302  45.4716730  28.5676837
  78.3193922  75.2980614  29.2072368  77.5559568  75.8754635  29.2043877
  78.0065250  74.4853783  28.8098836  37.8166533  15.2719855  58.4732151
  36.8838525  15.2997506  58.2602787  38.0515552  14.3469310  58.4002352
  36.0097313  23.9851236  60.8472633  36.1755586  24.2554426  59.9441242
  36.4543104  23.1415009  60.9302378  51.8237352  44.0292883  69.1565132
  51.9114113  44.9754190  69.0408611  52.3131752  43.8394594  69.9569178
  87.6534557  71.4916277   9.2725760  87.9447842  70.6739998   8.8690329
  87.7373600  71.3374949  10.2135527  33.4527588  23.1319833  67.1514797
  33.1013513  23.8601613  67.6638317  32.6921010  22.7697086  66.6971779
  52.1488094  70.3653145  16.8854308  52.6371431  69.5561695  16.7336082
  52.4603701  70.6772709  17.7350438  15.9345257  18.1206357  30.5961061
  16.1157119  17.8864491  29.6858525  16.5495515  18.8284802  30.7882810
  20.8461809  62.1314955   6.5368593  19.9512231  62.4121475   6.7279494
  20.8122492  61.8229103   5.6314009  55.1090574  76.3728046   2.5731021
  55.3509426  75.6099701   3.0982804  55.2481651  77.1189642   3.1563067
  45.8821869  13.1721866  50.9332228  46.7003489  12.6971877  51.0788870
  46.1560678  14.0172970  50.5768394  90.0122833  84.1509342  42.3314953
  89.2700768  83.9480591  42.9008818  89.8037338  83.7190437  41.5031195
  85.8215714  18.6968434  19.3710399  85.1058674  18.8915813  18.7660038
  86.5947056  19.0833378  18.9598012  21.3759184  84.9777794  68.9886284
  20.8020735  85.5634212  68.4947014  22.2193980  85.4298496  69.0088415
  78.3015442  60.4871941   6.1400926  79.1527271  60.6604576   5.7379758
  77.9776621  61.3506174   6.3966721  36.6967297  80.9197140   4.0299061
  36.7101336  81.0417843   4.9791959  36.6949821  79.9699831   3.9105493
  60.2258158  70.8310938  38.0259776  61.0856199  71.2459040  37.9560113
  60.2003098  70.2086878  37.2992110  57.5045013  56.1225271  68.0743885
  57.2139883  56.8850327  67.5739670  58.4287357  56.0238981  67.8456926
   9.7979438  26.1371398  42.9021645   9.2948163  26.2673664  43.7059879
  10.3071988  25.3430438  43.0643511  64.3845177  38.4046960  58.9202070
  64.5073271  37.5547385  59.3429613  63.7690639  38.2312250  58.2079172
  59.8355865  39.3960190  73.3057642  59.8129749  38.7131071  72.6354313
  60.4456854  40.0487137  72.9622602  42.1217585  24.0927148  71.3902235
  41.9934940  24.4442248  70.5091906  42.0542526  23.1440759  71.2817907
  39.8057079  85.4325104  64.5134401  39.2053747  84.7154903  64.3092108
  39.7746515  85.5065727  65.4672670   0.8344584  23.7994862  42.1942091
   1.1839724  24.6756554  42.3566818   1.1196095  23.5889554  41.3050508
   7.2634119   8.9967847  54.0644217   7.6833534   9.7777408  54.4249630
   6.4231533   8.9447576  54.5199347  28.5862088  28.4553099  65.7355070
  28.4930396  29.1413951  65.0745726  28.0077004  28.7284851  66.4475012
  29.4729424   8.3656019  52.3763084  30.1285124   7.7605528  52.0293570
  29.3080807   8.0553210  53.2666922  31.2732553  24.3655252  59.9049568
  31.8282843  24.1563582  60.6562376  30.7511568  23.5754561  59.7655439
   4.6254900  51.4133835   5.0512767   5.2257049  51.7628717   5.7099348
   4.0825370  50.7872438   5.5302149  53.8990402   4.3188715  60.0757027
  54.7730112   4.1436300  60.4245520  53.3025551   4.0083095  60.7568693
  75.2406359  48.2626009   3.6320153  75.9832096  47.6600266   3.6733949
  75.1759434  48.4998226   2.7069348  62.0968342   6.7965704  61.5970373
  61.5829611   5.9926307  61.6735220  62.0221996   7.2112215  62.4565268
  69.1883802  13.1492567  61.6731691  69.1841602  12.1920693  61.6709566
  68.4845018  13.3932638  61.0721302  66.6869068  66.9162893   3.9486328
  65.9421635  67.3744965   3.5592324  66.9803190  66.3127708   3.2660618
  54.8303795  40.5704021  14.0742981  55.6123924  40.2789974  14.5430946
  54.5494270  41.3565350  14.5425820  87.2156715  69.2909575   5.7918257
  86.7755222  69.3752956   4.9460220  86.5045738  69.1680813   6.4206862
  24.0035486  19.5399714  46.4027119  24.6138835  18.8691485  46.0965681
  24.2599821  20.3312254  45.9290123  76.5864611  68.6722803  59.7283173
  75.8148766  69.2311716  59.8206949  76.8900299  68.5329008  60.6253386
  39.3609095  12.4063492  49.3410635  39.6378589  13.3225679  49.3497849
  38.9342070  12.2931874  48.4917402  75.5773067  31.4363623  14.3168485
  75.9683943  30.7086563  14.8002982  76.1488676  32.1815443  14.5019424
  10.4517925  15.6666231  22.0839357  10.4191864  15.4002154  23.0027366
  10.0388634  14.9444985  21.6103792  47.2092104   7.1350342  44.9239635
  47.8423309   7.3577315  44.2414761  46.4716816   6.7505080  44.4502306
  63.3003616  77.6147938  25.6694698  64.1023207  78.1371593  25.6844497
  62.6227570  78.2068300  25.9959316  63.0645275  68.8612032  37.1020174
  63.1885576  67.9120731  37.1040678  63.6319828  69.1784239  37.8045774
  71.6200399  63.0516386   5.0575745  70.8439970  63.5669661   4.8375174
  71.3329506  62.1417236   4.9810064  53.1944323  64.8413754   0.9089527
  53.9206791  65.3066397   1.3240792  53.0230713  65.3328562   0.1056362
  54.0460205  25.7216191  61.4806700  53.9127207  26.1514616  62.3254776
  54.5465851  26.3547897  60.9661150  22.7620006  80.5942726  21.0163188
  23.4380507  80.7822704  20.3652835  23.2029295  80.7058525  21.8585563
  40.5565929  64.5626497   6.6727197  41.3714790  64.0960407   6.4870512
  40.2913857  64.9268770   5.8281863  67.7879095  26.6265965  47.9590178
  67.4417591  26.4791822  48.8391781  67.9496670  25.7481146  47.6150227
  32.3151231  22.9117179  38.4621191  31.6063690  23.2947183  38.9790416
  32.6872635  23.6509204  37.9811573  63.8021755   2.4794717  59.7395182
  64.0911341   2.8273129  58.8958693  63.8947248   1.5308009  59.6518230
  54.5379019  26.0075903  49.2553282  54.3054199  25.7506824  48.3630371
  55.0917339  26.7805195  49.1454220  31.8744707  24.2139602  63.9163923
  32.6698065  23.9419842  63.4584618  31.4730382  24.8605108  63.3358240
  70.1515293  77.9844427  60.2265310  70.5370474  78.0878639  61.0965395
  70.1949787  78.8589668  59.8398066  86.9348049  65.8934593  13.1644177
  86.2801838  66.1229038  13.8240004  87.2410774  66.7355728  12.8278613
  15.8131766   9.4891965  30.7734203  16.3543963   9.6397358  29.9984026
  15.9432983   8.5637319  30.9803391  20.3650665   0.2187099  60.6743670
  19.8752558   0.4302759  61.4690733  21.2786651   0.1849329  60.9579659
  23.2848024  13.5118032   1.1347674  23.2239985  13.5783756   2.0877117
  24.2208028  13.5861063   0.9487163  23.9436793  21.3390803  62.3658180
  24.7803545  21.7903447  62.4779320  23.3603549  21.7548180  63.0007410
  28.9874721  12.3305297  14.0018582  29.0597773  11.8339145  14.8169518
  28.6281133  13.1768227  14.2680919  13.1646454  28.1015038  66.7552805
  13.6274576  27.9380631  65.9334993  12.5307286  28.7859845  66.5411186
  41.2601089   7.2138482  58.9478016  40.6729031   7.4540663  58.2310629
  40.7376003   6.6333562  59.5011950  53.9400864  10.3978515  63.2162380
  54.7459555  10.8754230  63.0194283  54.0858889  10.0311518  64.0883064
  82.9660320  67.4384594  24.4844580  82.0549583  67.5607920  24.2176151
  82.9137516  66.9052505  25.2776718  33.4073973  26.8415451  69.9901628
  33.5069609  26.8425274  70.9421730  33.0640960  25.9716272  69.7861481
  83.2047939  52.6169968  31.3536286  82.3021126  52.5133514  31.6547132
  83.6486340  53.0615091  32.0758820  60.9058142  34.5095229  71.5900517
  60.4300022  33.6810589  71.6490316  60.2344608  35.1806045  71.7132139
  62.5323296  44.2570543  73.7544346  63.0841541  43.7284851  73.1779528
  62.1018696  43.6197901  74.3243742  31.3884974  27.1342015  39.8137164
  31.4971542  27.4227953  38.9075470  30.4414415  27.1327662  39.9526978
  20.0104952  53.9600277  70.6085014  19.8083413  53.3668423  69.8849726
  20.9060669  53.7344456  70.8600903  12.5558031  76.6016436  60.5933905
  12.8860152  75.8295298  61.0527706  12.9849648  77.3396587  61.0262632
  63.8995123  71.4335918   0.0765104  63.9379406  70.5306149  -0.2387483
  63.1258631  71.4579582   0.6396334  86.7060947  73.0993032  71.5883923
  86.0894680  72.8355598  72.2713614  86.3564873  72.7101469  70.7867908
  69.4516087   0.9310193  67.1304178  69.7858572   0.9066850  68.0270338
  68.7052917   0.3316850  67.1366739  58.9626503   8.7799203  71.3001919
  59.2982960   8.8110381  70.4043102  58.0365181   9.0070510  71.2170029
  79.7956944  50.0654221  18.7161982  80.6695271  49.8333359  19.0304995
  79.3893290  50.5213594  19.4532323  13.9785218  72.2788954  68.6325645
  13.1967640  71.8205738  68.3242989  14.1854012  71.8632460  69.4696236
  65.3660393  84.3631363  16.5330577  66.1057663  84.8869228  16.2253416
  65.7534790  83.5234928  16.7802739   0.5959781  55.7126236  20.2207613
  -0.1731364  55.9544325  19.7047937   0.2586544  55.1144791  20.8875942
  69.8203564  40.0736189   3.3257583  70.3811264  39.6973419   2.6473886
  68.9928675  39.5997381   3.2425252   1.5718688  56.1931944  53.6001015
   1.6874564  57.1414614  53.5396194   1.4928067  56.0209036  54.5383453
  51.6162777  84.9194717   6.3908380  52.5564146  85.0972366   6.4186734
  51.3707161  84.7851467   7.3062003  51.2246275  12.9869938   8.6835146
  52.1008778  13.3439279   8.8284761  50.8132410  13.6014628   8.0757147
  31.6604161  67.6513386  51.3390493  32.2569609  67.5820923  50.5936813
  31.3594675  66.7551422  51.4890289  59.0726519  33.4465337   4.4399786
  58.2637072  33.9448762   4.5561600  58.7797308  32.5632906   4.2156711
  50.4608583  30.1394701  54.6208191  49.9991751  30.8750844  54.2183828
  49.7645855  29.5596147  54.9293661  58.6726999  81.0350513   9.0997630
  57.8583288  80.5834866   8.8781190  58.5001755  81.4356709   9.9518013
  64.7311449  66.0764027  20.3139853  64.0193558  65.8486128  20.9120679
  64.4348001  66.8782711  19.8833823  31.1054063  20.3816605  24.6116209
  31.4907050  20.9633565  25.2669144  31.7565560  19.6902215  24.4926786
  56.2005520  19.9052131  21.3137794  55.6230831  20.0852776  22.0556259
  57.0506001  20.2543187  21.5816998  66.5018225  77.9058552  14.1447568
  66.0646772  77.0945501  14.4034564  66.0149908  78.5949183  14.5968831
  87.2244549   2.6404378  62.3317575  87.6700974   3.3563548  61.8788815
  86.9353580   3.0239376  63.1597567  58.0553007  24.0256023  61.7951632
  57.5632668  24.6022391  62.3796511  58.8602066  24.5075035  61.6050768
  26.0688186  74.8196840   4.9210846  27.0076370  74.6542883   4.8345026
  25.7484984  74.1017485   5.4671586  48.4440231   5.8848113  60.4174566
  49.2515659   6.3351601  60.6650305  48.0660629   6.4319581  59.7289753
  89.6632290  78.9785576  57.5021744  90.1161957  79.4035912  56.7738867
  88.7799740  78.8143969  57.1718168  60.3353739  51.7775679  23.6109161
  59.4543314  52.0627832  23.3687472  60.1935768  51.0591316  24.2273355
  44.8913431  10.7540560  67.3549843  44.5675182   9.9407172  67.7420855
  44.5742750  10.7324386  66.4520788  51.2733173  26.8445325  70.1548910
  50.6569147  26.1166167  70.0747871  51.0803986  27.4055219  69.4036865
   3.2502198  74.5297050  70.5622673   2.8094545  75.1641703  69.9971008
   2.5530925  74.1762781  71.1148357  49.1836929  73.4766006   4.2364797
  50.0424051  73.2684946   3.8683224  49.1500044  72.9862118   5.0578278
  59.2048073  13.4774923  57.4199390  59.7940063  13.0381393  58.0331612
  58.9879036  14.3057609  57.8479099  76.7536545  77.4261332  13.3400583
  75.9536743  77.3990440  13.8649678  77.3378086  78.0101538  13.8237071
  73.3352804  15.4361188  72.6077700  73.1200027  16.0028553  73.3485126
  74.1614771  15.0212526  72.8557920  44.5090151  10.1021218  70.4689360
  45.0035334   9.8809642  71.2580967  44.3470907   9.2599058  70.0438690
  48.4586811  10.8726454  55.4699135  49.2064333  10.6748986  56.0338306
  48.3152246  10.0681508  54.9714756  55.3810930  65.1823235  16.6766751
  55.3932190  64.8024893  15.7981467  55.3744125  66.1279869  16.5286827
  77.4606133  42.9630423   1.4864054  77.7427578  43.5696268   0.8017989
  77.9482126  43.2355785   2.2637106  80.0037003  69.6369505  19.1858792
  79.7779131  69.4333887  20.0935221  79.9157381  70.5881357  19.1247368
  87.7681065  64.9655867  21.3385701  88.6924171  65.1182556  21.5349627
  87.5907516  64.0913105  21.6855788  83.1629562  53.8011122   6.5975332
  82.7461147  54.3568707   7.2560215  82.4765396  53.1895351   6.3310122
  86.0223770  74.1865635  64.7096014  85.2394485  74.6350813  65.0291014
  85.8040905  73.2561350  64.7632551  22.9640055   7.0523846  60.9841871
  23.3627248   7.7489793  61.5057325  22.0332456   7.0912969  61.2041950
  37.0832491  84.8688412  55.6756020  36.3265991  84.4251728  55.2923584
  37.7549148  84.1893959  55.7342911   5.0354403  69.3217182  13.3185065
   4.9169642  69.1778660  12.3796225   5.6603938  70.0446892  13.3730578
  75.3536797  15.8677220  69.2784595  75.0276899  15.5062366  68.4542704
  76.1024475  16.4069843  69.0239525  86.1103630   5.6383044  31.3356686
  85.7346535   5.4823011  32.2021198  85.4034996   5.4256618  30.7262754
  27.2786379   2.5153857   8.7411785  27.5182271   3.2056838   9.3594974
  28.0845094   2.3381439   8.2560110  64.0106010  86.0570145  10.7712591
  64.4754505  86.0480404   9.9345618  64.6322536  85.6813431  11.3946736
  10.7056224  22.0862508  -0.0751411  11.5119183  21.7716360  -0.4839652
  10.9299088  22.1877742   0.8498567   3.6284465  51.8270206   9.3613982
   3.1352216  52.3573923   8.7355673   2.9958311  51.6170883  10.0483906
  63.4340286  44.2637777  25.6709433  62.6146936  43.8270426  25.4381657
  63.4353304  44.2761469  26.6280603  52.1277714  83.7189293  52.8897858
  52.8025389  83.3828354  52.2999001  51.8243885  82.9486465  53.3702707
  82.1445751  35.3425527  21.5568542  83.0750942  35.4921246  21.7241549
  81.9527245  35.8703566  20.7817101  71.3319731  20.9710193   0.4927526
  71.6867542  21.4315081   1.2532225  70.6047535  20.4560828   0.8423573
  62.8877878  21.7233396  69.5493507  63.2760334  21.1888862  70.2420664
  63.5871696  21.8232584  68.9035034  90.8389282  61.6222000   8.1567043
  90.5382061  60.7300138   8.3293569  90.1877499  62.1807909   8.5811818
  74.3370008  63.8454437  60.6612015  74.1764212  63.9372158  59.7220373
  73.4657717  63.8715029  61.0568190  30.7455492   8.0367780  44.9998140
  30.2466607   8.6612225  44.4731140  31.4139247   7.7002007  44.4029713
  85.4565430   5.3195107   7.1422637  85.1724625   6.1402720   7.5446045
  85.8196926   5.5807108   6.2960172  30.2526402  52.9925346   5.0007898
  30.6995964  52.2634888   4.5707232  30.9445119  53.4484529   5.4800463
  38.2970357  34.4434810  73.1835651  37.3961902  34.7292924  73.3352852
  38.2388449  33.4899592  73.1232357  28.5756660  23.4600830  64.2830944
  28.5247350  24.3973804  64.4704819  29.3875027  23.3589458  63.7861776
  51.4349222   4.1278473  53.1049299  50.5817652   4.2439544  52.6867533
  51.9696999   4.8432443  52.7607584  31.8928504  75.4293489  56.9017506
  32.5386930  74.9337578  56.3982582  31.3564420  75.8654976  56.2397289
  75.5996752  -0.0634671  40.0575590  74.8852539   0.5615254  40.1809168
  75.7882214  -0.3885283  40.9379101  24.8388124   0.6698226  73.6646795
  24.2852187   0.1671129  74.2622137  24.2366338   0.9915632  72.9937887
  67.0166779  61.4185810  13.2163346  66.6952610  60.5683565  13.5164046
  67.1932602  61.2924433  12.2840583  19.2104840  37.0344901  38.8363528
  19.7194612  36.4164567  38.3117485  19.1487134  37.8181577  38.2902026
  58.9785957  78.7374020  33.7206960  58.2752180  78.3709097  33.1848097
  59.2424202  79.5328522  33.2582211  52.4618101  45.9256077   2.2266054
  52.0147800  45.8944559   1.3807777  51.8916178  46.4600420   2.7793229
  22.8703260  73.7364721  65.4898071  23.0533433  73.0237055  66.1019325
  23.1473184  73.3980179  64.6383619  11.7472029  83.3004189  63.9479446
  11.3582087  82.6174450  63.4016228  11.0147178  83.8747883  64.1710997
  14.7132194  72.5754881  56.8608093  15.1904929  72.1718740  57.5857496
  14.4064558  73.4114504  57.2119474  76.0885000  22.2972274   8.2627571
  76.8415928  22.8052521   8.5644054  75.3751373  22.9334593   8.2121819
  66.8016481  79.2587900  22.2048330  66.9272184  79.2382717  23.1535411
  65.8648443  79.4187498  22.0906305  90.9082985  68.2556248   2.4880156
  90.5471420  67.9313660   3.3130348  90.1408100  68.4909010   1.9666329
  36.3433242  29.3178177  72.1663284  37.1933389  28.9172387  72.3486614
  36.5420270  30.0411344  71.5717173  28.0974817  52.9047394  72.3780441
  28.3607745  53.4644699  71.6475582  27.1427631  52.9705954  72.3982382
   1.1765533  54.3393946  74.5648956   0.9797505  54.6444845  73.6792231
   1.2630388  53.3901215  74.4775343  16.4539325  76.9278574  52.5547647
  16.0417557  76.0749960  52.6924944  16.5674460  76.9886398  51.6062641
   1.2564597   2.8487742   1.4728303   1.8437187   3.2240433   0.8166813
   1.3646913   1.9024642   1.3778821  42.4619436  42.3684168  63.9050293
  42.1236038  41.8480873  63.1763220  43.3062029  42.6953125  63.5942364
   0.7287025  47.4326750   0.2204681   1.0441494  47.8102904   1.0415197
   1.0688352  48.0161892  -0.4578042  53.4702349   7.3161495  73.8362455
  54.4243765   7.3052412  73.7605906  53.1714106   7.7474737  73.0356884
   5.9492493  85.6033134  37.2890067   5.5529678  84.7883224  36.9808149
   5.7860833  86.2303829  36.5844584  80.3274536  47.2114038   5.0453717
  80.3496552  48.1680870   5.0230390  79.7532701  46.9681311   4.3191767
  69.3869543  15.0949955  29.0648246  70.0168324  14.7770524  29.7116613
  68.5400677  14.7790468  29.3797708  64.7458172   7.4072766  61.1047602
  64.6119118   8.3395261  60.9338427  63.8638115   7.0354176  61.1088514
  76.1736059  75.4939651  16.7729020  76.7213774  76.2457705  16.9986725
  76.1746216  74.9514532  17.5615156  43.6131763  18.0428660  66.0155869
  43.9166117  17.8670192  65.1249504  42.8490877  18.6079323  65.9011126
  37.2921562  22.4254417  72.9340363  37.9058623  21.8060923  73.3290052
  36.5891409  21.8769836  72.5859022  83.8108730  56.7469263   3.9668605
  84.3769550  56.8685055   3.2046294  84.4142723  56.7016411   4.7085410
  15.4043078  83.1704998  67.3356295  15.7881594  82.3025608  67.4604511
  14.4715953  83.0027676  67.2009182  36.6786528  18.9456046  48.7397289
  35.9361506  18.6599755  48.2074308  37.3742390  19.1210592  48.1060076
  27.6211929  33.4001374  73.7123394  27.7741742  32.4563146  73.6673498
  28.4002304  33.7486553  74.1457796   2.0458062  33.1000757  25.9476304
   2.6534817  33.8195276  25.7763052   2.0009878  33.0466056  26.9022846
  53.9824915  50.0923967   4.7433814  53.0874014  49.9368477   4.4419605
  54.3547773  50.6866121   4.0918145  89.1584301  64.5418310  58.7947893
  88.4850788  64.0827990  58.2926798  89.7551632  63.8510036  59.0827084
  31.5056181  53.5143948  19.5563829  31.3547659  54.4561529  19.6374238
  32.2247744  53.3340502  20.1617956  88.3382225  73.7395191  19.7836757
  88.5824013  72.8265715  19.9357784  87.4465942  73.8090038  20.1248574
   4.4119197  84.5762062   3.9364499   4.2733356  85.0510216   4.7559488
   5.3629142  84.4940186   3.8651365  64.8545074  57.8966427   3.9425626
  65.0164795  57.2824287   3.2265037  64.1156816  58.4257078   3.6417970
  38.7122965   4.0577635  44.6191549  37.8180432   4.3027124  44.3813658
  38.8821888   4.5321092  45.4330158  70.7308769  79.1893005   0.4378144
  70.1346636  78.5453844   0.0555477  71.5675211  78.7294722   0.5072176
  48.6663246  15.8921409  14.2043459  48.8012552  16.7362368  14.6350765
  49.0330696  16.0091186  13.3279622  40.0963593  70.2399397  18.9821351
  40.3407526  70.1989508  18.0575693  40.4230928  69.4201374  19.3528128
  60.1760435  43.2099056  63.9375353  60.3193712  42.8224468  63.0740738
  60.3273344  42.4907589  64.5508671  63.8460588  40.8557796  63.6408186
  63.4738207  40.3160334  64.3382025  63.5551834  40.4354811  62.8315163
  18.0647671  78.2538795  17.8530335  17.6761949  78.2817698  16.9786954
  18.9590371  78.5714722  17.7279449  68.7909985  26.3437319  63.2555437
  68.1452751  27.0405698  63.1385517  69.3417597  26.3939261  62.4742794
  89.7064877  40.4792547  61.2264299  88.9951515  40.7804155  60.6611538
  89.4402790  39.6012115  61.4992046  74.4306993  66.8498564  14.1313910
  75.2312708  67.3533678  14.2790067  74.1643953  66.5619612  15.0045633
  24.8963690  15.2716494  31.0611725  24.2889237  14.6879268  31.5156054
  24.7211051  15.1233566  30.1319122   6.2915939  60.4171801   0.6259134
   5.4216594  60.2996492   1.0075314   6.5928870  59.5282364   0.4382027
  15.6085062  83.7558651  22.1170974  15.0235927  84.4069004  22.5047398
  15.8720291  84.1387177  21.2803125  67.1767187  65.2256489  19.5224679
  66.2363100  65.3484917  19.6519828  67.2392607  64.5509624  18.8463664
  84.7182178  85.9030724  70.6914854  85.3442001  85.3444290  71.1522341
  84.0140247  85.3094387  70.4308558  89.7033215  76.8624830  46.4612722
  89.0875626  77.4284458  45.9956980  89.6572018  76.0261250  45.9980106
  70.5600739  25.6995392  39.2496729  70.4981470  24.7598767  39.4212246
  71.4951754  25.8936477  39.3140531  67.2195339  16.9150424  71.8061447
  67.8607368  17.6250362  71.8377447  67.1247101  16.7192614  70.8739901
  74.1363049  30.8391881  22.1102142  73.6203718  31.1790085  22.8413582
  74.4001007  29.9626827  22.3901820  63.2879019  46.0057735  69.9096060
  62.6902819  45.5209255  69.3403912  63.9985132  46.2821245  69.3309069
  85.3810692  62.0607519  15.2003074  85.7587814  61.3843441  14.6381366
  86.1128998  62.3598862  15.7399094  71.3534641   6.3610053   6.5349913
  71.5524578   6.2874955   5.6015950  71.4772892   5.4755098   6.8767476
   4.0815565  33.9694452  60.0389051   3.8343161  34.8722434  60.2390480
   3.5951382  33.4418535  60.6723690  60.1898813  81.0173607  36.1192465
  60.7617903  81.7488003  35.8865380  60.3197956  80.3791714  35.4177761
  81.9406986  45.2025080   9.4991821  82.6507759  45.1722240  10.1403594
  81.4851952  44.3675184   9.6066272  18.8398635  13.8703871   0.2693077
  18.5681677  14.6263170   0.7898684  19.5345294  14.2066813  -0.2968863
  35.2178311  16.5603530   4.7760147  35.7806945  15.8656323   4.4342858
  34.3276906  16.2339532   4.6443039  75.5050945  68.3075094  39.2615247
  75.5861235  67.6595926  39.9614334  76.1978674  68.9429140  39.4419694
   3.2118258   9.1622275   5.0918454   2.8531358   9.9204445   5.5530179
   4.1570669   9.2230803   5.2298599  74.9961662  53.1742764  60.4162073
  74.4211912  52.6058531  59.9038267  75.8703566  53.0135441  60.0609779
  31.5016055  31.6500878  67.8968477  31.5952277  30.7976794  67.4715662
  30.5929613  31.9016790  67.7316236  79.3286562   7.1631891   8.9320624
  78.8031483   7.5225413   9.6468639  79.4150543   6.2333667   9.1422957
   5.0069332  84.3455601  67.5540638   4.9620134  83.4085274  67.3638344
   5.5314648  84.7098351  66.8410349  42.9720306  68.8503790  18.7106037
  43.8904858  68.9187002  18.4498417  42.9862356  68.9404583  19.6634495
  47.2905111  62.7915382  19.2115355  47.9629898  62.4981022  19.8262727
  47.7376080  62.8258085  18.3658624  51.8977690  32.9268599  66.7919207
  51.6418791  33.6088920  66.1709642  51.7455149  32.1064973  66.3228178
   5.3337908  43.9009428  59.1249704   5.4810458  43.3138037  59.8664665
   4.7973800  43.3906603  58.5182524  63.7517929  30.4870749  62.9256010
  64.3505001  30.8327889  63.5876179  63.2440138  29.8196483  63.3870459
  24.5133758  55.3281450  73.4118414  24.9037910  55.9399652  72.7877522
  25.2119350  54.7021198  73.6024809  77.2650290  84.1661263  19.5301592
  77.3071575  84.9641323  20.0570774  76.6994429  84.3955612  18.7927985
   5.1004648  65.4521179  16.8583548   5.4933190  64.8654461  17.5046587
   4.1823456  65.5175066  17.1210575  35.4489517  22.3183560  48.1579065
  34.9601126  23.0263305  48.5774755  35.2981114  21.5577722  48.7191486
  32.7761436  67.9324389   8.4711492  33.1430316  67.0981598   8.1785655
  33.1645346  68.0753469   9.3342602  66.1630249   0.7712029  54.1552448
  67.0520639   0.5358233  54.4206476  66.0277128   1.6456735  54.5202398
  27.3052669  10.8104265  12.0526516  26.9412518  10.6210840  12.9174495
  27.8627348  11.5763414  12.1898937  46.8388891  18.2165802  48.3631992
  47.3652172  18.4396744  49.1309500  47.4498606  18.2752454  47.6286888
  70.3415585  63.8109064  51.4710188  71.1874390  63.6513090  51.0523987
  70.5385590  63.8353825  52.4074078  52.7631855  26.1799622  51.4050293
  52.0508480  26.3825083  50.7985783  53.5398579  26.1155510  50.8492756
  47.5578737  71.7494392  71.5382242  46.9883490  71.1131811  71.9707155
  47.9767990  72.2231960  72.2567511  56.5674353  25.0943470  63.7342644
  56.5515423  24.1391492  63.7940550  55.6492043  25.3542900  63.8085604
  55.3783131  50.7430410  74.3785858  55.2868795  50.7357883  73.4257889
  56.1624146  50.2207994  74.5479345  30.7136893  26.6908646  73.3252621
  30.4227138  27.1254444  74.1269541  29.9050689  26.4950013  72.8519726
  17.5042236  72.5664711   8.6040473  16.8455923  72.4715948   9.2921132
  17.8018630  71.6730261   8.4325653  59.4635868  59.4589615  59.4604921
  58.9370060  58.6644220  59.5479393  59.7950935  59.6249294  60.3429842
  52.7084637  68.7964582  28.4508944  53.5870504  68.7507200  28.0737591
  52.7593994  68.2606363  29.2424321  91.2344170  66.1155987  39.4058752
  91.0169125  66.8888283  39.9264932  91.2576199  66.4333630  38.5032582
  81.4017105  66.2685394  26.8033290  80.7734394  65.5751133  27.0049834
  80.8653545  66.9886875  26.4717507  81.4394509  77.2759592   0.1477266
  80.9251439  77.5762283   0.8971000  80.8802782  76.6293227  -0.2828764
   1.8391006  61.6370869   6.6548109   1.4438346  61.6322374   5.7830465
   1.1097067  61.8185711   7.2475004  79.0102959   1.3391972   9.8469013
  78.9239359   2.2445360   9.5483452  78.3954620   1.2681106  10.5770779
   4.2730671  26.6349864  73.2089996   3.7885293  25.9128332  72.8090620
   3.8993728  26.7172790  74.0863895  54.7806072  66.5463305  55.1180410
  54.6129322  67.3644829  54.6503401  55.7325125  66.5159988  55.2138996
   9.2670935  46.2745190  72.7727795   8.5340458  45.9991932  72.2222614
   8.8834411  46.3906384  73.6420059  78.9079857  82.1271229  60.1858377
  79.3098164  81.6689396  59.4477129  79.6451616  82.5169659  60.6557608
  78.2248020  33.9849186  60.5693722  78.5967445  34.4929481  59.8483992
  78.3624697  33.0723643  60.3153515  46.3530350  18.9971781  66.2250042
  45.5693674  18.4490657  66.2658262  46.9989109  18.5315764  66.7563200
  60.7235336  25.7437420  72.5599670  60.4887056  26.4294505  71.9347572
  61.6773462  25.6854796  72.5045061  79.2378855  61.9223452  28.4052348
  79.3758011  62.8264332  28.1226802  78.3541965  61.9185257  28.7730765
  37.0230985  51.1913013  46.0833597  37.3653626  51.6572857  46.8462133
  37.4875021  51.5755320  45.3397655  90.5642796  46.2587976  44.0195560
  90.1339817  47.0737600  44.2782402  90.4542542  45.6799459  44.7739172
  58.2264948  79.2254114  61.0362482  57.4876213  78.9295197  61.5679884
  58.2209730  80.1782227  61.1276245  29.6497083  67.0431042   4.3366221
  29.2472911  67.2184038   5.1872462  28.9388037  66.6859245   3.8043910
  52.4282408  56.3834620  64.9088478  52.2273159  55.5872774  64.4169617
  51.6482973  56.5391922  65.4414511  81.4614010  19.1048324  13.4764016
  81.4192677  18.1725144  13.2637012  81.0786533  19.5416224  12.7155113
  88.9632893  11.5565550  43.4026861  89.6853542  12.1557355  43.2133627
  88.2254314  11.9050193  42.9023266  46.0753441  13.9135063  18.1382775
  46.2652779  13.0520558  17.7667117  46.8000937  14.0794015  18.7411416
  22.2448897   3.7530452  19.9547946  22.6425147   3.9880887  19.1164148
  22.0396829   4.5925653  20.3662896  61.3864326  44.5724010  68.6013460
  61.6302919  44.3212128  67.7104616  61.0382938  43.7697744  68.9896917
  57.7702427  17.4800050  59.9673557  58.3545542  16.7265368  59.8831129
  57.0515823  17.2945440  59.3628979  65.5802488  47.0850897  68.8090181
  66.2591410  47.7137136  68.5637283  65.9738588  46.2291813  68.6395550
  66.9216204  47.6957607  26.0538983  66.5834856  47.3195744  25.2412605
  66.3602686  47.3313999  26.7382646  17.1090674  49.6473598  48.4290838
  17.5501180  50.4733229  48.2303619  16.5997338  49.8316479  49.2182922
  38.7294316  37.5633955  58.1725788  38.0456042  36.8951130  58.1277752
  38.2701206  38.3873415  58.0101681  68.2509422  64.0906715  11.1465347
  68.8498640  63.3440733  11.1356235  67.8505039  64.0638161  12.0155346
  71.7685032  53.2472372   9.6086413  72.0044422  53.3773518   8.6901462
  72.3702145  52.5695944   9.9168164  16.7418528  83.2458401   5.8769721
  16.6416204  82.6482773   6.6179889  16.8205607  84.1120052   6.2767142
  28.4828186  30.0083447   9.8006463  29.0515351  30.7664561   9.9350137
  28.6078072  29.4732547  10.5844116  78.4308815  83.4019947   5.1868474
  78.7780666  82.9961681   4.3924889  77.5389576  83.6597824   4.9539337
  36.7245245  77.4708271  33.5414743  37.0183349  77.7739286  34.4005632
  35.7958150  77.2728682  33.6620760  54.5633268  62.3468590   7.1936631
  53.8970995  62.5071907   7.8619921  54.0712500  62.0307541   6.4359266
  38.7787127  19.1167736  64.3735933  38.0683351  18.5329461  64.6395636
  38.8855529  18.9526188  63.4366465  41.2979078   6.5315491  18.2627463
  41.0703754   7.3899221  18.6200392  41.5097761   6.7025900  17.3450923
  76.2711096  42.4470425  69.9091816  76.6178274  42.0158005  70.6902361
  75.5869627  41.8567276  69.5934248  38.9251614  81.3424873  14.6482527
  39.1469121  81.5869617  15.5467451  39.7256136  80.9469986  14.3031478
  88.2151127   4.7663781   2.8177840  87.8419590   5.3370386   2.1459694
  88.0815220   3.8804942   2.4807473   2.9504380  35.8418036  25.1108551
   2.5024468  36.5591240  24.6625376   3.5124439  35.4539537  24.4400692
  66.5968704  26.2498164  71.9541216  67.1789646  26.6327286  71.2977886
  66.7892122  25.3125286  71.9271898  59.2350542  60.4230963  -0.2875304
  59.9195801  60.7722055   0.2832389  58.5319935  60.1681577   0.3099180
  77.5025654  16.7824328  67.8835201  78.1807280  16.6340399  68.5425377
  77.8809357  17.4338090  67.2929478  55.9896469  43.3954763  60.4876089
  56.5619993  43.9797783  59.9903774  55.9022141  43.8164997  61.3427830
  64.7942162  28.7051558  70.4672813  65.3308153  29.2052388  71.0822678
  65.4096794  28.4133554  69.7947550  30.1646209  16.8502879  59.1361427
  30.0055242  16.7929733  58.1940031  29.6228218  16.1570656  59.5131493
   9.8432368  82.5714874  17.1631050   8.8888848  82.6255035  17.2133660
  10.0133121  81.7348766  16.7302132   7.9044187  78.5266972  15.9599185
   8.3873773  79.0695953  16.5830135   8.2321465  77.6400471  16.1104894
  90.4649353  60.4218531  15.3114974  90.9028912  60.8244562  14.5616078
  91.1352825  60.3948784  15.9942424  30.7009077   5.6409162  12.7801633
  31.1586976   6.1681283  13.4349203  29.9233484   5.3167820  13.2346618
  82.3572350  46.0127401  71.3157272  82.2076225  46.9575405  71.2810373
  82.4855995  45.7568741  70.4023361  85.9294891  52.7548170  50.5617094
  85.7318211  53.5811090  51.0026169  85.6075382  52.8769159  49.6685839
  87.8687000  72.1881533   6.4709234  87.5905132  71.4017057   6.9403380
  87.0518017  72.6274776   6.2344617   5.9479934  82.1631527   6.0012227
   6.6134632  82.0622730   5.3206307   6.2528718  82.9029655   6.5265310
   7.1376449  84.5682240   3.2472903   7.8201300  84.2238426   3.8233531
   7.5993168  84.8017693   2.4419656  31.5604520   9.4016892  14.8868608
  30.6446791   9.3662959  14.6105719  31.5296960   9.7644609  15.7721198
  89.2170334  12.9118216  28.3977246  89.5239544  13.6938643  27.9389930
  88.6054420  12.5004566  27.7870059  60.1513815  16.8513381  68.7927103
  60.0324678  15.9050643  68.7111139  61.0985899  16.9790745  68.7406397
  74.3422937  29.9403334  67.7033472  73.9564276  30.7601428  67.3947239
  73.8318348  29.7129869  68.4805059   2.3863342  66.2971401  26.6037607
   2.3736811  66.7676878  25.7703018   2.1714588  66.9623375  27.2576475
  27.9099584  10.4325259   3.6234152  28.6550331   9.9500990   3.9816925
  27.5059485   9.8242056   3.0045828  80.9683132  23.1086087  61.0066509
  80.4138756  22.3989654  60.6822443  81.6458797  23.2080269  60.3378773
  67.5722122  49.9813843  59.2952967  66.8577623  49.5080233  59.7215891
  67.6878071  49.5355558  58.4561825  56.8381357  67.9571867  10.9131742
  55.9027576  67.7785778  10.8162630  56.9448566  68.8539886  10.5960083
  38.3303523  27.7606916  73.2785988  39.2870140  27.7302289  73.2684803
  38.0670738  26.9055891  73.6187696  81.8804646  61.6403532   8.0240023
  81.5225887  61.2913179   7.2077113  81.1680698  61.5481234   8.6566246
  49.4921350  37.9827094  55.3401613  48.5837603  37.9716873  55.0385523
  49.5799065  38.8145423  55.8055449  34.6331334  77.6382637   3.3691865
  35.5145097  77.3871422   3.6454877  34.2977476  78.1690407   4.0916991
   1.3337556  85.2373409   1.0487334   1.6037980  85.8162785   1.7615741
   0.4015873  85.0850201   1.2039530  31.6651940  61.7993307  27.5787616
  32.3320746  62.1698284  28.1568956  32.1587038  61.4506292  26.8364096
  75.8821058  52.1667957   4.6558267  76.1515617  52.9657412   5.1089406
  76.6353941  51.9334698   4.1132945   5.6008136  28.0698133  10.7716703
   5.5756480  28.1732035   9.8204035   6.5329629  28.0791092  10.9890270
  16.7944372  67.4879360   1.3311934  17.1517563  67.8538847   0.5220958
  17.3086882  66.6950178   1.4830260  68.1115246  74.8816872  10.6628597
  67.9412556  75.8221626  10.7152772  68.8294315  74.8029041  10.0346577
  27.1329999   4.7712350   4.5199564  27.1546268   5.5868769   4.0194649
  28.0390525   4.4625804   4.5141730  79.9340153  68.9061928  15.5482018
  80.2010059  68.2782936  16.2195361  80.1103973  68.4604740  14.7196746
  18.9423180  85.6370544   5.2996391  19.7661662  86.1208057   5.2405667
  18.6169684  85.8247280   6.1800689  69.1791153   9.8884648   9.8894209
  68.3059216   9.6415877  10.1940715  69.5028687   9.1108751   9.4347000
   1.0031095  44.4037151   2.8136545   1.3893528  43.9061213   3.5343805
   0.2220967  43.9064550   2.5707939  33.2231045  55.9028625  11.5797126
  33.0119109  54.9820089  11.4258790  34.0561152  56.0363245  11.1274815
  58.9229822  29.7986174  16.3887811  58.5614014  29.4954085  17.2215807
  59.8543310  29.9306655  16.5659368  59.8592901  32.7834439  67.3686361
  60.7372379  33.0893850  67.5963116  59.9961281  32.1923542  66.6282845
  66.1228418  80.1737022  55.5889750  66.1139822  79.2187452  55.5240536
  66.0034704  80.4760838  54.6886730  58.2241964  83.7299728  63.2584572
  57.7820587  84.5789433  63.2569695  57.5476551  83.1080627  63.5263252
  72.5551653   3.4948155  56.3940334  72.4733448   2.6121217  56.0329390
  72.7293873   4.0494680  55.6336117  68.3563709  22.3317266  73.9898109
  69.0127945  22.9582882  73.6852455  67.7999067  22.1777034  73.2263613
  39.9362612  61.3865757  53.9460278  39.3766451  62.1011448  54.2500877
  39.9476719  60.7649803  54.6738482  57.4494839  72.7385950  54.4951153
  57.0409012  72.1647406  55.1431799  57.3216057  73.6213541  54.8424101
  48.0825043   1.1688966  27.4159956  48.9501810   1.1501805  27.8197527
  47.9792738   2.0705904  27.1118212  56.4860439  82.9400349  14.1578257
  56.1986923  82.0739365  14.4468725  56.2424374  83.5249996  14.8752570
  19.0450215  61.0379934  73.0415487  18.2397330  60.9321308  73.5480404
  19.7003710  60.5358553  73.5259104  63.9411306  76.0648060   7.4981785
  64.2593527  75.2149105   7.8025538  63.1757212  76.2436056   8.0444443
   6.3341451  50.7095528  -0.1144874   6.6018999  50.3995037   0.7506181
   6.2474728  51.6574001  -0.0129650  43.8599539   7.2643948  58.6841440
  44.3652678   6.4936239  58.9425945  42.9467535   6.9850731  58.7495422
  56.2086105  22.1892548  70.2770138  55.8697462  23.0706668  70.1204348
  57.1590519  22.2832251  70.2132750   3.2184926  52.7368212  15.8672750
   3.0438778  51.8487883  16.1789417   3.3878544  52.6330614  14.9309099
  41.2925434   9.4814694  50.3660107  41.5632343  10.3955150  50.4524994
  40.4273796   9.4482422  50.7741976  30.6583643  32.6630521  72.6049185
  30.6501460  32.0272565  71.8894291  30.2263713  33.4366870  72.2428417
  81.2795067  38.7870669  72.2257137  81.1003780  38.2801771  73.0176783
  81.6061115  39.6271920  72.5478125   2.1603981  17.1252024  17.5815201
   2.0490183  16.2671518  17.9908800   1.3876128  17.2277069  17.0260680
  78.8399506  53.0089235  23.6629319  78.6516809  52.1014309  23.9021873
  79.1041279  53.4233093  24.4843507  82.7198029  61.7426729  63.0825233
  83.6386490  61.6624165  62.8265619  82.4247837  60.8399725  63.2021999
  24.9893713  84.1481590  21.9758987  24.3952775  84.8812675  21.8151307
  25.2299857  84.2327499  22.8984928  14.6739495  33.2979631  16.4812469
  15.4284763  33.2887387  15.8923197  14.5125055  32.3752522  16.6781461
  22.9837966  71.0385275   1.9201738  23.4921265  71.8073988   2.1783762
  23.4349608  70.3029490   2.3344290  70.0521851  22.2279429  25.5097079
  69.6955204  21.3444352  25.6015420  69.3146467  22.7528381  25.1986551
  24.8564863  69.2959881  16.7661023  25.3208303  69.3711758  15.9324586
  23.9398599  69.4613647  16.5454638  25.3288579  23.1677103   5.1905453
  25.0460029  22.3077059   5.5013782  25.3059912  23.7233877   5.9696031
  66.4512968  78.9715910   9.6438640  67.1992016  78.5018635   9.2747766
  65.8508873  79.0828800   8.9067376  78.8645554  80.6927109  62.6746655
  78.7810373  81.3942623  62.0288420  78.3550882  79.9692345  62.3096323
  34.7030163  73.1237555  68.9146090  34.6971488  72.3752403  69.5112038
  35.0951409  73.8329697  69.4240046  65.5418634  49.1462183  61.0387278
  64.8281193  49.2239952  61.6717768  65.3774452  48.3150768  60.5933142
  33.4397531  17.2757280  38.0670023  33.0899453  18.1645060  38.0042243
  32.9592848  16.7817473  37.4026489  73.3149624  61.7410707  43.3656311
  72.8259277  61.5884972  42.5570536  74.0735197  62.2572947  43.0929756
  13.5459268  36.5603495  35.2092314  12.6742518  36.6453838  35.5954742
  13.9246666  37.4367809  35.2774572  16.2544155  14.9675190   4.2571992
  17.0061517  15.4576659   3.9242107  15.8820772  14.5450056   3.4831983
   9.3682033  13.4593260  20.9411049   9.4133884  12.6413655  20.4459977
   8.4321070  13.6480761  21.0068965  77.8101873   8.1352991  62.5754404
  77.7072811   7.8056908  61.6826916  76.9414902   8.0426013  62.9665995
  25.8978081  71.5426970  71.9931841  26.7710114  71.4535570  72.3750305
  26.0165167  72.1503353  71.2631750   6.1666459  27.8554678  17.8012192
   5.6632471  27.2310925  18.3236921   7.0063293  27.9256749  18.2553506
   3.2932046  10.2006733  68.2997656   3.0424795  10.2246845  67.3762989
   2.4868459   9.9697518  68.7609529  64.4123840  57.0592642  62.2620106
  63.7664270  57.5963116  62.7208614  65.1958656  57.1066618  62.8098631
  66.9859552  59.8839951  49.5070696  67.0462894  59.8472452  50.4616594
  66.7966938  58.9832735  49.2441845  37.7099085  57.8337193  60.2176142
  37.0827627  58.0544424  60.9062386  38.2216573  58.6332083  60.0944901
  63.5136700  73.2237387  51.3586235  62.9754591  72.9694176  50.6090355
  62.9651117  73.0390549  52.1209955  69.2992496  85.7523155   0.4372711
  69.2868137  86.3806248   1.1592855  70.0796080  85.2210617   0.5954958
   7.3532480  79.2655563   4.7215244   7.1085316  80.1368904   4.4098622
   8.2600147  79.1548443   4.4356090  53.7189770  21.7578864   3.4651294
  54.5426130  21.3904428   3.7858224  53.2333231  21.0030222   3.1326365
   6.0043383  34.9633884  54.9073362   5.3459644  34.7496510  54.2462063
   5.5429238  34.8770165  55.7415199   7.5534159  64.8352480  63.9449310
   7.1972817  65.3648186  63.2315207   8.4136415  64.5571566  63.6304379
  68.6031103   5.4317462  14.7401166  68.8554001   4.9798509  13.9348996
  68.8022709   6.3525045  14.5704973  59.1096926  40.1419592  57.0304394
  59.1591978  39.5160413  56.3079405  58.1939411  40.1156425  57.3078108
  30.3372955  19.6451080  28.9475560  29.5358253  19.7825563  28.4425974
  30.9711671  19.3215680  28.3074307   1.7932583   8.1901312  63.7971210
   2.4038312   8.3636832  63.0806589   1.6079457   7.2532839  63.7322474
  13.5116959  26.3453770  71.1361885  13.9166510  26.7390990  70.3633833
  13.1876409  25.4978848  70.8312654  65.6134605   9.0956634  18.3588552
  65.8386946   8.3794069  18.9525533  64.7772646   8.8335752  17.9737401
  50.0125027  51.0450935  71.8507481  50.8419991  50.5691719  71.8099833
  49.4012499  50.5042887  71.3506174  70.7728446  85.6995591  50.7940102
  70.6090760  86.0342904  49.9123287  69.9070430  85.6615627  51.2004280
  32.0939255  80.4357910  16.9800568  31.1375499  80.4543114  16.9449615
  32.3007989  79.6268415  17.4480760  10.0902236  48.4554338  17.5324893
   9.4557416  48.9852858  18.0151117   9.6109653  47.6599216  17.3007572
  16.4769828  76.9631052  33.9974427  15.5442035  77.0707941  33.8115454
  16.6275537  76.0203028  33.9290357  77.1785355  55.6610012  67.6021576
  76.3938141  56.1095190  67.9172325  77.9026794  56.2226677  67.8785181
  73.0089235  32.4714875  70.0743198  72.7253771  32.2099018  69.1982985
  72.9714251  31.6652513  70.5889130  44.5691967  60.0347519  56.8886662
  43.9989376  59.9993420  57.6566362  44.5231199  59.1545630  56.5153360
  64.0672970  16.6230965  37.8735924  64.1665173  15.8041465  37.3880935
  64.5644569  16.4852929  38.6798644  33.5200763  21.5238237  21.5102601
  33.9392662  22.1493173  20.9192681  33.5823107  21.9316697  22.3739839
  13.8548279  13.6982727  34.7406602  13.8554227  13.5313928  35.6832004
  14.4962800  14.3985987  34.6210146  69.3277454  30.9707069  56.7644978
  68.5702276  30.5095005  56.4043856  70.0637817  30.6788468  56.2266302
  61.7951870  10.9869421   4.3555877  61.0011435  10.4586315   4.2742345
  62.5024319  10.3986382   4.0911400  40.7358503  54.0133429  46.4825773
  40.5729818  53.9601231  47.4243164  41.2634706  53.2391024  46.2866259
  88.7289143  48.0642605  38.8038111  88.0746651  47.7664804  39.4358897
  89.1256714  47.2587204  38.4722686  68.2586908  62.8274155  60.9119225
  69.1046381  62.3843813  60.8461857  67.7173376  62.2339773  61.4324999
  82.7202415  71.3744974   7.9301625  81.8158817  71.3755703   7.6165456
  82.6487637  71.1899090   8.8666713  81.4956474  56.8788290  59.7897100
  81.3028717  57.0277262  60.7153988  80.7491589  57.2578049  59.3256283
  56.5011883   5.8308440  17.9653192  56.5900803   5.4186803  17.1059871
  55.5616236   5.9874243  18.0598187  47.3438263   3.5882646  68.9408731
  48.2208586   3.8761368  68.6875534  47.2840738   2.6893306  68.6174870
  21.0999703  50.0114822   8.2362419  21.8704200  50.3460789   8.6952430
  20.4233408  49.9583912   8.9112139  33.2193971  52.1831369  66.8931723
  33.8440943  52.3263168  67.6041460  32.3966169  52.5466824  67.2204351
  40.5405521  17.6667714  43.8786268  41.4579725  17.6486599  43.6061478
  40.3978968  16.8173337  44.2961645  27.9652071  32.2567415  19.2905617
  27.6233125  31.3632512  19.3223917  27.8234148  32.5353575  18.3858514
   2.8635043  83.1824493  13.6329985   2.2156981  83.8555813  13.4244978
   3.6018941  83.6668491  14.0022767  59.2294407   2.7854973  14.9226594
  59.9430799   3.2333016  14.4683254  59.1982603   1.9167352  14.5220196
  88.4834671  36.0228539  65.5350780  88.5697651  36.7169857  64.8816538
  87.5391483  35.8953762  65.6258154  80.3619862   7.2569042  61.6287804
  80.3811455   7.9218531  60.9405184  79.5350122   7.4092811  62.0860815
  13.4407806  47.2322559  64.2038441  13.1271887  46.4865494  63.6921692
  12.7219152  47.8635120  64.1724968  42.2169256  55.5095530  65.2567673
  42.6152611  54.9045753  65.8825207  42.9579115  55.9746218  64.8683357
  85.9661388  33.9918685  63.6078262  85.5310726  34.4119620  62.8658867
  86.0167694  34.6765542  64.2748165  73.2641745  54.4552279  43.5694456
  73.0904818  55.3901339  43.6790514  72.9251766  54.0532494  44.3692732
  86.8418312  42.2152328  62.1096516  86.9496441  41.7824173  61.2627268
  87.5825882  42.8188133  62.1661854  66.3058138  34.7585082  44.9471188
  66.7172432  34.9196124  44.0979958  66.2088680  35.6281471  45.3351402
  30.9450054  40.5487013  10.9908426  30.9696794  41.4811230  11.2058163
  30.1644588  40.2205515  11.4372683  27.0449162   1.7034741  12.3933411
  27.5842428   2.4941371  12.4077797  26.4981985   1.7721477  13.1760383
   1.9599997  58.0324888  25.6374383   2.4654835  57.2553587  25.8757472
   1.6804491  57.8694201  24.7366095  32.7269030  79.2723703   1.5481815
  32.0217657  79.1905499   2.1903032  33.4532738  78.7761927   1.9255754
  55.0801945  29.0292120  48.7361002  54.3599510  29.4903946  49.1659737
  55.3461266  29.6110725  48.0240965  85.2507877  59.5529556   5.5329257
  85.0798321  58.6517143   5.8063632  85.4551315  59.4855928   4.6002215
  81.5591145  66.9034767  65.8837652  81.9810677  66.5978241  65.0807953
  80.6321526  66.9734144  65.6555510  54.9869394   2.8051299  63.6113119
  55.1447868   3.7475634  63.6672974  55.3036356   2.5604779  62.7417850
  42.4667120  45.3231096  73.5210276  41.6484404  44.8264694  73.5241747
  42.1942902  46.2328196  73.4008408  13.9009237  -0.0961041   9.3379796
  14.5570040   0.5537308   9.5899814  13.4985030  -0.3631020  10.1644194
  17.1852255  74.5812845  11.2457967  17.7827370  74.8711634  11.9351315
  17.6510501  74.7683430  10.4307806  70.5722523  59.0965223  66.6109800
  70.0507021  59.8948812  66.5282965  69.9931908  58.4770679  67.0550537
  50.5850887  75.4318571  60.1447916  51.0792923  74.8912048  59.5286036
  50.9629393  75.2266216  60.9999800  30.8073735   0.6781575   5.7421392
  31.2593198   1.4907490   5.5148250  30.3952694   0.8614063   6.5864277
  38.6081910  15.3348362  19.7831845  38.0022645  15.9838402  19.4255853
  39.4091940  15.8276379  19.9614286   7.6956648  26.3757753   2.4626273
   7.2998220  26.9393945   3.1273618   7.1957535  25.5609226   2.5109485
  70.7684708  53.1526995  44.0823603  69.8981190  53.2932377  43.7095737
  71.3502884  53.1114101  43.3234024  52.5753355   5.4704964  57.9999733
  52.5736475   4.9119306  57.2226477  53.3190060   5.1599395  58.5164499
  22.6849174  34.3635154  12.7800870  22.9463053  34.1054344  13.6640000
  23.0975604  35.2170300  12.6478994  55.9333467  28.4959722  21.0823798
  55.8923674  28.9765096  20.2555585  56.5138865  29.0192461  21.6350055
  58.0388403  34.6886349  73.0820894  57.9959822  35.4889011  72.5586700
  57.1428537  34.3518424  73.0785275   8.0959851  75.1124477  25.6927633
   8.1040859  76.0422945  25.4657197   7.1733093  74.9124670  25.8505893
  50.2124023  38.3207536  15.3194761  50.0290298  38.9569736  16.0107291
  50.8253479  38.7696719  14.7372365  54.0603781  65.0542212  11.4313340
  54.4007730  64.1658545  11.3256526  54.2997980  65.2976513  12.3255658
  62.9720497  25.8979487  42.4293661  62.9924059  24.9607444  42.6229286
  63.8418341  26.2123966  42.6759958   4.0222862  11.8634379  16.9022131
   3.5457307  12.1145451  16.1109662   3.5972607  11.0561216  17.1917379
  12.8146982  75.9932232  20.1774669  13.7383580  75.7476902  20.1245689
  12.5427377  76.1002493  19.2659771  72.0597649  51.2713242  70.3718376
  72.5038862  51.4134979  71.2077665  72.7156734  50.8427382  69.8219919
   1.7423028  75.5562258  47.5870037   1.2646621  75.4728365  48.4123135
   2.5273335  76.0546923  47.8139067  61.7414427  60.3559399  65.7195568
  61.2764692  59.5234442  65.8030844  62.4026632  60.3314209  66.4112329
  19.6626580  26.1634302  31.9679165  19.1320693  26.2981534  32.7531266
  20.0232720  25.2827358  32.0707250   5.6104863  30.5102897  23.4885597
   6.0423887  30.1269579  24.2519403   5.9242421  31.4142895  23.4646630
  28.0987549  66.6862535  11.2882984  29.0380931  66.5462065  11.1688614
  28.0178928  67.0184135  12.1823680  52.6053775  27.7645577  74.6137908
  52.9633106  27.0199288  75.0971596  53.0773605  27.7587689  73.7810683
  45.7745981  47.3976040  39.0331316  45.6771231  47.9640293  39.7985649
  46.2616253  46.6396666  39.3565106  78.5217237  80.6897640  45.7164574
  78.9282799  81.3538074  45.1596832  79.2578983  80.2528572  46.1447001
  74.2870808  27.8394246  56.9795656  73.8990164  27.4751782  57.7751541
  74.1531754  28.7839198  57.0585060  63.1559324  59.0645266  10.1617193
  63.8188362  58.4801483   9.7939080  63.6328602  59.8686647  10.3669846
  52.7474976  73.9945364  10.3351188  52.1092033  74.2207241   9.6586192
  52.9704046  73.0806351  10.1581275  34.6866179   3.2618698  16.4457512
  34.8872757   3.5876924  15.5683637  33.7754154   3.5154599  16.5928328
  71.6372967  67.0591497  36.1443806  71.1942625  67.7853203  35.7054853
  72.3385763  66.8079662  35.5432606  91.0084820  78.0921650  15.9223735
  90.4172802  77.5016689  15.4554427  91.7658710  78.1797552  15.3436434
   0.6362901  55.7702971   4.9445415   0.6603243  55.7051134   5.8992171
   1.4743429  55.4068804   4.6584848  24.8076582  74.1864014  23.6987352
  24.3533301  74.5661116  24.4508266  24.9821711  73.2811880  23.9563417
  79.4037342  72.6859856  58.1414557  79.4790411  72.1272755  58.9150238
  80.2520084  72.6065779  57.7051544  75.9169388  69.8870420  44.9924278
  74.9646282  69.9678183  44.9394274  76.0684681  69.3417645  45.7644033
  80.2673721  32.3529458  64.0800953  80.4797173  31.5132952  63.6725092
  81.1158848  32.7206016  64.3272495  22.5321841  27.6136804  13.9482021
  21.9410849  27.8119087  13.2218826  23.2115674  27.0620632  13.5604012
  58.2541656  47.2204399  35.5807686  57.4865627  47.2023821  35.0091982
  58.8122082  47.9045153  35.2108288  24.7387075  15.4994106  13.2372463
  24.6147585  16.4075768  12.9613817  24.2301035  15.4227662  14.0445125
  77.9864645   3.7843800   8.9156973  77.5546598   3.5978931   8.0820322
  77.2681236   3.8849118   9.5402861   3.3441636  45.1272869  60.8484983
   2.4386469  44.8254681  60.7765532   3.5066462  45.5947256  60.0291491
  75.8344126  55.7579517  63.1067610  75.6048012  54.8291445  63.0781317
  76.3158607  55.8604622  63.9276981  41.5006065   1.7200701  10.2210069
  40.8324909   2.2814694   9.8277032  42.1870852   2.3252477  10.5016041
  74.5688391  40.7861996  59.9039936  75.5160999  40.6587601  59.9557590
  74.2166328  39.9081206  59.7585297  57.7226067  59.8648214  47.7174044
  57.8909206  60.6889343  47.2605133  56.9809580  59.4794464  47.2508430
  16.2971103  62.6849413  23.7006855  17.2265828  62.9111147  23.6666512
  16.2852287  61.7528343  23.9180994  80.4418468  69.4727373  59.4001055
  81.2493134  69.1650820  59.8118973  80.0569534  70.0683069  60.0430584
  78.8208246  61.5053797  66.5980005  78.9476681  61.0883522  67.4501896
  79.1816282  62.3853874  66.7059135  81.5209389   5.5660552   7.0089048
  81.1359501   6.4298010   7.1570796  81.6167831   5.5064112   6.0583848
  61.6883278  27.7081656  70.8943605  61.8003130  28.4825778  71.4456987
  62.5471830  27.5729918  70.4939556  64.7212458  63.0668306  48.3645153
  64.6628094  62.2206736  48.8081694  65.5572367  63.4320021  48.6543465
   3.1879973  84.7615623  55.2716017   3.5880321  85.4541492  55.7974672
   2.7674085  85.2239227  54.5466423  81.1156464  50.7799959  44.4077444
  81.3873863  50.5827284  45.3041124  80.6430149  49.9977875  44.1231155
  87.5616932  31.7244816  66.2957811  87.1043205  31.8451619  67.1279335
  86.8623352  31.6057849  65.6531000  36.6755199   2.4620236  35.5498672
  36.0493279   1.8766576  35.1238823  37.4636984   1.9302109  35.6602335
  76.2836790  42.8120708  48.8296652  76.2294149  43.4802198  49.5129347
  75.9558821  42.0154762  49.2470646  59.5896387  55.7512665  45.2906895
  59.1348648  55.0540638  45.7632589  59.8985958  56.3433552  45.9764051
  48.3435202  50.8680725  62.0081234  48.0319691  51.6923761  61.6343641
  47.5476503  50.4165268  62.2890615  52.9013205  34.3333578  62.2193623
  52.2104931  34.1713738  62.8618193  53.5051346  34.9296689  62.6621342
  78.8081980  35.7107425  46.2714767  79.1550970  34.8378086  46.0874271
  78.7548208  35.7508373  47.2263479  65.3036070  42.9847813  49.8018789
  64.9537563  43.8408756  50.0487375  64.6395159  42.6129866  49.2213726
  60.7356215  11.8964171  61.3657475  60.5987692  10.9678638  61.5536070
  60.6546164  12.3273921  62.2165871  75.3895855  85.9730816  27.0163035
  75.0779343  85.1536846  27.4006224  76.3330030  85.9699440  27.1781063
  48.5118198  27.6332450  45.3332567  48.5225153  26.7905211  45.7870579
  48.0160236  28.2112765  45.9131718  51.7181015  52.8815699  69.6271038
  51.6013193  52.1859407  70.2741718  52.6657724  53.0074978  69.5792055
  31.6218686  57.6641655  47.7710056  32.2826433  56.9807386  47.6590395
  32.0600700  58.4687281  47.4937201  53.6596823  83.5693455  71.3641214
  53.3531618  83.8985920  72.2090292  52.9284668  83.0498409  71.0299492
  57.1084642  62.1266890  71.8718529  57.5607920  62.5996542  72.5703716
  56.4918184  61.5554428  72.3297405  85.7760143  20.9663701   5.0096059
  85.6388664  20.1775694   4.4849941  85.1801205  20.8668327   5.7520580
  45.4013300  52.8826046  62.9572773  45.2169943  53.6778784  62.4574804
  46.1725473  53.1017208  63.4802008  68.0358028  45.0197315  69.1582298
  68.6570024  45.7255888  69.3374348  68.4974432  44.4432640  68.5492897
  84.6514606  75.5057240  49.6104002  85.3314114  75.7792616  48.9947176
  83.9783001  76.1825895  49.5400572  66.5428591  14.6241617  62.4438715
  66.5206146  13.7024415  62.1866417  65.8958769  15.0462484  61.8786383
  85.6371689   9.1656226  30.0375843  85.1098728   8.9361310  30.8027792
  85.5497646  10.1158810  29.9627399  82.3850822  59.0845633  69.6370029
  81.9733047  59.3674707  70.4534769  83.3067513  58.9609051  69.8638868
   5.1702094  62.0328093  10.9042478   4.2823857  61.7687416  10.6628561
   5.5451357  61.2578821  11.3227606  24.8698831  14.4212866   4.7331101
  25.1330400  14.8919094   5.5239922  25.2498579  13.5487807   4.8359913
  59.7662783  71.3786602  58.3818579  60.1855278  71.0489559  59.1766882
  60.2343798  70.9467268  57.6673365  23.8524270  30.7660246  52.8691483
  24.2531800  30.8512044  52.0040607  24.1761565  29.9288630  53.2017040
  13.6229742  57.2539186  70.9699583  13.3470058  57.3149157  70.0554323
  12.8156281  57.0759583  71.4524031  72.8271198  72.3124218  24.1296101
  72.2123384  71.5794277  24.0981197  72.4779367  72.9450369  23.5018349
  86.6938972  33.3720446  71.1040211  87.3314285  32.8250241  71.5628862
  85.9458160  33.4186792  71.6993570   8.1140363  15.6260002  35.2010393
   9.0087539  15.3944421  34.9518538   8.2191432  16.2412596  35.9267378
  27.4114227  56.5015078  15.2866316  28.0601001  55.9466982  15.7197976
  26.8516612  56.8149090  15.9970379  59.0880585  47.4976826  70.3078556
  59.1400337  46.6738415  69.8232794  59.9955225  47.7953196  70.3722906
  57.1286201  68.4931040  73.4255171  56.4351130  68.4857178  74.0852308
  57.8902626  68.8497019  73.8826561  77.7320766  33.2279348  63.3209562
  78.4691572  32.8826165  63.8246393  78.1201935  33.5143447  62.4941778
  72.4387074  59.2261219  64.6446276  73.1745338  59.0166140  65.2198648
  71.6776037  59.2405748  65.2249193  40.3576565  43.3213854  23.3768177
  39.8851514  42.5311232  23.6384678  40.5652523  43.7604618  24.2016482
  53.9840603  50.6509018  60.7538986  53.9789343  50.3262997  59.8534346
  53.1261015  51.0603142  60.8657980  61.8786669  45.3222990  50.9674740
  62.8355503  45.3015232  50.9542990  61.6154480  44.5736504  50.4322386
  59.6684170  23.0683398  59.3743181  59.4158649  23.4749460  60.2032423
  60.1516199  23.7516737  58.9097691  63.0245638  82.8986454  51.0015488
  62.1541357  82.5514126  50.8065653  63.3848238  83.1356621  50.1469946
  10.8735049  82.0156002   3.0629754  10.3369486  82.0947266   2.2742563
  11.1264634  82.9148483   3.2717776  79.9959660  43.6302662  59.0644646
  79.6365213  44.2463255  59.7028255  79.2334890  43.3182096  58.5771465
  83.7815285  46.2959576  68.2761765  84.2026615  46.1019754  69.1135836
  84.4948101  46.5973997  67.7135134  60.6185436  25.1939487  61.4676571
  60.4258919  26.1175895  61.6289139  61.4600658  25.2008891  61.0115576
  40.2544308   6.9233966  39.9976921  40.1565695   5.9715694  39.9716163
  41.1867809   7.0638824  40.1626635  72.3958540  85.4561615   5.7093048
  72.2806358  86.3451767   6.0448599  71.5314484  85.2107525   5.3794378
  34.6684933  10.6717765   0.5248025  35.4229093  10.5872738  -0.0582480
  33.9167452  10.4420471  -0.0213911  60.2546930  11.1072338  13.5118973
  60.3668880  11.8914545  12.9746437  61.1078024  10.9763956  13.9258003
  61.6776991   4.4786128  11.3737953  62.0466614   5.3057313  11.6835868
  60.8455181   4.3980902  11.8398714  65.7075262  62.6070786  67.7424908
  65.0674629  62.7461386  68.4404945  65.2880526  61.9789362  67.1545219
  42.1234083  54.8193979  49.1811848  43.0219889  54.6180344  48.9199638
  41.9048882  54.1464615  49.8258829   3.1377646  63.9581203   7.8945941
   4.0453646  63.9781952   7.5911289   2.7838689  63.1434727   7.5377464
  28.4342122  17.5372028   0.3736758  27.5614953  17.9301167   0.3883040
  28.9076877  17.9791307   1.0784821   3.0164570  66.4455318  11.8704712
   2.7819851  66.8269062  11.0244167   3.9132962  66.1327171  11.7518950
   2.4233824  81.6605473  43.3070660   2.1191861  81.1187267  44.0351677
   1.7943582  81.4935875  42.6051521  89.6756744  56.4127445  13.3775699
  89.3734741  56.9727278  14.0926421  90.2998352  56.9554281  12.8957582
  76.3523245  83.7537479  34.6979022  75.8130026  83.3660793  34.0086460
  76.7291927  84.5362473  34.2955232   5.1942009  63.9715862  19.0696943
   4.2708486  63.9165545  19.3159127   5.6578743  64.0754843  19.9006236
  63.6270237  51.7430115  60.2959633  63.5274315  50.7912397  60.3171635
  63.3592892  51.9922018  59.4113970  85.8833981  60.0337029   2.8519332
  86.6678905  59.8691797   2.3287338  85.6364441  60.9331751   2.6369977
  86.9893360  66.0321093   4.0204239  87.9082489  66.1625719   4.2545334
  86.5003014  66.4755678   4.7135478  50.7159042  48.1519699  70.0804186
  49.8564816  48.5059643  70.3091383  50.7131577  47.2650528  70.4404211
   8.5499823  39.5770669  30.8939552   8.6221361  38.6296058  30.7784343
   9.3303055  39.8175645  31.3934422  58.6875820  36.5424681  71.2584496
  58.6224937  37.4654531  71.0133123  58.3493757  36.0684538  70.4987431
  28.2208562  15.4142451   3.4288472  27.7522969  14.5805812   3.3877814
  28.0977750  15.7140613   4.3295100   9.2832488  81.6298866   0.9671780
   9.0587860  80.7202435   1.1631346   8.5018671  81.9831085   0.5418434
  41.7565966   2.4235438  18.4744298  41.7842197   2.9467386  19.2755151
  41.0806131   1.7665410  18.6406446  35.2291393  14.6763456  11.0314608
  35.4217005  14.7991526  10.1019073  35.1902699  13.7266469  11.1445749
  34.7644615   7.9442269  11.6238070  35.1430392   7.6082796  12.4362421
  34.1345167   8.6061484  11.9088686  73.6434650  76.6777420   2.9192680
  74.1857052  76.8100548   3.6968914  73.8653040  75.7960844   2.6197696
   8.4127820  37.3560095  73.3316135   9.1341579  37.4666452  73.9509773
   8.8291645  37.0258379  72.5354719  22.2395468  11.6860783  45.6261158
  22.6798892  11.0911918  46.2331057  22.1368837  12.4995100  46.1201000
  29.3877387  70.8273458   9.3293440  29.7159696  69.9634552   9.0799624
  28.4416294  70.7720423   9.1949809  34.0035367  55.9178543  57.4606037
  34.6788740  56.4231348  57.0080042  33.2629418  56.5198088  57.5341034
  45.7605743  54.9466133  54.5362091  46.4310598  54.4902039  54.0279102
  45.4517031  54.2946053  55.1652670  90.9550267  58.6881018  49.2757082
  90.7792105  58.4705210  48.3602953  91.1121627  57.8430033  49.6968365
  29.3818974  29.2248154  12.3709178  29.2607260  28.9519930  13.2803774
  30.3233862  29.1418958  12.2193992  72.4089956  78.9884043   4.4648173
  73.0643225  79.4175911   5.0148851  72.9070854  78.3535051   3.9499995
  36.8987322  14.6702611   3.5291824  36.6395187  14.0315104   2.8650749
  37.0007133  14.1554904   4.3297091  22.4422550  12.5653100  51.6926050
  22.9805064  11.9848573  52.2307396  22.1317935  13.2361662  52.3007154
  25.1288080   7.5512648  64.2437124  24.8050427   6.6686469  64.0637255
  24.4046593   8.1268334  63.9976215  73.5067415  45.9535742  57.2950554
  73.5819721  46.7088413  56.7118359  74.3469858  45.5025768  57.2124958
   8.5399407  27.6751328  11.5947378   8.9519382  28.2188582  12.2661924
   8.6599576  26.7779946  11.9061375  74.3034840  50.4096556  49.2506266
  73.3786488  50.6564379  49.2474365  74.3427086  49.6206665  48.7100744
  27.0815277  81.5846157  24.6656418  26.1883521  81.2674713  24.5319080
  27.6234603  81.0086727  24.1263580  19.5282030  30.1602817  63.2120657
  20.2873254  29.6137190  63.4151268  19.5756161  30.8795667  63.8418388
  73.9369059  82.5322437  57.6201296  74.5828962  82.3085785  58.2901382
  73.8794374  83.4871769  57.6521397  13.9981186  13.2664728  32.0268989
  14.1631877  14.2083371  31.9835877  13.6952972  13.1173229  32.9226041
  80.3127670  79.0834093  64.6180677  80.6158543  79.5628929  65.3890800
  79.9854279  79.7618580  64.0274811  42.1445942   4.2689067   5.4784364
  42.3375034   3.5903406   6.1254025  42.7788496   4.1187277   4.7774383
  19.4547784  13.3038902  23.3417034  19.8987901  12.6839113  22.7631617
  20.1367235  13.5989869  23.9451122   9.2119020  70.0868130  36.9293904
   9.8063517  69.7933865  37.6198697   8.7499785  69.2936039  36.6579556
   4.8830438  29.3368626   6.2902457   5.0735003  28.9463615   5.4373288
   4.9768281  30.2788806   6.1486888  29.1424918  24.6393585  70.1158762
  28.4022093  24.3050694  70.6223011  29.5051503  23.8664365  69.6830940
  69.4057417  80.6276226  32.8214478  69.9190807  79.8244858  32.9091334
  69.3471241  80.9728718  33.7122893  73.2317114  69.6424866  63.1089592
  73.2893419  70.5375242  63.4433556  72.8313208  69.1455746  63.8223982
  54.4908905  44.4704199  10.6144083  55.1672363  44.9327755  10.1194155
  54.4975328  44.8872948  11.4760351  52.1938372  18.4096849   5.3680158
  51.3601255  18.8071311   5.6194031  52.7924395  19.1502190   5.2704674
  72.3429537  65.3953838  73.1197834  72.1425009  64.5474720  73.5161352
  71.5828466  65.5890036  72.5711584  44.0013361  78.3736467  42.9829454
  43.5985947  78.2961559  43.8478279  43.7147284  77.5898409  42.5141811
  78.4480524  34.7696638   0.6789771  79.2469120  35.0433660   0.2282659
  78.7582016  34.3348432   1.4733136  58.2582617  55.6016779  63.1376982
  58.7084007  55.8059072  63.9573956  57.3295641  55.5957985  63.3694744
  81.1502743  20.8035326  73.3767223  82.0595932  20.7108164  73.0925179
  80.6429482  20.3372526  72.7123117  57.7099657  64.5662594  65.0172472
  57.8572607  64.5352554  65.9625387  57.7720881  65.4953480  64.7955084
  46.8853855   7.0282334   1.0635937  47.1122360   6.9816607   1.9923575
  46.0774899   6.5203857   0.9886111  33.7599802  63.1309175  63.5836554
  34.2759514  63.8918734  63.8500261  32.9142618  63.2519817  64.0153265
   7.2593838  71.5435410  24.3287539   6.5124220  71.8294811  24.8546052
   6.8874359  70.9233332  23.7016773   0.7648246  73.2499361  66.8454456
   0.7014763  72.2949362  66.8592691   0.2964208  73.5095882  66.0520935
  55.9639549  31.0966754   2.5766298  55.5358839  30.5910087   3.2674932
  55.2505732  31.3591766   1.9948965   4.5360953  33.6700344  66.9588470
   3.5937825  33.5072470  67.0010233   4.6678731  34.4537854  67.4923277
  81.1142826  25.7556510   7.2460097  81.9513226  26.2128472   7.1649408
  80.4726887  26.4529061   7.3817599   7.3185992  50.5500364  15.5464780
   6.6770589  50.6191158  16.2535036   8.1665111  50.6249523  15.9842730
  63.3203220  53.1807184   5.8643621  63.4648180  52.3275280   6.2735236
  62.5377464  53.0590773   5.3267616  24.6568108  26.4386058  12.8166664
  25.3058124  26.3253331  12.1222615  24.5719004  25.5697298  13.2091939
   6.9350958  46.5599585  68.1937695   7.8290403  46.2312794  68.2889652
   6.3810730  45.7936096  68.3420801  85.9980679  54.0031910  64.0919828
  86.0100174  53.9300251  63.1376553  86.9204330  54.0717173  64.3385124
  76.7396832  85.4456329  50.7381916  76.1526728  85.5234718  49.9861336
  77.6047373  85.3050709  50.3532887  64.0028000  64.2709780  72.8495169
  64.4912577  63.8956356  73.5821581  63.9763069  65.2096319  73.0351448
  64.2631149  59.4931841  71.6122341  63.8653994  59.4305849  72.4806452
  64.8685789  60.2315712  71.6787529  16.1506033  13.2494080  55.9124422
  15.9423363  12.8602350  55.0630903  15.9539557  14.1799200  55.8042240
  42.6182842  12.2494292  33.4133196  41.8993711  11.8360305  33.8913298
  42.3984909  12.1195269  32.4907970  79.5885897  81.4360714  73.9319086
  78.9550304  80.7546806  74.1567087  79.2953444  81.7648315  73.0821085
  75.0662899   1.0465581   9.7835475  75.1418257   1.7033993   9.0913874
  74.1661692   0.7283437   9.7145623  77.1056700  71.7797804  70.5278206
  77.8324080  71.9713354  71.1206055  77.4587631  71.1325836  69.9173307
  12.3171377  36.9273472  14.4407880  12.1220183  36.1360002  14.9427140
  12.4231267  36.6199136  13.5405207  42.0217657  38.8257957   2.8181019
  42.6788712  39.3716455   3.2499507  42.2871590  38.8138413   1.8985066
  37.1850920   3.9199963  72.2521639  36.4096332   3.4011981  72.0382881
  37.3360324   4.4569749  71.4742804  31.0800862  43.6354828  16.7156506
  30.4008269  44.3092299  16.6855729  31.1767197  43.3520412  15.8064997
  72.9427099  58.8043880  34.6055675  72.4819040  58.9230299  33.7750173
  72.3616505  59.1929531  35.2594948  35.0644612  64.5559072  59.0686321
  35.6988597  64.4982195  59.7830820  35.4243422  65.2210855  58.4818983
  18.2586753  11.0185468  72.7689743  18.8339210  11.4679921  72.1498394
  18.6970341  10.1853371  72.9416990  74.8771954  61.0700321  64.3434429
  74.2606115  60.3407860  64.4086790  75.7402992  60.6569862  64.3695402
  72.6859283  55.5893707  58.0179405  71.9531775  55.7686424  58.6071539
  73.4595060  55.8750010  58.5039711  76.8781090  65.5228996  67.7303123
  76.7405701  64.9213552  66.9985676  76.7237282  66.3913965  67.3586750
   5.9271479  63.7715626  54.6838331   5.7469547  63.6355448  53.7536430
   5.1820600  63.3724070  55.1330042  24.2849112  51.2545490  35.1442480
  25.0000954  50.6249523  35.0528526  24.5343184  51.9843102  34.5772529
  49.3453503  66.8670559  73.2156181  50.2854109  66.9771862  73.3583832
  48.9485788  67.6320839  73.6321926  58.9253521  22.3008680  15.6605041
  58.5480595  21.9734287  14.8440087  58.9822340  23.2481146  15.5351317
  34.5358372  82.2866344   2.7532536  34.6741796  83.1452942   3.1530085
  35.3933024  81.8630600   2.7928343  63.1227016  32.4278188   7.9583132
  62.7431774  32.4938560   7.0820522  62.5764036  31.7831492   8.4079742
  57.6881218  80.7055759  67.3868179  57.4831486  79.7997189  67.1552229
  58.4943867  80.6452370  67.8991938   2.3007375  63.5078955  26.6702271
   3.2190859  63.2414007  26.6272426   2.3296614  64.4644213  26.6914630
  10.2607143  71.4542341   2.8310636   9.8459303  72.3137331   2.7572268
  11.1997151  71.6389894   2.8117350  12.3468053  12.8632843   3.9281061
  12.2851658  12.1790159   4.5945960  12.4810135  12.3877382   3.1083041
  36.6377878  70.1493263  57.8240061  36.7027617  70.7842207  58.5373926
  36.0791445  69.4543314  58.1720448  88.2375145  33.2508492  62.2871399
  88.0632877  33.5988688  61.4126396  87.5042725  33.5607266  62.8187084
  47.3936701  37.0791769   4.3774560  46.5649271  37.3461342   3.9797723
  48.0626345  37.5313973   3.8634369  52.2066689  48.3398724  60.1229334
  51.6901636  49.1385031  60.2308416  51.6969299  47.6629829  60.5681515
  86.1220837  81.8289089  21.8296480  86.7211151  81.0841942  21.8825960
  86.6205502  82.5050926  21.3708138  86.8626022  55.5193424  58.8910675
  86.2293530  56.2213755  58.7414789  87.2719669  55.3800678  58.0370998
  35.9390736  57.7776766   3.7984684  35.3115726  57.1915436   4.2214569
  36.5418553  57.1924686   3.3397597  49.0225172  27.5946236   2.8670624
  48.4506178  27.2535586   3.5546929  48.6141539  28.4190750   2.6029518
  70.5523729  81.3644600  74.2041731  71.0870886  81.5265846  73.4269857
  70.4366541  80.4144287  74.2213583  42.6778221  85.3685951   1.0657381
  43.0420732  86.1708450   0.6916461  42.0549583  85.6733227   1.7255962
  27.5191498  38.4431458   4.4548288  27.1944833  38.6210799   3.5721269
  27.7697968  39.3018532   4.7954607  58.8686562  21.1105895  -0.0032869
  59.5254707  20.9759593   0.6798681  58.6195469  22.0308638   0.0819840
  13.6218154  43.4329128  65.4649305  13.9500356  42.6126003  65.8331585
  14.1093314  44.1148663  65.9269857  32.2605753  53.2051992  11.0843265
  32.6247621  52.4895334  10.5633461  31.3186288  53.1669426  10.9184730
  63.3517551  61.6688585  57.2363424  63.5091829  61.0385895  56.5333414
  64.1006756  61.5649462  57.8233290  60.0795555  79.5084429  72.0880556
  60.5064583  78.6534309  72.1423054  60.3034306  79.9406528  72.9122591
  73.7886238  69.6845007  60.4572296  72.8857946  69.4888783  60.2064943
  73.7683439  69.7245264  61.4133739  49.6405172  54.8962116  10.9503901
  49.8812199  55.0326490  11.8667281  50.1353884  54.1208076  10.6856585
  69.5302248  85.2291012  38.7279296  69.3885851  85.1135349  39.6675110
  70.0178814  84.4496918  38.4615779   5.9321296  45.3679132  40.1776552
   5.7146811  45.5503225  39.2635036   6.3281065  44.4966316  40.1603985
  49.9093676  13.7223423   1.2241827  49.2533112  14.2564499   1.6720080
  49.8154640  12.8523862   1.6122425  40.0236893  22.2564888  14.0360105
  39.9282742  23.0147433  14.6123600  39.7591496  22.5764275  13.1735206
  36.3078642  22.0923924   1.7350625  37.1233487  21.7461467   2.0974579
  36.2576866  22.9874730   2.0705420  44.8539782  56.8924236  64.8892879
  44.7880793  56.8924904  65.8442163  45.4820585  56.1974001  64.6925974
  42.0140266  20.6738901   2.6927912  42.7577353  21.2247443   2.4484870
  41.6296005  20.4064679   1.8579653  77.9492044  27.6407814  54.4558382
  77.2303104  27.0643735  54.7150230  78.3114290  27.9586387  55.2828789
  65.0048113  20.9637284  67.6580429  65.7665443  21.4688039  67.9424572
  64.8477268  21.2528801  66.7591858  40.8045483  17.5675845  12.5696564
  41.2991190  18.0266726  13.2485294  40.7698774  18.1854331  11.8393874
  85.1515102  61.5424490  57.1094275  84.2258358  61.6181993  56.8778849
  85.2489662  60.6405449  57.4148798  29.3441868  21.3283396  17.4446774
  29.9665856  20.8521605  17.9943156  28.4984136  21.2000227  17.8741348
  66.8954229  19.4406688  23.0481219  66.1654615  20.0570917  22.9896736
  66.6391850  18.7117410  22.4831104   9.4075859  76.9205666   5.8552015
   9.3799007  76.5002441   6.7147326   8.4899127  76.9861698   5.5909985
  38.4944749  27.5327849   4.8913181  38.8151169  27.2972012   4.0207320
  38.7877846  28.4350133   5.0185400  67.2032595  76.0843754  74.3904114
  66.4269781  75.5489969  74.5547056  66.8770123  76.9842529  74.3858814
  64.7147751  72.0156908  68.7056732  64.5290041  72.9181576  68.9650488
  65.2629948  72.0987463  67.9254293  67.9270935  40.1443672  73.5689974
  68.3766985  40.9384632  73.2800293  67.0266867  40.4249811  73.7325764
  56.5392828  62.7331305  57.8954983  55.8119011  62.4040604  57.3674297
  56.3613701  62.4072742  58.7777662  14.9364352  70.5672073  70.4053783
  15.1930630  71.2944841  70.9723377  15.3892028  69.8072195  70.7709599
  87.7252483   1.1485463  46.1013699  87.3846340   1.1354537  46.9958162
  88.6422348   1.4055032  46.1980152  89.0889454  60.9200525  63.7450123
  88.9501762  61.1281157  62.8210592  88.6145592  61.6035604  64.2183065
   0.4198492  78.4398890  66.6451073   1.3293347  78.6897516  66.8083191
   0.4812113  77.6451921  66.1150932  90.4004002  73.2109356  11.0071230
  90.3441429  72.2656631  10.8673871  89.9731636  73.5922813  10.2401292
  10.5724692  69.6993160  15.6663644   9.6343023  69.7566366  15.8474469
  10.9654045  69.4701862  16.5085828  71.0840225  36.1741495  17.4073386
  71.6613436  36.9139838  17.5959551  70.3838587  36.2452245  18.0561435
  87.3465919  46.8940973  73.0234671  86.9879627  46.6247320  73.8690758
  86.6590595  47.4332380  72.6324987  19.7012866  39.7986245  41.2454987
  19.2037809  40.3903484  40.6810665  20.5586123  39.7310710  40.8251905
  84.4682884  56.4985323  48.5574102  84.5252228  57.4419165  48.7091208
  84.7496128  56.3845205  47.6496172  85.6252384  21.8644071   9.4510186
  85.3921604  21.1371374  10.0280678  86.1548328  22.4442101   9.9983704
  52.5857830  16.5921688   1.3555725  52.4289465  15.8726656   1.9670856
  51.7171144  16.8167055   1.0220632  70.1025867  31.7505646   1.5141855
  70.3215981  31.6125536   2.4357161  70.8397484  32.2516298   1.1652482
  78.5322809  58.9745903  71.4074945  77.7898788  58.3868217  71.2675095
  79.0399837  58.5575819  72.1036053  66.9107342  10.3921378  51.5167856
  67.0887232  11.2965739  51.2588215  65.9888601  10.2574337  51.2971640
  41.8857002  79.0945339   4.4308299  41.4078331  78.7720442   5.1949471
  41.5486670  78.5751677   3.7008289  11.6674864   0.7074764  52.6379108
  11.4319110   0.0360985  53.2782125  11.2983489   0.3918305  51.8130875
   8.6679465  25.8369637  63.3366489   8.5802323  26.6270804  62.8034973
   7.9028177  25.8498740  63.9116669  37.3007154  75.6723356  63.4590769
  37.4906278  75.5068398  62.5356150  38.0652595  75.3340530  63.9251947
  67.8286457  41.9320488  57.4944735  67.4034786  42.0981979  58.3358192
  68.4451246  42.6568604  57.3903799  83.2724667   7.3742235  17.9335058
  82.7782249   7.2521377  17.1229172  83.2415771   8.3175194  18.0930984
  10.3839552  37.6519799   2.1211673   9.8022473  36.9829249   2.4820185
  11.0775220  37.7439523   2.7744189  80.0115585  57.5688934  73.2984018
  80.9101868  57.3299170  73.0712509  79.9717760  57.4740887  74.2500639
  15.8280396  46.3270617  15.2558315  15.2988458  46.9894648  15.7001400
  16.5373766  46.8223667  14.8462629  45.6647062  71.0430050  64.9101210
  45.8246422  70.3070641  64.3193293  44.7116899  71.1296272  64.9322748
  77.0802736  42.5350285  67.3411465  76.3794613  41.9496489  67.0540524
  76.9428730  42.6288700  68.2837725   2.3601066  56.4913702  61.5892792
   1.5813091  56.4303350  62.1424341   2.0732313  56.9931412  60.8262873
   1.4832026  52.7365112   3.2990190   2.0219973  53.1975603   3.9419550
   1.8064880  51.8357468   3.3174515  15.7062328  28.7414074   6.4564544
  16.0305059  27.9384112   6.0486859  15.2621317  28.4442806   7.2506344
   4.4483778  77.8994608  25.0573206   4.5750824  78.1953287  25.9587860
   4.0821242  78.6594248  24.6050525  85.9005833  35.7262325  65.7072067
  85.3125954  36.4489579  65.4877520  85.3913307  35.1751614  66.3015270
  54.6904802  80.1489639  45.1333237  54.8165941  79.2041683  45.0455999
  55.1336861  80.5215454  44.3711042  39.2785668  55.3494644  59.1423416
  39.3711162  56.2215710  59.5258808  39.1428733  54.7709560  59.8927689
  45.6067705  10.5184531  13.4437108  45.1398563   9.9629384  12.8195083
  46.4695835  10.6482470  13.0500913  43.9099598   5.4818392  17.3659146
  43.3139801   5.8625430  16.7208517  44.4202280   6.2247437  17.6883316
  68.7860537  64.4736147  49.4757318  69.3115759  64.2606783  50.2469063
  69.4129467  64.4777822  48.7523937  78.2014656  50.2033710  65.0819826
  77.6605844  49.6101522  65.6032991  78.0449295  49.9365330  64.1761541
   1.0478908  84.2308998  71.6756010   1.9609974  84.1452026  71.9496870
   1.0254839  85.0416756  71.1673021  84.7500038  68.9544106  72.7277708
  84.3696976  68.4273958  73.4305143  84.1504097  68.8391399  71.9905949
  50.4504967  15.6600475  34.5775485  51.1340237  16.3289762  34.5381498
  50.0541592  15.7731926  35.4414630  84.1426849  34.0968513  67.1976280
  84.8721981  34.1193366  67.8169441  83.9159775  33.1694841  67.1281576
  85.1913452  38.9619827  71.8009377  85.6638145  38.1922793  72.1180439
  84.2860222  38.6655593  71.7073441  30.7707977  23.1852269  16.0064113
  30.5709219  23.6550617  16.8160629  30.2416682  22.3890328  16.0546529
  14.1312397  42.6582861  52.6814795  14.1278017  42.8182173  51.7377424
  13.4029615  43.1818151  53.0157804  69.6778679  53.0415726  61.7054701
  69.6147728  52.7205276  60.8059216  70.4765320  52.6399708  62.0476437
   1.4089093  60.9990025  60.9802198   1.8844110  61.5734386  61.5803480
   1.3294035  60.1709652  61.4537811  56.3433886  17.1151519   4.9824196
  56.4474010  16.3347208   4.4380471  56.7865324  17.8087854   4.4938192
   1.7049727   1.7766660  15.5129886   1.8051228   0.9063897  15.8987617
   2.4702877   2.2636341  15.8185816  72.8368282  47.4597168  42.1785450
  72.3417997  48.2747126  42.0951605  73.5877609  47.5749540  41.5962648
  87.0532227  80.8620071  64.8815203  87.3239326  80.9522438  65.7951975
  87.3712349  79.9973488  64.6217775  62.2239828  72.9400206  65.5226851
  62.2177219  72.4965572  64.6744299  61.9081211  73.8235521  65.3333807
  22.9663658  81.3847828  16.0159361  23.8818216  81.6599369  15.9663212
  22.9042006  80.9076023  16.8433809  21.0781860  38.1666303   3.3334339
  21.5487528  38.5013390   2.5700405  21.1598659  37.2152400   3.2669669
  54.2648363  25.7245469  12.7224278  53.5056162  25.9550691  12.1870100
  54.8699141  26.4573836  12.6081347  44.7126532  50.5789185  15.3802431
  44.8094511  49.7149134  14.9797916  43.7743616  50.7618189  15.3313148
  59.3903494  29.1190958  26.2656760  59.7290707  28.2280946  26.3529229
  58.7727737  29.2126465  26.9909906  54.1019964  37.6728344  13.7744391
  53.4216976  37.6503420  13.1014454  54.2834902  38.6041784  13.9005041
  87.5102901  74.0223646   2.9372373  87.1200848  73.5480785   3.6714211
  87.2617435  73.5145712   2.1648371  71.1389685   5.7576549  57.1604252
  71.7874956   5.0566739  57.2257805  71.6246557   6.5540648  57.3750734
  25.7064986  84.9151707   3.6176005  24.9462819  84.3369675   3.6807406
  25.7571888  85.1436806   2.6894587  39.9051881   0.9496199   6.7402709
  40.1716757   1.2886478   5.8857083  39.7594786   1.7312679   7.2732127
  85.0129128  28.4766054  39.1850758  84.6988392  27.6268792  38.8759446
  84.3344307  29.0954399  38.9149904  65.3046417  55.7643509  69.1729403
  65.5908823  54.9153996  68.8359261  65.4686260  55.7158232  70.1147413
  32.3942804  80.8846951  12.1060109  33.1208515  80.4431629  11.6662693
  31.6395307  80.3169155  11.9504023  47.1907568  25.0706244   7.7626526
  47.5440073  24.9899530   6.8766850  46.6877699  25.8848596   7.7467316
  54.6314526   9.5672357  24.4340611  55.1357412  10.3315997  24.1553593
  55.1219082   8.8193500  24.0929532  83.1868172  78.7599182  67.6011610
  83.4895802  79.4702244  67.0354557  82.2497654  78.6909771  67.4183512
  42.2387171  55.0206470   6.2870520  42.2781515  55.9604979   6.4641333
  41.3771200  54.8872995   5.8919650  90.2477646  41.1480856  47.3911572
  90.2572727  41.4594126  46.4860487  89.8676395  40.2711630  47.3388290
  45.0603199  12.2561979   7.8559893  45.7741642  12.7930498   7.5118256
  44.3049145  12.8438497   7.8719670  64.3971634  58.0605555  56.6716051
  63.8514614  58.3469772  57.4039984  64.9952030  57.4190331  57.0550537
  46.7610312  20.2300811  59.8739481  47.3097610  19.7124243  60.4631519
  45.8657312  20.0511932  60.1614761  18.0582607  65.4182816  62.3185349
  17.4543250  65.4908895  61.5794659  17.5380445  65.6769753  63.0792475
  15.7862318  62.7311373  40.7272530  15.7423103  63.6753941  40.8778429
  14.9773443  62.5254583  40.2586031  50.0368500   1.5400687  71.7728376
  50.0061512   2.2803725  72.3788404  50.1755285   1.9392082  70.9139490
  33.1747484   0.0167024  64.6535873  32.2403002  -0.0404175  64.4541407
  33.2083774   0.3521996  65.5494356  32.9592085  19.3762064   1.9874462
  32.1452618  19.0347362   2.3577432  33.3994174  18.6067414   1.6263759
  70.9207249  56.4119387  41.7258453  70.6030416  56.6858149  40.8654356
  71.8742180  56.4563131  41.6543722  69.9579096  49.0640163  60.6395054
  69.1173697  49.4017887  60.3302526  70.2378130  48.4556246  59.9555874
   9.6390164  67.5436258  39.7554708   9.4254881  66.6141653  39.8376131
   8.8655049  67.9975462  40.0899363  89.0060806  62.4365425  69.2444611
  89.0207005  62.8555059  70.1049757  89.9218178  62.4295855  68.9658689
  52.4220037  82.4126530  60.9022093  53.1822205  82.9937077  60.9281635
  52.2794628  82.1637821  61.8154335  57.5275183  11.5314388   2.7685773
  58.3139944  10.9928441   2.8557396  57.4521017  11.9830167   3.6091855
  75.3076458  70.6803036  31.6933131  75.9659100  71.2160873  31.2507534
  74.4768858  70.9491587  31.3011575  54.5502996  19.9139488  17.9249990
  54.0298367  20.4037738  18.5617256  54.3823385  18.9951718  18.1344497
  42.7380753  37.4513125   9.3082476  42.8137684  36.8729401   8.5493082
  43.6333847  37.5339913   9.6366096  21.9435573  35.8467984   6.1685079
  22.6628923  36.4770079   6.1281824  21.7102551  35.6907535   5.2533841
  33.4323478  48.2382345   9.3316323  34.0818119  48.5131598   8.6844516
  33.8088584  47.4537611   9.7304678  25.5271482  53.8047791  33.9347410
  25.0058627  54.4635820  34.3935108  25.4309344  54.0257454  33.0083776
  51.1862135  20.5697107  10.6204677  50.4460335  21.0653615  10.9707558
  51.9427967  21.1396503  10.7582307  82.2377682   0.2023425  49.4046545
  81.3328266  -0.1045961  49.4602966  82.3986912   0.6275290  50.2470016
   2.4890955  12.2519696  14.5540524   2.3723525  13.0361128  14.0176547
   2.4968517  11.5304863  13.9250588  81.0820866  37.5774741  68.4392881
  80.2006721  37.5095749  68.8063431  80.9958744  38.2080460  67.7243185
   2.9325429   7.1355635  60.6370974   2.9297027   7.1963322  59.6818304
   2.1622038   6.6071063  60.8457661  89.0176964  43.3382559  52.2976398
  89.3828964  42.5168753  51.9687080  89.1710854  43.9677382  51.5930462
  74.2846537  66.9824362  28.9954519  74.2726183  66.7090416  28.0782056
  74.0558434  67.9115772  28.9714551  57.5879765  48.5140038  65.8221579
  56.8704319  48.7342167  66.4161873  58.3655596  48.5012341  66.3802195
  86.8866253  77.6701641  38.4136057  86.1105156  77.5823402  37.8602839
  87.5186062  77.0566368  38.0388784  86.3574982  65.6045246  52.0325184
  86.0580444  65.5282974  52.9384708  85.8881378  64.9128628  51.5661192
  41.9520044  45.6037903  66.7824507  41.8567991  46.5562010  66.7735100
  41.9334364  45.3525496  65.8589983  32.1371436  23.4330010   1.9397068
  32.3002434  23.5253978   1.0010415  31.2640834  23.0443478   1.9939888
  86.9303894   5.8401465  54.3360233  86.9304371   5.4741395  55.2204847
  86.4870834   6.6837269  54.4259310  75.8759546  57.9775763  71.6966391
  75.3986597  58.7052822  72.0952129  75.9041882  57.3071623  72.3792696
   6.0851806  79.5079136  11.2327194   6.0925627  80.4508018  11.0679984
   6.3638031  79.4218588  12.1444190  46.2393713  49.0976381  68.6472940
  46.4335442  48.9558077  67.7207899  45.3069258  49.3130779  68.6663437
  59.7414446  23.0499172  68.0674553  60.1614237  22.7127004  68.8587379
  58.9284754  22.5497055  67.9960394   1.3855740  85.0184250  58.4387827
   1.3858056  84.2817402  57.8276205   1.5992956  84.6270466  59.2857599
  54.3365002  64.9564362   3.8814616  53.5421753  65.3727388   4.2160830
  54.2446327  64.0351534   4.1244322  81.9247055  66.6596937  20.3704143
  81.0163975  66.7292118  20.6643367  82.3904991  66.2856388  21.1183119
  89.6259022  79.1963673  68.1767368  89.6650410  80.1524925  68.1996632
  90.3536129  78.9403915  67.6100302  86.2758636  73.3645868  41.4605379
  86.3439846  72.7912235  42.2239828  87.1159267  73.8223457  41.4290762
   4.6886104  80.5059719  72.3928452   4.6940646  80.0715160  73.2457495
   4.3209106  79.8552084  71.7949057  70.4769468  82.3406982  19.8654354
  71.1837196  82.9084682  20.1725888  70.7616520  81.4568329  20.0977325
  34.5703554  22.4517250  58.4079218  35.2854228  22.8379226  57.9021978
  33.8154960  23.0094314  58.2198191  72.5313520  43.7652922  53.3894300
  72.5637007  42.8100443  53.4412336  71.7581320  44.0067625  53.8993835
  15.6866872   3.2010663  64.9914646  16.2297595   3.2446179  65.7784891
  14.7877920   3.2010940  65.3204298  72.8859711  37.3917532  38.8226056
  71.9870520  37.7106214  38.7419486  73.3995771  37.9808998  38.2700229
  10.2006793   2.4579924  57.6835823  10.0941718   1.5108642  57.5950623
  10.7407975   2.7093381  56.9343662  73.0092621  48.0827332  51.8971395
  72.4804735  47.6139402  51.2514973  73.2006788  47.4293041  52.5699043
  42.5592709   5.2332217  71.0623360  42.7322531   4.6075416  71.7657804
  41.7810154   5.7095903  71.3515139  78.9511824  85.0243664   1.9823126
  79.1362143  84.0852451   1.9883814  78.0676842  85.0967503   2.3434578
  49.4843864  59.1305923  64.6754694  48.5917234  59.2171288  65.0099850
  50.0352144  59.5042944  65.3633404  39.2096734  29.8770475   0.7996741
  39.1779971  30.5065203   1.5200862  38.3097863  29.5612478   0.7178055
  75.1476240  63.4514523  52.4673796  75.6931019  64.1136646  52.8918266
  74.7823954  63.8963032  51.7025614  17.8928113   3.0246031  62.7503920
  18.2846987   2.1689799  62.9252243  17.9426968   3.4864098  63.5873413
  84.3121815  51.3986015  63.2953405  83.9863110  50.5081081  63.1647396
  85.2510166  51.2902117  63.4472561  78.4912539  81.7575264  71.2423372
  78.2731438  81.8325806  70.3133440  78.6352730  82.6596165  71.5281868
  66.6403008  69.6738529  68.2328653  65.8684969  70.2179384  68.3894444
  67.3811817  70.2454948  68.4342480  64.6225166   7.5043797   3.6212742
  63.9070749   7.3950064   4.2477036  65.3935766   7.1666408   4.0769443
   8.6241347  73.6236000  45.7267666   8.2862669  72.7777052  46.0209465
   9.0890443  73.9732885  46.4869022  90.6055069  77.2823191  18.5672247
  90.2518940  76.4393139  18.2834554  90.8119488  77.7416897  17.7532244
  70.7567644  82.8503418  57.2470808  71.2024307  82.4499416  56.5005541
  69.9537992  82.3393440  57.3488998  58.9147139  51.1837006   3.2044771
  58.9367437  50.2956724   3.5610667  58.3165789  51.6586971   3.7814033
   3.5534886  78.0318928  11.8971252   4.0072295  77.4770451  11.2627017
   3.8491604  78.9193010  11.6938555  87.2090244  76.0102749  57.4513865
  86.4158154  75.6490850  57.8471136  87.5686932  76.5903902  58.1224585
  48.2492876  32.0598793  54.6034431  47.7799749  31.2951708  54.9369049
  48.1051636  32.0356250  53.6574650   5.1606005  35.8184123  68.3532238
   5.1591557  36.6836143  68.7626791   5.9561634  35.3994131  68.6814833
  74.6715355  76.8847322  68.7273884  74.7443533  76.5508604  67.8332663
  75.0537539  77.7614069  68.6875725  48.0191517  21.9542003   5.2535963
  47.3215818  21.8110275   5.8932287  48.1899834  22.8952432   5.2921146
  28.5610533  16.7351782  42.8730917  29.5023561  16.6663444  42.7135849
  28.1696224  16.7371750  41.9995880  81.8747044  61.5837622  45.2626371
  81.8917084  61.8538570  46.1807871  81.6843891  62.3880816  44.7798538
  89.9753094  71.8154144  51.5955734  89.2089081  72.1396208  52.0685863
  89.8772621  70.8632898  51.6046286  47.1756506  42.3795033  10.7805443
  46.8390656  41.7747736  10.1192999  47.9392624  41.9332933  11.1466384
  72.6224327  79.8002100  37.0468068  73.1968594  79.4625950  36.3595772
  73.1177282  80.5177021  37.4419188  67.1516562  43.4252739   4.9012709
  66.8441343  44.1840744   5.3971362  67.3459768  43.7711525   4.0301564
  19.5636344   3.9783928  50.5721664  20.2012110   4.5435366  50.1358891
  18.8400495   4.5630670  50.7975864  84.5045090  52.9447269  57.1074009
  84.7871304  52.2740030  57.7290773  84.8606110  53.7612581  57.4576855
  24.4835162   0.1755226  66.7107487  24.2930913  -0.1679748  67.5836611
  24.6507144   1.1074663  66.8513107  49.3116570  79.0550947  42.2188187
  48.4873819  79.3391657  41.8237114  49.0659809  78.7498856  43.0921602
  45.4241133  15.4869998   6.2879604  44.8832464  15.3427994   7.0644289
  44.9670744  16.1732852   5.8017921  79.6831799  66.8922091  58.3015919
  79.8374748  66.4910460  57.4463177  79.7817802  67.8316498  58.1467962
  76.1743641  54.9920559   5.1910281  75.3449392  55.3976059   5.4436374
  76.8404913  55.5019712   5.6519943  47.7296829  61.8420506   1.4287159
  47.0145035  61.2474680   1.2024000  47.5425100  62.1103716   2.3282737
   4.4413444  27.9788876  67.6793766   3.5325849  27.8916454  67.9670858
   4.3795627  28.3557749  66.8016720  52.3944759   2.8203508   1.8180417
  53.2634926   2.4200249   1.7900400  52.4360418   3.4318337   2.5532919
  75.8147192  79.5470095  46.0286331  75.7113171  79.8713923  46.9232368
  76.5561247  80.0411892  45.6788683  56.9770193  26.6394186  15.4406953
  57.6665163  26.3522172  16.0393059  56.7649364  25.8595371  14.9278212
  75.2887297  76.1397505  37.7528286  76.1482811  75.9162951  37.3957992
  75.4667377  76.8303442  38.3912826  24.4913673   1.3015415  44.5598173
  24.3548822   1.6583519  45.4374790  25.4422760   1.2330368  44.4743252
  62.6560402  62.2869444   8.3211398  62.5124407  61.3774824   8.0594313
  63.5075474  62.5123835   7.9465133  20.5590105  84.1344452  44.7959709
  20.9663916  84.9207020  45.1594019  20.2333498  83.6584663  45.5599213
  89.5268536  59.3235826   8.9557558  88.7622356  59.4453430   8.3929342
  89.2951298  59.7643089   9.7732496  84.3446445   8.2454473  67.6982117
  84.6516895   9.1267598  67.4855137  84.4801903   8.1659681  68.6424255
  76.9711399  29.9492598   6.0240275  76.3676691  29.9023819   6.7655540
  76.8215656  29.1360903   5.5417222  75.9171534  80.9848499  69.7857618
  76.1861849  80.2681065  70.3603315  75.3575516  80.5689335  69.1299438
  88.7497330  68.1757784  67.3737764  89.0481663  68.5372829  66.5392208
  89.5131969  67.7152252  67.7219915  74.0668058  52.4020672  19.4492340
  73.4428024  51.8189478  19.0170097  73.5276222  53.1082630  19.8053336
  66.1882782  78.5862589  71.9684362  65.5313969  78.6048841  72.6644230
  66.9911766  78.8946009  72.3885632  28.4494829  17.2808969  66.0296106
  29.1978264  17.4959910  66.5863419  28.5490751  16.3470125  65.8447504
   2.2203785  49.3751669  45.2010155   1.9950438  50.0424242  45.8492613
   2.4998918  48.6213255  45.7204580  34.6352029  30.2006841  58.4460211
  35.0697732  30.8775330  57.9271221  33.9865589  30.6762719  58.9649677
  22.6002359  42.9354572   2.8930780  22.2020555  43.4621811   3.5860768
  22.5393534  43.4835434   2.1106926  53.5890198   9.4233859  38.7806630
  54.4178724   9.8586160  38.5811448  53.8337564   8.6881375  39.3425751
  54.4979715   5.2227503  53.8159227  54.1880274   4.7109944  54.5630980
  54.8303890   6.0331017  54.2020082  20.5448794  30.9078217   4.0145901
  21.4483023  31.1200571   4.2491356  20.4172301  31.3168716   3.1586593
  56.0325098  52.8189945  29.6040440  55.4660702  52.6410055  30.3548408
  55.6598949  52.2966480  28.8937330  63.7180281   9.9107385   2.6803821
  64.1844654   9.1644603   3.0568609  63.5210657   9.6421325   1.7830035
  89.7053432  17.3873520  47.3596191  90.5921078  17.0679140  47.1927404
  89.5746326  18.0803263  46.7123652  62.1992636  72.5538588  70.9443998
  61.8665981  73.2834244  70.4216194  62.4319363  71.8845701  70.3008556
   4.4118139  80.7795048  54.7053337   4.9075454  80.0538731  54.3259478
   4.9052086  81.0230064  55.4885960  26.9556451  67.1701384  62.0216942
  27.3229098  66.6429090  62.7311850  26.4016962  67.8136826  62.4635363
  28.8336825   5.8327860  29.8017931  28.3368802   6.6411096  29.9284148
  28.4748745   5.4543734  28.9991140  31.8894768   0.5884903  69.7567272
  32.7699267   0.9260528  69.9213266  31.3425160   1.0139530  70.4170656
  78.2069492  51.2410307   3.5205099  78.7821722  51.9504213   3.2339540
  78.6985874  50.4421759   3.3298323  73.6491585  76.4842367  43.1532812
  72.7836323  76.5235853  42.7464056  73.7143564  77.2958422  43.6565447
  61.7251587  70.4744959  21.5831089  61.7322969  70.2513027  20.6523228
  61.2433052  71.3003635  21.6276884  73.8499212  79.8667336  63.9401102
  73.7316179  80.2532291  63.0724335  73.1703377  80.2730560  64.4779825
  26.0584331   9.4623256  21.5147781  25.7768035  10.3726101  21.4236832
  25.2452016   8.9576179  21.5023041  31.1555219  84.5570469  66.6826820
  31.7501307  85.2568054  66.4124918  30.4184222  85.0127220  67.0892191
  41.2443542  18.2811475  20.7452273  41.2097168  17.5721288  20.1031017
  40.7222319  17.9630041  21.4817095  51.2023258   3.2692614  70.0111961
  51.7389059   3.4040627  69.2300797  50.8277750   4.1305253  70.1960373
  15.3243136  53.9165735  37.2067404  14.5879877  54.2307901  37.7314544
  15.6014860  53.1101894  37.6416564  42.7594090  16.9927120  42.3252535
  42.4322367  16.2458336  41.8238926  43.3790064  17.4235272  41.7364216
  75.7190132  45.7505608   1.5527616  76.5182734  45.6622267   1.0335238
  75.3948450  46.6271830   1.3461687  83.6303425  76.0486937  62.2884846
  82.8920555  75.4517603  62.1666861  83.6383533  76.2311268  63.2281065
  89.1256046  40.9618950  65.5625057  88.2530308  41.2215185  65.2667856
  89.1957951  41.3218355  66.4466667  46.6245556   3.2360020  57.9160976
  46.2648249   2.4197002  58.2631969  47.5140524   3.2743335  58.2676029
  24.7317123  71.1729574  48.7969255  24.9555635  72.0259762  48.4247923
  24.5713902  70.6144333  48.0362892  25.0977778  85.3571415  29.3941236
  25.1923633  85.8313179  28.5680246  25.0620151  86.0427761  30.0611019
  32.6702332  43.4768724  33.2192206  31.8263125  43.4608698  32.7678084
  32.5651670  42.8620672  33.9453125   8.6502701  76.4249897  36.2866807
   8.2594311  76.0804129  35.4837227   8.1032318  77.1762228  36.5160918
  61.3001680  11.1916423  54.3942118  60.4712534  11.4962351  54.7634792
  61.8428946  11.9784224  54.3426609  51.1042404  11.7863095  62.5084782
  52.0354176  11.5647161  62.5140715  51.0052156  12.4226665  63.2166290
  80.5317974  56.7326880  55.0191689  81.0721970  56.9152212  55.7878542
  80.7230473  55.8199978  54.8031902  25.6000447  57.4703550  48.8387537
  25.7419443  56.8640518  49.5657301  25.9262562  57.0028543  48.0698204
  43.2303143   4.8906237  39.7641993  43.4882164   4.6799907  38.8667870
  42.6878071   4.1508380  40.0373983  29.2140007  78.0703259  70.2837181
  29.8818445  78.4052896  70.8820629  28.8691616  77.2919226  70.7212114
  14.0550578  13.5330510  69.7966194  14.6276534  13.0457771  69.2042255
  14.5389295  13.5690355  70.6217289  35.5679178   7.5538915  45.0265884
  35.2405214   8.2264107  45.6238842  35.9461546   8.0449462  44.2971802
  71.1697865  26.5434408  16.8484557  71.8586683  25.9506726  16.5479648
  71.2528038  26.5432811  17.8020477  47.8648567  11.2326300  68.4655380
  47.7397585  11.0098934  67.5430584  47.0461702  10.9725976  68.8878727
  58.6905146   5.0211042  43.5011721  58.2923746   4.2618078  43.9268303
  57.9708767   5.4316545  43.0217981   8.9521497  62.0307541  57.5617170
   8.9084637  61.5023422  56.7647791   9.1433281  62.9160309  57.2519255
  55.9732723  53.5535908   6.8191636  55.0775146  53.2247162   6.8945920
  56.0912704  54.1064644   7.5915873  51.1233521  63.1466627  67.7240419
  51.3520765  63.8314581  67.0955706  51.9512415  62.7017260  67.9053211
  61.9150496  47.2392941   0.8487392  61.8476439  46.2955141   0.7039624
  61.5343142  47.6300526   0.0622395  74.2790318  55.7505846   7.6042247
  73.8871384  54.8875952   7.4704272  73.6468458  56.2187815   8.1495339
  48.5780621  84.4136143  25.9829259  48.3163404  84.2039680  25.0863886
  47.9689884  85.0996780  26.2560225  49.6078491   4.3406737  67.2096205
  49.2355251   3.7667581  66.5401220  50.4540873   3.9458418  67.4199057
  11.4386201  62.7838993  58.4311485  10.5974436  62.7624273  58.8874340
  11.6639066  63.7131977  58.3877611   4.6749046  77.8696652  74.6628459
   5.1496055  77.3496052  74.0144446   3.7525060  77.7511116  74.4362138
  19.0170240   3.4805033  43.0088568  18.3731246   4.1633207  43.1969643
  19.8342001   3.8130546  43.3801556   5.2507049   2.1287785  57.5813246
   4.4163772   2.4034052  57.9617310   5.1055753   2.1627738  56.6357994
  62.6022577  84.9863338   3.8053253  61.7205906  84.7074223   3.5581228
  62.7333546  84.6191216   4.6795079  14.4469845  60.0585747  45.0895023
  14.7316492  60.8300114  44.5995188  15.0038779  59.3504333  44.7660255
   6.9601429  58.3268833  46.3541555   6.4733303  58.1689644  47.1630478
   7.8627408  58.0904198  46.5677691   5.1257479  69.1825485  42.7056503
   5.2900851  69.2101431  41.7630672   4.9155265  68.2661819  42.8853989
  60.2893162   9.3833834  62.1245098  59.9521303   8.4890950  62.0717049
  60.4073668   9.5399112  63.0614185   6.2952220  73.8280344  56.1236382
   6.7292023  74.6203041  55.8070946   6.1407018  73.3081722  55.3349066
  17.8928947  82.8874397  36.6246390  16.9650412  83.1108952  36.6980481
  17.9175639  81.9346905  36.7134762  31.0664129  83.6103153  38.4677267
  31.1485600  83.2463264  37.5862527  31.4347577  84.4910812  38.3984494
  53.0764389  15.7506454  59.0860415  53.8160515  15.4243553  58.5734558
  52.7023506  14.9683964  59.4914722   3.0873016  30.7775521  21.7905521
   3.9165846  30.5928159  22.2314548   2.5786054  31.2708640  22.4340630
   7.8131276  20.3014612  60.8175135   8.4791797  20.1523423  61.4886093
   8.2279038  20.0206399  60.0018311  17.4176216  23.7385392  11.5579700
  18.0936587  23.2024837  11.1434233  17.7220786  23.8541055  12.4580717
  25.1369667   8.9427388  59.7373438  25.5845618   8.1125146  59.5741940
  25.8182645   9.6068358  59.6322632  15.7683206  26.3259864  29.0668344
  15.2263582  25.8288479  28.4541655  15.1415789  26.7346454  29.6638489
  42.5457621   6.4680600  43.3413315  41.8327379   5.8455563  43.1987810
  42.7433062   6.8097663  42.4692965  71.9716883  63.9493084  44.9867249
  71.2130022  63.3678722  44.9361277  72.6241541  63.5418129  44.4171047
  62.2948122  29.3420291   4.2985839  61.6437292  29.7607994   4.8615700
  63.0794716  29.2819452   4.8434982  14.1658390  65.6020451  63.1335115
  13.5060406  66.2935829  63.0818510  13.9066172  64.9729061  62.4602938
  27.3637772  74.0261078  63.3122015  27.1085715  73.1621408  63.6357164
  28.3049464  74.0760469  63.4793520  63.2373619  25.2365398  10.4881287
  63.6842108  25.2158570  11.3343751  62.5334072  25.8746052  10.6045198
   3.2170713  67.6384449  59.6914673   2.4083057  67.5404024  59.1889572
   2.9509431  68.1018639  60.4856014  82.5835991   2.3385751  20.5126500
  82.5485134   2.1730159  21.4547706  81.7030048   2.6402435  20.2895284
  34.8114824   9.6830976  46.4555645  35.4419780   9.8230374  47.1620512
  34.6084762  10.5629492  46.1379433  41.9011688  10.2851593  62.0135832
  42.2133589  10.4214644  62.9081202  42.6867056  10.0524700  61.5185976
  87.7918053  51.7246628  56.4221525  88.5610867  52.0496178  55.9543419
  87.0503712  52.1392155  55.9809542   6.1222249  74.6615410  43.7545204
   6.8012333  74.4442081  44.3932295   6.5125656  74.4464350  42.9074097
  43.6441231  78.2054138  45.7747746  42.7636337  77.8603315  45.6268215
  43.7609673  78.1646967  46.7239428  25.9062719  76.2364244  62.6632881
  26.4936209  76.7834949  62.1417856  26.4661360  75.5364466  62.9991627
   0.3768076  49.8633862  31.9465351   0.8494316  49.4881487  32.6895380
   0.5026296  49.2313719  31.2387514  50.7127190  23.7790799  64.3655443
  50.2762508  22.9657769  64.1120338  51.3893127  23.9052224  63.7003136
  28.3697867   2.8535563  46.4177322  28.0978131   3.1643531  47.2812557
  29.3263555   2.8569508  46.4522982   3.6574012  74.3897200  22.8691769
   2.8584531  74.8433495  22.6005960   4.2350638  74.4513083  22.1084237
  71.7419291  21.5280962  55.1185608  72.1147490  22.3586774  54.8229790
  72.2734308  20.8596420  54.6862316  39.0864277  13.4705925  30.1288867
  38.6345959  14.2798662  30.3679609  38.4925222  12.7734625  30.4073095
  87.4404621  84.0117264  63.3626842  86.7984295  83.4195042  62.9711485
  88.2883835  83.6498737  63.1051445  25.2443361  29.5845747  57.7232599
  25.9509301  30.0734210  57.3013735  24.7746277  29.1699672  56.9995832
  10.4300022  84.9681377  39.6280241  10.5766559  84.0559483  39.8782969
   9.4891715  85.0221825  39.4602442  10.9545922  65.8731318  25.8305812
  11.8812668  65.8000994  26.0589933  10.9504473  65.9874725  24.8802423
  74.6435738  37.1157384   0.3300430  75.2635670  37.7648878   0.6623679
  73.8152647  37.3353267   0.7565582  78.8929081  64.0820026  31.0386181
  79.5428753  63.9174604  30.3554678  78.0674839  63.7763071  30.6625080
  29.7452044  58.9531946  56.5153837  30.0472593  59.8498249  56.6604757
  29.2236638  59.0028334  55.7142878  13.7153709  10.8788526  53.5349417
  13.9937615  10.1984107  52.9219770  13.1594026  10.4206145  54.1651392
  23.7705040  81.9421577  23.0372810  23.9304447  82.1923923  23.9472461
  24.0736699  82.6922798  22.5257730  77.4081802   5.1800710  25.8303094
  77.0661116   5.3727859  24.9573350  77.8276777   5.9943032  26.1083007
  47.0789671  28.0908608  42.8668022  47.6890516  28.6527729  42.3890162
  47.5932312  27.3153830  43.0912924  62.0612049   9.6219844  59.8520136
  62.0199871   8.7489778  59.4616365  61.8097210   9.4878596  60.7657957
  51.1713171  84.5921326  68.5314083  50.6517553  83.8075352  68.3561945
  52.0633936  84.2666912  68.6518908  78.0728722   6.3176316  66.6924477
  77.4368715   5.7667410  66.2360907  78.6496735   5.6979060  67.1390629
  47.3518896  50.2374887  40.5915880  47.5380802  49.4821215  41.1492538
  46.3967609  50.2999926  40.5840349  67.2388983   7.3863763  69.2867088
  67.1643925   8.3086109  69.5319891  66.8510246   7.3388499  68.4129095
  53.1057644  70.9645414  39.5229125  52.4087906  71.0376644  38.8709044
  53.9150620  71.0506344  39.0190768  77.4675751  85.7418823  63.2450628
  76.5494156  85.5223083  63.4031916  77.9563236  85.1649380  63.8319921
  65.5511904  39.5195818  47.6066303  65.3121662  40.1529932  48.2833052
  65.1130438  38.7104678  47.8704405  48.3705973   0.4123848  62.0381165
  47.9446207  -0.4179985  61.8253994  48.8653742   0.2300136  62.8369713
  73.5279274  30.5843759  54.7329617  73.8408470  31.3125420  55.2696991
  74.3239069  30.1914501  54.3748283  61.0458851  79.9536467   3.3474225
  60.7905722  80.3728104   4.1692191  60.8392668  80.6015396   2.6737943
  85.6327343  38.1378484  42.2690201  84.6936226  38.0318999  42.4209213
  85.7247448  38.1203747  41.3164139  20.3102016   2.4371397  54.5745802
  20.8847642   2.7472764  55.2745295  19.6946084   1.8495147  55.0127268
  89.2129040  57.1730757  60.0178480  89.1433144  57.5811958  60.8808851
  88.3890343  56.6977167  59.9105692  15.2808440  73.4203005  16.4417779
  14.6882820  73.7754297  15.7792175  16.1543357  73.6704683  16.1406779
   1.5609910  58.6569309  28.3243251   1.6894728  58.5636568  27.3803854
   1.5546581  59.6025085  28.4729004  59.0043831   3.8874182  46.8892860
  59.4082975   4.7235438  46.6569519  59.5612526   3.5374585  47.5847387
  11.9219422  31.6791368   0.1545835  11.8796885  32.5749087   0.4893047
  11.4467537  31.1587334   0.8023556  34.4471192   7.6460677  61.8977118
  35.3960657   7.5207311  61.9025517  34.3282032   8.5657394  61.6604471
  37.2854042  29.0661049  57.7237892  37.3244262  28.1178761  57.5990057
  36.4024401  29.2278099  58.0561399  44.0746164  29.9274826  56.4181900
  43.5425854  29.4635224  55.7717276  43.4389973  30.2937055  57.0330954
   0.4752005  60.5068827  42.5546837   0.4402151  61.4608717  42.4845600
   0.6065328  60.2053070  41.6557741  60.9837389  20.3756070  55.4844952
  61.8885374  20.5433154  55.2209759  60.4552603  20.7661963  54.7885180
  45.4429293  83.5909462  26.3112402  46.3675928  83.5821819  26.5585184
  45.0270319  82.9780865  26.9175959  39.0184546  18.7140369  47.1747828
  39.9354553  18.5000384  47.3466730  38.7045860  17.9974186  46.6232586
  60.1074600  15.1783907  65.8706951  60.9803295  15.4621148  65.5989790
  59.5927095  15.9847605  65.9028578  20.9321785   0.0213940  20.8486819
  21.5745211  -0.1209643  20.1534414  20.4082966   0.7618152  20.5428100
  82.7641869   1.5633309  41.3402748  83.0823708   0.8469176  41.8895864
  83.3509064   1.5640342  40.5839729  50.4268408  11.9240367  33.1587434
  49.9297476  12.5987339  32.6962352  50.8532667  11.4222145  32.4640727
   8.8867128  55.8399200  56.1073685   9.6137643  55.2471733  55.9169006
   9.2823100  56.5490866  56.6141415  56.9783783   7.5242102  60.0369215
  56.2384892   7.6397216  60.6331158  56.5774632   7.4327588  59.1725492
   1.2115052  62.7935982  15.3741944   1.6867588  63.5921526  15.1446807
   1.7977160  62.0829296  15.1143098   4.9172401  74.1917372  60.2325392
   4.4219857  74.9497509  59.9221039   4.8352671  73.5476780  59.5291853
  69.4016314  12.1227455  57.6064730  69.6015835  11.3811135  57.0353031
  68.5260439  11.9352829  57.9447556  56.6419792  11.2430060  62.6912546
  56.8333817  10.4577339  63.2040358  57.3082352  11.8744779  62.9625082
  44.0619087   4.5871332  55.9247828  43.4713030   4.9017692  55.2403641
  43.4979343   4.4589564  56.6874981   2.3146898  37.6639771  15.5534959
   2.4443842  37.6473022  16.5017223   3.1305504  38.0247784  15.2064717
  52.8574896  29.3785143  63.8643837  52.6723433  29.8750186  63.0672407
  52.1507406  29.6165991  64.4644308  51.9368362  26.7650914  58.0620670
  51.4346409  26.2827754  57.4052572  51.3170242  26.9131327  58.7763166
  58.7490988  15.3045106   5.4785067  59.3666410  15.0805163   4.7823015
  58.3205175  14.4762278   5.6941408  54.5750618  19.8111475   8.9571375
  53.6455774  19.7909653   8.7293494  55.0113249  19.3813050   8.2215154
  59.3444014  23.9160824  70.8853769  59.1873407  24.2182326  71.7799520
  59.7241163  23.0437183  70.9904146  40.2715874  17.5512791  25.5858707
  39.4299674  17.3589849  25.9993100  40.4748964  18.4452558  25.8610106
  52.4096346  21.0920262  66.1880875  52.9972219  21.1333895  66.9425774
  52.9763889  20.8483863  65.4561996  62.6038790  84.9959850  26.9121933
  62.8290892  84.3311024  27.5629210  63.0998707  84.7458744  26.1326647
  85.1363182  48.7220669   3.8421100  85.6816483  48.5787678   3.0685997
  84.2505169  48.8263702   3.4946856  63.4612751  38.1660986  44.0531301
  62.7905369  37.8263092  44.6454859  63.3708382  39.1173577  44.1093636
  65.8619022   3.8909301  53.5622692  65.5149889   4.7742492  53.4372616
  65.6009293   3.4171262  52.7725649  21.5689421  20.3245282  46.8900061
  22.3788261  19.8144352  46.8787241  20.9038997  19.7111654  47.2026348
  45.3695393   0.8254307   1.5745433  45.6788969   0.4177610   2.3834532
  46.1632586   0.9655762   1.0582067  43.5711288  15.6447768  67.3055553
  43.6016893  16.5822613  67.1147108  43.1373215  15.5876768  68.1568956
  76.7044640  69.0254927   8.2961923  75.8327389  68.6989784   8.5191613
  77.2566795  68.2437658   8.2821876  30.9709001  77.3748684  32.6635766
  31.5147352  78.1262541  32.8999925  30.3969669  77.2474766  33.4189606
  19.0503407  14.1595590   9.8067778  19.7757900  13.6718273   9.4168103
  19.0016258  13.8374972  10.7068527  19.4562471   0.7849782  63.4202671
  19.2683434   0.0710105  64.0295076  20.3445745   1.0628727  63.6436081
  80.5864143  72.5492811   5.6083852  80.0547218  72.3610878   4.8350054
  79.9657965  72.9033184   6.2453461  48.0793715  84.8033047  42.7808046
  47.2668648  85.3093147  42.7775764  48.7479782  85.4219341  42.4867058
  72.8413010  49.2235184   7.5651395  73.4423256  49.9546623   7.4222088
  71.9713259  49.6225166   7.5519180  35.9194732   6.7439520  48.4236813
  36.5316677   6.9375414  47.7137709  36.4478970   6.8064302  49.2193556
  21.8289804  73.3203840  61.2797308  21.1208415  72.9448414  61.8029308
  22.6132512  73.1969690  61.8144417  73.0592346   1.2013613  18.3073056
  73.5271025   0.3789935  18.1622374  72.3486996   1.1890191  17.6660454
  37.3802924  18.4196234  51.5331888  37.1710014  18.5154462  50.6040764
  38.1396794  18.9866865  51.6673660  61.2293005  34.9053645  17.8735995
  60.8149052  35.7392788  17.6520300  60.6660604  34.2438221  17.4719059
   4.3728971  83.4796238  26.1858916   4.7480518  83.5332680  27.0648766
   4.8642388  84.1237354  25.6760502  73.2962370  69.9548435  55.7277489
  73.8177395  70.5384684  56.2787914  73.0329227  70.4984283  54.9851751
  64.8462296   9.6016270  66.3846970  64.2717457   9.4736826  67.1395683
  65.0509167  10.5366266  66.3952351  38.2800007  69.0602064  67.2858906
  39.1197872  69.3914795  67.6040888  37.6335931  69.6771193  67.6291227
  28.3733249   5.9791625  19.9648476  29.0363312   5.6632698  19.3509507
  28.4994268   6.9277763  19.9863589  30.8225918   1.6833547  51.8278074
  30.8163524   2.2670686  52.5864029  31.3891554   2.1217315  51.1929321
  11.4014351  74.7242785   0.1096051  10.5821490  75.1837254   0.2937499
  12.0479393  75.4217243   0.0008382  64.8356152  60.9358263  10.5546677
  65.7763386  60.7950354  10.4476595  64.6799707  61.8050289  10.1852238
  59.3383217  42.8316593  58.3915901  59.2019796  42.7040863  59.3304014
  58.9561510  42.0533419  57.9861259  40.7129765  11.7346668  54.3413496
  41.1543322  12.4947202  53.9622021  39.8235726  11.7740929  53.9897251
  83.5712624   0.3306377  59.7192812  84.3355751   0.8357330  59.9966478
  83.2951450  -0.1379659  60.5069399  52.4713612  15.5702448  64.1682196
  51.6698170  15.1276779  64.4473171  53.0224037  14.8698997  63.8187933
  43.3106899  18.3792889  71.8365240  44.2485809  18.4604108  72.0097733
  43.1783962  18.8455617  71.0110998  44.2641211  19.2527854  55.4574490
  45.1931858  19.3306136  55.2406406  44.0291166  18.3645606  55.1889992
  33.5444665  12.9331064  43.4712648  34.4012284  12.9622340  43.8971043
  33.0103302  12.3838902  44.0451050  17.0843685  82.4545574  17.4225187
  17.3396695  82.4370956  16.5001583  17.8047907  82.0196915  17.8787148
   7.2122633  68.7533808  40.4635620   7.7656806  69.3596792  40.9558678
   6.4671338  69.2841101  40.1818848  37.6462460  38.5836697   4.3968439
  38.0411816  39.2118692   5.0015128  38.3716822  38.0186605   4.1308755
  18.4849226  70.0267601   8.8486129  17.7279997  69.4748497   8.6519003
  18.9528012  69.5549107   9.5375836  60.5815411  14.1909432  68.3231783
  60.4971838  14.3912864  67.3909903  61.1585855  13.4278131  68.3528900
   0.3239625  72.8735971  62.2188282   0.8637899  72.3696709  62.8278255
   0.1501263  73.6959028  62.6768923  90.4189491  44.0595198  12.4899995
  90.6668758  44.6785593  13.1766999  89.5217323  44.3022442  12.2612643
  32.4760914  18.3148730  47.7370930  33.3224607  17.9010773  47.5677919
  31.9470048  18.1011629  46.9685698  29.0756059  81.2569046  69.7212029
  29.0194154  80.5146599  70.3229761  28.3616829  81.8360615  69.9879074
  77.3687696  13.2930458  37.5738001  77.0555735  12.9926884  36.7206144
  76.6023970  13.2348311  38.1443357  59.5925045  21.4336777  52.8128815
  58.8596392  21.4885306  52.1995831  59.9163914  20.5377913  52.7195358
  38.4361768   4.9829438  61.0425472  37.8021789   4.4443554  60.5690479
  39.1870618   5.0438476  60.4520416  72.5209856   4.3898708  46.5508938
  72.8549910   3.4978092  46.6452169  71.6630173   4.2822212  46.1403608
  50.1370811  25.5181026  56.2367487  50.7511377  25.4636788  55.5044889
  49.6430445  26.3220024  56.0758018  74.8136282   8.4466153  37.5344706
  74.2991543   8.6831611  38.3062172  74.9294043   7.4990654  37.6050162
  60.4331112  21.4244008  48.4771442  59.8700571  21.2469459  47.7236748
  61.3233900  21.3316894  48.1379652  74.0551567  82.4446583  54.0786266
  74.1509247  82.8426266  54.9438906  74.4724894  83.0658245  53.4817839
  49.1338110  30.3791285  42.4893856  49.1929388  30.8431578  43.3244991
  49.2857409  31.0548306  41.8286467  53.9059544   8.6471939  28.5076928
  53.5011625   7.8915405  28.9335608  54.6823645   8.2911813  28.0756354
  69.8586559  28.2488751   3.3791658  68.9067268  28.1657672   3.4353873
  70.1050615  27.6876879   2.6439211  42.4134636  19.1623151  63.5183382
  42.0298576  18.3812308  63.1196070  41.8292046  19.3706191  64.2473650
  26.1744547   0.2942693  20.6711268  25.2567291   0.3360581  20.4023075
  26.3857269   1.1878218  20.9416080   8.6091661  79.1202879  36.8992209
   8.2106614  79.5009375  37.6818657   9.5160925  78.9476633  37.1520352
  50.9950352  17.7609313  60.3671885  51.1442709  18.1913924  59.5253706
  50.9075165  16.8329346  60.1494884  24.5482612  76.6697979  30.7716560
  24.1653705  76.9636011  31.5982795  24.1724610  77.2536039  30.1127386
  59.4130611  13.2242429  42.2553110  59.9950027  13.3746970  41.5103674
  59.2582369  12.2796559  42.2513437  82.9235268  52.0947695   3.8799232
  83.8591290  52.2135830   4.0435088  82.8793049  51.7307663   2.9957417
  79.0770054  13.9665163  21.2467623  79.3553448  13.0846775  21.4939880
  78.2166624  13.8425672  20.8459187  43.1477308   7.5116855  40.6981659
  43.7199879   8.0657619  40.1673603  43.2867765   6.6280079  40.3575611
  51.3974667   8.0861759  52.6878405  51.6874075   7.4343407  52.0496559
  51.0174561   8.7872374  52.1583748  67.7465391  14.3994570  67.2801304
  67.9953051  14.7402751  66.4209509  68.0067635  13.4785986  67.2570276
  21.7281508  70.4032946  25.9969401  22.2644877  71.0108280  26.5063334
  21.6373563  70.8232641  25.1415944  20.1317692  33.2699895  13.8560927
  20.5663300  33.5921311  14.6457863  19.5338392  33.9748335  13.6072838
   9.8822409  78.9752579  61.2130833  10.4365849  79.2675972  60.4895687
   9.2960286  79.7135162  61.3790989  90.1617241  37.3774171  22.1425438
  89.9177933  37.0544958  23.0099845  89.7147942  38.2204390  22.0663953
  57.4098635  32.4971700  40.6109333  57.5060987  32.2354674  39.6952438
  56.5073919  32.8092122  40.6772757   4.5487186  57.7604198   9.8262721
   4.0983927  58.3814621   9.2537826   4.1985685  56.9057369   9.5749950
  15.9386551  68.1192923  60.3350353  15.5254495  68.2497883  59.4815350
  15.9151876  67.1719694  60.4701710  35.4155111  74.0743065  64.5652580
  35.4758859  74.4367361  65.4491329  35.9919524  74.6285868  64.0392208
  76.1029148  13.8881886   4.0694913  75.3399467  14.2537594   3.6217552
  75.7888269  13.0657649   4.4452590   7.2095132  77.7122927  25.4398966
   6.2878531  77.5707293  25.2237177   7.1969390  78.0409002  26.3388348
  14.2015171  84.6542358  45.7491159  14.9675179  85.2249146  45.6875038
  13.9551353  84.4850349  44.8397779  53.8988876   0.9422509  59.5882130
  53.9079428   1.8985796  59.5484018  54.6933651   0.7151154  60.0713778
   9.9447882  81.1031532  47.5169230  10.2695572  81.4709949  46.6950655
   9.9826413  81.8315220  48.1368351   0.9896821  16.8701339   0.5104025
   0.1605500  16.8778133   0.9886420   1.2976961  15.9664857   0.5795368
  64.8615456  21.8634987  65.1060200  64.5898247  22.7592850  64.9061108
  64.2966843  21.3147926  64.5618868  39.7891021  77.1986818  50.2112532
  39.7846174  78.1371212  50.0227261  40.6138659  76.8839741  49.8411798
  88.4941769   9.9875063  23.5690570  88.4393978   9.1879821  23.0456138
  87.6163769  10.3661287  23.5205817  60.6860876  44.4507742  10.5147672
  61.0655880  45.1364660   9.9651915  61.1228132  43.6475468  10.2313375
  47.2720194  56.3113451  67.0839787  47.8635406  56.9448566  67.4901724
  46.7251396  55.9981489  67.8044415  53.0684233  15.9558702  47.8407717
  52.5977802  16.5801394  48.3930540  53.6842203  16.4934635  47.3427629
  27.6074123   9.3833154  65.1229954  27.3804235   8.5123771  65.4488420
  26.7686462   9.7726679  64.8757935  67.0667601  43.3626842  70.9361792
  67.2181368  42.4175930  70.9252262  67.4259663  43.6724329  70.1047611
  26.9530773  58.3818531  52.5261450  27.1097803  57.4422407  52.4323177
  26.8838406  58.5199642  53.4707975  49.4396782  30.4843140  51.5195751
  49.9069309  30.2087569  50.7309198  48.8205719  31.1464405  51.2121248
  59.9652863  70.0102997   4.0130115  59.1014242  69.6066523   4.0968990
  60.3112507  70.0233269   4.9054092  90.4121399  75.0758648  48.9250708
  90.4173565  75.8127642  48.3141851  89.4915295  74.9701357  49.1649485
  84.6879959  19.8534632  11.2620783  84.1010666  20.4962897  11.6602278
  85.3612804  19.7008884  11.9251251   9.6753293  66.7166281   8.8523352
   9.3178064  66.4659977   9.7041529   9.1278583  67.4488449   8.5688502
  36.6761947  53.2220125   1.4911020  36.3565135  53.2487488   0.5892589
  37.0228028  54.1002655   1.6484886  16.1408591   9.0082431  54.2784929
  15.5097318   9.4653690  54.8343229  16.4947414   8.3161372  54.8370504
  41.6106939  67.2189283  42.7530384  40.6820011  67.0848274  42.5638819
  41.7244959  68.1691217  42.7326870  32.4852061  70.6730223  67.2010040
  32.2507524  71.5665674  67.4516869  33.2373619  70.7772923  66.6182327
  62.9779005  20.7046342  63.6107016  62.3314238  21.0580301  62.9996252
  63.1885147  19.8384058  63.2621002   7.2929817  38.3123112  64.0035915
   8.1375736  37.8705454  64.0915632   7.4293035  39.1714454  64.4030094
  57.3634243  64.9028826  67.7744961  57.1964455  64.2008495  68.4033823
  56.5102100  65.3173065  67.6460266  23.3049560  77.9736567  28.6466956
  22.3926044  78.2324219  28.5167313  23.8102007  78.6241055  28.1589723
  69.0923834   1.1913355  53.1108570  69.8668337   1.7433548  53.0025387
  68.5687160   1.3568674  52.3268890  15.0525558  68.7970972  42.5377846
  14.1890001  68.6572599  42.1492672  14.9741530  68.4509134  43.4267426
  40.7172155  25.6167054  73.7580538  41.4354658  25.3190136  73.1997252
  39.9251366  25.3410816  73.2966709  67.1571159  13.2704711  51.0875130
  66.3750601  13.7958145  51.2567329  67.7763224  13.5369611  51.7670679
  65.3115845  21.2501621  50.1885986  64.5939445  21.6876888  50.6466341
  64.9422884  20.4121971  49.9099112  54.9251747  12.0190752  60.6544304
  55.4651117  11.7758811  59.9023962  55.4271984  11.7254293  61.4146805
  49.2079544   4.8844668  45.9400463  48.6163425   5.5584347  45.6053972
  50.0667763   5.1259035  45.5930996  30.2201200  73.7788963  61.1820459
  30.3430963  73.0201101  61.7524385  30.6972551  74.4854641  61.6171789
   5.8186245  75.3881693   9.4994938   5.0641167  75.9059143   9.2186177
   5.8786190  74.6830988   8.8548946  77.2391367  49.3184376   8.2327729
  77.6250029  48.5038853   8.5550189  76.5122080  49.4921207   8.8308018
  46.1913013  26.1671019  61.3026810  45.8124781  26.2690830  62.1757936
  47.1178627  25.9881973  61.4630127  34.0914798   3.2633924  42.2155046
  34.3511915   4.1663161  42.0324421  34.2006421   2.8087479  41.3802719
   1.6854711  67.3659134  41.9990492   0.8148317  67.3959112  41.6024113
   1.7958857  68.2280970  42.3998976  33.4783053  23.5024786  35.2299404
  32.5325584  23.4247351  35.1044369  33.5760236  24.1758847  35.9031487
  64.0200186   6.0614592  48.6236191  63.4820890   6.3983881  47.9071379
  64.0058041   6.7568195  49.2812729  23.0533266  78.3842754  69.0714502
  23.1880045  77.5994968  68.5402107  22.1732736  78.2804203  69.4333220
  56.3401222   4.1243258  48.1386518  57.0916653   3.9923820  47.5607204
  56.3668919   3.3801308  48.7400579  32.1536946  27.4022079  59.9387789
  31.4385056  26.7801738  59.8053217  31.8904209  28.1792593  59.4457150
  46.8430424  22.9008961  64.1811752  45.9328556  23.1346130  63.9990473
  46.9585896  22.0462871  63.7658215  18.9714146  77.2946882  55.0467157
  19.3972850  77.9241657  55.6286287  18.0358231  77.4096155  55.2131224
  90.6395149  34.1576099  15.5012417  90.8721161  33.6049938  16.2473953
  89.6891212  34.0715957  15.4265475  78.8424730   1.8146639  60.0816393
  79.7413683   1.8799633  60.4040527  78.3650732   1.3815549  60.7892704
  67.3044777  75.6997395  67.5997019  67.0481920  76.1192894  68.4209967
  66.6575241  76.0040283  66.9632292  15.9374297  42.1154976  26.4482570
  16.4908016  41.3426018  26.5606761  16.5533364  42.8285742  26.2796855
   9.5102191  50.9313202  23.6967993   9.6169287  50.0978041  23.2384372
   9.6636188  51.5955305  23.0248427  82.9633427  28.6320448  51.6843462
  83.9128876  28.7526298  51.6920710  82.8345394  27.7704287  51.2877893
  81.7274380  48.0165625  10.2425694  82.4477100  48.6379337  10.3490686
  82.1066284  47.2937584   9.7425610  73.9771938  61.9248867   6.6042745
  73.0803967  61.7483377   6.3199902  73.8784361  62.3691607   7.4463540
  26.1460460  86.3893908  44.8882341  25.6857885  85.5711901  44.7013140
  27.0278658  86.1158410  45.1408100  25.0219917  45.4308414   1.6276456
  24.8171186  46.3406849   1.8431409  24.5228815  44.9162483   2.2619274
  46.6813231  28.7270379  46.9477987  47.1357441  29.3522096  47.5125074
  45.8545065  28.5545015  47.3981667  28.6359882  32.8789377  63.1666708
  29.0700603  33.7007403  62.9376411  27.8162313  32.8953004  62.6727438
  19.6222305  82.5224686   8.9450461  18.8241220  82.6733398   8.4385949
  20.1832581  82.0116901   8.3614492  32.5088906   4.4241878  57.8887749
  31.7259741   4.9415913  58.0773687  32.1837735   3.5313857  57.7728605
  66.0816908   1.4058042  36.9222856  66.0657454   2.3628102  36.9114780
  65.5930185   1.1492696  36.1402225  60.4736328   3.1001657  49.0649843
  61.1351681   3.7150452  49.3820429  60.8233690   2.2370189  49.2861080
  80.6498909  33.1913733  68.0528736  79.8549318  33.3870745  67.5569201
  81.0500908  32.4587250  67.5845671  54.4372034  34.1959739  65.6473160
  54.3349028  33.2481217  65.5616283  53.5558796  34.5154881  65.8407211
  64.7712469   2.4468459  56.7112446  64.2115927   2.0220566  56.0611868
  65.2407360   1.7259052  57.1308327  42.6276016  16.6245770  39.2976356
  43.3629942  17.1772873  39.5620990  42.2953415  17.0340931  38.4988022
  85.1482868  38.7121129  61.6003513  85.8442307  38.9238930  60.9782219
  85.1060009  37.7558565  61.5960312  67.3087549  30.9551001  49.5157433
  68.1937361  31.0205841  49.1569233  67.1007109  31.8439174  49.8037624
  78.3080530  45.0143147  63.0048561  78.1183529  45.0530529  62.0674419
  79.2557287  45.1359606  63.0626726  69.4209814  12.5755870   9.8921204
  69.8977995  12.6030481  10.7216525  69.1498327  11.6620433   9.8018444
  35.3017807  16.5762031  67.5166655  34.5830560  17.1313035  67.2141266
  34.9709821  15.6830335  67.4215269  77.2442007  14.5923924  46.9018126
  77.7328396  13.7699699  46.8689156  77.9184389  15.2695143  46.9578314
  71.9689894  18.6100817  45.3104544  71.6870356  18.7098992  46.2197208
  72.8917789  18.3631825  45.3715658  30.9119248  77.6528883  45.4797602
  31.7269993  77.2176838  45.7297230  30.2390122  76.9804955  45.5861092
  70.3601885  48.7677145  72.9192781  69.9692583  49.5310307  72.4941301
  70.0783205  48.0253315  72.3848200  84.3908787  32.4578953  36.5706205
  84.0816307  31.6223311  36.9205189  83.7042713  32.7317357  35.9624958
  72.2765017  36.1702871  26.2107849  71.7954636  35.3720617  26.4291334
  71.7568064  36.5817976  25.5202699  60.1937580  29.5522714  43.3536530
  60.4911661  29.1215038  42.5522661  59.3662167  29.9668980  43.1097507
  76.3264084   3.2363218  74.5077133  77.2158718   3.3706340  74.1805410
  76.0443830   4.1038007  74.7978449  75.8891153  22.2692347  70.4864073
  75.3971577  22.7228594  71.1708307  75.2625608  21.6504812  70.1111746
  24.0143132   7.6489288  43.3400822  24.1569853   7.1899891  42.5122833
  24.5683384   8.4272599  43.2810068  80.1668930  30.0538516  45.1084805
  80.1032829  29.4963360  45.8839560  79.2698956  30.3486013  44.9511719
  87.6330185  26.7151165  48.3516836  88.5669613  26.6420293  48.1551218
  87.5559711  27.5291944  48.8492537  49.7679996  22.3098016  53.4041739
  49.3827295  22.2861338  54.2800999  50.2492142  23.1367826  53.3764458
  82.5366592  34.7413921  43.6134863  82.0623779  35.1656795  44.3285131
  82.7477169  33.8703847  43.9496946  56.8955421  15.2587521  67.1837234
  57.2190189  14.6849918  67.8782701  57.5586081  15.9453619  67.1120262
  82.7727032  41.1482334  56.0170412  83.3937263  41.4604187  56.6751480
  83.1419754  40.3188848  55.7136345  26.7827225  17.9994249  63.9485359
  27.2300863  18.7606323  63.5788584  27.2834349  17.7864230  64.7360325
  64.5169306  12.7770996  48.0626154  63.5904408  13.0167913  48.0824947
  64.7639608  12.6990283  48.9840889  51.1324358  74.8094034   2.2888044
  50.5526066  75.1909924   2.9479107  51.6879272  74.2041445   2.7800551
  55.4456139  12.0345819  68.2296562  54.7556782  12.0301974  68.8931322
  56.1427355  12.5671661  68.6125469   3.2508031  85.2848434  44.3185759
   3.2315215  85.6723595  45.1936102   2.3684934  84.9360847  44.1915846
  74.4373512  17.1450496  25.1519060  74.3685389  17.2555494  26.1002135
  73.7453413  16.5211284  24.9326372  73.7870264  35.3545046  49.7730255
  74.2210102  36.1933184  49.6171951  73.2256317  35.5126405  50.5320120
  36.2401581  13.0670333  44.8013973  36.7398572  13.0816233  45.6176805
  36.8322539  12.6658237  44.1652489  55.5537128   6.6791230  57.9167414
  55.9571362   5.8436185  57.6813412  55.3053999   7.0696884  57.0788670
  13.1933069  11.1260569  10.2273571  12.6502216  11.6667044  10.8009326
  13.6606359  11.7548716   9.6774226  28.2481551  51.8819761   6.9159633
  27.9616785  50.9997559   6.6796315  28.9892578  52.0565891   6.3358670
  49.9760723  54.7213650  68.9498806  49.1451788  54.2484236  68.9964581
  50.6422472  54.0341997  68.9341831   4.8786277  54.6806812  19.1680813
   5.2590698  54.7749805  18.2948101   3.9480472  54.5235157  19.0082324
   9.9057782  53.3994436  21.9520617  10.4152954  54.1865873  22.1444821
  10.5299723  52.8063822  21.5338635  57.2905397  85.3617668  60.5484676
  58.2474804  85.3512764  60.5289602  57.0712376  85.4964066  61.4704275
  10.6406295  19.9807715  36.0100651  11.1244833  20.2737665  35.2378798
  10.6189871  19.0270448  35.9315228  39.2514277  20.6613278  60.2221632
  40.1277637  20.2830172  60.2938747  39.1985464  20.9736300  59.3188906
  58.6990499   4.2224696  65.1874065  59.0072489   3.4016755  64.8032951
  57.9711103   3.9639336  65.7526493  67.3338270   9.0660459  59.9619865
  67.2160244   8.5171783  59.1866779  66.7994165   8.6462450  60.6360817
   5.4150879  10.8675504  52.1349049   6.2196147  10.4772341  51.7934084
   4.9356335  11.1485434  51.3555479  60.8025360  14.2199028  54.9818420
  60.1928186  14.5607984  55.6362677  60.2717257  14.1133904  54.1924572
  32.4107814  55.6380463   2.8675172  32.1144795  55.9317207   3.7290227
  31.6065431  55.5427885   2.3572657  57.7391100  45.5556870  66.8587017
  57.7310848  45.7926035  65.9313202  57.2351980  44.7430515  66.9026756
  89.6065140  46.2072420   9.2533964  88.6965084  46.0110760   9.4762236
  90.0484943  46.2858915  10.0987911  39.5970225  60.8955002  11.4275789
  40.2807808  60.5423784  10.8583570  40.0107622  60.9581470  12.2884655
  17.7120483  14.5868695  68.8944721  17.3761809  13.8999736  68.3186245
  18.4752941  14.1931069  69.3171263  45.9338140  44.7415161  56.2592602
  45.1797199  44.4358540  55.7551336  46.5832376  44.0446520  56.1651134
  55.1292706  44.1702986  65.9575796  54.2265224  43.9917469  65.6941462
  55.2503109  43.6604786  66.7586184  79.9481630  36.6897893  50.8429146
  80.8264351  37.0326972  51.0080957  79.3638563  37.3029613  51.2888241
  61.9167709  12.9986167  35.6645942  62.5658035  12.3158431  35.4948688
  61.0741329  12.5487649  35.6027603  53.9900160  83.0563736  58.0307245
  53.0816698  82.8626728  57.7991819  54.4174576  82.2004128  58.0600786
  45.6736326   3.1802005  51.6216755  45.7990694   2.5754598  52.3529673
  45.8511209   2.6536289  50.8422804  81.7007351   6.0144323  15.8185840
  81.8245697   5.3498697  15.1409030  81.1675167   5.5807161  16.4847648
  11.5911019  47.7421570  50.1422787  11.1500645  47.3948479  49.3669748
  11.3249135  48.6609125  50.1778316  91.3228035  64.3466949   3.1186250
  91.3540936  64.5223427   2.1781990  90.6459808  64.9368382   3.4501082
  61.6080141  30.1830578  40.8498287  61.4779425  30.5202270  39.9634695
  61.7550898  30.9637046  41.3838577  49.3698072  21.7749333  62.4113178
  49.3520641  21.1163926  63.1057501  49.6596241  21.2963009  61.6346884
  88.9536095  40.0122309   1.5427101  88.0766296  39.6684289   1.7128026
  89.4183540  39.9041128   2.3725007  79.0517187  28.9143491  60.5366278
  79.1925001  28.3838081  61.3208055  79.9241304  29.0152502  60.1559114
  65.4128885  38.3218932  63.5539246  65.5563307  39.2634082  63.4579706
  65.9571505  37.9260969  62.8732252  23.5846114  77.9177713  44.9457312
  22.8808141  78.4882307  45.2547169  23.2151961  77.4734545  44.1826153
  38.0530024  77.0240927  23.3645034  38.1407857  77.6844358  24.0518713
  37.9023886  76.2052774  23.8368249  13.4410882  73.5513496  14.2122936
  13.5160458  72.8473282  13.5681152  12.5625086  73.9066124  14.0776896
  35.8393764  78.5061550  21.7884636  35.3374863  78.0591488  22.4700260
  35.6767726  77.9938984  20.9963870  74.8303938  43.7242985  60.4124022
  74.5877361  42.9933596  59.8440027  74.4357824  43.5113287  61.2580729
  80.0233936  49.7234011  11.9111133  80.5214691  50.1689053  12.5964427
  80.5537033  48.9582253  11.6885841  84.3398666  31.3024807  30.1327038
  84.4510937  30.3674221  29.9608660  83.6895466  31.5882182  29.4910932
  85.5916500  39.0338397  46.0466099  86.1673832  39.1737747  46.7983913
  86.1613464  39.1425824  45.2851248  50.8686495  43.1464195  63.6120796
  51.8239260  43.1233311  63.5560036  50.5756807  43.1672430  62.7010536
  28.0535293  29.6686029   4.2558625  28.9643717  29.4631934   4.4665903
  27.9386663  30.5733991   4.5463535  89.2317963  56.0044050  73.4072876
  89.8565865  55.7473612  72.7292061  88.9523888  55.1779747  73.8012218
  68.3322620  21.5111279  44.2812538  68.7290621  22.3122120  43.9391327
  68.9606333  20.8218360  44.0661764  70.1441669   8.8702983  63.5127640
  70.1666451   7.9203773  63.3971071  70.9848881   9.0821564  63.9183950
  61.4628077  50.5762386  64.6562433  60.6744909  50.4334879  64.1323996
  61.3935137  49.9430370  65.3707266  61.3249159  60.4628325  19.4930828
  61.1705637  61.0952854  18.7913620  60.8516359  60.8190727  20.2449703
  19.5543158  42.3976994   8.6762458  18.7413573  42.6931572   9.0861672
  19.8867750  43.1703520   8.2193959  87.4566460   1.0285189   7.2937512
  87.9047775   0.8510254   6.4667654  88.1251049   1.4336550   7.8462523
  79.0582037  18.5535872  56.9869757  79.5348787  19.3002319  56.6243029
  78.6905336  18.1099772  56.2226057   1.5676926  74.6985722  17.3066533
   1.6535515  74.6113443  16.3573098   0.6484063  74.9272251  17.4439967
  30.0866890   4.8658669  32.0499992  29.3665934   4.9627152  32.6731467
  29.7117734   5.1256680  31.2084699  48.2801437  10.5994833  12.5633192
  48.6740208  10.3995621  13.4125090  48.9221907  11.1598825  12.1274757
  47.5591469  28.4408832  74.3611526  47.4014616  27.8061366  73.6622524
  48.3879375  28.1650949  74.7526598  59.1780567  14.4796693  60.6243229
  59.9314213  15.0588250  60.5092049  59.5545959  13.6001873  60.6553650
  75.3656483  34.4033790  13.1979740  76.2758732  34.1120839  13.1443906
  75.2474213  34.6523762  14.1146278  34.6905351  67.9951239  65.6031656
  33.9655781  68.4481668  65.1725626  35.1049590  68.6668968  66.1446476
  59.6203804  19.0221465  62.8074741  59.7534704  19.9609137  62.6761866
  60.2134705  18.6063361  62.1817160  67.0279741  22.8955936  60.4192686
  66.6764784  22.6369333  59.5673418  66.2565851  23.1285453  60.9359169
  61.5996313  34.6255112  38.2789707  61.2346649  33.7516499  38.4182429
  61.7921495  34.6581125  37.3418975  26.9651461  20.8055663  47.4261713
  27.4607921  19.9888802  47.4861193  27.0611000  21.0775256  46.5134478
  82.2637272  29.8679924  13.4864569  82.6440048  28.9940596  13.3977962
  82.7099037  30.2476811  14.2434168  90.5979443  48.6093092  26.2952018
  90.0844669  48.9160204  25.5478716  89.9619484  48.5291719  27.0060635
  71.8122196  11.0399711  60.9471464  72.2614384  10.3829849  61.4789343
  70.9093332  11.0286891  61.2647915  90.7366371  24.7665143  31.6164804
  91.6107559  24.4382358  31.8271518  90.8909321  25.6303668  31.2341428
  89.8198700  30.9303951  10.5238783  89.4816971  30.2966046  11.1564755
  89.7719669  31.7714047  10.9784555  15.3604043  67.7242184  15.8948374
  15.9736454  67.0934677  15.5175817  15.9078848  68.3019543  16.4265513
  52.2046328  14.1110778  55.1640844  51.4602613  14.2177832  54.5718336
  51.8181181  13.7916315  55.9794283  84.1607571  38.7244964  37.3906708
  83.6756420  39.2407131  36.7469168  83.5097504  38.4960294  38.0541706
  72.5783777   9.9473464  42.1175432  72.8874063   9.8568887  43.0189610
  71.6278076   9.8536175  42.1796846  49.8252392   5.8684599  30.9763145
  49.8068666   4.9321148  31.1741829  49.1415739   5.9873968  30.3170061
  72.8411293   0.6887916  26.4403772  72.0408392   0.2105345  26.6572762
  73.1426382   1.0430291  27.2769403  49.8329830  50.0499010  60.0416088
  49.2416382  50.2864170  60.7561731  49.3147755  50.1829529  59.2478848
  74.1622496  40.5894279  42.1363497  73.2304955  40.5261660  41.9264317
  74.5750999  39.9125957  41.5999889  58.5807705  49.0783167   5.5180717
  58.2027769  49.9538946   5.4360890  57.8513193  48.5283232   5.8037978
  49.0536165  17.8077555  69.8989677  49.2681026  17.5853252  70.8049202
  48.8226938  18.7362134  69.9285316  55.5170345  30.7182312  46.7067146
  56.3297796  30.9553099  47.1533442  55.5242491  31.2391973  45.9037352
  15.1572502  53.6772442  64.3396950  15.6819844  53.0229998  64.8010492
  15.7991421  54.2924547  63.9851236  78.3891201  30.6939816  66.0053158
  77.8493214  30.2493167  65.3517723  78.9111805  31.3176322  65.5005932
  81.4152622   8.8385713   8.7295222  80.9074020   8.1097168   9.0859997
  80.9509850   9.0854329   7.9296851  70.7741690  49.7315168  29.2444849
  69.8642302  49.6063185  29.5138717  70.9007168  49.1066599  28.5304999
  61.7809343  27.1358800  53.0980825  60.9489870  27.0047116  52.6432276
  62.3229980  27.6161194  52.4721718  44.9771547  73.2384396  72.2559500
  45.2806616  72.5898409  72.8911161  45.5583715  73.1271267  71.5036011
  49.0529871  12.0031536  52.4489450  49.0026140  11.5248811  51.6213322
  49.1551733  11.3218307  53.1134701  73.9800692  46.2876654  53.8006639
  73.5921907  45.4361439  53.5989428  74.8921537  46.0908604  54.0141964
  64.7414541  36.9041944  65.9537649  64.8007727  35.9566236  65.8320189
  65.1500988  37.2723746  65.1703835  52.7159166  54.5895624  12.3378813
  53.4456062  54.9117374  11.8087447  52.1546268  54.1270924  11.7155397
  34.1070485  61.8478727   2.4015115  35.0123239  61.5371323   2.4136543
  33.8241911  61.7261982   1.4951909  76.2066793  68.7160063  20.0836992
  75.2806234  68.5019207  20.1969266  76.6727209  67.9616499  20.4442263
  62.6024437  30.0647902  51.6495275  62.0774031  29.9822879  52.4456167
  61.9751692  29.9490094  50.9358358  22.5317931  59.3453121   7.3087060
  21.7834640  59.9414921   7.2802800  23.2816815  59.9108267   7.4933374
  63.5107946   7.1736014  70.3428745  63.4396029   7.0345688  71.2872458
  64.4293356   6.9933343  70.1428127   0.9230964  43.8091946  60.1458025
   0.2022124  44.3265772  60.5047989   0.6139791  43.5343266  59.2825937
  59.2779064  39.0438890  70.3902912  60.1907587  39.1975331  70.1467323
  58.9919186  39.8697424  70.7806921  72.7274179  32.4769306  65.3182602
  72.8815842  32.9469228  64.4987679  73.4769773  32.7032948  65.8688498
  55.9272623  34.8120642   7.1434230  55.7425451  34.5898604   8.0559671
  56.4726448  35.5970860   7.1937388  72.9339552  37.0854878  60.9306765
  73.5108805  37.3992658  61.6270494  72.4643612  36.3490653  61.3223267
  90.0761604   7.7619058  31.3043022  89.4567108   7.0381510  31.2110949
  89.7225380   8.4533858  30.7448030  76.1203480  30.7743812  42.1251488
  76.3909340  31.1602187  41.2919998  76.6109896  31.2630582  42.7859831
  42.6449919  10.1583612  53.2339525  43.3075857  10.6922698  52.7956104
  42.0183849  10.7925928  53.5823011  88.0186749  43.5884380  25.7598114
  88.7347126  43.0340528  25.4497099  87.3077774  42.9767084  25.9512353
  62.0827436  32.9767561  49.3119717  61.2200928  33.3911395  49.2930508
  62.6500225  33.5826683  48.8352156  79.0324211  19.2983663  22.5497127
  78.8376236  19.9154580  21.8443871  79.4708061  18.5673857  22.1141434
   8.9403141  35.2172017   2.6457644   8.9612621  34.3126583   2.3333633
   8.0094582  35.4378223   2.6784119  81.5239716  22.1232796  51.9331694
  82.2161674  21.7787600  52.4974394  80.7595634  21.5837312  52.1351480
  71.0420322  41.1575460  55.4993820  71.7037868  40.4969931  55.7042742
  71.2508392  41.8926144  56.0758448  65.3513908  28.9725780  50.8929300
  66.0904408  29.4970417  50.5847549  64.8187733  28.8265896  50.1111126
  78.2253361  65.0791216  10.3689599  77.4548101  65.3582525  10.8635390
  78.0658817  64.1546631  10.1787388  35.0119996  18.0767822  54.4099331
  35.1853704  18.3035529  53.4962893  34.6630788  18.8810062  54.7942638
   0.1281323  65.8610392  50.0323153   0.4861471  66.6268444  50.4813099
   0.8351050  65.5683470  49.4572020  15.0716460  76.5096235  11.5790212
  14.1797614  76.3135433  11.2920964  15.5934799  75.7738447  11.2587845
  60.4584312  34.4504857  60.4800177  61.0113955  34.6877146  59.7355795
  61.0682201  34.3609047  61.2123871   6.4841640  84.6790123  61.7850447
   7.4303019  84.7259140  61.6477346   6.1903989  85.5889702  61.7413712
  57.6537800  37.7180076  74.0587807  58.4366369  38.2557082  73.9394379
  57.0822096  37.9622364  73.3308458  67.5107574  19.5477986  34.0475106
  67.6204062  20.4295778  34.4034243  67.9639769  19.5716095  33.2047439
  12.0134175  20.6758404  33.7619090  11.7187059  20.4928946  32.8697729
  12.9050207  21.0076880  33.6563015  45.8875179   9.6519870   6.7877680
  45.6933403  10.5528808   7.0464498  45.1048851   9.1584188   7.0329314
  88.3240318  13.0459249  55.8355379  88.5350990  13.7292957  56.4716864
  88.1914425  12.2591388  56.3643312  65.7023239  21.6739583  35.2049589
  65.5839777  20.7294798  35.1040387  66.1524057  21.9457674  34.4050956
  65.1860523  17.5390029  28.4101009  64.4183779  17.3240948  27.8802705
  65.1610422  18.4923339  28.4923577  81.2094975  47.7087259  67.5999641
  81.9513512  47.2285128  67.9677677  81.0060501  48.3747864  68.2566214
  71.3372278  71.0922480  69.6936560  72.0691204  71.6934538  69.8319244
  71.0635090  71.2518597  68.7904215   1.3081749  51.7031288   0.1806979
   0.7153310  52.0164537   0.8637756   2.1548858  52.0908022   0.4021057
  83.3776855  65.0564623   0.9598441  83.0986309  64.2717218   0.4880995
  84.3335915  65.0068569   0.9629074   5.4562217  75.9069586   5.7482439
   5.6030858  76.6341305   6.3531321   4.6103710  76.0991955   5.3435040
  34.1550207  85.1083279  53.0219173  34.0653992  84.4846535  53.7424898
  34.8671365  85.6874180  53.2935429  57.7819490  79.6966219  42.0230198
  57.1234846  80.1513100  41.4977360  57.7433920  80.1246643  42.8783131
  82.0171261   4.6302420  48.0216551  82.2788048   4.0795115  47.2837877
  82.6412773   4.4146678  48.7146139  81.5564823  67.9947805   6.6377342
  80.8863163  67.4589491   6.2134826  81.0756111  68.7415791   6.9945133
  68.1119871  19.7050595  48.4039974  68.0570126  20.4869771  48.9533758
  68.3021116  18.9946985  49.0167570  68.7784529  23.3112597  49.0620422
  69.7270107  23.1939507  49.0100241  68.5093021  23.4888530  48.1607914
  66.0347128  35.2984977  68.6484909  65.6937599  34.4447017  68.9149761
  66.1804676  35.2146959  67.7061701  27.1398377  62.1636438   3.5095161
  28.0389929  62.3049450   3.8058087  27.2221446  61.5524817   2.7774400
  46.3606596  77.7616787  41.6448116  45.7664633  78.3411074  42.1217108
  46.1402512  76.8837643  41.9561243  73.5705280  41.0730696  49.3780661
  73.5713434  41.1319399  50.3334522  73.4780455  41.9787455  49.0823698
  89.2964172  10.8245790  73.9587307  89.8084641  11.1217809  73.2065964
  88.6019135  11.4771330  74.0485811  89.3443584  45.5606985  56.9057560
  89.5400143  45.4611874  55.9740686  88.4632683  45.9341431  56.9269133
  79.6099949  42.7228165  70.4558516  78.9575672  42.2297430  70.9532976
  80.1381969  42.0521212  70.0229454   4.4990584  48.8788843  39.3406343
   3.8116628  48.6832428  39.9773812   5.0126857  49.5756817  39.7491598
  53.2400036  58.2962847  63.3141279  52.9431963  57.6055956  63.9066553
  53.1959915  57.9004288  62.4437284  71.3088179   0.8057890   2.9056603
  71.1924219   1.7539984   2.8458053  71.7960691   0.6751689   3.7191439
  70.2944231  29.4600296  51.9197416  69.9585819  28.5654330  51.8637037
  70.4352045  29.6048403  52.8553915  67.4001741  37.1918154  70.4936266
  66.9006395  36.5307474  70.0143766  66.8808556  37.9915500  70.4101658
  62.5612116  21.2688494  50.6045246  62.3056221  22.0758438  50.1576853
  61.8527937  21.1050868  51.2270594  88.3194256  34.7469187  67.9772997
  88.4468842  35.2721238  67.1872711  87.4117756  34.9133372  68.2316875
  19.2149258  40.2691889  15.7751215  18.6670935  39.5093989  15.5780625
  19.9101090  40.2401733  15.1177692  66.7095280  38.4801722  67.2319269
  66.5464067  38.6559033  68.1586123  65.9557343  37.9618859  66.9501257
  17.7157223  83.3824348  57.0872307  17.9054761  84.0913773  57.7017403
  18.5738873  83.0197525  56.8675709  79.3731403  14.3113160  51.2777615
  79.3016291  13.7149024  52.0230198  78.7988424  13.9327741  50.6120920
  18.5445511  35.3253865  57.7130175  19.3390918  35.8551669  57.6476669
  17.8317904  35.9640002  57.7324295  36.8969631  73.1531048  26.3834023
  36.1572576  73.1005573  26.9886327  37.3180008  72.2956657  26.4447451
  44.5290661  50.2148771  59.0515471  43.6469984  49.8506689  58.9771271
  44.4140339  51.0197306  59.5567322  59.0610313  18.9298797  56.8228960
  59.8242903  19.3466794  56.4229679  58.9210701  19.4159031  57.6355600
  68.8558960  48.0762053  54.5675993  68.1932592  48.1996250  53.8879538
  69.6843100  48.2825041  54.1346979  71.3898611  34.5229268  62.2516203
  72.2373676  34.0780234  62.2465563  71.2561893  34.7731924  63.1658030
  79.8979807   0.6617918  41.7711449  80.7435036   1.1049809  41.8412161
  79.7981262   0.4828180  40.8361435  50.0362539  77.6311588  53.5962963
  49.1596222  77.3870134  53.8931799  50.4223442  78.0906582  54.3419695
  63.2197332  33.6357975  62.4173164  63.9085722  34.1127062  61.9543982
  63.3590364  32.7199602  62.1763325  36.4709568  52.6112413  11.2518930
  36.3136387  53.2272339  11.9674599  35.9127259  52.9236460  10.5398440
  85.6302929  52.8226376   1.3438517  86.0749912  53.5752726   1.7337508
  86.2731171  52.1148396   1.3889840  76.4414501  68.5573912  71.6310549
  75.6650639  68.0131388  71.7623615  76.1346245  69.4519663  71.7787647
   3.5862410  58.7230587   2.1949479   2.8857917  58.6262989   2.8401145
   3.2701188  59.4013596   1.5981175  69.0155077  76.8917561  55.0590467
  69.4359732  77.5630426  54.5216274  68.3162832  77.3563528  55.5189085
  56.7866135  14.7364163  61.8496084  56.1938620  15.3244579  61.3815403
  57.5333214  14.6301174  61.2602425   3.5561481  30.9613705  11.1233580
   2.7330366  30.5312967  10.8915055   4.1007471  30.8738804  10.3410602
  25.7406092  64.3865871   4.8154235  26.2227941  63.6216068   4.5015225
  25.8269238  64.3498039   5.7680142  54.8541212  77.4908304  44.7088242
  55.6523895  76.9952679  44.5260048  54.3801308  77.4967098  43.8772392
  22.7225494  64.2602444  10.3219116  22.6422644  64.6380186   9.4460857
  22.2404480  64.8631144  10.8879101  48.4406519  70.1228809  58.2380009
  48.4156513  69.5067835  57.5058603  47.7732658  69.8015881  58.8442993
  75.0829077  49.7922277  57.3916340  74.5610476  49.0169191  57.1847677
  74.4835806  50.3630304  57.8724909  57.8259945  21.2346482  67.4960566
  57.0758867  20.7281828  67.8076029  58.5359383  20.5959034  67.4311304
   9.3685478  23.9790773  71.1303854   9.4958091  23.4952831  71.9464636
   9.6570599  23.3749104  70.4463005  25.6445646  75.8968639   8.3533132
  25.8124733  76.6554356   7.7942008  24.7575426  76.0356236   8.6852330
  74.7054529  50.5649090  66.2382936  75.2540827  51.3298607  66.0648298
  74.3719721  50.3093433  65.3782320  35.3719544  61.7671871  11.6111004
  34.9900842  62.3478842  12.2692764  35.2196717  62.2152710  10.7790792
  79.8450232  63.9459562  57.6624203  79.7647429  64.4535780  56.8548870
  80.7698917  63.7023497  57.7012396  40.3739977  74.9086189  71.1858606
  40.7127190  74.0387440  71.3975525  41.0699129  75.5084944  71.4543390
   1.8852814  22.7184653  50.7771349   2.4384139  23.1775928  51.4091778
   1.5125871  21.9881582  51.2710762  86.0094357  12.8364170  71.5354156
  85.4480362  12.8912270  70.7620716  85.5498695  12.2365701  72.1229649
  62.0505190  26.2824631  22.7263784  61.3735247  25.6737995  22.4306750
  62.1091890  26.9335532  22.0271873  90.0632191  73.5507298   5.1238751
  90.6496525  73.7016249   5.8651972  89.4027138  72.9451513   5.4603827
  83.4262085  57.1917105  73.2143784  84.2766953  57.6303768  73.2363415
  83.5567188  56.3906527  73.7218285  66.4896727  56.3182926  63.9458084
  66.0981798  55.6359959  64.4911909  67.0599651  55.8436728  63.3410501
   3.5197899  30.2313542  51.9809628   4.0735093  30.8428884  52.4664021
   2.6265660  30.5309939  52.1500778  75.4711199  36.0504460  52.7576160
  75.2814150  36.6356301  52.0242643  76.3066816  35.6431890  52.5291157
  76.1686754  25.9293747  55.5913830  75.4615736  26.4561343  55.9638977
  75.7499599  25.4257202  54.8933554  90.9193569   8.7606269  39.3937087
  90.6923456   8.9602572  38.4854984  91.0569064   7.8134125  39.4035554
  77.9569149  22.5547218  68.8819456  77.8798866  21.7781329  68.3276844
  77.3395777  22.4007654  69.5970821  33.6477160  28.5373282  67.9007053
  34.0358806  29.3057609  68.3191252  33.5588980  27.8986526  68.6081219
  30.7452631  61.9736528   8.7050551  29.9987507  61.9621515   8.1060392
  31.2027049  61.1505175   8.5335100  68.8971233  42.6928139  73.0024624
  69.3087959  43.5091686  73.2858658  68.4140253  42.9303598  72.2109938
  91.1141109  44.3012571  46.2375450  91.6232777  44.4653940  47.0312977
  90.2024651  44.3271303  46.5281582   2.9311413  39.9283743  48.0750656
   3.8830265  39.8291492  48.0923891   2.6704907  39.5889282  47.2188711
  56.5246153  19.0453267  56.3856697  57.4730682  19.0899551  56.5068436
  56.4108372  18.8540173  55.4547119  66.7237854  20.6901312  62.5295401
  67.3195934  20.9802175  61.8388176  65.9121513  21.1693072  62.3625946
  58.1121826  41.3314962  43.2898760  58.7450361  40.6577015  43.5383415
  58.6045218  41.9250822  42.7228737  71.9916964  22.9520059  19.2936611
  71.9567299  22.5853634  20.1771665  71.0840893  22.9325294  18.9901698
  67.5768900  30.2899194  46.6096640  67.5474930  30.6038141  47.5134563
  67.6456690  31.0855222  46.0819149  58.6556244  78.4477711  64.6020985
  59.5171404  78.5796833  64.2063427  58.7359142  77.6230526  65.0812912
  73.5305929  37.2124314  41.5900230  72.7585602  37.5179768  42.0663023
  73.3591223  37.4494934  40.6786346  87.4491119  51.4344645  35.4910707
  87.4362659  50.8733749  36.2664700  87.1043110  52.2734404  35.7967877
  28.8799906  12.5878489   2.0936830  29.6149182  12.3373485   1.5338953
  28.7647557  11.8438947   2.6848558   9.3110520  66.3216114  11.6800880
   8.8979161  65.6794500  12.2573042   8.7876052  67.1152687  11.7912078
  83.0377579  58.9560938  67.0874071  83.1498337  58.8788939  68.0348825
  82.0896053  58.9886236  66.9602394  62.5260639  66.2499094  34.9062037
  62.5128555  65.6747866  35.6712437  63.4183073  66.5956593  34.8818517
  14.8584628  79.9679327  16.9242561  14.7203147  80.8870506  17.1530867
  15.0449443  79.5386457  17.7592230   6.8818343  85.0082970   6.5515035
   7.6805323  84.6962738   6.1261189   6.3461703  85.3487301   5.8349830
   5.5544788  19.4805944  71.9151735   5.8498061  20.3101373  72.2905016
   4.9356699  19.7343528  71.2304020  71.5562725  47.9498291  19.6137261
  70.6144428  47.7956629  19.6873271  71.6819525  48.8338137  19.9586999
  71.6807127  31.7394948  67.8255129  71.3250065  30.9203434  67.4809933
  71.6481447  32.3450065  67.0848894  87.5069618   9.1475600  66.7857552
  86.9534492   8.7761378  66.0987997  88.3909988   8.8534498  66.5662050
  70.9357214  56.7387295  13.3851600  71.3313055  57.3201752  12.7358019
  70.1696157  57.2180462  13.7007010  84.6089649  82.4734974  33.4320736
  84.4966888  81.8242264  32.7377534  83.8510227  82.3472500  34.0028811
  13.4015095  39.5695186  19.4176865  12.5365758  39.6734738  19.8143160
  13.5707057  40.4083490  18.9887762  85.3805351  55.5943441  46.0534382
  86.3081455  55.7089090  46.2599468  85.2530956  56.0867405  45.2425575
   4.8506907   4.4719443  71.7132473   5.1549548   5.0646150  72.4005556
   3.8998199   4.5816037  71.7060614  79.8873425  45.9908342  60.7420778
  79.8364735  46.7899179  60.2175665  80.1128674  46.2952757  61.6211033
  10.8326364  63.0107594   5.9329069  11.4019072  63.0205870   5.1634485
  10.0928879  62.4600554   5.6765336  15.0876784  17.4951506   7.4011087
  15.6035900  16.7502594   7.0925593  14.7389317  17.8920138   6.6029179
  67.1053600  36.9298100  58.5395384  66.5298557  36.5764093  57.8612041
  67.7019262  37.5114655  58.0683470  81.3382626  53.5847616  59.1274309
  82.0480442  53.6323690  59.7678757  80.5470848  53.7728071  59.6323252
  86.0522175  49.9313211  30.7352471  86.1231518  50.6678057  31.3425255
  86.7859745  50.0471258  30.1315737  59.0119123  10.8821595  51.3029289
  58.1525517  10.9833503  50.8936644  59.0622520   9.9530834  51.5276814
  72.5571966  33.2852674  41.8984175  72.0445585  33.6844063  42.6013517
  73.4613848  33.5337448  42.0905876  53.6525631  42.0587444  25.0292420
  53.4842014  41.1948490  24.6529794  52.9072905  42.2169876  25.6086946
  81.6750145  32.9621267  35.8429122  81.5893841  32.1446800  36.3335037
  80.9153175  32.9727459  35.2606869  73.5151768  41.8547058  62.3796415
  73.9955044  41.3755512  61.7044163  74.1222429  41.9008398  63.1182718
  24.6204853  59.4367647  16.6577089  24.0005946  59.9290276  17.1958971
  24.5781970  58.5437822  16.9997990  64.1399717  10.6819558  58.6450863
  63.3852577  10.2354670  59.0288734  63.9741135  10.6655788  57.7025080
  88.1839848  28.0057263  35.5814815  88.5500908  28.5829115  34.9113655
  87.5860596  28.5643673  36.0781026  47.2205257   0.7453620  71.3629866
  48.1263399   0.9531815  71.1337709  46.8580198   0.3485992  70.5709028
  37.1893263  60.8606052  69.4104767  38.0046415  61.1946297  69.0364170
  36.5018272  61.2371588  68.8611269  70.2534008  54.1813612  23.1958771
  70.5585194  54.7051096  23.9367008  69.4056177  54.5619822  22.9664874
  59.0644979  61.4053726  64.9259377  59.8362589  61.1106586  65.4094219
  58.4335518  61.6447353  65.6047964  71.1499882  50.2092028  57.1107674
  71.3636255  50.7273436  57.8867292  70.2556181  50.4680824  56.8886900
   2.7896127  43.5474539  71.7716742   3.4009275  43.5887957  71.0362720
   3.3394992  43.3478117  72.5293016   6.1200285  36.3326979  39.5937800
   5.9692997  37.2779536  39.5913100   6.2949562  36.1156607  38.6780691
  74.7979307  21.2823319  63.1634235  74.6264601  20.8612323  64.0057421
  73.9326429  21.5348625  62.8413439  61.6216326  58.5414267  55.2700043
  62.0994425  58.6340523  56.0942316  61.1375380  59.3622971  55.1802397
  88.4151363  26.9387794  62.2946072  87.9042244  26.2156963  61.9308090
  88.5782623  27.5159121  61.5485907  63.6519718  25.7337070  72.0149183
  63.7613678  25.9305787  72.9452467  64.2501688  26.3347745  71.5709496
  83.9088345  31.7486835  63.1758022  84.4312572  32.5507450  63.1740379
  83.3162594  31.8504572  63.9206028   2.7794567  23.8601971  69.4776297
   3.6363667  24.2148232  69.2406082   2.1706000  24.5828152  69.3248320
  76.7419672  54.3936348  50.9349537  76.2139273  54.0994740  50.1927423
  77.5342417  53.8581705  50.8924055  86.4581585  50.4196978  64.5341253
  87.3171139  50.0256252  64.3820238  86.5904427  51.0006714  65.2832556
  16.3271213  39.6396017  60.6377125  17.2216856  39.3314147  60.7826519
  15.9700143  39.0391874  59.9833345  41.8631792  28.6002874  60.0173664
  42.4401808  27.8459287  60.1367188  41.7069340  28.6353850  59.0736580
   0.9648339  57.2796106  73.5407305   0.1244698  56.9237709  73.8295174
   0.9289402  58.2050276  73.7827015  62.9784298  10.4854381  44.7696590
  62.2538996  11.0851252  44.9475956  63.0091381  10.4235077  43.8149595
  76.6361856  62.9847002   5.9107816  76.6482878  63.8662052   6.2836522
  75.7422256  62.6751995   6.0566360  38.6050677  53.4228516  64.4728279
  37.8782320  53.4660769  63.8514805  38.2263184  53.0260372  65.2572489
  70.7455301  49.9503469  48.3528900  71.2890673  50.2289867  47.6158953
  70.4078150  50.7658482  48.7232161  35.4973745  69.8626137  67.5283098
  35.9145093  70.4724360  66.9197464  34.8552990  70.3947687  67.9981804
  58.3603954  36.3307691  50.4704237  58.5054541  36.8444800  49.6758842
  58.7344122  35.4722571  50.2721834  61.1387205  16.7394912  51.0356188
  61.0735559  17.3912299  50.3376055  61.3224316  15.9180236  50.5799055
  89.9984550  43.8562775  66.6663504  89.6283627  44.4691277  66.0309935
  89.4839668  43.9957333  67.4613905  11.3094771   9.4844592  54.1367006
  11.4158058   8.5349357  54.0789795  10.9764719   9.7408938  53.2767105
   3.9390931  28.2755256  32.9487228   4.4229746  27.5706649  32.5183010
   3.1013238  28.3077097  32.4868369  33.2304239  71.5431452  14.2154682
  33.7673783  70.8973265  14.6746349  33.5672045  72.3887587  14.5116866
  51.7253971  42.3335600  72.8132057  52.0265770  43.1536531  72.4220896
  51.5934372  42.5434017  73.7377501  57.6119137  63.1674814  62.5784922
  58.4932375  63.2958126  62.2277308  57.6682138  63.4709167  63.4845734
  77.5163078   8.8311905  31.8096066  77.3372459   8.4983861  32.6890445
  78.3553934   9.2844981  31.8913078  -0.3184630  68.2068825   8.4428126
   0.3734307  67.5531435   8.5434949   0.1486494  69.0291309   8.2946688
  23.2585502  27.8789854  38.5205245  23.4123039  27.2936893  37.7788925
  24.0833998  28.3528972  38.6266470  69.8788118  34.7816873  50.7232046
  69.6391773  34.7651124  49.7966337  70.5621338  34.1164994  50.8058071
  30.4690695  31.5197778   8.8270169  31.1334515  31.0630250   8.3110684
  30.8792233  32.3518610   9.0629035  17.9817855  23.7409830  59.1525555
  18.0421543  22.9596806  59.7022438  17.1336138  23.6617565  58.7160254
  75.4490471  52.9669094  48.9725494  75.0975037  52.9224443  48.0833530
  75.3374863  52.0815182  49.3187618  84.7464085  26.2776542  28.9495111
  85.1149464  25.4427910  29.2383289  83.8518333  26.0652757  28.6833048
  30.2498937   7.2308487   1.3292655  30.5849719   8.0175292   0.8990475
  30.2837753   6.5548444   0.6524334  42.5319958  52.6841974  62.7927160
  43.4790611  52.7606487  62.9087114  42.1835423  52.6503086  63.6835957
  19.1503763  81.9678211  62.8825569  18.3078086  81.8966198  62.4339533
  19.4954979  81.0750103  62.8871059  71.3930464  68.2308388  27.8343129
  71.1636972  67.7820206  27.0205593  72.1901083  68.7170267  27.6232481
  66.6915846  55.8918667  53.8831902  65.7652617  55.9238958  53.6441708
  67.1273708  55.5411196  53.1064653   1.6941941  21.5893245  68.0981207
   0.7454846  21.6104388  68.2235670   2.0082481  22.3941898  68.5101795
  81.0196495   7.2250164  24.8417902  80.4724503   7.0185006  24.0840578
  80.5130482   7.8708893  25.3341675  13.1106710  74.9652863   5.1651341
  13.6157870  74.2113400   5.4695326  12.5054204  74.6027040   4.5182669
  87.4960136  67.9600954  35.1510262  86.7162704  68.4468460  34.8839855
  87.3394489  67.7423811  36.0698938  68.2514095  31.3544250  63.9544725
  68.9125538  31.5309024  63.2851648  67.5492859  31.9776368  63.7677670
  88.0149651  31.9568348  72.9882002  87.9411125  31.0040402  72.9338312
  88.9518261  32.1184802  73.0995321  89.3052292  25.3111577  69.0170288
  88.9022923  24.7295141  68.3723831  89.9007893  25.8591866  68.5059452
  72.3891258  58.8367462  59.7856331  72.0959854  58.2854509  60.5111504
  72.4624300  59.7125912  60.1647806  79.2980528  35.1253867  27.8823018
  78.6955023  35.0565624  28.6228609  80.1044750  34.7119021  28.1904340
  73.2916403  80.7777691  17.1119642  73.9832211  80.3208447  16.6332459
  73.6919451  81.0065651  17.9507947   2.5974953  68.9291906  45.8624935
   2.1760330  69.4007349  46.5809965   2.5284761  69.5218229  45.1139927
  61.1154747   5.4307425   6.6089696  60.5324507   4.7699630   6.2352264
  60.9761953   5.3661966   7.5537795  64.3597603  17.2704113  12.1041989
  65.2992201  17.3890674  11.9643056  63.9682388  18.0935085  11.8118751
  15.4556870  44.6419716  12.7877426  15.3705359  45.2759600  13.4998131
  16.3835585  44.4068480  12.7860749  81.4522457  26.1100578  53.7130451
  81.2152386  25.9996796  54.6338511  80.9479523  25.4385018  53.2537699
  62.2659302  34.9921751  64.6726131  62.5473642  34.7057986  63.8036966
  61.6956091  35.7423115  64.5045090  55.2644491  36.9208026   5.0223398
  55.4043961  35.9750366   4.9757087  55.8664274  37.2186589   5.7043505
  21.6190386  70.4200554   4.8545429  21.4046526  70.1255083   5.7397056
  22.2525048  69.7774601   4.5351329  73.1322002  48.3817291  56.0865593
  73.2196712  48.3015251  55.1367474  72.7366829  49.2433119  56.2187576
  56.0161400  16.6310608  57.8272486  55.4134989  15.9146678  57.6276541
  55.6421280  17.3902822  57.3801136  19.7821307  83.5134602   1.1470404
  19.8161447  83.6014557   2.0995805  20.5383682  84.0094948   0.8335320
  60.9191036  41.3662815  65.8590651  60.0868797  41.0504389  65.5070925
  61.5150309  40.6226921  65.7686377  49.6815252  19.5662665  64.0063238
  49.9694729  19.4500756  64.9117661  50.2949047  19.0425527  63.4908485
  80.3697109   8.5319149  17.3501039  79.4528055   8.2573044  17.3401761
  80.5053902   8.9446038  16.4971602  66.2323475  33.4574103  50.1043081
  65.4157686  33.0814958  50.4331160  66.0131788  33.7781858  49.2294931
  81.3290119  42.0265055  62.5211668  81.7379951  42.8516865  62.2603226
  82.0578671  41.4807844  62.8164625  30.5406284  68.9984798  56.1192179
  30.5617428  68.8001204  57.0553970  29.8749948  69.6810436  56.0339642
   4.8450354  48.9679575  58.9754152   4.9344820  48.2835197  58.3122587
   5.4030138  49.6796846  58.6618233  86.3340473  76.0649920  62.4581337
  85.4100132  76.0046148  62.2157478  86.4055824  75.5474520  63.2601786
  71.7084026  45.9667826  49.9889231  71.1629868  46.3316011  49.2920303
  71.2406158  45.1814318  50.2728796  48.4741926  69.4557047  48.0775785
  48.3538818  68.7052250  48.6594200  48.9263201  69.0967560  47.3140574
  84.3866920  16.4650071  58.6239862  85.2892780  16.2978697  58.8953447
  84.1337204  15.6805182  58.1373453   7.2146708  33.2256103  66.1558628
   6.3686055  33.5423088  66.4722586   7.3651344  33.7129140  65.3458452
  31.4419389  26.1182261  11.2911427  32.3298597  26.3011074  11.5983617
  30.8769703  26.3971496  12.0117283  38.7333035  80.4047108  62.6956081
  38.5704064  79.7204161  63.3447886  39.2295194  81.0717201  63.1700611
  48.9642620  70.2532911  69.5508623  48.3382988  70.7494450  70.0783396
  48.8808441  70.6212234  68.6711502  86.3220024  30.7319951  57.8142452
  86.0391140  31.4067411  58.4314346  86.5853786  31.2176371  57.0325708
  68.8461399  52.0687675  41.9438982  67.9597092  52.3523092  41.7201281
  69.1934347  51.7036724  41.1300659  90.8020496  34.4873834  64.7719860
  91.2711525  35.1544380  64.2707729  90.1275635  34.9740195  65.2457809
  77.9180670  10.2658355  42.9243994  78.1555033  11.1859274  42.8091383
  78.7559414   9.8037988  42.9511929  63.4174967  20.2562451  54.1946125
  63.6333752  19.5495212  53.5861969  64.0783119  20.1891351  54.8838520
  48.6499500  63.1699896  61.6116905  47.8233290  62.6898623  61.5626478
  48.9165783  63.0948544  62.5279284  38.8331842  83.7488174  42.3142862
  38.1394005  83.0904102  42.2769165  39.5894408  83.2800961  42.6672792
  10.0166714  26.9520140  32.7254057  10.9437203  26.7344427  32.6280737
   9.9185461  27.7899384  32.2732043   4.2536601  58.4995556  57.8827667
   3.5053128  58.9901543  58.2226467   4.8511350  59.1713047  57.5541162
  81.1488628  24.7081470  56.1104584  81.2678051  23.7763810  56.2945747
  80.3730965  24.9546838  56.6140747  75.0187635  23.2271981  72.7649736
  74.0987778  23.4914660  72.7700472  75.4350328  23.7963915  73.4122515
  82.7909088  25.4415607  63.9808750  82.4280262  26.2955594  63.7458515
  82.0422840  24.8459768  63.9480925  91.0034180  21.2928510  60.0144386
  91.3148594  20.8025050  60.7752275  90.4470634  21.9790006  60.3830862
   9.1879034  34.9633551  24.8376822  10.0801218  35.3073454  24.7946644
   8.8933671  35.1717019  25.7242870   7.0766264  55.7515335  64.0662336
   7.3045886  56.1890125  64.8865271   6.7136931  54.9083138  64.3373156
  66.6275549  12.5289285  20.5821896  66.7030144  13.2637143  21.1909795
  66.7354965  11.7516780  21.1303353  14.1031671  34.4038653  10.1018739
  13.3819032  34.6033978  10.6986964  14.2493188  33.4639287  10.2086079
  76.3208723  25.8506751  65.3084803  75.6525278  26.5314269  65.2302456
  76.6917419  25.9783554  66.1816263  90.9073257  51.2357759  38.2953787
  91.2292957  50.6591225  37.6025295  91.1879158  50.8141184  39.1076040
  88.7263298  35.8571696  70.7115507  88.8652039  34.9825072  71.0747480
  88.3901024  35.6995559  69.8293161   0.9971638  33.0271721  56.4476156
   0.4708159  33.5813713  57.0238543   1.8779050  33.0618668  56.8208742
  84.9389076   5.6609547  40.5362940  85.0007343   4.7178802  40.6880188
  85.2148056   6.0552597  41.3637209  61.5153360  18.8856125  49.1577291
  62.4149561  19.2125010  49.1503477  60.9742594  19.6742368  49.1970253
  69.2589474  13.1939209  64.4663048  69.3068075  13.3938706  63.5314465
  70.1128578  13.4550285  64.8111010  55.6993341  39.1400170  69.4307995
  55.3627014  39.6824884  68.7176132  56.5289354  38.7963700  69.0992928
  91.0093200  36.3321066  49.3385172  91.0562117  36.9525695  50.0658798
  91.6123788  35.6301928  49.5831966  18.2462525  50.3165150  25.5536652
  19.1414869  50.6157446  25.3947639  18.3316720  49.3752480  25.7051754
  55.9890175  82.9361248  60.3533602  56.3035393  83.8319016  60.2312994
  55.5511665  82.9498959  61.2044334  83.9344978  44.1762590  38.6253881
  83.3264542  44.5647860  37.9964495  84.7001934  44.7502708  38.6042500
  30.9845901  13.8807452  27.5038409  31.6064286  13.5865903  26.8382406
  31.4951658  14.4604099  28.0691123   3.4401950  78.5549450  71.1447573
   2.8318390  78.4491301  70.4133654   3.1131381  77.9569006  71.8167734
  87.9613400  60.0054216   1.1266793  87.5187111  59.8627663   0.2900419
  88.4495258  60.8195257   1.0036156  75.7422066  46.1156654  23.9222932
  76.4179611  46.0927105  24.5998335  76.0622454  46.7555523  23.2864070
  79.7748709  25.8836007  74.2378473  80.6929970  26.1097980  74.0891409
  79.5675659  25.2561975  73.5453033  87.2233582  38.0147338  12.3478687
  87.9738998  37.7815771  11.8014681  86.4620495  37.8534341  11.7905354
  46.6398668  83.6978340   2.3966065  46.7438030  82.7974510   2.0888244
  47.4901056  84.1062641   2.2337812   2.6057148  21.5176105  53.8625860
   2.9938540  22.3516202  53.5979939   1.9226076  21.3543105  53.2122564
  61.2559605  49.8819685  67.4222851  61.1385822  48.9494801  67.6037121
  61.8630934  50.1829338  68.0983353  79.3527937  60.4019451  37.3749280
  78.6676502  60.9426594  36.9819450  80.1053333  60.5086279  36.7930889
  69.5563507   7.4973756   1.3470462  69.5418310   6.9053429   0.5950368
  69.4030809   6.9293314   2.1020730  47.1809101   8.6154592  52.3474789
  46.3276720   8.5014075  52.7660608  47.8125143   8.5135037  53.0594540
  64.4385767   3.6767048   7.5495839  64.5867205   2.7409822   7.4128020
  63.5488176   3.7298477   7.8984886  38.5905361  65.1740313   0.5521370
  39.3083215  65.7697630   0.3373797  38.9528084  64.5941925   1.2220478
   0.6022898   5.6564212  39.5350289   1.0182305   4.7944337  39.5492721
   0.1869500   5.7361603  40.3937292  72.2796059  13.6638904  47.8615379
  72.9394293  14.3558645  47.8164339  72.3123074  13.2453191  47.0013285
   1.5847379  60.5512857   1.3886030   1.2918085  60.4603672   0.4818740
   0.7769855  60.5534697   1.9021815   6.6814613  18.8822305  43.5263538
   6.4787996  19.7852802  43.7706089   7.6362538  18.8306952  43.5704803
  90.0101948  31.7425489  65.4840899  89.2129421  31.9064426  65.9878349
  90.2820873  32.6077080  65.1778126   9.1967410   4.3908998   0.7648943
   8.7195969   5.1349020   1.1323538  10.1195133   4.6159568   0.8835240
  80.1290131  11.2437403  55.6206369  79.4330835  10.6305683  55.8571339
  80.8910656  10.6887627  55.4548025  91.2160110  54.8861885  65.4899979
  91.0267067  53.9927959  65.7767820  91.3691616  55.3707457  66.3011599
  53.7794542   7.1546066  67.4358940  53.2567406   7.1561849  68.2377625
  54.4616890   7.8072673  67.5934315  49.2505836  43.2790947  70.0885105
  48.9602661  44.0749836  70.5340433  50.1816225  43.4246731  69.9205542
  46.0535240  11.8039262  46.7246723  45.3920889  12.1604013  46.1316538
  46.2368298  12.5175047  47.3357630  51.0226774   7.0012999   6.2785465
  50.2560329   7.5726229   6.3241351  51.0069418   6.5132135   7.1018052
   8.6656791  61.6504717   2.0237608   8.3575332  61.2044811   1.2348550
   7.8893644  62.0922565   2.3678423   8.8421667  29.6346998  39.4666409
   8.3889836  28.8033867  39.3260193   8.4288555  30.0037622  40.2471542
   8.3128422  32.5482821  23.7411404   8.6903316  33.3356762  24.1332412
   8.9187378  31.8471694  23.9810610  20.2350020  71.6871166   1.8038121
  19.8205256  70.8244944   1.7857221  21.1736369  71.5025997   1.7699006
  32.3733759  71.1950684  24.6013713  32.7722502  71.8916082  24.0798736
  31.6700578  71.6297722  25.0836635  48.1701946   9.2009091   8.1830382
  48.3239555  10.1401639   8.2849628  47.2480488   9.1346943   7.9350489
  43.3650827  18.6355639  15.3542459  42.8703690  19.2601371  14.8237765
  44.2038536  18.5482550  14.9013984  16.4940608  50.9174871  67.9026031
  15.6788445  51.3100481  67.5902700  16.8321347  50.4352045  67.1480560
  10.9163904  62.8741217  14.0483367  10.1203012  62.3435307  14.0791345
  11.5701628  62.3523092  14.5136607  13.7318218  20.0729799   2.8855234
  14.2170358  20.7700968   3.3269176  14.4054449  19.4550931   2.6014844
  79.4561815  30.9438157  54.4302320  79.1388941  30.0897026  54.7235727
  80.1111031  30.7396722  53.7626743  20.6816530  78.7552595   5.9811217
  21.2364435  78.4898901   6.7146194  21.1553335  78.4600592   5.2034885
  63.2710123  28.7141418  35.9063268  63.9405537  29.1249442  36.4533067
  62.5232983  29.3097687  35.9551048  71.9258833  44.4285345  64.7235632
  72.0874453  44.7708702  63.8443947  71.3956833  43.6443472  64.5815516
  18.9321196   9.8998225   7.9377186  19.4949412  10.1747668   7.2139299
  19.5351994   9.5322496   8.5837972  84.8845100  32.5041389  23.3820367
  85.4119873  32.3365831  24.1630173  85.0906467  33.4078383  23.1431460
  76.1554718  45.7116270  33.8326263  76.1534691  44.7854614  33.5908628
  77.0595312  45.9935760  33.6933136   9.1564083  67.4504328  68.3360004
   9.1707200  68.1621504  67.6960850   8.9149165  66.6761351  67.8276920
  25.4293132  76.6623878  -0.0996041  26.0089660  75.9917021  -0.4607319
  25.7369542  76.7866564   0.7982516  73.3093023  31.9717169  31.5284133
  73.9495468  31.7355132  30.8571982  73.5600424  32.8552103  31.7982340
  33.4978914  24.1877151  55.3395939  34.2897630  24.4863677  54.8924065
  33.6050129  24.4876337  56.2422609  77.6433992  47.3164558  51.6745424
  78.2692242  47.6717186  52.3057032  77.0145750  48.0247307  51.5361500
  33.8767934  70.6352091   7.3689550  33.9040017  69.7134018   7.6253957
  33.0299711  70.7381344   6.9347554  35.1224303   3.9836141  13.8482344
  35.3688073   3.1519604  13.4434104  34.4756985   4.3586594  13.2504785
   1.3542193  72.7875137  28.5529733   2.1715188  73.1315660  28.9133644
   0.6696935  73.1786251  29.0958261  20.8975029  78.9168501  56.3853073
  20.7057428  79.6108294  55.7545519  21.2685347  78.2095480  55.8577728
  10.8907831  59.2792273  20.6893182  11.7022240  58.8092804  20.8815312
  11.0298705  60.1548243  21.0501766  14.1288078  26.1834025  14.0186763
  14.6106696  25.6979537  13.3490634  14.0923214  25.5874562  14.7668397
  80.6502533  47.9934168  64.9188709  80.7739925  47.8234053  65.8526897
  79.9067974  48.5951710  64.8814344  59.2036819   0.3702987  13.4912741
  60.1462603   0.2849284  13.6344278  59.0620613   0.0184338  12.6124299
  11.9246626  18.8440919  48.6558008  11.3440120  18.7562501  49.4116831
  12.5639355  19.5055497  48.9204407  40.7503176  19.2410326  10.5295241
  40.4278183  18.9126563   9.6902406  41.6588688  19.4879842  10.3569520
  46.2999535  62.7750826   9.5839953  46.2920856  61.9676781   9.0699267
  46.9732475  63.3155775   9.1707480  74.6984291  18.5182941  64.4613934
  74.2789316  18.0046999  63.7711239  75.4749537  18.0114329  64.6987391
  25.7869816  69.3724108  29.8562431  25.8678055  68.7971830  30.6170368
  25.1856780  68.9121199  29.2707539  82.5343895  54.4759941  48.5446310
  81.7670059  54.4711065  47.9725027  82.8334427  55.3852415  48.5364628
  86.0363960  57.9067993  50.6454563  85.6519985  58.6928844  50.2574587
  85.4722214  57.7081156  51.3927555  77.7368307  40.4456663  55.1398325
  78.6936760  40.4215479  55.1496792  77.5026274  40.2862167  54.2255259
  64.1642189  51.0853148  42.7650976  63.7174225  50.3483295  43.1815815
  65.0873470  50.8323288  42.7572727  12.0626378  33.5930061  58.9338923
  12.1637499  32.7086973  58.5817480  11.3626993  33.5141253  59.5820379
  14.3197572  60.6488419  37.1911073  15.2766335  60.6737471  37.1905947
  14.0668535  61.1758852  37.9490662  61.0888672  15.8881497   7.1248651
  61.6995573  15.3458452   6.6256684  60.2660894  15.8316290   6.6389894
  16.6475606  38.2404375  64.9290752  16.0995770  37.6998162  64.3601513
  17.4605501  38.3576441  64.4376040   2.4375466  18.1801260  59.2545843
   1.7432314  17.9272866  58.6461163   3.1822440  18.3942616  58.6926174
  84.8163223  46.2430525  35.8926272  85.0024700  46.6981030  36.7139101
  84.7541523  46.9412041  35.2407432  41.5762472  28.4885955   0.7702479
  40.7599163  28.9757752   0.8820209  41.5400600  28.1637836  -0.1294300
  69.3479872  11.3349354  13.0927825  68.3983469  11.2476325  13.0103815
  69.4840813  12.2505105  13.3365691  70.2453852  37.2609615  57.8126907
  70.7444143  37.1285629  57.0066643  69.6288872  37.9617238  57.6003313
   2.9726753  34.4152522  69.8981619   2.1017602  34.8045468  69.9768305
   3.4136108  34.9467301  69.2353344  59.7870874  69.9483776  62.4908686
  59.4879293  69.3297148  61.8245411  59.8914194  69.4178104  63.2807064
  39.2376184  36.0833430   1.3145915  39.1771841  35.1804042   1.6264893
  38.3747482  36.2666392   0.9429868  68.8789606  61.9647980  64.0016174
  69.4511700  62.1317053  63.2526541  68.0376673  61.7268610  63.6119509
  81.2247562  29.0732193  49.5378923  82.0287323  29.1063237  50.0563097
  80.9154797  28.1723475  49.6328163  69.2785168  16.3815033   9.5934701
  69.7607613  16.9933772   9.0373355  69.7665310  16.3705683  10.4168499
  27.5048590   1.6929957  49.2837620  27.2850752   0.7787025  49.4626284
  28.3873487   1.6593768  48.9145517   7.8527164  72.8889418  71.2502337
   6.9542897  73.1230974  71.4831161   7.8973228  71.9429159  71.3890600
  81.2749290  41.3338327  59.7847462  81.1559486  42.1830225  59.3593597
  80.9990692  41.4785910  60.6898308  46.1052847  18.5871053  14.1214287
  46.7080784  19.3046594  13.9265323  46.6740990  17.8380942  14.2993808
  67.4844933  17.1966207  53.1334257  68.0871677  17.9288924  53.2630205
  67.9541922  16.6001320  52.5504875  35.7162762   3.9316604   2.1614121
  35.2740049   4.3673730   2.8899604  36.6458106   4.1097826   2.3044853
  74.5397472  50.4958391  63.4647799  73.7883425  50.5949545  62.8801489
  75.1115322  49.8727465  63.0163956  35.6584764  25.0658107   2.8302014
  34.7995996  24.8685670   3.2039103  36.2805629  24.8087406   3.5107553
  72.8554153  45.9396744  59.7941208  72.9786921  46.0918760  58.8571739
  73.0377913  45.0073528  59.9113560  18.1734478  79.9017191  68.0790949
  18.5762656  80.5043316  67.4539280  18.7016642  79.9911165  68.8723326
  54.4965315   6.0708731   0.4531069  54.8436308   6.5021795  -0.3277451
  53.5833931   6.3544846   0.4974628  45.1867628  42.6506567  63.4867811
  45.2730322  42.9599047  62.5850296  46.0602856  42.3332024  63.7157202
  21.9187403  47.2394037  22.4374795  21.8476892  46.3485670  22.7803898
  21.0319614  47.5934124  22.5048280  10.6553543  80.2083778  15.9345174
  10.6234908  80.4745102  15.0156105  11.1992979  79.4207573  15.9370399
   5.5812025  56.7371845   1.2472922   4.7648916  57.2186184   1.3817851
   6.0458100  57.2363997   0.5756114  58.7121344  67.8344297  58.5925388
  58.1110239  67.1427822  58.3159304  58.7446690  67.7563190  59.5459938
  17.5913084  25.4799366  71.9514084  16.8365061  26.0274720  72.1675348
  17.7381897  24.9535155  72.7372456  73.5288858  20.7859015  43.2991314
  73.4747887  20.0759816  43.9389133  74.1516447  20.4709649  42.6439857
  85.9414959  35.0408244  68.9519835  85.3962517  35.8080196  68.7777758
  85.8464718  34.8879361  69.8921061  81.9217300  41.0804892  11.0557723
  82.7038860  40.7862711  11.5225685  82.1864319  41.1044598  10.1362133
  15.7995987  66.5848732  57.8166151  15.0918388  66.0517836  57.4545097
  15.8768201  67.3230171  57.2121286  10.2375090  22.8327346  64.3414783
  10.3065479  22.2901511  65.1270151   9.8427308  23.6490297  64.6481514
  83.9747047  28.3317471  60.5060863  84.5396900  28.0968308  59.7699976
  83.9797497  29.2888832  60.5159569  13.0894363  60.7315540  53.2669878
  13.9559031  61.0226107  52.9828215  13.1652212  60.6461287  54.2173529
  67.2035599  71.0369301  50.7857132  66.9997406  71.8905878  51.1677599
  67.6696873  70.5694580  51.4788437  17.7580464  57.6890469  39.8881459
  17.8571332  57.2121429  40.7121468  17.5012159  57.0200157  39.2535853
  72.5031710  66.1013031  16.1328244  71.9976711  66.8708372  16.3945949
  72.4753380  65.5252314  16.8967605  81.0440636  66.3498116  48.6213112
  81.3900471  66.9053364  47.9227924  80.3804493  65.8101559  48.1916380
   9.9503952  75.7903099  44.3887615   9.7954369  74.9465418  44.8133516
   9.6984076  75.6490850  43.4761906  61.3723564  56.3000488  53.1100798
  60.9250784  56.7971897  53.7949324  61.2696743  56.8328238  52.3215103
   4.0652159  23.5546875  52.7101374   4.6692550  23.0978084  52.1247959
   4.0721783  24.4608164  52.4017286  84.6865559  72.2662544  46.5828133
  84.3117714  71.5317774  46.0966873  84.1933727  72.2872686  47.4029064
  10.2384925  11.4468348  44.9100685  10.6937218  11.3417530  44.0746307
   9.7583938  10.6268990  45.0260162  17.8026521  66.7863941  33.9239049
  18.5239780  67.2609472  34.3370938  17.2703195  67.4686575  33.5147929
  15.1275432  34.4571137  45.7124424  14.4717133  35.1537967  45.7398462
  15.2668691  34.2959023  44.7792578  76.9871807  54.1776800  38.7728524
  76.6654968  54.5348692  39.6006036  76.3191223  54.4201326  38.1316423
   7.3539531  31.2648392  51.7249632   7.8844637  31.7831492  51.1198664
   7.4264145  30.3677797  51.3989782  76.9352484  18.9317751  24.4410419
  76.2452269  18.3451283  24.1312957  77.4400997  19.1433573  23.6558104
  34.3681407  11.4884293   9.9102718  33.5096669  11.8508828  10.1290977
  34.2122436  10.9587073   9.1283995  79.6413660  82.5179958  44.1788340
  80.3462791  83.0507088  44.5469999  80.0710869  81.9767094  43.5165739
  69.3565750  40.9298468  47.4402285  68.8123465  40.7533884  48.2076311
  69.5254374  41.8712902  47.4777079  77.5777102  72.8301334  40.9532642
  78.1808519  72.1141386  41.1527777  77.3122311  72.6741409  40.0469398
  67.7070189  45.3369427  65.5128813  67.9345512  46.2177992  65.8104515
  67.5344467  45.4374981  64.5767498  38.7973142  47.8248882  59.2009497
  38.9507008  47.5408649  60.1020813  38.0795479  48.4546947  59.2672157
  37.8897405  14.5724165  71.3760471  37.3279357  13.8287497  71.5941477
  37.7703238  15.1840055  72.1026373  59.2904472  27.9030156  51.8960285
  59.0497351  28.6525440  52.4405432  58.5566282  27.8018808  51.2898016
  86.8563938  85.4782581  56.4217806  86.6245937  84.7448730  55.8519983
  86.0154533  85.8518028  56.6854477  88.6043930  75.7525587  60.9832573
  88.8232040  76.6318560  60.6747437  87.7386951  75.8466911  61.3806677
   6.6451663  25.6912065  15.6696725   6.2953824  26.4626408  16.1155140
   7.3762012  25.4080653  16.2188995   0.6485255  31.4233875  13.5202944
   1.0368466  31.7924953  12.7270734   1.3816860  31.3417435  14.1302466
  76.7073965  30.7905889  35.1519537  77.5244808  31.2251306  35.3964543
  76.0216284  31.4042187  35.4154277  86.5242577  52.0321274  42.5216198
  85.9067345  51.4402676  42.9512691  86.0417175  52.8531981  42.4255371
  89.8545837  15.5809188   1.4743397  88.9415264  15.5353391   1.1906609
  89.8537636  16.2259984   2.1815196  89.4402504  23.3227301  24.5531011
  88.6676407  23.8477397  24.3441033  90.0394630  23.9367938  24.9774766
  89.3786907  79.5266151  39.2148471  89.9898624  78.8069010  39.0576291
  88.5641098  79.2442894  38.7989354  91.0046895  22.3651814  33.9891529
  91.5934764  22.3656654  34.7438455  91.2991010  21.6266227  33.4561563
  26.9034195   7.8026503   5.3159469  27.2593474   7.6775289   4.4362363
  27.6423740   8.1296468   5.8290267  48.2469845   1.0248584  13.8680029
  48.0170679   0.2407036  13.3695340  47.5347233   1.1245406  14.4996500
  70.8255005  69.3072414  34.9087620  71.1248732  69.5348024  34.0285206
  69.9365234  69.6587515  34.9577451   5.3809023  38.2445550  30.3584504
   6.3175952  38.0548120  30.4116988   5.2369803  38.9264750  31.0145783
  30.8304214  20.2864861   6.6207904  29.8850632  20.1376247   6.6400254
  30.9306550  21.1340380   6.1873847   1.8444468  68.2085991  67.8106976
   2.7109540  68.0298185  68.1759834   1.4839791  68.8938189  68.3735180
  82.4078560  48.5496235  71.2032843  82.8106499  49.2779160  70.7304430
  81.7227840  48.9575720  71.7329025  61.6356325  36.0253525  50.7296991
  61.1357832  36.7955256  50.4591131  61.1151409  35.2824736  50.4240036
  17.0100629  36.5975785  46.9145107  16.6891038  35.7353306  46.6504192
  16.4018691  37.2145343  46.5074492  16.2578833  75.0011969  62.2220516
  16.7883468  75.6016207  62.7458191  16.8246710  74.7568321  61.4904308
  67.6493168  48.6843920  67.8467178  68.0692434  49.5441103  67.8189087
  67.7843666  48.3234167  66.9705343  40.5119705   4.3979979  64.9096537
  40.9765959   4.0285283  65.6605577  39.9137759   5.0407761  65.2907467
  48.2562923  47.0264101  12.5073564  49.1015959  47.4751377  12.4887633
  48.2357454  46.5205431  11.6950095  65.9193897  46.4859056  53.2214642
  66.3885546  47.3030710  53.0530739  66.5914249  45.8069944  53.1607580
  74.2866421  21.4084697  49.5947742  74.2510414  21.0168338  48.7220860
  73.4288645  21.2216902  49.9762964  87.3401833  60.7566929  55.0159216
  86.8713951  61.4302111  55.5087137  86.8479443  59.9526119  55.1813889
   7.2000980  77.2588968  59.9436998   7.5910503  77.7388954  59.2136335
   7.8731006  76.6303349  60.2048588  21.9368362   4.3690121   3.3571929
  21.3741589   4.8072195   2.7187577  22.5469542   5.0482017   3.6447504
  12.2568655  54.2446219  -0.0873112  12.1726465  54.7442543   0.7247901
  11.8363142  53.4060167   0.1027084  39.4201016  46.6766214  62.9270554
  39.0136886  47.0162725  63.7243605  38.6844563  46.4924717  62.3429728
  26.4502430  44.7674799  36.0429525  25.6820846  44.7336388  36.6130590
  27.1359324  44.3192816  36.5381098   9.8199099  57.4186659  25.3820086
  10.2190483  57.0361423  26.1634135   9.2218983  56.7426872  25.0631571
  60.0677538  58.1151009  46.7135525  60.7760143  58.2840109  47.3348951
  59.5366287  58.9111805  46.7335844  65.6195450  43.6729717  66.1763048
  66.0753012  44.3704891  65.7051563  66.0930967  42.8753471  65.9401321
  13.8968527  46.8084192  51.3821936  14.7037983  46.7375135  50.8722496
  13.2887685  47.2706079  50.8052635   7.0517921  24.7090888  35.7565403
   7.3932171  25.1269817  34.9659538   7.6711994  24.0029573  35.9407759
   1.5501395  38.3897233  61.7172909   1.3717376  39.1656303  62.2486830
   1.6922030  38.7314773  60.8345366  89.2867661  58.4552193  62.5051546
  88.6070538  57.9794550  62.9825115  89.1988945  59.3608522  62.8023720
  35.2971196  81.8201542  49.3749237  35.3522801  82.6171398  48.8476610
  35.4034734  82.1219540  50.2770519  31.2993646  27.5984812  29.0302014
  31.7057490  26.9470477  29.6017957  30.4027820  27.2855783  28.9099431
  28.1314338  85.6051412  72.5050306  27.7160085  86.3987046  72.1675253
  28.8183130  85.4053216  71.8690252   2.0591654  78.6538696   1.0464796
   2.4303924  79.5076847   1.2687753   1.7097902  78.7673855   0.1625778
  44.0512323  17.0028222  54.1127348  44.7704601  16.5577686  54.5609236
  43.4663916  16.2964928  53.8383341  55.1084328  43.9855051  27.7285790
  55.2640629  44.0245247  26.7849207  55.7565641  43.3600473  28.0525565
  63.1503773  32.5965977   5.0773293  62.5829840  33.3335638   5.3035462
  62.5460768  31.8825316   4.8744416  86.1608028  58.7627602  73.5090446
  86.2798691  58.6443806  74.4514036  85.5413151  59.4887161  73.4352255
  81.6450882  18.3497095  16.4305234  82.1619987  19.1457188  16.3063991
  82.2587395  17.7229548  16.8137133  78.5204029  25.1691818  57.2933292
  77.7005672  25.3403068  56.8298435  78.3857155  25.5429149  58.1642008
  65.8455086   3.8915086  19.9783552  66.7453909   4.2150301  19.9361837
  65.6167841   3.9400637  20.9065580  88.0926609  29.0570760  69.8722887
  88.2399654  28.2656145  70.3900909  87.3708916  29.5026255  70.3158808
  29.8051882   1.2589473   8.3811110  30.1875830   1.4081183   9.2458379
  29.5028138   0.3511108   8.4063077  14.2754984  79.4005823  60.4793215
  13.7866509  80.1400566  60.8404779  14.1601944  79.4769192  59.5321608
   1.3312708  62.6608992  73.6793041   0.6310117  62.8536510  74.3027782
   1.8951806  63.4338999  73.7059736  41.0434723  58.5688782  70.7707644
  40.3750372  58.1812000  71.3356876  40.9392643  58.1185198  69.9325848
   8.8727564  60.8772278  67.7307415   9.3823898  60.6058741  68.4942007
   9.1053212  60.2451658  67.0505571  43.0352688   4.5743188  50.6737375
  42.6874876   5.0369745  51.4361238  43.9521360   4.4076839  50.8923960
  32.3240995  40.9135437  68.6964512  32.4769592  41.7167950  68.1988049
  33.1343842  40.7783175  69.1877604   4.5733568  66.3219404  71.8559885
   5.4643691  66.4976501  72.1584034   4.0424442  67.0053339  72.2650576
  53.6045742  61.1929131  63.6752367  53.2819843  60.2988005  63.5624170
  54.5435286  61.0909367  63.8307762  33.8768649  48.7501097   4.5634967
  33.3646679  48.4823942   3.8004673  34.7166753  49.0323830   4.2011818
  79.7409773  17.8331351  51.9831610  79.0630150  17.1589065  51.9383049
  80.2554703  17.6043260  52.7572203  74.7078514  43.1960726  40.5395317
  73.7643862  43.2940340  40.4110384  74.7964001  42.4041271  41.0698271
  71.3837528  59.8147392  27.4562573  72.0628691  60.1721859  28.0283308
  70.9202242  59.1798782  28.0024457  81.7618942  21.8643475  48.6352491
  81.5787506  22.1825194  49.5192528  82.0907211  20.9747028  48.7642288
  73.6306620  23.7841272   8.1622237  73.2765865  23.7753129   9.0514833
  73.1201887  24.4543076   7.7077985  20.2789593  81.5208435  59.5563602
  19.9284518  82.3188972  59.9519396  20.4198837  81.7507172  58.6379194
  16.6777122   2.1253142  46.6732788  16.6076851   2.2885880  47.6138449
  17.3565900   2.7306131  46.3749981   3.1460175  66.2475252  69.5774508
   2.2787890  66.5387678  69.8590994   3.6294466  66.1117649  70.3923750
  53.0524015  70.9846878  60.2987289  52.8920126  71.7375088  60.8677340
  52.3252630  70.9956598  59.6763277  75.5650902  36.2621665  34.8950052
  75.2363110  36.0375953  35.7654667  76.2470293  35.6131816  34.7217679
  83.3779716  77.4751616  64.8899889  83.8365841  78.2762432  65.1433134
  82.4500084  77.7048635  64.9385452  22.5529695  51.9035149  72.2650671
  22.5465393  52.1216726  71.3330793  22.0375419  51.0992718  72.3263597
  38.4619880  46.1617851  69.7030258  38.6104894  45.5183125  69.0101147
  39.3207765  46.2788343  70.1092482   1.5556695  60.0216055  55.6305742
   0.6254534  60.2268171  55.7244730   1.8884823  60.0024700  56.5278482
  64.3311357   3.5598543   4.0934321  63.7249756   2.8370687   4.2558569
  63.9551020   4.2996103   4.5704979  66.1384201  60.2124214  41.1289024
  65.6573868  61.0333061  41.0241032  65.5689001  59.5495510  40.7384109
  10.6543088  19.3626356  10.4799831  10.5727637  19.6298110   9.5644504
  10.3165710  20.1072049  10.9777606  18.3712816  68.2629347  45.0440693
  17.5956357  68.7942457  45.2238226  18.2816470  68.0115747  44.1248226
  15.8889651  52.2325373  54.0392971  15.2000034  52.2604322  54.7032118
  16.2162638  53.1309938  53.9958763  67.7582073  51.8936253  53.8479614
  67.2525501  52.5702000  53.3976412  68.5573244  51.8061733  53.3283520
  44.5402384  56.7738056   1.2991251  44.1227484  56.1217737   1.8619648
  45.3971148  56.9220638   1.6991407  61.6614628  71.7434931  63.2230043
  61.0281181  71.0462809  63.0527020  61.9178295  72.0517445  62.3538160
   5.4172385  64.7652674  11.8908095   5.7949668  64.8581219  12.7654123
   5.0981820  63.8632584  11.8622398  34.6323514  17.2977924   1.8500258
  35.4935479  17.0291662   1.5300062  34.8138380  17.7545631   2.6713997
  63.0848122   4.4885191   1.4144744  63.2271910   3.6109930   1.0596395
  63.6971378   4.5527691   2.1473844  40.3803110   8.7803173   7.5269270
  40.4768181   7.8601116   7.2816932  39.7534990   9.1321713   6.8948364
  57.4518824  39.7863650  23.0014777  57.0192003  39.1050148  23.5160446
  56.8256998  39.9975181  22.3089886  71.4042473  59.1967249  45.0722885
  71.1038065  59.6437502  44.2810011  70.6587362  59.2424536  45.6709146
  55.1721096   9.0141100  68.4555101  55.6472874   8.8657916  69.2730904
  55.4467440   9.8867106  68.1737757  10.6386971  54.1484404  64.3437290
  11.3397825  54.7989988  64.3822575  10.1778030  54.3410778  63.5272121
  18.4891307  32.5802374  50.9999418  18.6923563  32.7628374  51.9173193
  18.8484979  31.7068219  50.8442688  63.5313654  70.8959246  66.1122942
  63.0536652  71.7080641  65.9435844  64.4537735  71.1497879  66.0814857
  19.2047656  54.2095518  38.2602215  20.1046610  54.4691896  38.0627131
  19.1482008  53.2999563  37.9675317   4.2892316  71.4801407  48.0325317
   4.2080635  72.2809458  47.5145054   3.8606849  71.6875792  48.8629198
  13.9422357   1.6696215  57.1522188  14.5915735   2.3689258  57.0776176
  13.3650148   1.7974478  56.3994169  89.3755245  49.8085690  59.9259996
  89.6200180  49.7801590  59.0009880  89.9281025  50.4955292  60.2988005
  79.3981075  47.5809002  23.4426832  79.8856831  47.7527571  24.2482662
  79.8932934  46.8876743  23.0062675  29.7754884  19.3548357   2.1304122
  28.9009619  19.4623697   2.5044072  30.2086759  20.1935029   2.2892061
  84.7332478  41.8481159  57.6118135  84.7330475  40.9914827  58.0389166
  84.5344162  42.4663782  58.3149815  75.6702900  29.1547799  65.6112337
  74.8119354  28.7490821  65.4892921  75.5919027  29.6385908  66.4334345
  22.0822430  26.3311219  50.1078606  23.0025053  26.4425659  49.8692703
  21.7870212  25.5873322  49.5826435   6.7537493  27.2704172  42.3243427
   7.2295010  27.2710800  41.4937449   5.9316790  27.7205348  42.1298552
  55.6598186  60.2167988  73.4502888  54.9174786  60.2151966  74.0545750
  55.8414364  59.2904854  73.2915545  64.6897840  28.1503916  66.0008621
  65.3723621  28.3453798  65.3587580  65.1683760  27.9379177  66.8021393
  14.1002345   7.4247736  36.4452696  14.9376667   7.0151460  36.2281442
  13.4845650   7.0639509  35.8073139   1.2042106  25.9200549  68.9353180
   0.8796539  26.1278868  68.0591345   1.4188565  26.7702556  69.3191385
   8.1386328  62.3328972  52.2418976   8.5855663  62.4290037  53.0828762
   7.3227131  61.8798685  52.4546766  19.2993939   7.2252142  69.4665766
  18.4888065   7.6766974  69.7018290  19.2086267   6.3536960  69.8518705
  46.5701389  67.7579641  66.6090202  46.5019035  68.2489395  67.4278736
  47.2351217  67.0920086  66.7837524  50.5133915   3.1924975   4.2567578
  50.9456968   4.0218085   4.0528345  51.2320471   2.5799599   4.4134739
  53.2064295  73.2313442   6.6763371  53.9859200  73.7563181   6.8580842
  53.4876251  72.3276186   6.8193042   8.4320235  66.7372179  47.7777481
   8.2620162  67.3372078  48.5039282   7.5627285  66.4965057  47.4574137
  90.5401897  81.7560673  45.2893543  91.4285564  81.4750290  45.5085516
  90.5406666  81.8289280  44.3349314  22.1497917  36.0750365  38.8227010
  21.6628289  35.9683657  39.6398449  21.5488052  35.7679820  38.1439066
  86.5014362  46.2315226  47.3988533  86.9717598  46.4238882  48.2100439
  85.8617020  45.5636024  47.6455355  19.1814268  60.7030630  16.5905523
  19.8143148  61.3324308  16.2447524  18.6421406  61.2131357  17.1948910
  12.6546967  78.6743736  24.1337872  12.3443210  78.7634754  23.2326984
  12.2759473  79.4240999  24.5928049  12.0399523  60.4716778  72.1859360
  12.7709603  59.8756981  72.3492432  12.0908189  61.1129713  72.8947306
  59.8538971  55.8192110  71.7648649  60.4826307  56.4339256  71.3866472
  60.0235558  54.9936008  71.3111973  88.4534073  21.2817192  23.2192802
  87.5421715  21.2110806  23.5037208  88.7207603  22.1606493  23.4880471
  12.9708290  45.2936316  47.7320004  12.0405948  45.5007362  47.6425409
  13.4208131  46.1025810  47.4883938  68.6720848  47.8030157  70.1711941
  68.0751562  48.1975698  69.5354033  69.5452166  47.9742193  69.8182631
  54.1067934  31.4980555   0.6693235  54.1349220  32.4136209   0.3915087
  54.5434189  31.0202575  -0.0358724  78.5894012  35.3311396  58.0481815
  78.9023685  34.7954178  57.3192883  77.6359415  35.2567291  58.0080128
  65.8841801  68.0155706  66.1647654  66.3493013  67.1821785  66.0916090
  66.3064241  68.4618902  66.8987560  78.5145364  41.0025386  -0.0330138
  77.7535723  40.4633407  -0.2484726  78.1701479  41.6822700   0.5463005
   2.0947038  64.9313593  67.2517157   2.1065649  65.7458878  67.7543449
   2.8708875  64.4558716  67.5478268  90.3280449  68.6023808  47.2161770
  89.6168613  68.8114977  47.8217602  90.5651093  67.6994658  47.4277925
   1.7753015  67.5123405  72.1613216   2.4199736  68.2047129  72.3070908
   1.4731051  67.2778559  73.0387783  87.6169395  28.8301015  67.1513462
  87.9578972  29.0746665  68.0116796  87.8928757  29.5414138  66.5733147
  74.2729807  67.5398970  56.5845537  74.0389919  68.1510305  55.8859825
  74.3860388  68.0922508  57.3580885  33.5806179   3.6414203  46.5749121
  33.2647872   4.5303956  46.4130354  34.4802237   3.7587219  46.8801737
   6.9403160  23.9541841  31.0471129   7.4918115  24.4908404  31.6163969
   6.8856186  23.1093621  31.4937878  84.1979694  80.1537037  65.3885317
  85.0354671  80.4655933  65.7313967  84.2749977  80.2547550  64.4398022
  75.9852791  19.8464906  20.6424761  75.4489040  19.4652104  21.3375735
  76.2706995  20.6893134  20.9952068  76.5703344  42.9087257  46.0999584
  76.9423532  43.6120653  45.5678463  76.9802332  43.0153799  46.9583511
  66.6933966  56.4148808  57.4713707  66.8789148  56.1121368  58.3602810
  66.2853861  55.6627035  57.0424366  79.1659689  61.3006926  24.9259019
  79.2370319  61.1692381  23.9804363  80.0318146  61.6116190  25.1902342
  39.8742914  17.0659280  22.8359580  39.6258402  16.2316895  23.2341433
  39.8296905  17.6969194  23.5543537  77.2105408  85.7702541  69.9168253
  76.6185808  85.9558773  69.1878796  76.9266224  84.9169254  70.2446127
  62.7290583  39.1963577  65.8145475  62.9565191  38.3074927  66.0873318
  63.0084467  39.7496295  66.5439749  14.4441688   8.4882694  61.3074732
  13.5693657   8.5786259  61.6853428  14.5415759   7.5490063  61.1508560
  55.5739260  81.6434669  69.8226595  55.1289034  81.9826698  70.5992699
  56.4307356  81.3604450  70.1420498  13.9561021  35.2314758  40.4476881
  14.3474293  35.0113034  39.6023369  13.0298054  35.0121331  40.3472185
  76.9410467  39.8732662  60.2903938  77.5634575  39.8713636  59.5631838
  77.4622250  40.1301765  61.0510540  78.4345245  21.2854195  60.6674004
  77.8785133  22.0303941  60.8956480  78.6851406  21.4435816  59.7572327
  83.0217266  55.5504179  57.8461456  82.5218582  54.7737932  58.0975866
  82.7000904  56.2404728  58.4263229  12.0777059  75.0896502  72.1604490
  11.7411327  74.6808672  71.3630486  13.0139816  75.2011919  71.9955873
  49.1704416  58.9137506  20.7169724  48.2727814  58.8077593  20.4020071
  49.6110106  59.4053411  20.0238109   0.2590865  53.7564611  53.0382776
   0.9153209  54.3416357  53.4166431   0.7332698  53.2679987  52.3653841
   4.0238953  83.9794540   9.9739271   4.2045575  84.8921871   9.7491974
   3.0935869  83.9678097  10.1989210  87.2380066  23.8902688  39.4109178
  87.5409126  24.6991515  38.9983797  87.9886055  23.2986498  39.3577600
  14.2040122  80.2101231  70.6132078  13.7150097  79.9668741  69.8271132
  13.5902560  80.7389164  71.1230230  67.7528429  31.2910509  52.8770828
  68.4120178  30.8791351  52.3184776  67.6556730  32.1744061  52.5214529
   5.0925106   2.5742832  38.8485074   5.9616107   2.2321001  38.6392045
   4.8697066   3.1335694  38.1043363  56.9316864  70.3396416  58.6956978
  57.2362852  69.4448042  58.8464212  57.7275658  70.8708763  58.7201786
  90.2154922  42.1627426  74.5178413  89.9281120  43.0314541  74.2367983
  89.9997711  41.5894985  73.7822580  73.0844641  76.9892120  63.8906479
  73.1634712  77.9361868  64.0056467  73.8648939  76.6306782  64.3132782
   3.6385578  54.0829182  63.9620209   3.6834040  55.0285530  63.8206244
   4.5011234  53.8510275  64.3061733  24.7661304  23.7305093  38.7762952
  23.8900471  24.0731835  38.9531684  24.8544860  23.7786937  37.8244019
  43.6947489  71.1398363  61.7257357  43.1337404  71.6007710  62.3494625
  44.0093708  71.8243790  61.1352730  20.1853108  73.9860964  25.0746870
  20.0220942  74.6019030  24.3602800  19.3135440  73.7041044  25.3516960
  62.9959059  80.6641579  42.6326275  63.7200212  80.1257133  42.3133135
  62.2089720  80.2123642  42.3279142  55.2840853  81.7033577   2.4722992
  56.2311411  81.7677021   2.5955009  54.9128819  82.0522213   3.2826930
  80.5998325  60.9769869  16.1641920  81.4059830  60.4706144  16.0645461
  80.1835537  60.6132460  16.9456232  60.2941561  47.3594379  62.3363400
  60.7623196  47.1558142  63.1460238  59.7302866  48.0983400  62.5650406
  31.6573524  14.8235130  15.5472124  32.5040174  14.4055533  15.3900516
  31.1328316  14.1479170  15.9769559  73.5776138  27.6275182  65.6133938
  72.8517437  28.2306695  65.4535294  73.1956863  26.9284415  66.1441040
   9.2686993  45.0861645  56.8707943   8.3385098  44.8934698  56.9884777
   9.6921986  44.6997070  57.6373005   7.4871761  73.8607550  65.8865690
   7.6086926  74.2070103  66.7706347   7.4335474  74.6378469  65.3302574
   0.9942523   3.7547019  51.9273424   0.7429563   3.1613696  51.2195015
   1.6191109   4.3574062  51.5241909  90.5699730  29.4315004  33.8147712
  91.2945080  29.4898248  34.4375682  90.8659458  29.9333906  33.0553365
  60.4986858  54.6574736  24.4673038  60.4844427  53.7087011  24.5932555
  61.2655687  54.9527597  24.9581456  27.7813196  19.5899320   6.9132698
  27.2517824  18.9260209   6.4716333  27.1461129  20.2346921   7.2247583
   6.0757691  60.3689671  70.9265280   5.3307259  60.9353828  70.7257366
   5.8414394  59.5217037  70.5477571   0.8109730  80.7230663  36.1069798
   1.4122117  80.9902287  35.4117346   0.0076758  80.4778576  35.6478286
  25.9122133   8.5734123  46.1722231  26.3014412   8.4661812  45.3043318
  26.6375279   8.4278810  46.7796516  32.6313591  79.0389490   6.8009835
  32.9274035  79.4536114   5.9906465  32.7348542  78.1007957   6.6416454
  18.0702496  83.7899876  70.9098387  18.4829879  84.2326355  71.6514206
  18.5915005  82.9971123  70.7838392  26.6426373  14.8682618  69.2044687
  27.1109653  15.6954062  69.3173027  25.9397340  14.9005497  69.8534060
   3.7760603  61.9255447  54.8085737   3.6150670  62.4286938  54.0103531
   2.9028007  61.7189741  55.1417112   0.2841676  82.7652073  69.2335415
   0.8861078  83.0541801  68.5476875   0.5670179  83.2390118  70.0156784
  46.5099669   3.6187544  48.5829210  45.6270456   3.2851851  48.7423372
  46.3783741   4.5311263  48.3250570   3.3410236  56.7578650  51.8783760
   3.1851259  57.6756239  52.1011877   2.7125388  56.2717152  52.4121380
  80.5060673  69.5930290  64.5635796  80.3580284  68.7366772  64.1623640
  79.8452425  69.6517134  65.2535772  37.1208906   7.3910666  62.0100594
  37.4642420   6.5497845  61.7090845  37.8393197   7.7776897  62.5106764
  10.9442210   9.6002346  66.1854982  10.7360959  10.2983963  66.8063736
  10.7642376   9.9821585  65.3264427  12.8665316   2.6178023  50.8749962
  13.7719011   2.4171056  51.1121845  12.3418200   2.0130607  51.3995886
   8.0870688   4.7741276  35.2966309   8.1255233   5.3047508  34.5008969
   8.8520741   4.2016029  35.2399325   6.5695566   7.4201554  63.0733728
   5.7961679   7.9540151  62.8914499   6.6750187   6.8772638  62.2921085
   2.2733957  77.4057055  49.4278717   2.9730541  77.8621483  48.9605713
   2.6362723  77.2375107  50.2975035  80.1147175  76.3434315  18.7243283
  79.2713261  76.1572170  19.1369355  79.8904371  76.6255283  17.8375638
  80.1040173  23.1419063  47.0558643  80.7286167  22.6369023  47.5765276
  80.4869461  23.1653357  46.1789083  36.2227106  10.6178832  15.8403385
  36.5037036   9.7194725  16.0139227  37.0362735  11.0972488  15.6836402
  48.4135103  49.2885685   2.4797389  48.3934307  48.4890175   3.0056095
  48.5076380  49.9939680   3.1198838  42.3561001  12.7399123  16.7201400
  41.9081497  11.9497740  16.4180636  42.9362726  12.9776597  15.9968758
  49.8912334  10.0902653  22.2222018  49.8657417   9.2068601  21.8545389
  49.4838715  10.6400979  21.5528965  22.8749704  73.2271051  68.8004208
  22.4287987  72.7325010  69.4878292  22.5737667  72.8279591  67.9842138
  62.2588062  37.7752328  46.6074133  62.9093456  37.6056552  47.2887897
  62.3608112  38.7052107  46.4050055  89.2830849  49.4057322  23.5884500
  89.9743652  49.7596407  23.0288815  88.5585403  49.2259216  22.9893446
  89.7961712   4.5609409   5.4555672  89.0949345   4.9543670   4.9362209
  90.4453850   4.2826340   4.8095879  73.3493185  37.5529289  74.2648458
  73.9046764  36.9238544  73.8043261  73.0665112  37.0902634  75.0536346
  59.1021872  33.7619376  47.4499226  59.2069197  34.0020323  48.3705854
  59.8276854  34.1993332  47.0043087  78.6024666  34.0920544   5.7395029
  77.9335880  34.2310929   6.4099491  78.2398558  34.4972563   4.9517506
  42.9413462  15.3704059  45.4423523  43.6307335  15.9107089  45.0562811
  43.3425140  14.5073795  45.5447292  82.4653053  26.5771961  47.1915483
  82.8406620  26.6990066  46.3194799  83.0660248  27.0378590  47.7773476
  38.6903954   1.2918507  39.2985964  38.5954428   0.4062794  39.6492791
  37.7929163   1.5834127  39.1381097  41.8686867  47.3128510   1.9255485
  41.2634039  47.4222612   2.6589620  42.5565815  47.9592657   2.0842421
  71.3254499   0.4757440  21.3944244  71.9234037   0.7647644  20.7051134
  71.6302490   0.9280154  22.1810508  83.4730911  50.0813627  56.8407011
  82.9367161  50.8459568  57.0502758  83.1607628  49.7979403  55.9814262
  38.7580252  64.8761749  29.4959760  39.4831038  65.2420521  28.9893961
  38.3667922  65.6318235  29.9343348  57.8278685   2.7342403  54.9591827
  57.6947832   1.9235681  54.4679308  58.3474970   3.2860044  54.3745661
  60.8373785  35.0705791  46.0033178  61.0520601  35.9801507  45.7963800
  61.0712385  34.5835590  45.2131605  74.6546412   9.2902416  56.9767618
  73.7191439   9.2528284  56.7775869  74.8922968   8.3858907  57.1814632
  90.0808907  38.4741068  65.0136423  90.9295082  38.9094496  65.0945807
  89.4491482  39.1202760  65.3292418  55.1637411   2.0620668  41.8528080
  54.9252796   2.6322573  41.1218834  55.6919289   1.3702694  41.4544821
  88.8542366  28.1204486   3.2421339  88.8753033  28.2054138   4.1953227
  89.1756725  27.2347546   3.0734569  55.9401655   2.6895693  37.5566339
  55.5098581   2.1044952  38.1801391  55.2212143   3.0842561  37.0631170
   5.8633566   3.2739872  29.0186834   5.2891499   2.7449766  29.5724583
   5.2791804   3.9112034  28.6076784   4.8590478  11.8761194  38.4889030
   5.0953263  10.9495497  38.5321760   4.4341570  12.0543838  39.3279028
  42.1090937  70.5975580  31.2726164  41.5586329  69.8486567  31.5014505
  41.8279457  71.2922812  31.8680573  51.3309097  85.7979393  23.6070585
  50.8379078  85.1591301  23.0921841  50.6896305  86.4731503  23.8286233
  55.5996895  29.6470904  64.4911432  55.8128071  29.8668242  63.5842133
  54.6601343  29.4645476  64.4789219  90.5094624  78.5580254  42.4921083
  90.3554153  78.8399220  43.3937979  89.6491909  78.2797670  42.1778774
  43.7099075  76.4788246  57.0744658  43.5218525  76.3182831  56.1497498
  42.8821278  76.7958832  57.4356890  59.0221405  18.8772047  12.2094631
  59.0028572  19.4734240  11.4608765  58.8071442  18.0210340  11.8393540
  44.3214178  27.3106909   4.9094829  43.9601374  27.4319482   5.7875508
  43.7570715  26.6503501   4.5073724  84.8016548  18.1790829  44.7927475
  84.9803543  19.0934026  44.5729303  83.9280987  18.1930840  45.1838064
  47.4222994  29.1028523  62.0419931  47.8625393  28.8509035  61.2302399
  47.5184250  28.3407259  62.6130962  18.4387040  39.9947333  26.7570281
  19.1336715  40.2352095  27.3697472  18.4288335  40.7049131  26.1153293
  14.5658183  79.1327906  52.5709105  15.0407791  78.4259844  53.0080271
  15.2311468  79.5816422  52.0492792  51.3632536  29.3918276  11.6131818
  51.1594391  29.5964217  10.7005858  50.5816269  29.6563649  12.0982707
  86.4661026   7.6310205  50.5751228  86.8619347   7.8367442  49.7282314
  86.1397457   6.7366481  50.4760361  51.7857409  18.1156254  63.1620979
  51.8876982  17.2492754  63.5561466  52.0329285  17.9924881  62.2456026
  37.2467422  23.2670784  57.9291821  37.4233580  24.2076063  57.9502439
  38.0023074  22.8915596  57.4771452  67.7612257  31.0569501  60.2219486
  67.5918627  31.8112183  59.6574783  68.4449530  31.3553572  60.8217001
  65.3561115  19.5684922   1.5793023  64.9706888  18.7208462   1.8010630
  65.4552841  20.0139880   2.4206877  54.3500757  11.6275191  26.2216926
  55.2046585  11.4901137  26.6304016  54.2651749  10.9078407  25.5963230
   7.2082448  70.5234003   1.7143051   6.4845133  70.3430033   2.3142228
   7.8445059  71.0036802   2.2441496  21.0749960  52.7239895  44.3754387
  20.7286644  53.5399961  44.7365713  22.0086575  52.8943586  44.2510223
  40.0023127  55.4056931   4.5219541  39.5684052  54.7969818   5.1198083
  39.8584080  55.0312948   3.6528450   5.5721177  85.8819317  53.2324648
   5.2716411  86.7350727  52.9192638   4.9782265  85.6682229  53.9520884
  46.5154839  85.0655460  67.3381138  46.7042446  85.6856823  68.0424023
  45.8044195  84.5237255  67.6802444  64.5329332  25.2345157  23.5713506
  63.6848783  25.6102180  23.3349705  65.0169849  25.1978707  22.7463746
  24.4635081  84.5250893  48.4802675  24.3924379  84.0624523  47.6453114
  23.5689902  84.5441437  48.8204241  71.4988375  16.5371251  40.1306438
  72.2441006  17.0892417  40.3672457  70.7563019  17.1400392  40.0936317
  74.9451208  28.5927272  61.3550138  75.6988955  28.5158873  61.9399452
  74.9358749  27.7694273  60.8668280  27.2565055  86.0056019  53.9137411
  27.4763083  86.1686230  52.9964972  26.3035321  85.9159279  53.9193821
  68.7425089  13.6981630  14.4565809  69.3984604  14.2612851  14.8674965
  68.1360054  13.4809220  15.1645315  17.2939277  72.5904560  54.0098429
  17.2894037  73.1630373  54.7768879  17.2338927  71.7059755  54.3708420
  18.2066262  24.3362904   7.7911276  18.8200760  23.9097548   8.3894408
  18.7551975  24.6613622   7.0772427  64.7283792  21.3981295  73.4071159
  64.1983223  21.3798523  74.2039490  65.5338192  20.9386969  73.6446476
  68.2487154  18.2887399   0.7341892  67.6831913  17.5511360   0.5053777
  67.6793242  18.8854170   1.2199873  54.3168592  34.0376592  59.8062563
  54.1531229  34.8774338  59.3770647  53.9332533  34.1352749  60.6777763
  30.9977865  78.4976912  37.8034449  30.9118843  78.7219954  38.7300205
  30.1093769  78.2710266  37.5285244  77.8292370   9.9163210  56.1937428
  77.2674036  10.6267679  56.5033197  77.2425365   9.1641676  56.1145163
  67.4027443  23.0936480  28.7434983  68.2684660  23.2563686  29.1180348
  67.0193958  23.9644980  28.6391139  28.8088775  77.6334572  13.2082224
  27.9422069  78.0290127  13.1152141  28.6441398  76.7938042  13.6372554
  50.2277184  17.5204802  53.7115240  50.2706480  18.3939290  53.3223248
  50.1599455  16.9277811  52.9629612  64.6933699  18.2932591  59.2093277
  65.5518103  17.8868401  59.3282175  64.4912910  18.1596291  58.2832909
  50.3008080   2.6992387  14.5257866  49.8160362   2.7942255  15.3456688
  49.7742891   2.0926821  14.0051162  33.0205488  84.3406963  45.7685232
  32.2482467  83.7758350  45.7418346  33.4894872  84.1437244  44.9576378
  81.9920921  25.5315828  28.8328028  81.0870838  25.7362390  29.0679884
  81.9382286  25.2055621  27.9344487  28.7149525  83.2783031   2.5370356
  28.5050178  84.0112495   3.1157884  29.4416928  82.8311634   2.9707927
  54.1406012  14.2619455  26.5076017  54.5806742  14.5807815  25.7196259
  54.0298510  13.3232009  26.3568592   7.3589587  76.0112333  67.6461458
   7.5713533  76.6157293  66.9350195   7.9093105  76.2965822  68.3754730
  50.8047915  25.0207186  47.3935270  50.2139282  24.9180102  48.1395578
  50.2392101  24.9333906  46.6262436  53.8292122  43.9881086  71.4625597
  53.9247799  44.7930527  71.9716358  54.6113873  43.4777737  71.6723108
   2.1098341  71.2948942  63.6219072   2.1441971  71.0698509  64.5516443
   2.9005903  71.8128729  63.4714699  45.1569653  65.1789379  18.5854352
  44.8625422  65.4810333  17.7262020  45.8410072  64.5377874  18.3924413
  60.0340080  26.7861676  41.8570042  60.9828758  26.6663218  41.8180609
  59.7782755  26.4019299  42.6955700  59.3437147  32.5038028  72.2983027
  58.8485765  33.3044219  72.4717569  59.5009327  32.1271038  73.1641054
  59.7526979  76.3137674  66.3782454  60.1435804  76.3586044  67.2508478
  59.3246508  75.4580355  66.3512278  32.4173307  76.3222504  10.7003796
  32.2320366  76.4684582  11.6280234  32.4064612  77.1975422  10.3131104
  27.4450946  47.1824312  19.3225610  28.2768035  47.0752668  19.7840893
  27.0340705  47.9383039  19.7420216  72.4292517   8.8839942  44.6645546
  72.8826952   8.0487573  44.5505381  71.5160227   8.6417437  44.8180389
  85.9909725  33.3690047  49.2426586  85.0425053  33.4976244  49.2329216
  86.3297558  34.0399265  48.6499310  38.1172276  64.1866350  66.2534952
  38.1450725  64.4298649  67.1788549  38.6205578  63.3739471  66.2042093
  55.9995794  54.3363237  18.1305099  55.6715202  55.1057673  17.6651371
  56.5954351  54.6913815  18.7901461  79.2511034  25.1846623  61.9603491
  78.5450315  24.7824740  62.4662542  79.7980022  24.4487596  61.6854286
  82.3649788   3.4340334  27.1259665  81.4694595   3.3985782  27.4621487
  82.3414612   4.1144568  26.4531350  61.8850946  10.4076326  64.5782709
  62.7089882  10.2017105  64.1366482  61.8289948  11.3626885  64.5474148
   1.7352255  13.8683355  36.6893077   2.2781318  13.6182010  37.4369144
   2.2538847  14.5260894  36.2260723  90.2160168  30.9423041  69.9042130
  89.4988537  30.3403974  70.1032495  90.8856010  30.7416272  70.5581331
  61.7067003  35.2981853   9.7901988  61.2092781  36.0183144  10.1777792
  62.1927023  35.7023883   9.0714115  72.1514225  12.5110769  37.8262377
  71.3018274  12.8830707  38.0629683  72.0031929  11.5655363  37.8116226
  60.0805044  24.4294143  21.7352819  59.9553251  24.1173506  20.8390808
  59.1955900  24.4819856  22.0963931  63.3030367  82.5997162  44.5332718
  63.0611181  81.9485760  43.8746929  63.5671377  82.0834446  45.2948093
  84.6000004  32.1121788  10.3924608  83.9144325  31.5222931  10.7059181
  84.4419098  32.1843863   9.4511724  17.0059812  37.1364689  33.5720134
  17.3121285  37.9646349  33.9416742  17.2969460  36.4728880  34.1974974
   4.4931462  17.7373457  38.9959574   4.8853791  18.4809470  39.4536066
   3.8416889  18.1302047  38.4150124  88.1302929  12.5700891  40.1475382
  89.0555573  12.4785984  40.3750181  88.1226063  12.6217532  39.1917634
  52.0798969   4.4523180  24.8967004  51.5188122   3.9476377  24.3078780
  51.4702511   4.8992926  25.4838800  63.7664986  25.1657486  47.9858112
  64.3766785  24.4973826  47.6740456  63.3137703  24.7525167  48.7209988
  79.6443844  21.9602275  29.5696402  79.1435146  22.6329374  29.1083145
  79.8170996  22.3390865  30.4315376  48.2155609  28.5056615  59.4718695
  48.6353445  27.6489711  59.3938255  47.3409748  28.3782029  59.1043234
  23.1301689  18.1764197  44.0003538  23.1877589  18.4389997  44.9190283
  22.5299263  18.8100338  43.6073208  52.4513674  81.4803696  66.0311270
  53.0787230  82.1988583  66.1113453  52.1325827  81.3400936  66.9227171
  60.0648737  31.8645215  14.3557179  60.6788158  31.2273932  13.9905071
  59.2035437  31.5550399  14.0754223  78.9502907  13.4666717  42.1618080
  79.2638588  13.5701990  41.2633705  79.2748880  14.2420864  42.6196289
  12.6691687  76.3357973  28.5961819  11.9575286  75.9376669  28.0948901
  12.5837922  77.2744513  28.4292364  55.9400415   9.2131174  41.0667801
  56.7977858   8.9521199  40.7315350  55.3190517   8.6609739  40.5916595
  59.7721910   7.1414518  28.0196118  59.3781853   7.9285288  28.3957767
  59.4136095   6.4221859  28.5395217  71.5668154   6.3800049  42.5777388
  72.2564316   6.1931807  43.2147360  70.8676481   6.7825949  43.0928278
  56.8893814   4.8561060  34.9053311  55.9512758   4.8777142  35.0943303
  57.2994804   4.6674985  35.7494140  15.9421289   7.7775246  21.3385129
  16.4982903   7.1384984  20.8929110  16.5560484   8.4081078  21.7149448
  66.3089132  14.8778760  37.0440698  66.0187531  14.1601276  36.4811540
  66.5342474  15.5825460  36.4366984  33.4850693  75.1157045  72.6175737
  33.4848523  74.2162132  72.2902441  34.2650485  75.1694298  73.1698227
  47.8139114  75.7092190  38.4135127  47.3110437  76.2868452  37.8393126
  48.3273315  76.3033867  38.9608622  40.6925106  84.1860294  14.4999504
  40.0012970  83.7011814  14.0489686  40.3008938  85.0379181  14.6926773
  49.9976683  15.6099975  31.8080497  50.8549356  15.7758796  31.4158726
  50.1572752  15.6336892  32.7515507  26.0685372   9.7729123   1.5843275
  26.4404988  10.5168748   1.1106241  25.9622598   9.0937608   0.9182268
  60.7302427  25.0218272  57.9112864  61.6216135  24.8000598  57.6420164
  60.4812813  25.7484698  57.3401117  62.3294640  41.5939331  29.4940901
  61.7741585  41.1140680  28.8796020  61.9417191  41.4216614  30.3521156
  61.3249302  27.2755241  47.6594067  61.9000721  27.6506925  48.3262587
  61.8849754  27.1737623  46.8898392  78.4194851  18.5674942  45.8190966
  78.7799835  17.8741360  46.3718414  78.6907482  19.3798935  46.2464809
  13.7750518  22.0677233  60.8156061  12.8655946  21.8035865  60.9547091
  13.7702906  23.0169511  60.9387922  11.4913285  44.5751286   4.1919076
  11.0226035  44.8817396   4.9681270  12.2862971  45.1076651   4.1662413
  32.6446247  15.5170369  11.6307008  33.4673595  15.0295198  11.5898883
  32.5928402  15.9703529  10.7892406  74.1159868  17.6341784  40.6337261
  74.8968792  18.0541265  40.9944010  74.4224787  17.2038591  39.8355317
  31.4075255  47.4839211  15.5087376  31.8452120  47.6659489  16.3403189
  31.1736512  46.5570974  15.5590177  59.5240545  36.1929226  42.4669933
  58.7178946  35.6778526  42.4347401  60.0288534  35.8032393  43.1808233
  73.4726667  29.4916606  32.6830888  73.3002281  30.4170871  32.8565240
  72.9334545  29.2866039  31.9192576  49.1059065   0.7884791  41.1520481
  49.3282127   0.3750333  41.9862366  48.2078362   1.0979902  41.2699461
  15.4246199  15.8555901  37.2493386  14.7207284  16.2663770  36.7473197
  16.0367250  15.5361450  36.5863800  27.7273273  31.0211992  64.9142504
  27.2354221  30.3572941  64.4310427  28.0532384  31.6163969  64.2391539
  52.7849770  18.1911540  55.0509119  52.9983997  18.0846739  55.9779167
  51.9001722  17.8358674  54.9664927  65.0980473  13.6571884  34.6279788
  64.5001793  14.1681719  34.0823770  64.6177244  12.8518724  34.8202968
  23.8399696  72.2539043  43.7069511  23.5506082  71.4421129  43.2904243
  23.6288190  72.9377270  43.0713177  45.5718994  68.8218069  42.9174566
  44.7787905  68.5288286  43.3662081  45.9757662  69.4415379  43.5249567
  25.5097723  65.4148054  29.0752745  26.3021421  64.8858976  28.9823341
  24.7997189  64.7751188  29.1287494   3.9206508  28.8241792  57.2387075
   3.5217258  29.6326256  56.9169903   4.3517292  29.0780592  58.0547667
  15.6332469  60.9758520  16.0352957  15.8832026  61.8949938  16.1298013
  16.2698853  60.6168461  15.4172051  51.0220432  56.4872789  18.7088275
  51.1760330  55.8199596  19.3775606  50.0882244  56.4168167  18.5107172
  75.2165556  23.2522511  43.0579424  74.6781206  22.4621844  43.1038904
  75.9806728  22.9917645  42.5436401  66.3895607  74.5757198  44.0988874
  66.2209606  73.9572001  44.8096943  66.1059713  75.4217720  44.4452953
   6.9235557  35.5972052  47.0217800   6.2263054  35.0082850  47.3103094
   7.3492062  35.8792162  47.8314257  80.3255653   4.3525991  57.8611851
  81.2521076   4.1401047  57.9734278  80.2727127   5.2925140  58.0343819
  23.4216452  81.2301064  12.2690356  23.4058022  82.1849728  12.2041130
  24.0561414  81.0476589  12.9621160  49.3427372  80.2240562  22.9198742
  49.5883894  79.5517159  22.2843933  49.7513628  79.9411440  23.7379313
  85.4765797  15.5296659  44.6745443  84.9536896  16.2514949  45.0235176
  85.1247978  15.3816104  43.7967300  63.0074310  22.1901727  31.9262290
  63.4229708  21.3282490  31.9516397  62.2308969  22.0980620  32.4782681
  79.6888685   2.5901693  17.4371183  79.7825336   1.8471593  16.8409681
  79.8805523   2.2286114  18.3024299  52.3696852  86.0057163  54.4262648
  52.1993637  85.8751678  55.3591013  52.3292351  85.1264668  54.0500689
  67.4222660  43.4307480  27.2123790  66.5257597  43.1596088  27.0149136
  67.7521276  42.7546072  27.8042054  18.6384583  50.1545334  40.2940416
  19.3106735  50.0839186  40.9718132  19.0451062  50.6833172  39.6075606
  57.9282951  28.6744523  28.5542130  57.1902227  28.0650139  28.5462523
  58.4944057  28.3558559  29.2572427  63.1926250  13.5103250   6.4180022
  63.8726330  13.3880520   5.7555288  62.6414680  12.7314186   6.3420868
  57.4621820  14.7920322  29.1828537  57.1890736  15.7008433  29.0575266
  58.1002378  14.6355104  28.4867072  63.3152723  48.7038422  63.1585169
  62.3985243  48.9348555  63.3082962  63.3549833  47.7618551  63.3237982
   3.0067262  47.0945311   8.7148970   2.3008963  47.4695253   8.1881911
   2.5574815  46.5889788   9.3922639   7.5283164  51.9631052  57.1010065
   6.8107218  51.9182825  56.4691210   7.9735076  51.1198044  57.0180702
  55.9556198  69.9084091  63.1597376  55.4392958  69.1037560  63.2063675
  55.3072929  70.6115627  63.1981564  53.6376572  13.9538038   9.9030858
  53.8695288  14.0395570  10.8278084  54.2212105  14.5640802   9.4522423
  61.3747692  19.6192896  36.9136214  60.7998562  20.2126837  37.3969316
  62.2201014  20.0679088  36.8940187  88.6000538  51.3632727  14.5673382
  88.7382221  51.4137459  15.5131674  87.6630020  51.1933279  14.4709039
  57.3224974  74.4759417  50.3810358  56.9621658  75.0968742  49.7479153
  56.5714836  74.2137909  50.9134722  66.4929819  24.3685269  31.8958998
  66.6995239  24.8262620  32.7107930  66.9699383  23.5409880  31.9585109
  32.6204062  10.2814126  31.1333346  32.5218177   9.3295288  31.1125994
  33.5656619  10.4232478  31.1843872  65.6162739   7.7449811  26.2959886
  66.0869694   7.1025789  25.7649541  64.7792387   7.8603542  25.8462214
  13.0991423  79.9121141   6.5333438  12.5746524  79.5241642   7.2337997
  13.1482220  79.2291164   5.8645117   3.2000354  25.6680083  34.5440197
   2.4767427  25.4347754  35.1259828   3.3343616  26.6040850  34.6921754
  53.2241154  71.6623354  73.8111591  53.0471516  70.9775686  73.1661749
  54.1766834  71.7561960  73.8056087  38.1424737  79.2813110  35.3337502
  38.4923053  79.1891813  36.2199569  38.3005357  80.1979637  35.1079488
  69.4584560  21.1069846  62.6838923  70.0225115  20.3741193  62.9308367
  68.5834646  20.8418822  62.9673386  72.3259068   2.5605056  49.6498489
  72.0762396   2.3885404  50.5577707  72.9577208   3.2773000  49.7068453
  79.4727945  11.2522411  21.8140984  79.7761202  10.6073475  21.1750865
  78.5641432  11.0071898  21.9888616  74.4462204  29.8200202  44.4017029
  74.9499369  29.0069294  44.3644381  74.6957970  30.2929831  43.6078215
  71.1679506  61.0399008   1.6941196  71.7761707  61.7353201   1.9445020
  71.5910053  60.6072521   0.9524509  32.1024799  81.3673115  45.2234459
  31.3874412  80.9947491  45.7393456  32.6803207  80.6255341  45.0442696
  72.5460720  25.5949831  66.9509697  73.0646181  25.5365038  67.7534199
  72.3698521  24.6847868  66.7128134  64.8591280  73.9106321   5.3808630
  65.1614380  73.6036825   4.5260984  65.4005194  74.6782637   5.5648953
   4.0424669  12.1527624  41.0624695   4.6297580  11.4653635  41.3768005
   3.3986464  12.2566211  41.7631435  59.7592592   6.5039313  36.9639516
  59.4319248   7.2847009  37.4105906  59.1480827   5.8110029  37.2140431
  47.8525352  77.4321318   3.4512883  47.7369118  78.2492733   2.9663706
  48.7661409  77.4499941   3.7363249  52.2141790   8.4525049  55.4801655
  51.8673134   8.2944834  54.6021318  51.8567133   7.7404314  56.0106421
  61.4938498  11.7988288  49.2603588  60.9361792  12.0521116  48.5247755
  61.0278606  11.0729921  49.6753883  63.5983801   1.6063930  70.7034540
  63.2056856   1.0635275  71.3870621  63.5200357   2.5013626  71.0337925
  80.6817627  22.0565176  66.4005661  81.0359192  22.3657346  65.5667830
  81.4531803  21.8193626  66.9152498  54.6082926  81.0325718  14.7923064
  54.8624468  80.1547623  14.5075417  54.3683290  80.9256744  15.7127535
  62.7401018  68.0140162  53.1262112  62.6347494  67.0760965  52.9667044
  63.5579252  68.0828142  53.6188221  42.8649235  70.6440544  55.1321793
  42.6354599  70.8333111  54.2223692  43.2939816  69.7890806  55.0981045
  41.8408442  12.1411109   7.9650462  41.7949724  12.8851938   8.5654378
  40.9298801  11.9691658   7.7266926  34.6079087   4.0106520  66.4558029
  35.2095485   4.5036936  65.8979797  33.9309621   3.6946493  65.8573771
  66.7064428  10.4427469  41.7685843  65.8410740  10.5830562  42.1528721
  66.9431543  11.2916851  41.3950872  39.9971271  59.7674227  56.1847925
  40.4810190  59.3254089  56.8824339  39.0764618  59.6332312  56.4097357
  59.2727137  10.4162705  42.9467630  60.0084019   9.9357092  42.5672197
  58.8998365   9.8140258  43.5905790  52.1036148  62.3265362  51.6262817
  51.8262053  61.7735624  50.8958721  52.8117180  61.8354559  52.0430088
  76.9050694  78.2689667   2.7793974  77.2033072  77.9349852   3.6254108
  76.4295101  79.0717506   2.9929727  24.4146848  68.6241531   3.2456040
  23.7007856  68.2086706   3.7292910  25.2098131  68.3153963   3.6799681
  80.9493446  28.4441853  70.0885153  80.6827450  28.4460807  71.0078382
  81.9012260  28.5413885  70.1149750  38.9380503  57.7196980  73.0670023
  39.0799212  58.3058596  73.8103151  38.0730462  57.9594803  72.7345800
  22.1278977  46.5592241   4.0520689  21.7646146  46.9050980   4.8673162
  22.1649289  45.6125879   4.1889712  75.8954906  59.4111300  34.6897888
  76.3691473  58.7141800  35.1438189  74.9716616  59.1976881  34.8209691
  65.5916691  78.5615635  31.2112308  65.6770658  79.2142391  31.9061804
  64.6949100  78.6662006  30.8932590  56.5101957  24.4186211  41.5595245
  56.0783863  24.9980569  40.9318113  55.9575033  23.6374879  41.5839052
   9.6237296  60.6318092   9.6062952   9.7773522  60.4077387  10.5241323
   9.5574051  59.7869110   9.1613501  66.9287634  33.7050557  72.4769354
  66.4402008  33.5763502  73.2899427  66.4811325  33.1502795  71.8381214
  19.0157986  43.5821629  31.7742276  18.6224437  43.2281971  30.9765959
  19.2282557  44.4892168  31.5543556  31.1678028  84.6574879  25.4972458
  30.3500795  84.1705036  25.5992532  31.6600990  84.1641808  24.8411012
  80.4275131  13.9921927  56.2625313  80.9487152  14.1720653  55.4800844
  80.1555157  13.0796909  56.1645842  25.6952977  78.6579180   7.6825505
  25.6289458  78.8717604   8.6131960  26.4630938  79.1426086   7.3795730
  68.0813026  45.5719328  45.7379484  67.9970026  46.4365244  45.3359461
  67.9272032  45.7251787  46.6701508  75.5010080  45.8456755  11.0691166
  76.1659431  46.5116501  11.2439394  75.9257317  45.0181007  11.2948585
  76.7854786  31.9339824  47.9368448  76.3805294  31.0676622  47.8951740
  76.2799358  32.4029970  48.6006880  81.3518047  -0.0733605   1.3612115
  81.3696194  -0.4739941   2.2303534  82.0014095   0.6281434   1.4074831
  42.1296501  85.4282188  32.8720355  42.7258301  86.1759090  32.8299642
  42.5937986  84.7814083  33.4034801  68.9624023  35.5359006  38.3121848
  68.4828949  34.7447467  38.0664587  68.6863708  36.1918116  37.6720119
  20.1062846  70.4289770  65.9439611  19.6135676  69.6489048  66.1988163
  19.4715309  70.9705639  65.4749155  13.5643268  69.5221710  39.5332313
  14.0398490  68.6963654  39.6235728  13.0000675  69.5593643  40.3055382
  68.3396101   4.0621817  51.2706470  68.0826426   4.9568352  51.0474968
  69.2965364   4.0830848  51.2799072  43.1238937  69.6771526  67.2686100
  42.6260757  68.9513683  67.6449776  43.6865234  69.2666197  66.6119909
  28.1725597  75.3452253  41.2570810  28.0837226  74.9619436  40.3844833
  29.1116929  75.3114176  41.4390564  85.3818512  28.9514279  35.9665298
  85.0227165  28.9443994  36.8537760  84.8722172  28.2913637  35.4966164
  55.6067657  70.4920578  56.0630989  55.7435131  70.1405001  56.9428349
  55.0067186  71.2270451  56.1894798  88.2467556   4.3640104  52.1600580
  89.1758823   4.3667513  52.3901796  87.8277683   4.8793229  52.8493547
  21.2936544  48.4360266   0.6682172  20.4542017  47.9929209   0.7915592
  21.0859704  49.1952705   0.1235653  36.3899016  79.8885107  27.1335244
  36.3405871  80.5784607  27.7951646  35.8605385  80.2157974  26.4062762
  86.7544746  73.2288837  59.9071980  86.2216949  73.9954472  59.6956253
  87.3745060  73.5424566  60.5655766  65.1305246  81.5657520  63.7093925
  65.3242683  81.7859077  64.6205616  65.8398676  80.9782028  63.4489202
  60.5291080  48.8351488  73.4008408  61.2621355  48.2275867  73.3019829
  60.4046488  49.2045832  72.5266218  89.9702835  25.7388020  34.7333598
  89.5558167  24.8994780  34.5333982  89.3242073  26.2044907  35.2643466
  79.8346710   7.8642523  53.7527180  79.2501688   8.6190307  53.6827135
  80.5971909   8.1020808  53.2252455  77.0920277  27.5696349  20.2863789
  77.5035810  26.8259263  20.7265520  77.6430845  28.3181620  20.5150056
  73.4238577  72.9532337  69.4313145  74.3027449  73.3275509  69.4919395
  72.8857613  73.5136271  69.9904633  74.9702024   8.1342524  27.9432344
  75.2429199   9.0243369  27.7205038  74.1138124   8.2425755  28.3568621
  88.9926720  36.7799640  24.6858430  89.8407650  36.5837121  25.0838971
  88.3583450  36.3170147  25.2331448  19.6328092  78.5012293  50.4592800
  19.7802234  77.9070330  49.7234631  20.4042363  78.3902788  51.0150003
  74.4148159  30.0416422  28.6314416  74.2047787  30.8997726  28.2630301
  74.0805721  29.4165206  27.9882169   4.9930498  36.8707299   4.9555826
   4.4776589  36.0860705   4.7687301   4.3496141  37.5788498   4.9836725
  79.2862844  32.6153207  48.0793524  79.2440796  33.5105443  48.4155464
  78.3797693  32.3086786  48.1001616  84.5813847  35.5715466  37.8148174
  85.0410461  35.1918817  38.5636806  84.0116692  36.2391663  38.1968427
  22.5732827  76.9695234  47.8366661  23.3364224  77.4234104  47.4791241
  22.2268987  77.5681067  48.4984398  90.4202080  29.7002435  72.6018620
  89.8782253  29.4492698  73.3498573  90.8160305  30.5322480  72.8613234
  61.1878204   7.8398341  56.1106968  61.8314362   8.5341734  56.2517071
  61.5821362   7.2799629  55.4418993  42.2062159  82.9701710  49.5487452
  41.9011354  83.8280106  49.8441648  42.8786039  83.1666946  48.8964319
  62.8761911  27.4720430  20.2143598  63.7305689  27.1710038  19.9050999
  63.0749655  28.2224774  20.7743359  25.1767421  65.1584959  62.6990223
  25.9587598  65.5658674  62.3265600  25.1505923  65.4723549  63.6029243
  30.8967400  80.9693050  36.8107080  30.8384728  80.6348610  35.9157324
  31.1794686  80.2164173  37.3298097  86.9282246  19.7670364  41.2837934
  87.2499943  19.4843674  40.4277611  87.0442963  19.0023673  41.8477440
  79.8113775   0.4464466  47.0208120  79.8601913   1.2903446  47.4699068
  79.9007511   0.6634487  46.0928297  79.2241669  57.1212721   3.3515531
  78.9037943  56.3986874   2.8116781  80.1753426  57.0943308   3.2478184
   0.0650589  57.3979092  46.2262964   0.9149354  57.7593565  46.4778900
  -0.2091464  57.9288578  45.4785442  77.5149679  38.1663585  66.8072748
  77.8161383  38.0441809  67.7076101  77.7445650  37.3491383  66.3649321
  21.1447549  17.4798214  51.9989014  21.2698770  16.9504893  51.2112570
  21.9506168  17.3568869  52.5006008  62.0739460   0.8000665  32.5915766
  61.2748432   0.3483236  32.8628659  61.9302464   1.0072309  31.6681790
  72.5656414  43.7921429  27.1494341  71.9478989  44.4995070  26.9643521
  73.3669996  44.2391539  27.4218965  68.0939770  25.0525045   5.9611702
  67.6549196  25.8617139   6.2231600  68.1105280  24.5205784   6.7567909
  52.9528809  26.0590124  66.2558079  52.6945591  25.2049041  66.6022205
  52.5437260  26.6909480  66.8469810  35.3122139   6.2290215  64.2278957
  34.9647880   6.5005875  63.3783197  36.1532736   5.8204252  64.0231991
  64.7110891  15.4154527  57.6097059  63.9055538  14.8986065  57.5951433
  65.3899288  14.8093760  57.3129320   4.1375971  53.1730795   0.2994160
   3.5954568  53.8294697   0.7369868   5.0249839  53.3477688   0.6128791
  72.3690414  77.1027899  10.8916867  71.6855764  77.5926828  11.3489723
  72.2806549  76.2071753  11.2177086  62.9088879  84.0149117  54.7703171
  62.9828835  83.1827927  54.3030453  62.6145840  84.6375561  54.1055393
   4.5780718   8.8560265  62.0994234   4.1712490   8.1114030  61.6564083
   4.4131875   9.5992255  61.5191650  72.4677420  22.4642038  33.9886642
  72.9422283  22.7224755  33.1984806  71.7262936  21.9518948  33.6661291
  74.0036821   6.8498367  41.0432768  73.1567240   6.6698050  41.4512968
  74.5179987   6.0578173  41.1995316  83.3372688  24.5713973  50.6842422
  83.6386967  25.0159383  51.4765501  83.8939571  23.7955165  50.6184149
  36.2406325  81.7416668  57.3488951  36.0765076  80.7997036  57.3042536
  36.9179273  81.8982220  56.6908693  90.4439163  46.4126730  69.5686674
  89.8776817  47.1841049  69.5461750  91.3327980  46.7677593  69.5626736
  66.2757635  15.0814474  47.5636053  65.7503605  14.3375599  47.2689629
  67.1101809  14.6950161  47.8294086  43.7348366  65.5226707  41.9774580
  42.9645491  65.9975815  42.2894716  43.8328362  65.7977724  41.0658932
   2.4925983  79.8203945  24.5334148   2.9157013  80.6282902  24.2426920
   1.7598854  80.1149940  25.0743175  90.8133030  18.2275963  30.4552770
  91.2413883  19.0393472  30.7273674  90.7108688  18.3167851  29.5077634
  54.9079514  11.1355615  45.7874489  54.1593599  11.7021108  45.6007338
  55.6337214  11.7404735  45.9409857  62.9513216   2.3502761  18.3508420
  63.5027695   2.4368824  17.5732577  63.0925035   1.4505988  18.6455977
  47.1421814   9.4604427  27.7168393  47.1061850   9.5447236  28.6696410
  47.6088905  10.2433920  27.4245977  90.0462914  17.5226223  33.7693834
  90.1279736  17.1289361  34.6380424  90.7073498  17.0756710  33.2407331
  83.1488895  15.8615792  34.1980243  82.5983810  15.7393491  34.9714780
  83.5067463  14.9920464  34.0189028  69.7109461  38.7405396  45.4437876
  69.3507910  39.4384098  45.9910488  69.2613029  38.8381839  44.6044350
  86.9572926  10.3614450  37.3859382  86.9503117  10.5922258  38.3148742
  87.4372292  11.0749590  36.9654799  57.6447344  20.8155751   7.3868275
  57.1567011  19.9960959   7.3061621  56.9804001  21.4696097   7.6039249
  40.4995584   2.3560758  56.0510397  41.1517811   1.8409057  55.5762386
  40.8460569   3.2483116  56.0417747   2.7757061  66.8556499   9.1035056
   3.3351117  67.0042706   8.3411360   2.5161386  65.9368896   9.0346521
   8.0737549  61.7251539  34.9035907   7.5902075  60.9733677  35.2459812
   8.4694099  62.1277094  35.6766605  82.3455811   9.7412080  55.5393314
  82.4917030   8.7982422  55.6147957  82.8685188  10.0047755  54.7821712
  84.8643494   1.2575099  38.9981318  84.7075653   2.1353975  38.6503315
  84.5876789   0.6687601  38.2959509   1.0410214  46.0846424  10.3565133
   0.4812802  46.7364264  10.7785344   1.2108861  45.4362917  11.0399008
  91.2281479  56.0543060  16.8869066  91.8272451  56.7661715  17.1117711
  90.5232324  56.4797163  16.3986933  67.5497246  59.4254637  52.3210430
  68.0671597  60.2149343  52.1622038  67.3340797  59.4638777  53.2528448
  25.1882267  43.6869907  18.2759368  24.5118546  43.0146837  18.1937194
  26.0132265  43.2058048  18.2121480  77.2074223  27.9983854  48.2986307
  76.4944649  28.4415269  47.8386831  76.8243980  27.7324319  49.1345692
  73.5840845  52.7197838  54.4907427  73.0784512  51.9211769  54.6417141
  73.6651659  53.1192493  55.3568172  90.8057594  16.7219508  17.0809495
  90.1741695  17.0860469  16.4606607  90.2694130  16.3825190  17.7974343
   4.4466525  48.1114101  71.1362886   4.3849573  47.5067806  71.8757820
   3.8977674  48.8541842  71.3877773  57.9026079  18.7703145  27.3280096
  57.7641010  18.0250597  26.7435074  57.4286509  18.5394287  28.1269383
  60.7473516  32.5741172  43.7429047  61.6284275  32.2563219  43.5455656
  60.3897190  31.9267058  44.3505144  22.6717138  32.4395084  37.8385091
  23.0269551  31.6280556  37.4757695  22.0825624  32.7677608  37.1592546
  62.3244572  24.5620489   0.5308658  61.9320536  24.3007231   1.3639098
  63.2570648  24.6565723   0.7246101  11.6494584  68.0279160  37.9368043
  12.2640347  68.5898638  38.4087563  10.9728992  67.8189373  38.5808754
  20.1281214  51.0336971  42.5144958  20.9143901  50.8547688  41.9987488
  20.4266214  51.6181087  43.2113409  69.2722940  72.5705624  46.5861368
  69.3207502  73.4125376  47.0388556  69.2207909  71.9231558  47.2893047
   9.2741394  61.1968231   4.6798766   8.8509774  60.3673935   4.9017152
   8.9397782  61.4108658   3.8088879   7.8567433  47.0663023  48.8216448
   8.2978624  47.7505350  49.3251085   7.4982744  47.5225258  48.0603361
  78.1436396  19.3654275  28.2026649  79.0428495  19.4342768  28.5234618
  78.0195236  18.4309733  28.0364633  64.4306374  14.8493409  73.5862398
  65.1264048  14.6584487  74.2152882  63.6254215  14.5885003  74.0332460
  23.4675312  49.8983192   1.3470356  22.7454734  49.3755198   0.9984045
  23.0410862  50.5763483   1.8711057  21.7312264  58.5192633  67.3042870
  21.9467378  59.4467783  67.4017668  22.4626756  58.0588913  67.7157164
  64.8345947  50.6435966   2.4874893  65.4213190  50.5851078   3.2415211
  64.0479851  50.1704550   2.7588153  64.1879320   9.9770373  20.8869338
  64.0761375   9.1376865  21.3332772  65.0376987   9.9057770  20.4521275
  84.0431404  43.2904816  26.8012953  83.8383293  43.8406944  26.0452843
  84.6925259  42.6674414  26.4751816   8.4294981  39.1879535  61.1266375
   9.1878575  39.4280720  61.6590548   8.5535485  39.6631408  60.3050280
  31.5276647  25.9167862  44.7250605  31.6461372  24.9870157  44.9192858
  31.7668748  26.0010386  43.8020706  77.8707457   7.7280092  26.8147683
  78.6127949   8.2502651  26.5100718  77.1758461   8.3675045  26.9709611
  21.7581892  25.2433968  57.7260303  22.0946217  24.3504667  57.8016758
  20.8491039  25.1339936  57.4470520  19.0665543   6.7222506  63.9964914
  18.1847739   6.7658961  64.3663406  19.4749069   5.9776092  64.4380665
  62.7424704   0.3774231  27.6501727  62.3205005  -0.1548226  26.9757128
  62.4118649   0.0238388  28.4759521  72.8845167  23.7708521  54.3934250
  73.7975073  23.8952565  54.1341877  72.6359797  24.6006680  54.8006916
  65.2259874  30.2072644  57.3444128  65.2239561  30.9568667  56.7491579
  65.9783077  29.6839666  57.0679998  75.7607841  50.9875107  71.8820143
  75.0624037  50.6908417  72.4655199  76.5025187  50.4184675  72.0875549
  67.9419231  46.3489866  48.3157396  68.8395452  46.6682196  48.4084606
  67.8569603  45.6741285  48.9892197  61.7695713   7.3726261  21.4773750
  61.9044542   7.9010165  22.2640395  61.8622732   7.9923511  20.7537866
  68.0301762  43.1654215  33.3296037  67.2742176  43.0374908  32.7565479
  67.9867983  42.4373055  33.9494419  77.8882170  49.1339064  72.9480839
  78.4602261  48.4799528  72.5463629  78.2704449  49.2881155  73.8119984
  87.8493500  25.1831746  23.2315302  88.0901909  26.0704827  23.4978271
  88.5192299  24.9340725  22.5947905  52.1704483  12.1477902  35.2753782
  52.7476406  12.9112911  35.2634168  51.4030695  12.4197543  34.7719908
  67.5956440  19.9162829  65.4097748  67.1351862  19.9040174  64.5706940
  67.8186750  20.8369446  65.5471563  88.4087086  50.0031328  48.6039352
  87.7807331  50.0246716  49.3260241  87.9259205  49.6072531  47.8783798
  89.2697048  10.1575100  19.6699429  89.2553997   9.3400759  19.1721189
  89.0983391  10.8376551  19.0185845  80.8969212  23.2975602  63.6713076
  79.9424791  23.2514524  63.7275028  81.0978317  23.0211115  62.7771950
   9.2485416  27.8156805  52.6014662  10.1925194  27.8883529  52.7423811
   8.9075935  27.4812102  53.4309959  76.9968700  22.3121858  12.7640486
  77.6127958  21.9235706  12.1428835  76.6356421  21.5656543  13.2420003
  84.8293209  18.1290329  60.7695818  84.5754623  17.7928770  59.9100590
  84.6289444  17.4149930  61.3747501  66.8083906  60.6667566  62.6334095
  67.2933483  59.8415136  62.6379442  65.8908606  60.4058123  62.7126646
  66.5871000  26.0157943  25.1120281  66.2358427  26.2950325  25.9575319
  65.8208561  25.7209516  24.6199226  75.1379395  15.2210653  48.5240364
  75.7285786  14.8385131  47.8751707  75.3332853  16.1578798  48.5028601
  76.6917133  49.2882776  59.9725103  76.9986486  50.1778603  59.7973967
  76.8278790  48.8212967  59.1481209  74.3615103  20.3148007  28.9718127
  74.7175169  21.1893725  28.8149285  74.1018105  20.0028682  28.1049275
  34.8064518  84.4213676   4.3738547  34.1292143  84.3968773   5.0498599
  35.6308246  84.4099140   4.8601753  81.8749142  31.0844350  73.1537580
  81.7610741  32.0166039  72.9684687  82.6051807  31.0504985  73.7716532
  76.5420866  45.6549263  56.4811659  76.4581966  45.6770849  55.5279064
  77.3126125  45.1100302  56.6411924  38.3731532   4.1766238   2.7309495
  38.3640766   3.2274055   2.8539696  39.1475010   4.3409997   2.1928063
  74.2175436  34.6714187  55.6033564  74.4199085  34.8894382  54.6935463
  74.7021103  33.8627934  55.7693481  29.7814226  46.6530037  33.9941025
  30.2684546  47.3768568  34.3878913  29.6929312  46.8970394  33.0727744
  47.2446918  80.4791260  50.0556660  46.8981886  80.0437355  49.2768192
  46.5964699  80.3021240  50.7373619  70.7722378  19.7073293  47.8369808
  69.8276424  19.5679879  47.9044914  70.8588076  20.5808520  47.4552774
  61.4264250  42.2868538  56.5694237  61.9132233  42.8578424  57.1637535
  60.6692600  41.9996548  57.0797682  19.9988282  36.4367676  34.4821334
  20.0891447  36.3268948  33.5355592  20.8456016  36.7819595  34.7650623
  50.0508404   0.9811406  32.6842427  50.4919815   0.3563224  33.2597709
  49.2522526   0.5308181  32.4091196  68.1284237  37.1992588  47.2593546
  68.7877035  37.6433206  46.7260742  67.2917747  37.4790907  46.8879509
  87.5554657  19.1132438  51.9802380  87.7249241  18.3325696  51.4529181
  87.1741199  18.7764728  52.7910328   3.0442241  19.1206312  30.2384377
   2.7938345  18.2101226  30.3949952   2.9436788  19.5464599  31.0897851
  15.1763213  72.0879364  37.6621556  14.4088435  71.5436411  37.8380919
  15.7385433  71.9635487  38.4267902   7.4604785   6.0858852  15.8677471
   8.1419319   5.4397947  16.0532749   6.7783737   5.5909556  15.4138637
  61.2690210  30.5699253  47.3282814  62.1997070  30.7800794  47.2515106
  61.0487652  30.7854795  48.2345152  61.3008165  43.8017464  60.6054926
  62.0917702  43.2631302  60.5829144  60.5821896  43.1705379  60.6426334
  10.9458983  38.5339522  48.6475468  11.4073086  39.3588996  48.7985325
  10.0882053  38.6615801  49.0528917  81.7928505  35.4768395  24.3178105
  81.8359280  35.4845190  23.3616114  82.0015621  36.3751364  24.5741916
  75.2651739  31.4742970  63.3632851  76.0932064  31.8681431  63.0885506
  75.4549932  31.0901880  64.2192411   4.3205258  38.3493328  11.9106424
   3.5490662  38.9053249  12.0199716   3.9740741  37.5220013  11.5763867
  71.7416954   9.8494798  37.2296572  72.1806908   9.0406615  37.4929547
  70.8755302   9.7942138  37.6333141  75.9559822  44.6548128  50.8233404
  76.7307377  45.1652145  50.5878162  75.2319288  45.1029491  50.3861284
  85.3429222  35.4387307  40.9483528  85.3943443  34.8060751  41.6648245
  84.7529697  36.1195517  41.2718821  12.2463763  19.7557378  53.5118198
  12.3001778  20.7001781  53.6580086  12.1581984  19.3822742  54.3887329
  73.8723230  60.4292297  45.8790493  72.9817963  60.1149654  45.7227659
  74.0762997  60.9627247  45.1109266  13.4442413  22.7175117  53.6714888
  14.2319548  22.1889257  53.5436678  13.6344719  23.5426497  53.2251787
  60.5777073  39.9619055  43.7643576  61.3124704  40.3851891  44.2084169
  60.7738400  40.0575542  42.8323650  50.8895063  63.9235783  53.8754177
  50.9617949  63.4261179  53.0608368  51.7372847  63.8058949  54.3039703
  10.6087971   6.5463495  59.4168663  10.2135742   7.4101126  59.5349550
  11.5317881   6.7275155  59.2393875  79.0488672  39.2087722  29.4026852
  78.2176399  39.2969155  28.9362907  78.8290691  38.7149334  30.1926494
  75.5923414  49.1015530  51.3635683  74.8933983  48.4790754  51.5641546
  75.1960993  49.7155571  50.7453299   8.2486218  57.7110767  58.1562567
   8.1355685  57.9706240  59.0706301   7.4584329  57.2119951  57.9494953
  68.9556456  70.3068972  63.4001255  68.0265570  70.4656315  63.2333088
  69.0840912  69.3840265  63.1809425  48.0275393  24.8422623  74.8746347
  47.5555134  25.1839495  74.1152477  48.5961771  24.1606808  74.5164061
  91.5975003  28.8835549  38.3514190  91.0491804  29.4425488  38.9019680
  91.2535291  29.0073037  37.4667692  86.6183662  37.2603774  37.2479773
  86.1553478  38.0970669  37.2903466  85.9269905  36.6008663  37.3051834
  71.6106033  26.9763398  45.8008242  71.7272568  26.0776401  46.1089897
  71.0852814  27.3967171  46.4816713  59.0403795  60.8628416  38.6928892
  58.1510115  61.0217524  39.0091181  59.4936228  60.4711246  39.4394565
  39.5292068  80.6690216  66.7051840  40.0273085  81.3488579  67.1589947
  38.6411834  81.0214710  66.6466808  83.2502079   4.3205652  58.5818863
  83.6786461   3.6354813  58.0687237  83.9687347   4.8700613  58.8949442
  15.1022243   4.7241238  45.8967924  14.6682477   4.1392294  45.2756691
  15.6024551   4.1398659  46.4665651  57.3369169  37.1975589  68.3800173
  56.7951918  37.0602489  67.6028967  58.2227278  37.3148966  68.0367994
  80.7946968   1.2569150  51.5620804  80.6387043   0.3634633  51.8680859
  79.9352837   1.6766480  51.6002512  72.8388023  35.1018047  52.3600721
  73.7037230  35.4114890  52.6288366  72.6494360  34.3751884  52.9537058
  64.1945982  41.3383770   3.6368394  65.0181866  41.0585165   4.0363532
  63.6802435  41.6848040   4.3659893  88.8741779  45.1800823  64.6010876
  88.1499386  45.5905962  64.1286612  89.0792561  44.3964672  64.0910673
  89.5708847  70.5028963  72.3738480  89.0203571  70.1789618  71.6609621
  89.3291855  71.4247561  72.4632072   6.5754837  24.4033146  50.1147985
   7.1217227  23.7063551  49.7513342   6.1345106  23.9974308  50.8611441
  42.7375126  72.6100731   2.1076085  43.4011984  73.0590916   2.6311889
  42.7711058  71.7013454   2.4064693  69.8987198  45.2987003  73.7193298
  69.1982841  45.9502220  73.6855221  70.1783609  45.2002239  72.8092003
  71.1784983  28.0031610  60.1336479  71.2718010  27.1452188  60.5477238
  70.7778788  27.8169799  59.2844868   9.5298541  29.8403764  24.0454817
   9.2663491  29.0616655  23.5551691   9.2389125  29.6692538  24.9411941
  31.0910702  71.9443512  32.0201063  32.0389915  71.8228579  31.9660878
  30.9805179  72.7320337  32.5526166  65.2055168  24.5152998  41.4044762
  65.8025789  24.8867965  40.7550621  64.4570494  24.2075109  40.8933067
  45.6936312  80.6753445  24.9088335  44.9526501  81.1149693  25.3258657
  46.2630653  81.3882256  24.6193790  85.1277828  20.8953595  59.7740412
  85.1372147  20.0248098  59.3761873  85.4349327  20.7528663  60.6693554
  11.2279201  58.3350039  55.6286144  11.7364252  58.1200457  54.8466635
  10.6856704  59.0783834  55.3648233  60.0959206  55.6052923  67.7255678
  59.9836588  54.6836519  67.4927378  61.0440922  55.7360983  67.7352858
  77.9298830  27.3633957  31.9806767  77.7691841  27.8020644  31.1452270
  77.3922157  27.8434038  32.6105499  21.8261886  77.5974512   3.8808525
  22.4260139  77.0515251   4.3891865  22.3471189  77.8953886   3.1351313
  66.0365725  17.1646070  20.4932904  65.3375912  17.4300611  19.8956406
  65.8488655  16.2465525  20.6886673  70.4006577  14.4945359  26.5084124
  71.0630655  13.9746845  26.9636011  69.6831083  14.5718074  27.1372080
  68.9080620   0.6860557  15.2218878  68.3203983   1.3362566  15.6067538
  69.6085310   1.2024866  14.8232913  67.1759129  32.5823951  57.9661560
  66.6163063  32.4319077  57.2042990  68.0656481  32.5842953  57.6131678
  78.4794331   0.3803224  55.0606728  78.7406445   1.0570139  55.6852436
  78.6294889  -0.4438394  55.5237818   3.9702836  39.9175954  72.4458647
   4.4853628  39.8022819  73.2443810   3.2727116  40.5233669  72.6961994
  63.8888645  27.8722739  48.7152815  64.4057369  28.1549263  47.9608393
  63.9762306  26.9190931  48.7219095  89.4384193  64.4312191  52.2998381
  89.4359112  65.0559855  51.5746546  89.7588348  64.9344254  53.0484009
  53.6666822   8.8266575  16.4486051  53.6877394   8.8424671  15.4917669
  54.4282341   9.3425113  16.7134917  78.5454941  16.1838591  27.4327755
  78.9956045  15.3560054  27.6009822  78.1234789  16.0586405  26.5828013
  55.6487131  44.5868826  62.9406214  55.2878284  45.4631138  62.8056622
  56.4362097  44.7304153  63.4654808  37.3954105  84.5705795  61.1564493
  36.9492984  83.9545822  61.7376184  37.0418549  85.4266739  61.3979816
  76.5681076  57.8635979  24.8653412  75.9554768  58.5953283  24.9394226
  76.0633183  57.1707821  24.4393969  64.9862432  12.5976431  14.2769611
  65.4122448  12.6573455  13.4218633  65.5298424  13.1347394  14.8533833
  56.0112572  50.3614807  57.6177073  56.6194773  49.6235800  57.6601505
  55.6587982  50.3304958  56.7283010  74.6862411  25.1308107  22.5092888
  74.3638039  25.5712414  21.7229772  75.3357601  24.5069265  22.1850586
  90.4938984  50.8351088  54.6895552  90.6357193  50.1139593  55.3027916
  90.5747795  50.4333401  53.8245249  10.8153927  41.6647053  43.3282232
  10.0747871  41.7051744  42.7231598  11.3297284  42.4472427  43.1299067
  90.3143978  69.0438080  51.4347267  89.5208073  68.5427237  51.6227627
  90.9528255  68.3864307  51.1581421   0.9203366  54.2832232  44.2443228
   1.2020446  54.3263817  45.1581097   1.2400213  55.0978088  43.8564014
  54.7153997  18.4674060  70.4419279  54.3392324  17.6860285  70.8471155
  55.4066420  18.1319952  69.8710394  15.2917504  31.0860372  35.5604053
  15.0644529  32.0147538  35.6056952  14.8421049  30.6926584  36.3082695
  84.2255020   4.0058064  44.2073584  84.9415588   4.2108369  43.6061430
  83.7125206   4.8126578  44.2528772  83.5386086  86.1931515  13.2834005
  83.1217194  85.5307293  12.7323782  84.3667030  86.3843918  12.8430402
  65.4587889  48.0045843  44.6849251  64.6785164  48.5550737  44.6188164
  66.0873938  48.5375786  45.1717567  79.8049736   0.1924459  38.7719846
  80.5280399  -0.4347580  38.7674165  80.2259636   1.0441573  38.6554193
  29.8462558  64.5419216   6.8358940  29.1332603  65.1009226   6.5270466
  29.4216442  63.7136650   7.0593411  65.7178926  37.9324889  24.1821957
  64.8165512  37.6374793  24.0526509  65.8223820  38.6597681  23.5686994
  77.8619003  51.9292831  42.9356003  78.6838436  52.2586584  43.2991314
  77.1922922  52.5158024  43.2875204  68.4370232  77.2545195  35.8527756
  69.1959143  77.7468061  35.5397749  68.5251856  76.3932848  35.4444456
  24.6854019  67.5156403  43.1189203  24.0262890  68.2036018  43.0266714
  25.4682589  67.8766394  42.7029371  26.0460567   3.3366624  34.3556285
  26.3695288   2.4366984  34.3964005  25.6125736   3.4737614  35.1979661
  73.5806513  52.9428959  38.1741142  73.1178951  53.3384800  37.4354649
  73.3813381  53.5145712  38.9155245  64.3571806  23.9553046  30.2961731
  65.0549412  24.2143011  30.8980703  63.7103367  23.5208225  30.8520961
  28.1050777  38.1401753  32.8513479  27.9001737  38.0242872  33.7791491
  27.8999710  37.2941828  32.4532795  39.8060226  63.5527229   2.4932207
  39.8394799  64.1969585   3.2003787  39.4540834  62.7634096   2.9047516
  29.1146803  42.6849079  70.7834435  28.9584589  42.6878119  71.7278051
  28.3678341  42.2102165  70.4185867  77.3325062   2.5565934  45.6090832
  78.0801296   1.9614753  45.6649923  77.6419449   3.3683249  46.0110474
  90.2028847  46.4063454  22.6913762  89.2820930  46.1499500  22.6400280
  90.1816082  47.3592186  22.7797914  73.4672832  49.6602011  72.7278566
  73.4299326  48.8958406  73.3028269  72.9461145  49.4113922  71.9645023
  66.8309307  49.0344143  52.5171852  66.6349840  49.8854542  52.9090595
  66.6226292  49.1442728  51.5894079  23.7777019  73.6584759  10.7207024
  23.4044981  74.3341351  10.1546323  23.4560585  72.8346729  10.3544736
  90.4030704  48.0980873  11.4593494  90.0817680  48.2061291  12.3545170
  90.4566765  48.9895535  11.1148894   4.1936618  18.9211464  33.4476781
   4.8916221  18.3923626  33.0610633   4.3086722  18.8160038  34.3921089
  85.4892826  54.6590710  12.8605604  85.1864910  53.7689209  12.6811731
  86.4108562  54.5553684  13.0976057  44.1951799  83.5781384  43.1906176
  43.3671808  83.8274765  42.7801609  44.3795490  84.2864323  43.8075161
  66.4305019  31.5816021  26.0659862  65.8885336  32.3026586  26.3862681
  65.8200264  30.8520532  25.9596109  87.9007816   9.1461867  40.2348137
  88.4724236   9.9108523  40.3036880  87.9083824   8.7617373  41.1113834
  74.5501804  56.5894318  35.3336477  74.4465828  55.7223034  34.9417377
  73.8184690  57.0987415  34.9851751  14.2712998  27.1350622  23.8092756
  13.3280861  27.2595596  23.7040186  14.3834352  26.1857939  23.8597369
  10.8911681   9.0451610  70.9796047  10.8997333   8.3663779  71.6544485
  10.2146983   9.6589237  71.2658119  61.8406248  36.4514780  67.0041037
  62.2269773  35.9565878  66.2815762  61.9433212  35.8818579  67.7664804
  74.2674160  57.7690220  46.9992352  74.5537233  58.5863781  46.5915728
  74.0208054  58.0190372  47.8896904  81.0389519   7.0096749  48.8285065
  80.0859165   7.0056874  48.7394381  81.3066101   6.1254215  48.5781336
  86.4376259  19.2185140  13.4991264  86.9870663  18.4347165  13.4973764
  86.9205379  19.8483431  14.0342367  44.9621916  81.2187576  47.0511675
  44.1069460  80.8630562  47.2925425  44.9216127  82.1385479  47.3130322
   6.6462016  42.7955866   4.2058396   7.2769123  42.6190281   3.5077977
   6.7259973  42.0461512   4.7959322  25.5621290  25.1273775  45.1525545
  26.1110711  25.9007573  45.0230265  25.4804397  24.7427559  44.2798424
  11.6243732  84.2974949   4.0967116  11.8558550  84.8127365   3.3239394
  12.1408844  84.6823978   4.8047355  87.3744965  58.6904049  26.5272474
  86.5533352  58.2076311  26.6213727  87.3796844  58.9784908  25.6144428
  25.0002050   7.6999003  27.5478172  24.6017051   8.5510504  27.3662329
  24.3119931   7.0655560  27.3473096  16.0689521  53.2962799   1.3039128
  16.0086000  54.0194273   1.9281328  15.4437375  52.6477289   1.6275199
  66.1056852  52.6074886  38.5149693  66.6113138  53.3817959  38.2679558
  66.6439819  51.8690252  38.2301259  86.0696125  55.9160757  38.3904552
  85.2492332  56.0043383  38.8756514  86.7523289  56.0259199  39.0523195
  86.7227650  43.1618929  53.7868786  87.6003838  43.2181358  53.4089088
  86.8574619  43.2920885  54.7255659  81.8921566  15.9682715  37.1457958
  81.8291855  16.8671513  37.4687243  81.6339302  16.0256159  36.2258720
  87.7712059  27.8305769  31.7484117  88.0706406  27.1856022  32.3891735
  88.5702896  28.1186295  31.3071394   9.0796816  49.4962406  49.3831015
   9.0906143  50.1798344  48.7131691   9.1810054  49.9689007  50.2092695
   4.6709049  35.4650760  27.2590995   3.9894447  35.5822468  26.5971971
   5.3331620  36.1204314  27.0396519   2.1599315  21.4017296  31.8158150
   1.9233364  21.0822415  32.6865506   2.5339159  22.2688413  31.9722962
  49.7483540  60.0718498  59.4654465  50.2580309  60.8750677  59.3591595
  49.9632454  59.7667074  60.3468895  69.4437027  12.2239101  35.9759474
  69.6554184  12.8505003  35.2839994  69.5571232  12.7170014  36.7884922
  70.5595541  23.0200100  39.9794006  70.5899811  22.7243209  40.8892775
  71.1213112  22.4043894  39.5085812  86.7178154  32.7385044  34.8881221
  85.9806824  32.5305915  35.4622698  87.0944881  33.5355425  35.2610493
  57.4193573  51.8512583  25.6978989  58.1896830  52.2100592  26.1384606
  57.4539995  52.2211123  24.8157215   8.4942645  34.9904823  43.2608175
   7.6133287  35.3625393  43.2188892   8.7803054  35.1528502  44.1597319
  70.0017262  43.7170887  54.3702459  69.9244976  44.3403912  55.0925732
  69.7230625  42.8812361  54.7443247  71.1470079  34.6361256  69.2203426
  71.7134190  33.8863158  69.4025326  70.6170893  34.7338152  70.0114679
  26.0787845  20.9199500  52.2629023  26.4648819  21.7916465  52.1774244
  25.5163312  20.8306265  51.4935541  10.8408630   2.7208850  60.4859638
  10.5436707   2.8800979  59.5901060  11.7957866   2.7042246  60.4221296
  84.9069214   5.7361680  71.7731571  84.6951008   6.5483725  71.3130617
  84.0619659   5.3038627  71.8972921  78.6837244  45.7388306  49.1733074
  78.3198595  46.3760471  48.5586596  78.7487221  46.2147760  50.0012445
   8.0095744  36.3932467  49.5300055   7.2715396  36.3237834  50.1355743
   8.7410045  35.9886694  49.9964380  54.4346666  46.7471457  59.2828798
  55.2109146  47.0708132  59.7399473  53.7324047  47.3375034  59.5559025
   1.3807957  32.8588104  53.6987162   0.9807187  32.0017600  53.8457966
   1.4372124  33.2496142  54.5706797  82.1237850  61.7546940  38.1348991
  82.8458023  62.3573494  37.9567909  82.5002193  61.0956621  38.7181687
  83.5131836  36.0283637  52.9784870  84.1071033  36.7374039  53.2249546
  84.0316010  35.2316284  53.0910921  86.8083191  31.5456629  31.3316417
  85.9611988  31.2814617  30.9727240  86.9453239  30.9612465  32.0772409
   2.2716317  48.5609150  11.5722132   2.4856289  48.2246876  12.4424922
   2.2786593  47.7875280  11.0082543   6.6776580  31.4237833  41.9919014
   5.8549905  31.7504525  42.3562336   7.2974783  31.4710903  42.7197886
  10.7716596  26.3001275  38.5191679  10.8449173  26.1742210  37.5731158
  11.2646675  27.1019816  38.6929607  60.9811306  52.6303911  74.0019560
  60.8722353  53.5811377  74.0231705  61.9132042  52.4998999  73.8274813
   1.3947307  28.6541390   7.9424965   1.9566974  28.2395220   8.5971081
   1.2172937  29.5255733   8.2965463  83.0544853  13.8975334   3.3971778
  83.5398960  13.3824599   2.7527335  83.0691528  14.7897637   3.0508518
  74.8010302  18.1110096  44.7387266  74.7058725  17.1585596  44.7348022
  75.6435251  18.2657790  45.1659060  75.3735447  11.6212368   5.5619597
  74.6103239  11.0640311   5.4094827  75.3226709  11.8482900   6.4904475
  44.4174862   2.5998536  14.1159725  44.6454906   3.4199497  13.6781514
  43.5325241   2.7450097  14.4506443  36.7041898  62.9789877   1.7878759
  36.9099927  63.5411596   1.0409886  36.2357450  63.5507154   2.3960845
  77.8132343  25.6273484  52.3016977  78.5921431  25.0719357  52.2693205
  78.0533314  26.3424945  52.8908920   0.5751260   1.4492723   4.4190019
   0.6404662   0.5073084   4.5760581   1.4480838   1.7866929   4.6198103
  60.5653477  37.8747201  49.1340685  60.2832508  38.7889981  49.1614103
  60.8422041  37.7364731  48.2282686  31.0511017  85.3221798   2.0431630
  30.3285575  84.9954987   1.5070271  30.7679343  85.1704693   2.9448453
  13.1892335  30.1358366  55.8018208  12.9528069  30.4138994  54.9169397
  12.5913107  30.6187057  56.3723993  45.0557470  74.1142368  49.6169376
  45.2945137  73.2647085  49.2460918  44.1926527  74.3024397  49.2483187
  16.9064009  68.3767653  30.0568247  17.3049891  69.0178871  30.6453204
  16.8189502  68.8388252  29.2231083  32.6578021   5.2721417  53.2445765
  33.4261322   5.7792109  52.9823112  31.9512606   5.6040889  52.6906443
  81.8434525  33.4226799  31.8611622  81.2606430  33.6674190  32.5799561
  82.5193787  32.8847361  32.2734308  85.6218433  34.2683029  53.7834549
  86.3785362  34.8085046  53.5557842  85.7927227  33.4265137  53.3610535
  66.5226507  56.8731737  32.0161486  66.4065552  56.9730234  31.0712767
  65.7351732  56.4132261  32.3069406   5.9309793  31.5484762  48.2794237
   6.4466602  31.3372111  49.0576744   5.7459331  30.6998801  47.8770924
  91.1433125  65.5612373  12.2756386  90.5624866  66.0083675  11.6600454
  91.5961266  66.2686825  12.7346683  78.1846285  17.1996415  33.5087919
  78.4459114  17.7694833  32.7854371  78.2133722  17.7644503  34.2810607
  27.5779366  70.8994007   3.8570946  26.9535446  70.2398109   3.5549197
  28.3446121  70.7777882   3.2970506  68.0208445  61.2020493  42.6546812
  68.5731268  60.4225206  42.7142906  67.2947693  60.9385109  42.0893574
  17.9483986  19.6713972   5.2895153  18.2876480  19.2938304   6.1010474
  17.5568521  20.5027342   5.5574733  83.4236622  21.9988251  12.2939241
  83.0288982  22.5463176  12.9726326  83.6276817  22.6074338  11.5838516
  14.2567110  20.3376746  49.0291309  14.2794430  19.6676886  49.7123814
  15.0753009  20.8211541  49.1404438  71.0172939  17.5125635  26.0331273
  70.2906609  17.9056382  25.5496740  70.6065893  17.1133459  26.8000555
  91.1555099  54.9948120  40.8886862  90.1988220  55.0000048  40.9195375
  91.3676834  55.2569485  39.9928641  41.1640406  60.4922724   9.2253208
  40.4618454  60.3059912   8.6020577  41.9604778  60.4972029   8.6943871
  11.4464140  39.8892426  35.9072185  11.8582106  40.7533073  35.9138417
  10.5601597  40.0437784  36.2341809  63.8613415  43.9794159  28.2630491
  64.1157436  43.1063843  28.5619307  63.0526304  44.1691828  28.7386584
   6.0012120  43.7211657  51.2038898   5.7819414  42.8901768  50.7824516
   5.1957840  44.2357969  51.1522007   9.8071355  55.0849295  70.6382942
  10.4957080  54.7923136  70.0412369   9.5598513  55.9504890  70.3128815
  32.5833893  55.3591013  29.5826840  33.0131435  54.5040560  29.5617056
  32.0036030  55.3545094  28.8210678   6.0914958  53.2637596  64.7878933
   6.7671067  53.4294033  65.4454231   6.5259808  52.7217817  64.1293240
  64.6744967  23.7062049  61.5519810  63.8816023  23.6957264  62.0881224
  64.7664499  24.6187949  61.2781954  29.9937701  60.8610153  16.8692231
  29.1224980  60.4983234  16.7092967  30.0182390  61.0181332  17.8131223
  85.8242416  31.8280149   7.3623538  86.6446114  31.6652203   7.8278923
  85.8747101  32.7479219   7.1026325  14.3493116  33.6533117  42.6818132
  14.2860436  34.4577217  42.1668816  14.5407701  32.9712796  42.0380688
  29.0585375  26.8646526  49.7007465  28.1098270  26.7429900  49.6635914
  29.3409395  26.3220596  50.4370070   8.3297706  46.4462662  18.0698705
   8.0232888  46.6426611  18.9551556   8.8874757  45.6754589  18.1749761
   8.2070035  68.3581972  53.4233809   9.1115469  68.4899712  53.1393623
   8.2833725  68.0023003  54.3086720  32.6108456  52.6207829  42.6784992
  32.5552750  51.6659212  42.7157259  33.5421634  52.8017282  42.5514650
  61.2963486  51.4786577  33.6528826  61.6148615  50.7143116  34.1330457
  62.0159578  51.7094040  33.0653834   3.8515773  40.7881117  62.7753162
   3.8548964  39.8469758  62.6007128   4.5382655  41.1393023  62.2084332
  87.0950794   3.4614873  13.3896410  87.0600700   2.5373030  13.6363983
  86.1806488   3.7444109  13.3904386  70.0741196  70.6431532  55.0194216
  69.6357012  70.1336813  54.3379116  70.9332800  70.8476162  54.6502733
   8.1507295   4.9011549  50.2926970   7.5534570   4.2663717  50.6883574
   9.0025121   4.7036210  50.6821537  80.8235168   7.1313202   2.8798798
  80.3835487   7.9575258   2.6797855  80.8468342   6.6640097   2.0448291
  77.9893637  42.6892567  64.5231152  78.1285477  43.0544901  65.3968763
  77.9296589  43.4540224  63.9505720  14.0133941  15.9729934  31.0644221
  14.6265876  16.6523993  31.3448334  13.9673722  16.0696733  30.1132298
  74.9796629  50.0641441  24.4543052  74.1163445  49.9820375  24.0491247
  75.5937529  49.8245525  23.7602401  78.9403963  58.7527704  26.4515948
  78.0349302  58.4803343  26.3027978  79.0395021  59.5495319  25.9304643
  40.0032902  15.6355190  60.8205414  40.1941824  14.6975875  60.8118010
  39.1583347  15.7121134  60.3773499  16.9030249  32.8261971  21.6634226
  16.5600550  32.1262002  22.2189450  16.1246288  33.2334065  21.2832737
  13.3146739  47.0193577  11.4863586  12.4809766  46.9097900  11.0290015
  13.2614517  46.4175606  12.2288132  72.9634047  29.0115499  50.7354164
  72.0544291  28.8191295  50.9655809  73.4411097  28.2124591  50.9578705
  83.1160450  73.0821753  36.5516186  82.4922085  72.4387503  36.8878579
  83.1467152  73.7610388  37.2257376  50.9145927  57.0814896  67.0407248
  50.3914595  56.4992142  67.5916481  50.4787922  57.9310179  67.1086454
  88.0359745  62.4252748  26.4643431  88.1481552  61.5259981  26.7724800
  88.8263988  62.6043081  25.9550333  84.7791004  53.7652826  68.3939838
  84.1975689  53.2059622  68.9089727  85.2026176  54.3300533  69.0404367
  13.3078051  57.5063181   3.5635468  13.4468484  58.4528208   3.5957918
  13.2057762  57.2478819   4.4795337  86.0617828  74.7663832  53.8805056
  85.4651451  75.2090549  53.2769394  86.7141628  75.4306698  54.1026592
  63.7856483  71.3175154  24.2734623  64.1000366  71.3076544  23.3694196
  63.2287693  70.5419874  24.3418574  73.7302542  65.0495195  46.9526625
  73.4153080  64.6844912  46.1257458  72.9355764  65.3159952  47.4149466
   3.2250151  54.7957325  56.9005346   3.8280016  55.0493670  57.5993252
   2.6561299  54.1387749  57.3017883  66.8816233  19.8531520  74.1536474
  66.6889048  19.1252899  74.7446728  67.6814413  20.2429581  74.5065928
  68.8002014  31.4867902  21.5176582  68.7727213  31.8339586  22.4092579
  68.4450626  30.6012273  21.5943956  76.6621542  54.6873140   8.9145958
  77.4730587  55.1060629   8.6259526  75.9982824  55.0027275   8.3013940
  13.3307624   0.4603158  71.8446207  12.6947093   1.1328807  72.0881844
  12.8415513  -0.1391294  71.2810850  45.7603598  11.4734399  10.5422413
  45.3516054  11.5668917   9.6817660  45.3167295  10.7232082  10.9379375
  60.5594540  59.6953535  36.6107512  60.6588745  60.3770685  35.9462094
  60.0441027  60.1091671  37.3031425  80.2239990  24.5578933  51.9957542
  79.8812342  24.6072674  51.1033964  80.8132935  23.8036776  51.9845867
  74.7195768  32.5830054   9.1770786  74.0679455  32.3731828   9.8460972
  74.3736744  33.3622241   8.7418735  82.1247292  52.4655294  64.5817280
  81.6408920  51.9337845  63.9497614  83.0173779  52.1213675  64.5506668
  69.7456264  59.7353840  49.1351843  68.8219404  59.7866964  49.3809557
  69.9274111  60.5737495  48.7105227  43.7374210   2.5871503  37.5571442
  43.3829784   2.1700114  38.3423805  44.6779633   2.4140628  37.5977778
  83.3820820   1.6695079  63.6217880  83.8051701   1.3362238  64.4130802
  83.3575535   0.9184729  63.0288458   4.7342816  48.8149834  61.8281841
   5.2668148  48.0421782  62.0163774   4.7909424  48.9193916  60.8783865
  36.0325933  71.6023636  49.8388815  36.3008714  72.4034548  50.2888966
  35.1910162  71.3757086  50.2346134  67.2668266  14.8654604  33.4446049
  67.5256443  15.6278121  33.9623523  66.4517641  14.5672655  33.8483167
  81.7327690   3.9356348  41.8501329  82.1733665   3.0875623  41.7965460
  82.4192619   4.5747069  41.6589785   3.8796875  14.7420919  15.5954051
   3.3913156  14.9177432  14.7911215   3.2873788  14.2064571  16.1231327
  54.6685839  24.8375416  20.3045058  54.1875458  24.0122271  20.3652763
  55.0613976  24.8221111  19.4317555  79.1772938  44.2952013  38.3028960
  78.8320923  43.7689352  39.0240860  79.2998171  43.6706734  37.5879216
  34.9919820  20.2509379   0.3735060  34.5673251  19.7754109   1.0874886
  35.4585981  20.9659910   0.8061750  10.8690214   8.4378737  11.0489404
  10.6473041   8.1549108  10.1618075  11.3793528   7.7134514  11.4108884
  64.9577188  77.5084734  19.8935735  64.3931103  76.8714142  19.4558525
  65.7540417  77.0197296  20.1014876  68.7964392  28.9513040  44.3921709
  68.8454580  29.5874643  45.1057053  69.4438124  29.2548442  43.7557697
  38.3116460  78.1149578  54.8280716  37.6881099  77.6194859  55.3590536
  38.7803102  77.4488878  54.3251419  47.2738457  69.0375710  34.4640255
  47.4519587  68.0972195  34.4483352  46.6071892  69.1437769  35.1426435
  28.4307361  11.8335950  39.7495484  27.7170086  12.4693644  39.8007703
  28.1590605  11.2232292  39.0640712  22.8177810  39.1205573  38.1102943
  22.5302601  38.2148743  38.2256269  22.4416971  39.3862247  37.2711205
  76.9671965  28.8269711  29.1579485  76.0930681  29.1068578  28.8862991
  77.5155115  28.9719439  28.3868718  70.2164888  10.2594590   5.9529704
  69.7647381  10.3082693   5.1104909  70.3505707  11.1727881   6.2061155
  91.1501711  16.8802357  11.3764405  91.0026647  17.6575446  10.8376801
  91.8489469  16.4057565  10.9260929  85.8422279  13.0108607  45.9527397
  86.5434742  13.6487734  46.0851908  85.0372791  13.5267889  45.9987259
   2.8273770  31.4366961  32.3968482   3.1554288  32.3325300  32.3187828
   3.1902072  30.9816861  31.6368794  64.9269152   2.2290333  46.3210821
  65.6286287   1.6101909  46.1189318  64.3035698   1.7225780  46.8418264
  27.7478337  59.9984932  41.8893385  28.0135393  59.1352940  42.2063971
  28.0767226  60.6080103  42.5500584  86.2753296  11.8288767  64.6192122
  86.3564301  12.6423967  65.1170444  87.1579742  11.4585090  64.6201324
  59.8914337  27.7467561  21.3363338  59.7829008  28.2706547  22.1300507
  60.2335167  28.3622742  20.6879902  47.4371433  77.5919867   7.5089377
  47.3675013  76.8050575   6.9684494  48.2320023  77.4583626   8.0252415
  25.0981426  80.0157928  28.0145907  24.8633766  80.9341621  28.1476879
  26.0297871  80.0360203  27.7958179   5.3473663  59.3371582  66.7988920
   5.5847710  58.8973475  67.6152468   4.9606442  60.1671839  67.0776987
  90.1857948  39.0113544  26.5253687  90.1897430  38.6777925  27.4225616
  89.6048737  39.7715402  26.5550160  10.8272588  81.9053364  20.6899214
  10.9672773  81.8534756  21.6354036  10.0462127  81.3744068  20.5339861
  50.2630424   8.1357175  38.4557700  50.6065369   8.9809340  38.1661987
  49.4364882   8.0383927  37.9829431  59.1926098   4.8890439  59.6560574
  59.7424555   5.1002115  58.9015341  59.4818068   4.0176621  59.9267817
  64.1644478  62.7447939  52.6482391  63.9278555  62.1819401  53.3854294
  65.1093292  62.8700781  52.7361488  16.1912811   9.5768046  39.2016149
  15.6541514  10.1158214  39.7822905  16.8525076  10.1786149  38.8598013
  85.9872246  31.1810017  53.6453819  85.2043343  30.6855536  53.8858938
  86.5377712  30.5492234  53.1827927  75.9537792  51.3235283  15.5115390
  76.1981630  51.5560675  14.6157515  75.3905010  52.0416021  15.8002031
  81.5083694   6.8060917  28.4739161  80.9621811   6.2100780  27.9613924
  80.9009743   7.2202063  29.0869498  44.5277262  80.0178242  13.9749491
  44.5104122  80.3891563  13.0928838  44.4165468  79.0766144  13.8408077
  35.4887843  22.2921634  51.9776201  35.7187486  22.7334595  52.7953053
  35.2036762  21.4194584  52.2484159  79.7831678   8.4192598  45.4316330
  79.9394417   7.6235127  45.9401560  79.0264225   8.2090819  44.8844576
  73.7533855  27.1837568   9.0731698  74.0351439  27.3336291   9.9756014
  74.5576048  26.9586945   8.6054039   0.8619955   8.0089289  15.2618754
   0.9516734   7.5704139  14.4157696   0.0661938   7.6364070  15.6415582
  72.4928284  15.4539609  24.6451879  72.1329689  15.4304790  25.5318546
  71.9072151  14.8952723  24.1341519  68.5599518  74.6556664  48.3005619
  68.5427141  75.4609966  47.7834749  69.3181181  74.7567320  48.8760614
  80.9337330  76.8475676  39.5148396  81.3721657  76.4816523  40.2830267
  80.3071690  76.1730766  39.2527080  70.7890987   5.4107678  30.1780653
  70.5643368   4.6092737  30.6506324  70.2837896   5.3601187  29.3666887
  82.7069950  23.6863637  17.3134851  82.7838612  23.0006909  17.9769421
  82.7199364  24.5038390  17.8112781  80.2475071   2.7205062  33.0972981
  80.4227352   2.5836644  34.0283203  79.9175358   3.6175090  33.0449986
   8.3432853  31.5271306  32.8947639   8.3129442  32.0360756  33.7048793
   7.5360298  31.0128617  32.9046154  58.3263397  62.9952955  24.2582703
  57.7457571  63.4781981  24.8464561  58.9015627  63.6642838  23.8870430
  72.9365396  43.5439062  48.5326290  73.3683157  44.3768215  48.7225056
  72.1696758  43.5356140  49.1054106  42.0370531  73.4255409  60.0452662
  41.4384508  74.1305876  59.7986794  42.8991127  73.7350416  59.7672415
  17.0878065  20.2015495  31.5324092  17.5121593  20.2048683  32.3903990
  17.6373386  20.7684326  30.9912181  63.8625765   9.8311847  39.2827988
  63.7521219   9.0560085  39.8333740  63.7085009  10.5684471  39.8735070
  69.8506737  67.5504112  51.3069248  70.6145620  68.1269693  51.2899303
  70.2020073  66.6815567  51.1122656  28.5302711  58.9797974  66.1487818
  28.9914179  58.2945490  65.6650400  29.1067886  59.1821957  66.8855953
  42.1084642  64.2349720  56.1891985  41.9400549  64.7211504  55.3820419
  41.2440491  64.1185951  56.5834951  37.4850416  82.2690487   1.3793421
  37.6671767  82.4265671   2.3057580  38.1875825  81.6853714   1.0929916
  85.7324982  29.4309044  43.4074640  85.7785320  28.9339876  42.5906515
  85.6586075  28.7637377  44.0898561  52.9914999  30.9554362  14.5821905
  52.7046394  30.2156281  15.1175630  52.2620392  31.5741682  14.6181071
   6.9822437  17.5557482  23.4771419   7.8618479  17.4978244  23.1040835
   6.6866404  16.6472256  23.5357714  39.1262770  68.4944916  53.0661535
  39.2221045  68.4662867  54.0181255  39.8227906  67.9255915  52.7383566
  89.6581078  25.0188613  17.8185189  90.4717541  24.5151424  17.8405046
  89.3582535  24.9500942  16.9121015  73.1061220  32.2710013  16.3814795
  73.4986019  31.5110135  16.8111408  72.5161839  31.8977571  15.7265806
   0.1521886  30.4454851  25.4978752   0.7118810  29.8716235  24.9747443
  -0.2767264  31.0116243  24.8561954  60.3806543  49.1242456  18.5666728
  60.5029821  49.7487831  17.8516769  59.7005796  49.5169306  19.1139686
  75.3065300  85.8079433  24.1304207  74.8907232  86.4648342  23.5720038
  74.9330807  85.9604645  24.9984670  70.3899193  10.7373583  33.3093071
  70.6329393  10.8943260  34.2217398  69.7924948  11.4535582  33.0939531
  10.3392625  43.6236954  62.8056908   9.4055796  43.8281155  62.8574610
  10.4002881  42.7101803  63.0849648  90.0705338  18.8132811  14.8029983
  90.2790165  19.7206485  14.5806253  90.1318455  18.3427894  13.9716685
  62.1905470  30.5283523  23.5810161  61.2989140  30.1921773  23.6716366
  62.0875502  31.4798999  23.5676813  58.0582285  62.4218702  14.0266943
  58.6664677  62.3799324  13.2887805  57.3307705  61.8551874  13.7699664
  65.1413918  33.3519316  36.1789417  65.0045395  32.7570105  36.9162154
  64.2607832  33.6356950  35.9335041  75.2754021  17.9815698  47.8093529
  74.8294830  18.7707794  47.5018883  76.2030458  18.2175267  47.8152990
  29.2286372  72.5511026  35.0407004  29.8760748  72.3547029  35.7178140
  29.6661091  73.1792784  34.4660282  75.1865625   1.1297549  35.7176876
  74.3332672   0.9852896  36.1266422  75.7616472   1.3733585  36.4430642
   4.9702549   9.0587598  70.1784039   4.5133945   8.9138287  71.0069561
   4.3694809   9.5987767  69.6648979  11.3258433  80.3838825  26.0920286
  10.9416509  81.2247467  25.8438730  10.6651390  79.7366190  25.8455610
  86.4946461  20.9353542  49.4593000  86.2002182  20.2952933  50.1072693
  87.2415352  20.5167317  49.0313482  74.8356676  21.4372993  35.1305103
  73.9974022  21.8009949  34.8454380  75.2549219  21.1402369  34.3229127
   4.7434783  19.2095339  23.3087230   3.9504901  18.7318945  23.5521626
   5.4609430  18.6437416  23.5939527  62.3277235  36.9190264   7.7146244
  62.1167326  37.8059769   7.4230146  62.9866648  36.6124845   7.0916820
   6.1793774  20.4171014  46.3503027   6.9627750  20.6732726  45.8635855
   5.4717755  20.9200978  45.9471560  10.9015334  31.1712003  17.1691799
  10.6337607  30.6405258  16.4189041  10.1060057  31.2634063  17.6934552
  75.2223873  36.7133880  25.9005666  74.6133661  36.1569524  26.3860631
  75.9984255  36.1671138  25.7757401  75.3330755  20.8759117  32.3829269
  74.6411610  20.2208495  32.2914076  74.9007845  21.7088532  32.1943450
  32.5850511  64.4626951  28.5564590  33.1886268  64.0918112  29.2001772
  32.9638290  65.3135014  28.3353519  20.1046205  41.5975237  46.9645739
  19.9551845  42.0034218  46.1106730  20.7914472  42.1298933  47.3659229
  12.6915348  36.2883973  45.4848623  12.2682703  35.4752016  45.2095556
  12.3747885  36.9451404  44.8647070   6.0063016  14.4223690  17.5102866
   5.4543996  14.9254525  16.9115019   6.1397022  13.5848117  17.0665133
  20.7135653  18.1833386  22.0076680  20.2194762  17.7127457  22.6789737
  21.5555358  18.3754051  22.4204969  91.2556553  31.7531657  36.9978786
  91.3136196  32.6065159  37.4276018  90.4576874  31.8036985  36.4716506
  23.6884809  11.4600003  25.7745004  23.3736300  12.3220754  26.0463977
  23.0001187  10.8552933  26.0514808  79.9816370   9.1304868  40.0605249
  80.1967335   8.9924878  40.9829760  80.1608276  10.0584793  39.9090338
   5.2210522  57.1465874  55.4495096   5.7565105  56.6737700  56.0866594
   4.4311744  57.3885202  55.9330320  83.5808468  47.7557802  47.4370575
  82.8964233  47.1093702  47.2640085  84.3963623  47.2556496  47.4046803
  80.8801842  11.3879299   3.9710304  80.2035141  11.8044508   3.4372988
  81.5593719  12.0563650   4.0611333  61.1367702  65.2030468   1.7300405
  60.2338028  65.1181984   1.4239657  61.0695696  65.7167101   2.5349414
  86.2023735  25.2486825  25.4109311  86.7256165  25.1315403  24.6180105
  85.6051254  25.9663224  25.1999259  10.7565808  28.5881090  46.9441366
  11.1336458  29.3389487  46.4855623   9.8180574  28.7735558  46.9760132
  17.9543853  29.6698141  58.5703659  18.2255590  29.4120741  59.4514275
  17.6560032  30.5742168  58.6665630  76.5091753   8.0405742  34.1233182
  75.9825182   7.2903365  34.3990159  77.1996737   8.1039286  34.7831917
   7.3389733   8.6938697  31.3378882   8.2231969   8.3982539  31.5546632
   7.4283212   9.1068220  30.4789829  78.6857367  32.9327583  36.9990635
  79.1307211  33.7790322  36.9538426  79.0199757  32.5288987  37.7999473
  22.1145725  23.2518196  28.8895774  21.7870259  23.1687570  27.9940057
  22.3827243  22.3648930  29.1297579  64.7904444   0.1595738  11.6364050
  65.0158119   0.6917284  12.3994589  64.2353773  -0.5374892  11.9860280
  72.5648117  14.3029833  51.9815731  73.4597826  14.2358816  51.6487694
  72.0426846  14.5466518  51.2172174  80.2817154  59.2319298  47.5543928
  80.6859684  59.9278593  48.0725622  79.8653650  58.6625576  48.2014656
  70.4662466  12.8831744  43.7871075  71.1714888  12.4420393  44.2606688
  70.8985519  13.2850540  43.0335569  33.7354946  15.0398803  25.5773687
  34.4146490  14.4059455  25.3469133  34.2166042  15.7896936  25.9274340
  77.0460320   9.7124815  40.2368307  76.1037922   9.6133006  40.1005077
  77.1283484   9.9864513  41.1502838  54.8289347  21.5527773  13.7656701
  54.8067808  21.5090227  12.8097272  55.6559515  21.1347175  14.0054655
  87.7082729  48.5607719  61.7004061  88.0814648  49.0448046  60.9637403
  87.9747963  49.0582657  62.4735165  86.5307331   1.1326300  48.8123798
  87.2779083   1.5832147  49.2059994  86.5021992   0.2844278  49.2550659
   7.1205801  43.0039310  28.5256052   7.9399687  42.6308346  28.8506198
   7.3593599  43.4222269  27.6984119  74.0558863  46.8042803  19.2789972
  73.7814713  45.9240770  19.0217602  73.2431364  47.2464514  19.5242631
  76.0220337   2.6077896  38.1295156  75.1223516   2.6990184  38.4433246
  76.1895752   1.6656631  38.1531692  21.7934346  84.5133686  49.4208765
  21.8091035  85.3974438  49.7874689  21.0389137  84.5116520  48.8318682
  23.1222725  21.4943695  21.4088607  23.3513451  21.6795611  20.4981136
  23.7648559  21.9844222  21.9218588  48.3573198  71.5643358  36.8810225
  47.4450588  71.4335489  37.1396828  48.3270693  71.6424942  35.9274983
  87.2314644  32.6543522  51.4235401  86.5541935  31.9988585  51.5904665
  86.9896889  33.0394030  50.5812120  79.5503950  72.6093912  47.2612000
  79.3991375  72.2294664  46.3957453  78.6754036  72.8228617  47.5853157
  81.2855911  16.5506971   0.1365685  82.1283150  16.6695487   0.5746490
  80.8298969  15.8971870   0.6671380  77.4892569  25.6324506  46.5448427
  78.3580351  25.7699180  46.1672783  77.4726486  26.1954165  47.3188114
  76.3213253   2.7450845  27.6154208  75.4951954   3.0213007  28.0122137
  76.4746761   3.3795205  26.9152737  86.0470390  15.9338140  12.1696174
  85.2908897  16.3994360  12.5269151  85.6681156  15.2255607  11.6490173
  74.5623064  12.7320528  15.0304198  75.0540113  13.5291135  15.2282810
  75.0252724  12.3430014  14.2884421  48.9826059  39.8744988  17.5228393
  49.1582632  40.5316114  18.1963253  48.4739637  39.2001128  17.9730821
  50.0122356  17.9938197  17.9855919  49.8427820  17.0533502  18.0406737
  50.9139872  18.0929971  18.2909536   0.1531518  32.1002150  40.9974241
   0.0767530  31.8970823  41.9296980  -0.1170908  33.0159140  40.9288836
  41.0605049  41.8100071  28.4809589  40.2362585  42.2412634  28.2554150
  41.7034960  42.5187445  28.5028005   4.0593365  18.1518447  43.1271505
   3.6710301  18.8523030  43.6513710   4.9998072  18.2239699  43.2900763
   2.3931296  49.9882317  35.0605392   3.0501330  50.4011583  35.6209588
   2.8870559  49.3564939  34.5378780  14.6579826  27.8167081  64.6180201
  15.3228199  28.4405375  64.3263674  14.2136908  27.5469184  63.8142490
   1.5772049  79.1366386  27.9078031   0.8663505  79.0922976  28.5472965
   1.2266146  79.6730804  27.1967840  12.9091120  53.9766407  73.5445023
  12.5658035  53.6396980  72.7169514  12.1556914  54.3904924  73.9655876
  70.9749031  10.7851064  51.7021847  71.6877937  10.9624815  51.0885429
  70.5830431   9.9713027  51.3853264  87.3200607  20.7550716  56.3573122
  86.6942406  20.5623937  55.6591368  87.1359539  21.6624236  56.6003084
  14.1626108  15.2009106  42.5767565  14.5288908  15.7236123  41.8634176
  14.9133861  14.9975014  43.1345987  68.3513975  70.6962729   8.8737279
  67.5172615  71.1106300   9.0945423  68.2021713  70.3000736   8.0152452
  70.9555817  25.6139183  28.3227944  70.1771736  26.1281610  28.1086254
  70.6110191  24.7883582  28.6633253  11.7624795   6.7984480  51.4195299
  11.6038728   6.9699246  50.4912663  12.7149880   6.8284726  51.5093040
  86.9006538  38.6516404  39.9567485  87.6983452  38.8632655  40.4416513
  86.6393852  39.4790816  39.5526290  86.2651443  30.0628304  60.9339809
  87.2150517  30.0463104  60.8172083  86.0689545  29.2589450  61.4151335
  90.8826923  41.4231968  56.0217667  91.7614460  41.0448837  55.9917116
  90.3946400  40.8486748  56.6116524  72.5724459  40.7360125  19.2621458
  72.4000645  40.9161425  20.1863050  73.4932470  40.9675455  19.1406965
  62.9562283  77.2641516  29.0583253  63.0152178  77.5632715  29.9656725
  62.1664047  77.6846790  28.7183666  49.8061562  73.7633038  18.8223708
  49.0854454  74.3875980  18.7383258  50.0009727  73.4998989  17.9229844
  57.0673895  10.7575190  35.2144933  57.5092793   9.9113810  35.1436734
  56.2775946  10.6605339  34.6824694  15.1785517  12.1294224  43.8208914
  15.6757832  12.0633912  44.6361446  14.3213904  12.4602985  44.0892696
  27.1404743  85.4999733  15.5752242  26.2496924  85.1512241  15.5418277
  27.3590827  85.6864166  14.6621633  30.8090843  85.5679030   6.9270074
  31.4715637  85.6870887   7.6075572  29.9881567  85.8306995   7.3432380
  19.1695952  25.5561781  38.6923838  18.7516749  25.3543496  37.8552222
  18.9600205  24.8078728  39.2512655  78.0858469  71.3057375  62.9573011
  78.3948708  70.8426857  63.7359667  78.1421471  72.2321510  63.1914473
  58.0198383  81.9044304   3.3212370  57.9369831  81.2771606   2.6029775
  57.9186726  81.3764381   4.1132075  79.0181112  23.7712002  72.3933697
  79.2925072  23.6059403  71.4913559  78.3638811  23.0957675  72.5722647
  23.0776548  74.3188416   0.2441574  23.6852312  73.8645994   0.8278919
  23.6041975  75.0085389  -0.1599431  18.4152937   2.0343715  58.5806465
  17.9612648   1.3650137  59.0925550  19.2367351   1.6189551  58.3181715
  73.0411673  11.5833640  66.1150646  72.2607279  12.1212113  66.2487078
  73.4514332  11.9473517  65.3305721  61.2828255  51.4893866  14.0886843
  61.5449715  51.6706371  13.1860983  60.9763622  52.3323441  14.4229543
  68.6593103  17.5745106  19.7906339  67.7953005  17.1865809  19.9293172
  68.4947586  18.5164595  19.7471917  11.9444430  53.1156397  70.7133675
  12.4942696  52.8548193  69.9745178  11.3552868  52.3732185  70.8473110
  62.8683043  78.0270672   9.6187723  62.5398970  78.9256430   9.6494520
  63.4706354  77.9667521  10.3602517   8.9421904  17.1917176   8.8111633
   9.0172678  16.2432706   8.9162457   8.6136878  17.5009692   9.6553683
  30.7851672  82.0852661   4.2737564  31.3438010  81.4874363   4.7705007
  31.2850428  82.2764397   3.4801531  32.7182531  85.3087330  36.8146849
  33.2670951  85.6269741  36.0979366  32.1764922  84.6271038  36.4170480
  30.0067449  41.1924887  20.7614303  29.8182225  41.8482828  21.4327168
  30.1939106  40.3930473  21.2534618  22.3051119  69.7630167  18.9797115
  22.5847650  69.1599751  18.2909679  21.3515043  69.6818733  18.9964306
  37.8475094  27.7659869  48.7426853  38.6337543  27.3944068  49.1426611
  37.7040291  27.2356486  47.9588556  17.5126255  85.6693268   0.0831060
  18.2544065  85.3284359   0.5828895  17.7396858  86.5830708  -0.0893720
  16.8292022  37.5247860  57.7026081  16.4883411  37.1920228  58.5328579
  16.2298930  38.2319307  57.4638462  80.2950668  54.6145344  65.7335901
  80.8987617  53.9583349  65.3854752  79.9324512  55.0419426  64.9576569
  13.8167334  55.8177996  65.2562952  14.3484592  55.0726843  64.9764633
  13.9881945  55.8953762  66.1948109  63.3533621  67.7494097  27.4780679
  63.8796997  67.9034662  26.6935515  63.9162493  68.0241251  28.2018900
  30.4513955  58.0702400  17.9502869  30.6688118  58.0564880  17.0182061
  29.5616126  58.4215403  17.9835224  23.4499645  48.6656475  17.2502458
  23.6106920  47.7228689  17.2898245  22.9487753  48.8566637  18.0430603
  12.7604818  61.5365601  69.7547150  12.4057102  60.9063959  70.3818226
  12.1630716  62.2829962  69.8012352  14.5733571  45.0234032  59.2851686
  14.7248816  45.0059271  60.2301407  15.0529647  44.2651463  58.9516306
  89.5070267   5.4499245  46.2731552  89.8582458   4.5966500  46.5277195
  89.6467781   6.0050118  47.0403433  10.1812935  47.0491457  62.7133322
  10.8364165  46.4169073  62.4178362  10.6779754  47.6867104  63.2262182
  90.3838062  34.8029041  40.3676128  89.6576118  35.4169393  40.4763842
  90.4848576  34.7169781  39.4196486  67.9192448  14.5659995  24.7049809
  68.3345175  14.7766733  25.5412793  67.5172663  13.7088788  24.8463678
  69.2465067  68.3894777  22.4038100  68.7233114  68.3559656  23.2046676
  68.6063099  68.3145475  21.6961670  80.1012039  11.5940654  15.2503121
  80.2454281  12.3893404  14.7375071  80.9692669  11.1981761  15.3275621
  82.3730564   4.3706775   9.3351567  82.1030903   4.5207617   8.4291631
  83.3280468   4.4321984   9.3138319  38.0082250  74.0558624  16.6984844
  37.4437428  74.7167063  16.2973881  38.1571317  74.3761158  17.5881469
  35.3642774  61.3118029   6.9345862  34.9513650  61.8618107   6.2688315
  36.2800694  61.5902138   6.9409657  77.8027678   5.4550141  70.4332113
  77.1878338   4.7643733  70.1860285  77.5101805   6.2230772  69.9425983
   2.3494673  49.7466230  72.3452234   1.4405265  50.0367546  72.4219179
   2.7523628  49.9990273  73.1760025  53.5932541  58.9758635  21.6315675
  52.7168512  58.7483692  21.9420481  53.8487577  59.7280788  22.1655393
  21.6006541  65.7904816  53.7667894  22.4816537  66.1335850  53.9162922
  21.1715698  66.4575529  53.2309341  42.2776270  59.8086452  20.4046798
  41.9954538  60.1601362  19.5602489  43.1333685  60.2095366  20.5570936
   1.7890665  29.6980929  19.5790541   2.5813589  30.0146174  20.0130105
   1.9930458  29.7438526  18.6449611  65.6705999  73.5152817  10.3985977
  65.4282951  73.8046980   9.5189613  66.5487242  73.8712025  10.5344462
  11.0317051   2.2470143   5.9107882  11.8228948   2.7790454   5.9956121
  10.7221210   2.4182878   5.0213760  54.6218872   9.2551154   7.7289706
  54.1674995   9.5183903   8.5292542  55.4752779   9.6849281   7.7856368
  26.4151835  58.4148407  11.1190581  26.9352341  58.7362671  10.3825378
  25.5315804  58.7411928  10.9488559  58.4200907   8.4917051  13.1395066
  58.8429022   7.6813030  13.4236026  58.8622808   9.1796732  13.6368978
   0.6414606  60.4002476  71.6971970   0.9206742  61.3138342  71.7574406
   1.3648418  59.9574804  71.2534523  31.6057944   9.1335160  60.4847193
  31.9145107   8.8895243  59.6121359  32.4039435   9.2172366  61.0064268
   0.2373142  37.0393991  58.3999300   0.0253508  36.9770765  57.4685764
   1.1309935  37.3817062  58.4197950  16.0570574  35.5048084  73.0370283
  16.3618040  34.6744156  73.4028292  16.8394923  35.8975577  72.6500177
  17.5493407  20.7673216  13.0035603  17.5234210  19.8797095  12.6462030
  17.7960467  21.3176632  12.2602618  34.7000742  52.9113436  71.5017128
  35.1547098  53.7009954  71.2084675  35.1602864  52.6525450  72.3001242
  40.1871824  44.1857529  72.7957869  39.9432063  43.3347750  73.1598568
  39.4615102  44.7638941  73.0311298  22.4256825   1.6446991  63.7240744
  23.0480099   0.9245314  63.6226034  22.6105189   2.0002890  64.5933390
   2.7381128  10.0946641  12.2950447   3.2935777   9.3692249  12.5804007
   3.0990130  10.3534937  11.4471114  87.8861332  17.8833830  26.4284420
  87.2342968  17.2604859  26.7499089  87.3840427  18.5046983  25.9010863
  36.7327595  17.3541605  65.2428484  36.3750958  17.0279777  66.0686302
  36.0170126  17.2532380  64.6153498  52.6015425  53.6106586  22.1807456
  52.5122786  52.6975489  21.9078016  53.4901524  53.8527966  21.9200397
  14.5249224  42.6537085  49.7480488  13.7461531  43.1549215  49.5061064
  15.2408385  43.2875776  49.7043610  47.9874039   4.6859595  13.3758640
  48.2402897   4.3602106  14.2396736  48.6815739   5.3010577  13.1391931
  73.6656284   9.8561192  21.8266320  72.7138424   9.8209274  21.7312193
  74.0009403   9.6911734  20.9453893  10.8599985  13.8340402  45.6439161
  10.2667797  14.4416308  45.2021503  10.3796709  13.0064821  45.6696844
  10.3920972  72.8406763   8.3931178  10.6601667  72.1089363   8.9489311
  11.1579514  73.4142494   8.3663887   2.4570985  11.2564325  43.2015085
   1.8662965  10.6664693  42.7333975   3.1688684  10.6923449  43.5038662
  28.8374519   8.0569714  61.8784523  29.5359874   8.6108828  61.5299416
  28.3358264   8.6364567  62.4518633  15.9434760  36.3283515  59.8814964
  16.4722311  35.6226778  60.2538872  15.0402677  36.0810971  60.0797653
  36.2397432  82.0580673  15.0131106  36.3522196  83.0066395  14.9515152
  37.0208097  81.6965580  14.5942044  33.3310556  70.6502867  62.5450468
  33.0808210  70.0384235  63.2373190  32.5474739  71.1803198  62.3991060
  14.9289012  84.3010330   1.0669990  14.8003602  85.2438831   0.9634013
  15.0246429  84.1746521   2.0109762  70.0507545  81.4367104  28.9494967
  69.9451399  82.1128082  28.2801962  69.2159939  81.4308834  29.4178724
  20.2025056  10.1246297  15.7892358  20.3905582   9.5218503  16.5086269
  20.2406144   9.5791936  15.0035644  87.1465683  79.5309782  10.7561147
  86.6111469  80.2788067  11.0212660  87.8783798  79.9185705  10.2760530
  46.3361359  38.6718178  73.1343842  46.7124176  37.8354645  72.8602362
  46.3611269  38.6436629  74.0908432  25.2053022  17.5343966  57.8910875
  25.6757879  18.1556809  58.4468603  24.4008374  17.3432326  58.3732986
  25.6953216  24.0181327   7.8654605  26.5627384  24.4020343   7.7372473
  25.2522659  24.6213174   8.4622031  15.1186168  38.2373786   4.4051293
  14.7355676  38.5389066   3.5813653  16.0043895  37.9607940   4.1703150
  89.5145988  36.3317704  74.5532894  90.3751183  36.4054012  74.1405821
  89.1687584  35.4965186  74.2386770  32.7886605  15.5889332   5.4033703
  32.1859956  15.9394252   6.0592538  32.4730253  14.7004175   5.2386063
   8.1137490  52.9993343  43.3757973   7.9720134  52.2760582  42.7650499
   7.8178728  52.6607466  44.2208099  41.4385033  78.8115597  10.0995135
  42.1799707  78.7476540   9.4975376  41.6980267  78.2854366  10.8558702
  19.9660041  54.5581909  74.4162882  19.4634177  55.2552005  74.8379750
  19.4105079  54.2659314  73.6936268  46.9838715  59.1810513  65.7386541
  46.7180586  58.4458065  66.2909174  46.7931652  59.9573231  66.2652159
  19.8052883  71.2808752  11.9804394  19.8539722  71.9739628  11.3220406
  18.8962686  71.2983131  12.2797906  14.6398830   5.6398004  42.6098347
  14.7476530   6.5705830  42.4142265  15.4904997   5.3673279  42.9539871
  75.6001282  39.4227743  21.5831923  75.5049992  40.3333902  21.3039756
  74.8736429  38.9653182  21.1598849  18.8259363  80.2942371  21.3369608
  19.0451777  79.4389582  21.7066503  17.8943646  80.4055214  21.5267491
  56.7558479   6.4843059  10.1847422  57.0940685   6.6215032   9.2998594
  56.0465908   5.8510280  10.0745511  66.0980320  16.4686155   4.4323227
  65.6755018  15.6105173   4.4692770  65.8263302  16.9043648   5.2401167
  46.4362812  40.0554466  49.6419764  46.2705851  40.8733320  50.1108408
  46.4606476  39.3873596  50.3270340  14.9949551  50.5669546  63.1795692
  14.5820177  51.3805342  62.8900814  14.2868483  50.0726891  63.5925102
  65.1964283  31.9176793   3.2700044  65.0425911  32.4685550   2.5024760
  64.4964170  32.1539569   3.8785952  88.2691002  13.2793951  11.7279983
  88.4530258  12.4197257  11.3493502  88.6795330  13.8993990  11.1251938
  60.4689312   5.0567013  22.1664858  59.8158121   4.7704220  21.5279651
  60.7952023   5.8870077  21.8195415   6.5238547  30.6686735  17.2996128
   5.7555175  31.1772561  17.5589085   6.1976612  29.7738671  17.2039485
  71.9506168   6.9422555  37.3804498  72.2220898   6.0316545  37.4959421
  71.0544538   6.9693738  37.7157021  19.6276963  37.7372217  68.4498692
  19.4823003  37.8945470  67.5169468  18.7816739  37.9205227  68.8583755
  47.5572634  50.7449007  24.9158931  47.2224140  50.5807734  25.7974648
  46.7791796  50.7351017  24.3584657  86.8131815  -0.1163800  62.9925060
  86.1830412  -0.0266392  63.7074184  87.1069132   0.7778614  62.8184700
  57.7542019  47.6524115  26.2979174  57.2686672  47.2359467  27.0099878
  57.3240852  47.3420048  25.5011249  59.9428606  14.4891882   3.4359607
  60.6434536  13.9407504   3.0829519  59.4412613  14.7611403   2.6674086
  50.2437115   8.5079640  19.8466051  50.4215622   7.9860514  19.0641677
  50.4673672   9.4034809  19.5931101   0.4099668  28.6795092  28.5157061
  -0.0937926  28.3241391  27.7834678   1.1804021  29.0742135  28.1072068
  41.6123056  45.0453711  70.2021933  42.1015835  44.2949724  69.8649406
  41.2534142  44.7420979  71.0361290  51.8369865  75.5140305  12.4578035
  52.3073626  75.3935957  11.6328955  52.2143602  74.8602533  13.0463600
  37.6698256  17.2587466  13.6907637  38.2560372  17.4227262  12.9520488
  38.1133342  17.6546693  14.4409490  48.6813879  45.4561949  63.4593296
  49.6237278  45.3285646  63.3500814  48.3831882  45.7787466  62.6088762
  74.6062517  42.6880121  24.3279815  74.6602869  43.3144569  25.0497031
  73.8990593  43.0201435  23.7749887  69.9675560  56.9375658  25.7090139
  70.6252623  56.2599611  25.5524588  70.4599476  57.7581882  25.6901979
  71.9899416  46.6401815  16.1252606  71.0597610  46.6303825  15.8996475
  72.2481823  47.5576401  16.0368693  83.2430458  77.6802492  49.6815205
  83.7992954  78.3420515  49.2706108  82.7724361  78.1548309  50.3667355
  61.4410830  74.1351318   2.2321026  62.3193264  73.7627983   2.1528137
  61.5869761  75.0776291   2.3136276  52.6511240  73.0704355  14.0787601
  52.5662184  72.1365929  13.8865089  51.9907188  73.2375431  14.7512007
  48.0493736  69.1740417  54.2296553  47.7669239  68.8124275  55.0697088
  47.6985455  70.0646019  54.2221355  39.7211695  75.8833504  18.3202910
  40.1132822  76.6337967  17.8738463  39.4125175  76.2357235  19.1550374
  22.7715087  69.9140310  71.1026812  22.0275426  70.4956770  70.9463692
  23.1863046  70.2624941  71.8918228  89.2327404   1.4845525  26.7574215
  89.7068596   2.1394145  26.2449813  88.5120392   1.9702037  27.1586299
  55.1248598  68.6626291  27.1688437  54.9414635  68.9539766  26.2756968
  56.0630941  68.8144493  27.2824025   4.5926836  23.3917093  34.6544886
   5.3116190  23.3524108  35.2852178   4.3032986  24.3038225  34.6776915
  12.9378533  56.4967012  62.5911331  13.1694961  55.7397175  62.0530367
  13.2933331  56.2933445  63.4562969  39.5354486  82.5541496  10.4473615
  38.7532187  82.0095539  10.5354881  40.1998377  82.1054554  10.9703279
  13.7015998   3.5091668   5.9512478  13.6346757   2.5589252   6.0450238
  14.1261339   3.6368120   5.1028913   6.0639483  43.8086128  67.6985788
   5.8887386  43.6224937  66.7761421   6.8737471  43.3350563  67.8888512
  27.9208565  61.5622234  24.5863938  27.5228119  60.8960104  25.1467109
  27.2654700  62.2582674  24.5392370  49.5909929  52.7133417  16.5500414
  49.5506096  52.8945589  17.4890637  48.8495874  52.1304131  16.3865066
  78.0198574   8.7291825  65.5838680  77.9794502   7.7765727  65.6683254
  78.9173889   8.9535546  65.8294773  72.6085138  40.2393961  65.2563143
  73.1938982  39.6130633  64.8305655  72.0123053  40.5201101  64.5620728
  41.2399292  63.3026743   9.7678703  41.2233877  62.3534775   9.8902607
  41.8123913  63.4368372   9.0125436  38.1690598  15.6278181  68.7155962
  37.5595307  15.3586686  68.0283833  37.7842879  15.2880919  69.5235348
  49.0915298  10.4009628  46.8831921  48.5566330   9.7708249  47.3659372
  48.4717941  10.8510458  46.3090944  70.0282621  11.1044204  24.3498611
  69.2876339  10.9046924  24.9224067  70.8004141  10.9443223  24.8924279
  50.7059336  82.7688789  13.4696150  50.2154064  81.9973660  13.1861031
  50.6218529  82.7690983  14.4231153   7.2325164   2.5726739  15.0227761
   7.9323363   3.1397027  14.6987963   6.4791417   2.7828908  14.4709909
  70.7149982  14.0221250  23.3090401  70.2936888  14.8012519  22.9461479
  69.9979401  13.5211873  23.6977816  18.4613132  24.3174267  19.3381763
  19.3712389  24.1331601  19.1051233  17.9538298  24.0006852  18.5909367
  42.4159956  72.6754093   9.7146893  43.0817318  73.2146645  10.1415789
  41.6966009  72.6393604  10.3450847  63.0429506  40.4210472  17.2490048
  63.6473036  40.7643986  16.5909052  62.8377104  39.5361519  16.9472158
  37.3593736  51.2424755  57.3875475  37.1505237  52.1764421  57.3695707
  36.9791269  50.9277630  58.2076693  53.6437988  29.8966098  69.5832539
  53.0631876  29.1793513  69.8375463  53.9476585  29.6596313  68.7070465
  73.3697605  61.0036898  31.6531491  73.4876394  61.8759346  31.2769485
  74.0379906  60.9450483  32.3359799  53.6801720  65.3067732  31.0179305
  53.5329628  64.4587040  31.4366651  54.6284389  65.4314613  31.0563278
  71.8215036  70.0244856  32.2936344  72.6684904  69.6132421  32.4660397
  71.5322781  69.6394825  31.4663792   0.4960608  72.7726936  59.4574451
   0.5644419  73.3703375  60.2020121   0.4791739  71.9004154  59.8512411
  13.0945706  52.4749184  62.5340366  13.8011110  52.9191971  63.0027056
  13.0423450  52.9290819  61.6930628   4.0270552  61.9448853  73.5282755
   3.0727828  62.0185232  73.5151386   4.3033823  62.5372076  74.2275810
  -0.0043189  25.5993700  60.2141428   0.7459177  25.3194904  59.6897078
  -0.2758872  24.8107028  60.6837082  81.1076927  22.7720046  44.5903921
  81.5798283  21.9434190  44.6726751  80.9368706  22.8582239  43.6525154
  80.4034901  28.1727219  30.2342796  80.1140404  27.3898697  29.7656775
  80.3961849  27.9162765  31.1564589  76.6800261  73.3222628  47.8316975
  75.8918476  73.6435413  47.3937607  76.3523102  72.8356266  48.5880136
  54.0325308  47.1684217  71.9448376  54.6448755  47.8846407  72.1130610
  53.1812763  47.5126028  72.2152710  32.9708290  56.3708544  65.0877619
  32.7253437  56.3663340  66.0129356  33.2187653  57.2781706  64.9101782
  70.1057122  13.3526258   0.4610849  69.7258679  14.0868215  -0.0215220
  70.1700268  12.6490955  -0.1847767  80.9674931  44.0226221  45.3513241
  80.1240540  43.6864185  45.0483227  80.8663750  44.1034603  46.2997293
  30.8301425  30.8023572  70.4776764  31.1593199  31.2702584  69.7102499
  31.6179967  30.5174756  70.9406662  13.3012807  12.5716996   0.9636173
  13.8609016  11.8344152   0.7197578  13.0748630  12.9861724   0.1310433
  22.5523162  56.3584995  32.4525213  21.9420934  56.9304752  32.9180408
  22.9239821  56.9127226  31.7662740  40.4980755  74.6613550  15.4339063
  39.5787120  74.3949986  15.4416847  40.4783344  75.5961990  15.6386304
  62.1873808  13.1719708  14.4843686  62.9269552  12.6079226  14.2582917
  62.5499392  13.8056982  15.1033795  29.0884662   3.0723611   5.8071470
  28.8943219   2.1352816   5.8276922  29.9322152   3.1323859   5.3591365
  10.0660443  51.4931774  64.6650314  10.2880657  52.4241257  64.6484756
   9.1143805  51.4756727  64.7663307  82.1986580  80.2863693  48.3296061
  81.9419098  81.0993671  48.7647533  83.0710411  80.0954533  48.6741829
  40.1041746  50.7298613  59.2340612  39.6621156  51.4659834  58.8110447
  40.3807116  50.1683331  58.5098791  54.4465017  81.4155388  35.1899600
  54.6239901  80.7635117  34.5120263  54.7751284  82.2368240  34.8242784
  22.0088935  64.3396759  51.4547157  22.1727896  64.6548796  52.3435450
  22.6758385  63.6680841  51.3119602  36.8818355  11.8392813   5.0296092
  36.4014292  11.6710615   4.2189661  36.3366866  11.4537776   5.7154894
  82.5084591  46.5845966   6.9293910  82.2070694  46.2190914   7.7611363
  81.7159843  46.9299746   6.5183687  44.3992138  53.6624956  25.6884813
  43.5075903  53.6154222  26.0334849  44.6847057  54.5550537  25.8835793
  80.8873177  71.6807175  24.1295457  80.7727909  72.4880075  23.6281538
  81.1666775  71.9748306  24.9965429  12.1710944  25.7896447  67.5547791
  11.6048086  25.4619265  66.8560982  12.3998427  26.6778445  67.2808981
  22.6400566  24.4237161  74.1626835  22.1750593  24.9893212  73.5461569
  23.4404421  24.1733861  73.7012148  87.1069241   0.6555308  33.3243585
  87.9833794   0.4013436  33.0354714  87.2400665   1.4749135  33.8009262
  85.9207058  19.7077835  25.5303383  85.9588242  19.8487890  26.4763284
  85.2337074  20.3013897  25.2271914  57.0595407  35.6126308   3.5963500
  56.5595484  36.3233972   3.1950396  57.9323101  35.9811878   3.7330037
  76.9546938  76.6985750  22.3420930  76.0342407  76.5452290  22.1288204
  76.9375038  77.4162436  22.9752469  29.5558095  28.2380748  70.9136105
  29.9230695  29.1213989  70.8806133  30.2655029  27.6721168  70.6098652
  48.3062935  78.2245445  11.0883379  48.4325886  77.6432467  11.8382549
  48.8074684  77.8167391  10.3821123  49.0373755  79.5608616   6.5491754
  48.4791231  78.9599991   7.0426834  48.4942102  79.8424244   5.8130175
  54.4405651  56.5830040  69.8238993  53.9775038  55.8821392  70.2827978
  55.2706528  56.6686821  70.2927732  76.9871283   1.1224778  18.1140864
  77.3791838   1.5234862  18.8897908  76.3029575   0.5496266  18.4604692
  80.4079151  77.3847342  11.0338771  79.6640825  76.7862415  10.9649599
  80.5994225  77.4218750  11.9709885  18.1083834  69.3968821  15.1972103
  18.2796657  70.0196695  15.9036326  17.2172427  69.5979834  14.9114513
  53.9493656   5.7976502  23.0856967  53.1941795   5.6039560  23.6410403
  53.6409426   6.4824951  22.4923205  50.1356792  66.4862776  29.0202212
  50.2952719  66.8101454  28.1337285  50.6510305  65.6817007  29.0776730
  76.9504213   8.0772895   4.1725415  76.0625648   7.7515125   4.0248445
  77.2402430   7.6305544   4.9679434  14.6010721  31.5265083  40.5868864
  15.0097334  30.7012439  40.8479738  13.7511873  31.2701750  40.2288055
   4.7878659  37.8880119  63.5400200   5.7012147  38.1305933  63.6922741
   4.5522991  37.3537850  64.2985296  39.5914006  81.3214302  70.7863951
  39.8557448  80.8061695  71.5485334  38.9260054  81.9219398  71.1223602
  76.2517834  11.2128580  13.5549152  77.0017099  11.1342835  12.9652846
  75.5915594  10.6287658  13.1818569  89.6412754  30.3123593  13.5574090
  90.5123138  30.7071853  13.5978651  89.2531109  30.5004692  14.4119155
  57.5792419  83.0448567   0.0832677  57.4071776  82.2692691  -0.4506754
  58.1502997  82.7310478   0.7844425  84.3418407  14.5655894   0.9714691
  83.9041328  14.2948675   0.1644052  84.2747021  15.5204320   0.9716590
  41.0399723  76.1839962   6.3483173  40.9503317  75.8962917   5.4397899
  41.3380718  75.4050016   6.8179339  75.4462481  17.1487880  33.8181257
  75.2368164  17.2399473  34.7476745  76.3748693  17.3731983  33.7587047
  11.3335419  36.2328982  19.4445455  12.2652531  36.2950730  19.6549785
  11.0176396  35.4983830  19.9707806  90.8452320  31.8471503  74.0840912
  91.5326881  32.5094724  74.0136433  90.5743313  31.8797779  75.0015736
  76.5423775  45.7993555  60.8110857  76.2813997  46.0656786  61.6926718
  76.0685062  44.9819565  60.6576824  50.8953714   6.4128143  27.0796537
  49.9852419   6.6647172  26.9233346  51.4004660   6.9474709  26.4670730
  34.6305728  34.2601466   9.2320383  34.1252565  33.4722853   9.0316361
  35.1243615  34.4380426   8.4315646  16.6522348   2.3096818  10.3501308
  17.1610308   1.5073782  10.2332270  17.0205820   2.9218507   9.7131056
  17.9411507  37.2509360  72.0577717  18.6167550  36.7411494  71.6106606
  18.3369422  38.1130457  72.1856260  74.7083855  56.5425873   2.5741717
  75.3440762  57.2465229   2.4453141  74.5523977  56.5306282   3.5185009
  29.5647120  34.3047404  65.7455158  28.8963270  33.9641976  65.1509333
  30.2540970  34.6328902  65.1681948  37.2080421   5.3439111  56.2132883
  37.4049568   5.6855142  55.3410721  36.2729692   5.1411700  56.1856318
  78.7126350  12.3846722   2.6017815  78.2729769  12.0325017   3.3756751
  78.0050945  12.7466416   2.0683002  22.3726630  56.7947912  20.3851295
  23.0404234  56.1120367  20.4497242  22.5199866  57.1935320  19.5274973
  56.0471487   7.1418321  72.9993916  56.6992903   6.4988321  73.2777643
  56.5015745   7.9825664  73.0532074  89.8100662   8.1346130   3.2155669
  90.0594616   8.8642436   3.7827301  88.8658237   8.2361811   3.0958834
  41.9289160  72.9827690  13.7406480  41.2311554  73.4126139  14.2352140
  42.7292824  73.1973028  14.2198324  24.7951913   5.5168796  21.7766929
  25.1230955   5.1709962  20.9465885  25.5714393   5.8675474  22.2133899
  65.8760071  74.5110416  35.6338429  65.2569103  74.9699402  35.0660729
  65.5301476  74.6379232  36.5173101  30.9251714  25.6584644  24.8628569
  30.8252001  24.9710512  24.2042971  31.1378288  25.1885486  25.6692004
   7.3515224  39.7298717   3.7343258   8.1837505  40.1803684   3.8781300
   6.8049216  39.9945569   4.4741914  91.1097622  14.1071558   3.3921376
  90.5593300  14.5235550   4.0553614  90.6797886  14.3110359   2.5616044
  68.7881231  71.5932512  11.3830948  68.8312674  71.1143541  10.5554318
  69.4595432  72.2707653  11.3030756  57.9987621   8.3260298  34.4021249
  57.8188276   7.5358677  33.8927126  58.3726358   8.0026066  35.2217865
  30.0990415  76.0134935  55.0436306  30.2537823  76.0348034  54.0992641
  29.2233634  76.3847446  55.1512909  23.1168842  72.0656443  27.6716995
  23.8648629  72.4671125  28.1139445  22.8434658  71.3592863  28.2569647
  68.1521177  74.9463129  18.4152150  67.8894949  75.4426956  19.1903698
  68.8459253  75.4724169  18.0176222   0.7819344  57.7482939  66.8818569
   1.6250096  57.4102545  67.1838284   1.0090682  58.4769773  66.3042164
  74.6916485  30.3076410  25.2586603  75.2330780  31.0964990  25.2305079
  73.7978029  30.6260037  25.1325130  50.1841497  23.2969022  74.3557644
  49.7425652  22.5809526  73.8989782  50.9690666  23.4655619  73.8345194
  67.7723742   1.9645676  11.7861259  68.0775785   1.0605918  11.8629932
  67.1654940   1.9503520  11.0460377  76.2018251  15.7611084  12.1717930
  75.9010506  16.3947940  12.8231049  76.4235067  14.9813676  12.6808071
   4.1149184  83.3115578  72.2226477   4.7244239  83.8244057  71.6918755
   4.4576132  82.4185848  72.1853018  76.1125183  79.4837761  52.7478361
  76.5480089  78.7403202  53.1647968  76.0998106  80.1629353  53.4222317
  21.8148685   7.2763687   8.2926959  22.6011634   6.7844230   8.5292608
  21.2402415   6.6281313   7.8854811  58.5957193  23.5576129   1.1948584
  59.3293238  23.3641386   1.7784894  58.8025093  24.4167304   0.8269079
  48.3465576  24.9821877  65.0922012  49.2467928  24.8549557  64.7928381
  47.9086637  24.1546845  64.8929071  14.9340403   9.1019136   2.4330924
  14.9964440   9.3528146   3.3547139  15.6299877   8.4557754   2.3131153
  24.7196770  26.3957882   8.7933356  24.9466944  26.7693281   7.9417717
  23.7774038  26.5426278   8.8757694  12.1397603  68.1099701  10.6988561
  12.5069559  67.2827864  10.3871453  11.1978340  68.0245161  10.5515265
  14.8814821   3.7291366  27.6996017  14.0422416   3.9104000  28.1227446
  15.3688312   4.5497188  27.7728653  55.4904127  74.4113398   7.3509240
  55.0868797  74.8280287   8.1123459  56.4305639  74.5376444   7.4789602
  79.2801380  32.8550053   2.5637943  79.5124531  31.9554734   2.7942333
  79.9836636  33.3868694   2.9358172  72.0691729  16.4626360   8.4235430
  72.7571297  16.2179363   9.0424681  71.4775276  15.7102513   8.4132957
  21.8609476  22.0016646  57.8947687  22.7366519  21.6475630  58.0496454
  21.4251018  21.9431090  58.7449694  79.4994783  20.5791831  35.2317667
  78.6877728  20.8737469  35.6448030  79.2131615  19.9871850  34.5362163
  25.5610037  63.7859488  60.2048206  24.8916054  63.6705160  60.8792210
  25.4148531  64.6711874  59.8713255  79.5415783  37.2481370  22.2550988
  79.5482016  37.4914837  21.3293719  80.3146744  37.6776886  22.6212025
  19.8128760   5.5761969   6.1816829  19.8594832   6.5134561   5.9929901
  20.7244062   5.2842337   6.1716169  55.8807468  36.5397525  66.1667919
  55.4908943  35.7282186  65.8417416  56.4979601  36.7996812  65.4828978
  33.2468677   9.9905807  12.8016531  32.5726032  10.2683747  12.1816301
  32.7684593   9.8102123  13.6108649  46.0037851  10.1563609  19.3012607
  46.6621494  10.7752275  19.6171570  45.1792383  10.6405187  19.3454516
  35.5100918   8.0408418  16.9854569  36.3908720   7.8601205  16.6571343
  35.6479049   8.6215639  17.7337897  54.3906498  77.2403622   0.0606623
  54.6688747  76.8477917   0.8881362  54.4319582  78.1837559   0.2172751
  69.9163055  79.2812967   3.0442473  70.7689238  79.3151045   3.4779859
  70.1035595  79.4973469   2.1307428  75.9264755  43.5375500  14.3753695
  75.3106833  44.2696714  14.3433464  76.5764475  43.7996197  15.0273573
  55.8313131  79.6807718  19.0038455  56.6831732  79.3770027  18.6903250
  55.7004976  79.2157459  19.8302042   6.2248254  13.3659828  53.8972330
   6.2076068  12.5434458  53.4079790   5.8340144  14.0064430  53.3028364
   1.9403401  48.3434963  62.7772903   2.7732271  47.9972315  62.4569273
   2.1828127  49.1148615  63.2895708  23.3078027   2.8402805  27.9907942
  23.8508177   2.5839680  28.7362266  22.8543019   3.6301544  28.2851887
   5.4398859   4.7120452  24.1647887   5.0655413   4.7404626  25.0452948
   6.2024891   4.1394275  24.2471147  86.5164280  54.8232985  70.2171373
  87.2286129  54.1921282  70.3202724  86.8262577  55.6095839  70.6665707
  87.7678680  27.7618837  20.8326912  88.1366348  26.9900274  20.4031801
  87.4028015  28.2825947  20.1172781  73.3179951  80.4716587  23.2687926
  73.5075903  81.3786221  23.5090303  73.9138412  79.9515152  23.8079071
  62.7478456  84.3763733   6.4960206  61.9760323  84.4460869   7.0578694
  63.4886789  84.4140816   7.1009803  90.6656933  34.8374820  44.5780897
  91.3774490  35.4117393  44.2954731  90.2901745  35.2786756  45.3400373
  66.3878345  29.2767954  20.6525970  66.8578911  29.5906496  21.4251065
  65.4676342  29.4613242  20.8407784  12.5583661  76.7483425  52.3995495
  13.0954885  76.4599562  51.6616011  11.6747582  76.4503336  52.1835423
  85.0768375  75.0253916   0.0503335  85.4746437  75.3889751   0.8414046
  84.4204426  74.4085169   0.3741225  11.6457474  30.6541371   4.5451930
  12.3215437  31.2764716   4.2764342  10.8720028  31.1947060   4.7043732
  84.8546314   2.5826925   7.4426889  85.7673168   2.2962044   7.4084008
  84.8985767   3.5342231   7.3484015  84.2145061  40.7722378  12.5063705
  84.1886997  40.1609039  13.2424664  84.5016766  41.5997887  12.8922701
  79.7991467  56.2366009  51.7759705  80.6237030  56.4927006  52.1891975
  79.7366285  55.2939653  51.9301128  77.4902725   0.3228611  62.3248816
  76.7514133   0.2906445  61.7171955  77.0899153   0.2616547  63.1921768
  76.2666082  32.3651791  20.7833409  76.6520977  32.3322821  21.6588688
  75.3269768  32.2580767  20.9311724  58.8368416  52.1834230  68.0006742
  59.6912432  52.0816231  67.5813055  58.5959768  51.2975454  68.2716703
   6.0072619  71.5216923  30.5560040   5.6122249  70.6601048  30.4224205
   6.2702203  71.8030834  29.6797013  46.5709734  12.9305005   4.1714379
  46.7078876  12.8304017   5.1134926  46.6679239  13.8696349   4.0137738
  90.2616501  32.7744675  22.8150511  91.1901474  33.0070090  22.8220129
  89.9133396  33.1551552  23.6212730  80.4573250  48.2214403  36.0181832
  80.6584072  48.5383987  36.8987155  80.9201431  47.3861217  35.9528112
  85.6011581  26.5401268  15.7554710  86.3351917  27.0299649  16.1262619
  85.5427742  25.7514167  16.2946904   3.0508661  83.4766388  -0.0880520
   3.8669553  83.9548206   0.0588340   2.3929226  83.9694405   0.4023448
  80.1042652  10.0369298   6.6355127  79.6970415  10.1361072   5.7749510
  80.8634949  10.6192899   6.6097671  89.2168713  24.6381640   8.8201743
  89.1832066  24.8005795   9.7628933  90.0431919  24.1738915   8.6864805
  37.5651288  21.4975595  21.1967683  37.0817161  22.0925951  21.7698979
  37.0142961  20.7165837  21.1429739  44.6245575  67.7105331  59.7458315
  45.1322937  68.5217428  59.7653055  44.2052841  67.6697063  60.6053495
  12.9185891  45.7138252  13.9121664  12.4745393  46.0738897  14.6798933
  13.1769347  44.8310184  14.1770053  53.4894419   3.5635400   4.9322811
  54.1647959   2.9144567   5.1292956  53.9750719   4.3279824   4.6224082
  22.5440979   3.9051881  45.7093096  23.3621669   3.9271003  46.2058163
  22.4532747   2.9918921  45.4375124  39.7479892  72.6931524  45.3556204
  39.3070340  72.0333433  44.8204184  40.6804085  72.5466537  45.1963663
  18.3051288  73.3449793  60.8268166  19.1116667  72.8507614  60.9733629
  18.6012852  74.1979790  60.5091381  68.0820704  38.0640817  16.0886395
  67.3394203  37.8433394  16.6507554  68.7054968  38.4947157  16.6735518
  56.7519569  43.4268141  68.7206602  56.1735535  43.6062288  69.4619370
  57.6330233  43.4456635  69.0942955  76.9721127   6.4160234  22.9547739
  76.2332869   6.7107970  23.4871936  76.5827656   6.1863446  22.1110392
  29.2467570  23.1895995  31.8168306  29.3137813  22.7862191  32.6822925
  28.3071280  23.2135296  31.6358495  78.7107277  82.1123505  67.6979923
  79.2896414  82.8465652  67.4930096  79.3023205  81.3735867  67.8410578
  79.0517139  85.3774548  34.6605968  79.9195910  85.0472546  34.8929477
  78.6397314  85.5799770  35.5005288   7.3814142  30.7096624   4.3859065
   7.5703478  30.5003715   3.4711754   7.0134026  29.9023938   4.7452316
   4.2016935  58.9696217  40.7254934   4.4474208  58.4329939  39.9719191
   4.2560065  58.3731747  41.4721727  11.4323092  33.8978863  36.0071063
  11.4405072  34.2462802  36.8986130  11.8401611  34.5835829  35.4782295
  62.1179056  83.5541534  10.3407240  62.2767019  84.4800377  10.1569963
  62.4960184  83.4139538  11.2088287  14.6089375  37.3744893   6.9967532
  14.8822320  37.6488566   6.1213875  14.6095419  36.4180326   6.9590616
  90.2194691  32.6532793  17.5973845  90.6826305  32.8677034  18.4071565
  89.2984295  32.8213286  17.7965760   8.4108162  39.2979550  28.0577326
   8.4877843  39.4846630  28.9933872   9.2547655  38.9140081  27.8198957
  33.1914163  75.3553915  59.0770483  32.5811696  75.2816010  58.3433008
  33.1620193  74.4973326  59.5002460   4.9126351  38.8130212  59.3051624
   5.2144271  39.1825533  58.4753466   5.4556614  38.0351162  59.4325209
  58.2489443  27.4642229   1.7647283  58.7157059  27.0678616   1.0290208
  57.7454329  28.1776071   1.3725671   4.3524581  25.4806948  11.9606864
   4.9045163  26.0838461  11.4630222   4.9655572  24.9938655  12.5114477
  81.7163658  67.5434685  62.3285484  80.9121799  67.4196720  61.8243694
  81.8777084  66.6919994  62.7349901  13.7220120  45.9053326   4.5452178
  14.4387448  45.3425694   4.2522651  13.7701535  46.6715956   3.9735886
  20.5250168  40.6695080  28.3286262  20.6921291  41.3745546  27.7031517
  21.3779664  40.2536869  28.4543324  85.2937794  74.7122049  11.7105007
  85.8535957  75.4876089  11.6707730  84.7195721  74.7920704  10.9488320
   6.9291973  19.9603927  14.9297822   6.0091794  19.7620595  14.7552443
   7.0124000  19.8932898  15.8809948  58.7771034  49.4634056  63.5210228
  58.5078573  49.1422272  64.3815947  57.9573059  49.6951818  63.0846310
  23.9367557  59.3792677  61.4232826  24.8094010  59.7645855  61.5023565
  24.0072441  58.7765598  60.6830072  65.8399677   4.9433210  10.6661725
  66.4103317   5.3275532  10.0003767  66.0269165   4.0052789  10.6293225
  67.8381300  30.7644844   4.4603783  66.9432068  31.0794735   4.3333772
  67.7454853  29.8183012   4.5716703   6.9239736  66.9470310  69.7162962
   7.7360386  67.0859146  69.2289639   6.2320614  67.2053003  69.1073751
  34.0264463  56.7548084  72.5988340  34.4422150  56.1457777  71.9885445
  34.2794085  56.4358282  73.4651423  33.2078695  63.8839531  56.0149288
  33.9530563  63.3725500  55.6996584  33.2667875  64.7119427  55.5382776
  55.1786089  77.1242142  65.0999546  54.6940947  76.6058779  64.4574547
  54.6411848  77.9052258  65.2319717  18.9129102  28.2281661   4.0296307
  18.8036525  28.2100773   3.0788589  19.4853473  28.9782333   4.1907111
   6.9873226  37.1843743   2.9374298   7.1675581  38.1235600   2.9784325
   6.2573504  37.0539308   3.5427037  11.7651534  56.4580011  36.0091734
  12.0452821  57.3732567  36.0173655  11.2074268  56.3712931  36.7822552
  91.0172381  84.9198723   3.6738142  91.5810593  85.5652142   4.1002801
  91.2692666  84.0844440   4.0672249  15.2112818  58.7637663  61.2870455
  14.6568704  58.4174728  61.9862890  15.3269386  58.0275917  60.6862974
  30.7742143  74.1043520  73.5163736  31.7237449  74.1573381  73.4076595
  30.4220438  74.3137169  72.6512861  26.7571545   5.9183514  47.9384518
  27.1925449   5.3071833  48.5327053  26.8411922   6.7700911  48.3670664
  16.4014137  36.8530321  13.4128165  15.6243253  37.1595240  12.9454553
  16.7451441  36.1452746  12.8676915  20.0652170  28.1600261  19.2744088
  20.6178999  27.3943686  19.1177464  20.1168966  28.3034039  20.2193975
  27.9001403  66.9476843  56.0954714  27.1757507  67.3759079  56.5516615
  27.8158855  66.0228109  56.3273001  84.7861671  83.2797909   1.1668530
  85.0991440  82.3788738   1.2483247  85.5831337  83.8097286   1.1513755
  23.5169339  75.4624367  50.9252024  24.4545984  75.2719307  50.9520531
  23.2553172  75.2518749  50.0288486  48.2851791  59.2795610  57.3541403
  48.0119228  58.3635950  57.4048138  48.6086702  59.4819164  58.2319975
  88.8972759  29.1272902  60.8084774  89.7104931  28.7764144  60.4454279
  89.1826248  29.7592473  61.4683533  29.2585540  45.7236576  16.0071146
  28.9209676  46.5504789  15.6626785  28.7717581  45.5861425  16.8197334
   5.0973970  67.6651239  45.1973677   4.2612123  68.0901337  45.3881454
   4.8979065  67.0499945  44.4916391  31.0153008  23.1796312  29.3343830
  31.8950248  22.8776932  29.1082168  30.8839130  22.8818464  30.2345467
  24.6437860  38.2837200  18.1133461  23.8930202  38.6435580  18.5856807
  25.4039764  38.7017703  18.5177910   4.6974364  44.1084051  18.7020433
   5.2296275  43.8014650  19.4360673   5.0487632  44.9749517  18.4973431
  12.2486830  15.0552797   1.7209435  12.2201645  15.3709626   2.6241392
  12.6140749  14.1730356   1.7870088  82.8914547  27.4852610   2.0333427
  83.3550930  26.9416666   2.6703516  81.9654751  27.3616743   2.2419360
  35.6960797  35.0435495  73.7862635  35.7999253  34.9717331  74.7351027
  34.8388362  35.4530835  73.6694622  90.8559018  47.3996258  64.2164278
  90.8182613  46.4487171  64.3193054  91.6657166  47.5561142  63.7306881
  75.8035851  55.8867311  15.5783570  75.5329800  55.4721880  14.7591138
  75.9084654  56.8117046  15.3555155  17.7158380  34.9111915  61.1194897
  17.9316270  34.0024924  61.3290930  18.0171788  35.4101729  61.8787289
  79.6928740  29.6213365  41.1912394  79.4233561  28.8748980  41.7264223
  80.6489658  29.5762491  41.1814642  44.5731735  80.1982880  70.5920744
  44.8261261  79.2850399  70.4570818  44.1734266  80.4611588  69.7630215
  10.8525515  84.6122074  15.0125968  10.4259682  83.9008522  15.4903305
  11.3862348  85.0567722  15.6712151  22.7931833   9.6315229  23.5187984
  23.3997154   9.7528267  24.2493033  23.1918645   8.9415336  22.9885149
  70.1479006  34.1913891  26.8191338  69.5578766  34.6956229  27.3793602
  69.5913363  33.5157585  26.4318442  11.0407794  80.8479214  67.8341389
  10.1788378  80.9802532  67.4394512  10.9143591  81.0542011  68.7602568
  13.7241912   9.4853890  17.0189142  14.1333437   9.1160446  17.8014815
  12.8063989   9.6057749  17.2626257  71.7553043  68.4472704  65.0315905
  70.8288765  68.2079506  65.0054502  72.2001791  67.6512909  65.3226948
  50.8027029  80.0430584   8.5467207  50.6484270  80.8209324   9.0827513
  50.2299166  80.1572990   7.7883697  19.1429055  29.5096278  46.7158270
  19.4173491  28.9725542  47.4591064  18.1940079  29.5879078  46.8143082
   0.8425409   7.0181382  12.5504076   0.9890339   6.5181231  11.7474401
   0.3491541   7.7877450  12.2666693  13.2737947  16.0595477  20.9814262
  12.9014707  16.8717194  21.3249159  12.5457489  15.4382384  20.9938860
  15.2341211  16.5307927  24.6561861  15.8342218  16.0318506  25.2104139
  14.4969165  15.9385991  24.5076299  43.0530834  50.4956818  65.3833914
  42.4898434  51.2583113  65.5152655  42.6306105  50.0049496  64.6784592
  79.1136932  83.9861012  12.6734519  78.5910892  83.7042618  13.4242392
  78.7928295  83.4543037  11.9451153  71.6609465  51.8077045   0.1263404
  72.3402869  52.2093766   0.6679988  72.1399151  51.3993614  -0.5948233
  58.4884167  74.4974899  72.2292328  57.8356838  74.0506458  71.6902542
  58.1913233  75.4068804  72.2604656  82.6549721  11.2710285  26.7225599
  82.2827911  11.6408455  25.9219670  82.7182865  10.3324020  26.5459156
  90.2472401  14.5862567  13.5408676  89.6181679  15.2910590  13.6950135
  89.8737431  14.0863574  12.8150356  11.3024533  52.2781563  58.6174154
  12.1922326  51.9773579  58.8019323  11.4181507  53.0132437  58.0153418
  80.5140305  23.7857389  10.5350530  81.3759613  23.4024882  10.6976378
  80.5740166  24.6710849  10.8939338  82.0875740  15.2785742  26.3810587
  82.3225975  15.2609539  25.4533267  81.7731190  16.1700320  26.5315866
  23.2621479  34.1745377   2.3130496  23.0776143  33.2548976   2.5039551
  23.9003897  34.4337273   2.9776549   8.4300601  35.1628327  27.3070073
   8.7230653  35.5711627  28.1216526   7.7387005  34.5584631  27.5771785
   6.0650194  48.4378481  50.4997873   5.7832026  47.9715681  49.7127724
   6.2997872  49.3122149  50.1889944  22.1839786  69.5863247   9.5943731
  23.0702138  69.3556738   9.3157756  22.1335483  69.2891693  10.5028808
  82.3503494  48.7266731   3.4244531  82.3809433  49.0318871   2.5177336
  81.9431114  49.4467735   3.9059561  49.0077400  51.1160707  30.0306225
  49.8427916  51.0508823  29.5672965  48.5715580  51.8697834  29.6332622
  73.7121916   4.1405639  65.1717043  74.1663694   3.4267312  64.7240496
  72.7858114   3.9905593  64.9831629  25.0865436  18.5018241  29.3840766
  25.2611303  18.1330800  28.5181785  24.5658445  19.2859066  29.2099524
  81.2849712  44.4476461  24.1581535  81.6597557  45.1870728  23.6795926
  81.6727066  43.6750364  23.7470961  71.0966015   3.7765244  20.6704807
  71.9982195   3.6932832  20.3600097  70.6573057   4.2928866  19.9947441
  68.9455795  26.8047023  54.8631287  69.1484118  26.7917323  53.9277554
  68.9155102  25.8815908  55.1145077  79.2990112  55.3677607   7.6386821
  78.8083887  55.8311939   6.9598961  79.1037703  55.8463669   8.4443176
  66.1090517  43.6133194  20.3086495  66.1916924  42.8505135  19.7363484
  65.1657629  43.7188578  20.4323649  49.8500395  84.8839474  11.7900026
  50.2831697  84.2034149  12.3052764  50.5666113  85.4215813  11.4527941
  79.8189831  80.3929901  17.7665639  80.6040668  80.0579453  18.1997168
  79.3675327  80.8958435  18.4444761  53.6367369  40.4995060  71.8627548
  53.3891964  40.4103661  70.9424257  52.8801060  40.9164047  72.2749949
  13.7322438   5.4015183  18.8144886  14.1643679   5.7732582  19.5834553
  12.8014016   5.4054612  19.0375328  17.7090335  64.0215731  71.0584831
  17.6954162  63.0694771  71.1562586  18.5206497  64.2946815  71.4861774
  63.7382746  55.2196836  55.7141113  63.5614347  56.0982656  55.3778744
  63.1356430  55.1194525  56.4510107  11.5760696  54.4533157  51.3826180
  10.6296921  54.5952225  51.3610649  11.8872726  54.7852373  50.5404711
  25.5697942  31.4903378   1.5603204  25.6423903  32.3308349   1.1080773
  24.7201204  31.5272903   1.9995479  54.3245840  76.8980551  37.1089578
  53.7019157  76.3799095  36.5990162  53.7767839  77.4395275  37.6772499
   2.5470805  15.7411337   3.6314926   1.6470604  15.8491695   3.9389399
   2.4568838  15.4483104   2.7246571  77.6667023  73.0751848  28.0543828
  77.0348358  72.3647594  28.1651711  78.4660530  72.6405764  27.7570820
  89.8999214  65.8431053  61.2447977  89.5346355  65.3658056  60.4998302
  89.6458721  65.3254223  62.0087957  31.1518192  61.3268232  56.5200329
  31.5774012  62.0145321  56.0080099  31.8051982  61.0750294  57.1726656
  89.4148064  14.3633091   5.5272758  88.7845325  13.7840831   5.9556311
  90.1218796  14.4613373   6.1649847  42.9145336  -0.2182377   2.2043595
  43.8195276   0.0550905   2.0543228  42.4016571   0.3012995   1.5852720
  87.1604919  73.1878614  56.6825294  86.4409542  73.7691545  56.4363623
  87.6738071  73.6951494  57.3113346  60.5247927  79.4170475  41.4838219
  59.5711231  79.3359470  41.4708328  60.8328533  78.7127113  40.9135246
  74.5455599  16.4510810   9.9790227  75.2475262  16.3756728  10.6253898
  74.9880552  16.3690948   9.1342098   0.9795865  22.6829529  25.8363891
   0.3168888  22.0693684  26.1535287   0.6394178  23.5459805  26.0724044
  29.6436167  22.7375913  67.8743315  30.3040171  22.4982858  67.2240734
  28.9957786  22.0344782  67.8277111  68.3532381  65.2650928  63.1682444
  67.5975370  64.8756742  63.6081314  68.9090681  64.5194244  62.9418325
  84.9315834  11.9469821  13.7258184  84.9249554  10.9936583  13.8116205
  85.5258369  12.2453082  14.4143629  17.8844070  25.2275515  14.6503496
  17.3893607  25.3971076  13.8488436  17.9069149  26.0716987  15.1010621
  14.1794038   5.6751078   1.6588293  14.5060039   6.4460212   2.1227877
  14.7739029   4.9706355   1.9167468  49.5918369  43.3136511  57.5119638
  50.0420952  43.5900116  58.3101654  50.0172997  43.8101101  56.8128586
  30.1588750   7.1658415  37.3159361  29.3617344   7.4049872  36.8430686
  30.5695105   6.4956665  36.7696071  84.8854923  79.4902086  69.5589399
  85.4122639  79.1020060  70.2575445  84.6570778  78.7526703  68.9931679
   2.8858924  21.5309930  38.0689669   2.2774372  22.2657585  38.1472874
   2.8062776  21.0643649  38.9009237  39.9612141  47.8134060  71.9682503
  39.6716404  47.0598602  72.4825907  39.1583562  48.3016205  71.7857742
  65.5570602  34.5273995  17.6590490  65.0779533  35.2403498  18.0814075
  66.4625168  34.8357439  17.6228595   1.5514880  58.2147169  17.3995006
   0.9905028  58.9885664  17.4513471   2.3748729  58.4882689  17.8037775
  25.6237698  23.6606359  35.7610965  25.5191445  24.0810490  34.9075508
  25.0923848  22.8665519  35.7037044  25.9310889  64.4821167  50.4745007
  25.3301549  64.0654707  51.0921717  26.5806293  64.9158573  51.0278511
  21.8412805  11.4075196  33.6953211  21.0571647  11.9445932  33.8091111
  21.5609622  10.5222118  33.9274549  21.7368937  24.7675061   2.3624419
  21.8482661  24.8012447   3.3125415  21.7297697  23.8330460   2.1551588
   2.1833980  73.1838751  56.8653250   1.5416577  72.9424000  57.5332260
   1.7014870  73.7522268  56.2645149  84.6591282  67.1685839  14.4030714
  83.9468479  66.7027617  14.8411429  85.2683163  67.3912621  15.1070142
  90.5876923  83.6277390  60.4933977  91.4517307  83.8199997  60.1291180
  90.7132435  83.6674213  61.4414978  34.8752427  71.4866781  65.2917099
  34.5492148  71.0886335  64.4845533  34.9533033  72.4180126  65.0849342
  63.8135195  29.8871279  21.5093112  63.2316971  30.0467253  22.2524428
  63.8089848  30.7101011  21.0205126  87.0383358  41.1182833  73.4117794
  87.9028225  40.7659864  73.2001400  86.4297009  40.4193878  73.1723356
   4.0141049  22.5935769  29.3931937   3.0615407  22.6876593  29.3920326
   4.1818324  21.8623114  29.9876261  64.1263533  71.9006777  13.8718331
  65.0467682  71.6424370  13.8230407  63.8039970  71.4881277  14.6731579
  20.7921410  12.5898349  14.6153820  20.4757833  11.7600942  14.9727070
  20.7890439  13.1888413  15.3619826  64.8925591  84.1498280   2.3748401
  64.1394901  84.4180107   2.9013404  64.5870733  83.3803654   1.8943946
  16.3343823  22.2317624  28.3882475  15.6553578  22.8073740  28.7401414
  16.9724214  22.8268409  27.9945207  81.3333607   6.3656294  12.3521256
  80.7608032   5.9929579  11.6816616  80.7579517   6.5152520  13.1022906
  25.8607388  50.7359123  12.8637195  25.0776076  50.1855230  12.8607810
  25.7206750  51.3478899  13.5862839  19.9684405  71.9891548  62.7141190
  20.0533152  72.4664640  63.5394716  19.2122960  71.4170074  62.8449774
   1.4649044  47.8030443  66.4388037   0.8777547  47.6551008  65.6974554
   1.7491467  46.9264984  66.6978502  83.3694458  46.6463995  14.2420745
  84.1623402  46.6579533  13.7059593  83.0608177  45.7416058  14.1937697
  28.1436920   7.1005476   2.8669605  27.4556470   6.8708599   2.2424039
  28.9021873   7.3092914   2.3216707  88.5612583  83.5448933   6.5640867
  89.1174221  84.2420387   6.2163669  89.0421391  83.2098770   7.3208898
  46.2051153  77.3152351  36.7598462  46.3195848  78.1563950  36.3176060
  45.4606771  76.9101000  36.3149738  86.0780811  50.0803089  26.7929840
  86.0818672  50.6091690  27.5908065  86.4354420  50.6595707  26.1199450
  85.0668621  51.0385323  73.0036116  85.1505661  51.0499668  72.0501471
  84.7413063  51.9107819  73.2259417  16.7845047  39.0519977  24.0543461
  16.2888718  39.0926385  24.8722267  17.4650812  39.7177601  24.1533804
  62.9536247  19.6283054  10.8407581  63.5723543  19.9798954  10.2006066
  62.2365856  19.2769694  10.3128862  18.9921319  64.0057659  74.0003967
  18.7084365  63.8518763  74.9015427  18.8840282  63.1589985  73.5673475
  52.8530359   1.5097602  49.7138166  52.6054287   1.5602076  50.6370592
  52.8857470   2.4215856  49.4244432  12.8018224  64.6494293   0.7093471
  13.4355485  65.0942945   1.2721255  11.9710934  64.7232103   1.1791109
  58.1353426  68.7577343  23.1564665  57.7691460  69.5511055  23.5472345
  57.3740101  68.2782269  22.8298497  75.2104712  82.4094677  50.5539799
  75.3374243  81.8714333  51.3354063  74.9128675  83.2545757  50.8908319
  31.5585232  63.5692644  65.0544167  31.6081190  63.5653353  66.0103226
  30.7198167  63.1526375  64.8563814  44.2003965  12.5022388  14.5217359
  44.6499968  11.7469072  14.1428375  44.8923206  13.1496048  14.6573269
  11.9375038  65.1269817  39.6611857  11.6315603  65.3296185  38.7771201
  11.1576676  64.8119497  40.1181746  87.1472073  69.5291710  74.0359116
  86.4733601  69.2721748  73.4065342  87.9645252  69.2052317  73.6573839
  33.7480950  67.1171522  39.3382645  33.1570244  66.3844299  39.5114136
  33.6477780  67.6905298  40.0981379  31.2102962  64.6513987  47.0980167
  30.9580278  63.9320469  47.6769161  30.6021738  65.3580236  47.3150492
  22.8151965  25.4733419  30.7084060  22.2821808  24.7734857  30.3311396
  23.5018659  25.6276751  30.0596404  15.9067690  29.5711994  12.1856034
  15.3403807  30.0269985  11.5629613  16.1439335  28.7568593  11.7419434
  69.4208193  24.0377665  43.7905884  70.1030731  23.4014082  43.5765648
  69.7742128  24.8765588  43.4943247  74.2610025  39.8340940  32.0472503
  73.8050508  40.5452156  32.4974155  75.0410366  40.2466440  31.6763282
  38.0306268  35.0960684  11.3200617  37.3727632  35.3238416  11.9770002
  37.7965784  35.6210732  10.5546713  88.6148930  43.6062860  48.3243847
  88.2937336  43.1501913  47.5465250  88.6028576  42.9420900  49.0135336
  91.2521362  25.1997185  25.6099033  91.8567562  25.4357791  24.9063849
  90.7583714  26.0017824  25.7805514  52.1859264  74.0187550  72.2134304
  52.2406244  73.5372019  73.0388641  52.9808807  74.5515776  72.1938562
  11.7039156  22.2647882  28.4562206  11.7915559  21.3128138  28.4082913
  10.8836174  22.4063063  28.9287829   9.8958868  71.1474276  13.3079648
  10.1078641  70.6204271  14.0783989  10.3132200  71.9927454  13.4737897
  76.4876890  19.0737784  60.6481123  77.1694994  18.4132671  60.7709551
  76.9502258  19.9096084  60.7087660  78.0141401  33.8979650  12.6273751
  77.9951715  34.3886352  11.8057215  78.8239145  34.1773129  13.0545259
  84.7955894  23.4425235  27.0011568  85.1222324  23.9692950  26.2717390
  85.3004074  23.7415195  27.7574587  24.5591974  30.4356742   9.2051637
  24.3541837  30.1279211  10.0880504  24.0882087  31.2651443   9.1252589
  88.0494595  23.7710595  44.3105841  87.5815868  24.3858933  44.8756552
  87.5079632  23.7093234  43.5236883   5.0170624  32.2202635   6.6782165
   5.7838511  32.1723962   6.1072737   4.3187720  32.5525045   6.1140901
  62.2822189  35.5735135   2.8064227  61.8295145  34.7923708   3.1243971
  61.9923735  35.6655312   1.8988137  78.8123226  72.6571989  67.1365309
  79.7005177  72.3157406  67.2402143  78.6836195  72.7062082  66.1892939
  62.1942186  29.9015737  68.3989859  62.4638987  30.1366782  69.2868137
  62.4368334  28.9798045  68.3111572  54.0160513  81.0566139  53.5365057
  54.1470909  80.1622772  53.8515139  53.2236385  81.0084915  53.0017185
  84.4883823  39.6096063   9.2846859  85.1369476  39.2982745   8.6532837
  84.7363186  39.1908455  10.1089418   0.7340905  83.2364368  37.7295208
   0.8764561  82.4732780  37.1695709   0.2807111  82.8887749  38.4975123
  40.3351879  66.5010786  51.2394094  39.5883894  65.9075069  51.3181353
  41.0899639  65.9229755  51.1283445  32.6032079  22.6176251  74.1874773
  32.8125347  23.5511435  74.2184521  31.9194330  22.5034655  74.8475150
  52.6839447  27.8780079   5.5187166  52.8699017  28.6332679   6.0766006
  52.7686834  28.2129717   4.6260518  27.1794391  72.4118710  32.7884078
  27.9341960  72.2746372  33.3608937  26.5409112  71.7580366  33.0730343
  29.3595934  63.2203484  58.0455685  29.4367075  63.0053425  58.9751148
  29.9954939  62.6495981  57.6141644  41.1152124  46.0169983  60.6244802
  40.8659744  46.8234015  60.1730156  40.9879446  46.2130308  61.5527105
  35.0385809  61.9312763  17.5447989  34.4064736  61.5017319  18.1211317
  34.5011806  62.3802662  16.8922329  29.7487235  16.9785321  36.0021830
  29.4186401  17.5544751  36.6917968  29.2198277  16.1845005  36.0797262
  76.3878107  28.3076644  11.3302708  76.3800383  29.2646575  11.3119555
  75.4686689  28.0626774  11.4370060  13.9619207  81.5490818  62.8955078
  13.9759934  80.9383202  63.6323977  14.0991473  82.4084759  63.2940626
  19.1322219  67.8889513  54.3245125  19.7396743  67.8179502  53.5881758
  19.6274984  67.5628376  55.0758982  11.3980019  25.9574032  46.8132591
  11.3983667  26.8973422  46.9942093  10.4748333  25.7069731  46.8489790
  62.6952362   5.5126238  67.0644283  63.5316372   5.1529551  67.3599052
  62.2165298   5.7001364  67.8718424   3.7481588  19.4665670  19.4106305
   4.4299507  19.2365050  20.0418687   3.2985556  18.6406195  19.2320228
  32.9486442  47.0176792  73.9229774  32.2085595  47.6236582  73.9589310
  33.2181525  47.0229959  73.0045176   9.6434605  48.9447498  20.7909822
   8.8481045  49.2658758  20.3661060   9.3282956  48.4569454  21.5518689
  17.7847016  50.0821590   0.8311945  17.4674499  50.6317329   0.1145660
  18.1901002  50.6967068   1.4429259   3.5905123  23.9006138   5.6372976
   3.8222373  22.9719567   5.6486136   3.1854749  24.0568161   6.4903963
   8.5634094  21.6133523  26.6493177   7.6690286  21.5367389  26.9816518
   9.0344423  22.0854688  27.3359513  35.3325343  65.1271248  65.1291084
  36.2014127  64.8689938  65.4367685  35.3737140  66.0815048  65.0683737
  39.5241547  36.3079190  14.1258299  38.6795855  36.6962743  13.8975406
  40.1689291  36.9635653  13.8600767  56.8044090  11.2836456  49.5154095
  56.8302822  11.7626739  48.6871004  55.8952284  10.9956717  49.5972490
  37.2046113  58.9359236  57.7706146  36.7492032  58.5169840  57.0403242
  36.9326353  58.4365606  58.5406160   0.8766911  32.3095632  45.5738401
   0.2599363  32.9204130  45.9772062   1.0048351  31.6279793  46.2335730
  63.0611992  14.2939532  43.2994747  63.9129877  14.0721202  43.6756039
  63.2707644  14.7528863  42.4860287   6.1031502   1.6555929   7.7061474
   6.0936201   0.7337531   7.4485576   5.8727914   2.1299024   6.9072747
  20.2617526  21.9026136  26.0180974  19.9523425  21.2979412  25.3436613
  19.8415422  21.5992045  26.8228316  65.7991123  41.0013866  26.3475347
  66.5503263  40.9888029  25.7544446  66.0478687  40.4144812  27.0616078
  64.9609518  24.0112877   5.4460186  64.9234724  23.0579543   5.3686547
  64.7719240  24.1843605   6.3682687  29.3443084  14.1364372  36.5834594
  29.8008943  13.4596491  36.0837388  28.4219027  14.0216124  36.3549614
  87.4460411  71.0502434  29.0098000  88.3276653  70.6893921  28.9162922
  87.2631454  71.4580679  28.1633592  15.6559157  56.4658451  18.8191307
  16.0422206  55.7742405  19.3564248  16.3792276  57.0693064  18.6491632
  90.3510475  16.9190276  36.2935662  89.4564152  16.6116583  36.4397883
  90.7079601  17.0443702  37.1728468  11.4200866  66.1139345  44.2268896
  10.9038401  66.7885399  44.6680546  10.8237183  65.3694010  44.1478586
   8.3051372  38.0125809  34.8946190   9.0393370  38.0501556  34.2816186
   8.4585631  37.2165585  35.4035807  20.8038402  24.8918152  10.6425285
  20.8091545  25.8479404  10.5974901  20.5606437  24.6960068  11.5473747
  32.1352816  69.0070963  11.2815440  31.3759708  69.3844748  10.8374059
  32.8373909  69.6412563  11.1362338  47.1582556  21.5843940  66.6548491
  46.8333197  22.1305943  65.9390879  46.8494511  20.7034659  66.4431047
  77.4749851  75.9012175  19.8900807  77.3963165  76.1788082  20.8027625
  76.7067623  75.3502035  19.7402608  43.7774849  54.0286016  19.0363991
  43.4064722  54.8888922  18.8402367  43.0657053  53.5527229  19.4643450
  36.6105437   0.8949500  48.3457708  37.2748923   1.2071841  48.9600849
  36.4433289   1.6434121  47.7729940  18.2517850  39.9665046   7.7157819
  18.8707781  40.6020975   8.0750865  18.3370888  40.0591326   6.7669010
   7.9851276  10.4108930  51.0784340   8.8512224  10.2488911  51.4524221
   7.7600276   9.5941448  50.6329203  35.5760622  80.0259876   6.4533490
  35.4638481  80.0148582   7.4038833  35.9324813  79.1626024   6.2441331
  83.5108280  34.9324679  35.2707958  82.8100681  34.3972659  35.6432724
  84.0328312  35.2030396  36.0261345  33.8421583  14.1810453  66.7517996
  32.9952288  13.8039517  66.9899988  34.4663429  13.7608862  67.3434877
  79.6827173  76.0310888  52.3767853  80.1425266  76.3794899  53.1406069
  79.7227526  76.7363501  51.7308474  11.4227188  43.8624048  70.8408260
  11.7561829  43.0064011  70.5719471  10.7938433  43.6670399  71.5355062
   5.6488699  29.7248626  59.1673660   5.4330003  29.1023970  59.8617506
   5.8200735  30.5467439  59.6271801  44.1084814  13.6363971  52.9948759
  44.6735859  13.4408522  52.2474480  43.5467911  14.3491817  52.6904583
  68.4784555  11.4882743  49.0165091  68.0412340  12.1740079  49.5213223
  69.2659235  11.2845612  49.5211124  14.3295288  16.7940331  53.0869055
  13.9401805  17.3384380  52.4026108  13.5863554  16.3384354  53.4823275
  68.7070036  52.4889565  17.4764824  68.9012575  53.1866312  16.8505871
  67.8232241  52.2011662  17.2476947  69.3068075  81.3404560  44.9729919
  68.8478327  81.5393257  44.1568899  70.2328157  81.3309765  44.7308111
  84.4659138  81.8090725  41.7881775  84.2799664  82.6618385  41.3951778
  83.6763477  81.2930202  41.6253424  81.8304253  42.6879454  28.4290433
  81.8649578  41.7400932  28.5579419  82.6067257  42.8869200  27.9055953
  70.7038784  71.3061237   2.6845461  71.5101814  71.3673639   2.1723396
  70.7892227  70.4845667   3.1682703  36.0524487  15.7352233  61.7668819
  36.5752053  16.4347672  62.1587944  36.6720843  15.0173426  61.6367722
  39.2372346  49.7263527   9.4112480  40.0236702  50.2711725   9.4416243
  38.5467744  50.3188086   9.1137683  59.1306639  22.6053190  12.9007220
  59.0559673  21.7914677  12.4024248  58.7593460  23.2736897  12.3248434
   9.5975786  21.8997717  33.5291767   9.2237878  21.9608879  34.4082522
  10.3899765  21.3747478  33.6418152  82.3495197  75.6338406  41.3740587
  83.0297852  75.6684351  42.0465708  81.6644192  75.0841236  41.7544365
  35.4529476   1.3419443  44.4541311  34.9074745   2.0874265  44.7050238
  34.8386741   0.7115342  44.0779877  83.0241299   2.0394725  68.1192493
  82.7971935   2.9620823  68.0029821  83.9726257   2.0085323  67.9941940
  69.9232721  73.4305620  13.5862851  69.3731499  72.7504730  13.1975985
  70.1116276  73.1109905  14.4686854   4.1768605  27.0675063  46.2151384
   4.0402210  26.1221004  46.1537552   3.4626034  27.4464989  45.7028532
  66.9086885  83.5607147  39.5136023  66.4591074  82.8047371  39.8912358
  66.6406870  84.2976093  40.0626040  41.5880966   7.4515474  53.1102514
  42.0006514   8.3151591  53.0958748  40.6541395   7.6304162  53.0008841
  27.4710464  21.7285728  66.2170935  26.7401481  22.3461723  66.1928272
  28.1981039  22.2019053  65.8126497  18.7625682  26.0096693  50.5505896
  18.1630206  26.2001824  49.8291492  19.3881714  25.3850722  50.1835346
  30.4642272  42.1726179   3.0785567  29.6752596  42.2956610   2.5507095
  30.5489516  42.9860878   3.5758719  61.1977339  77.5963211   7.5565016
  61.7141247  77.6938057   8.3565468  60.2912092  77.7128649   7.8408575
  61.4598751  34.6599269   5.5193061  60.7133484  34.5904350   4.9242416
  61.9063616  35.4628706   5.2506751  79.5412779  39.1094470  46.1002350
  80.3896713  39.3863344  45.7541227  79.0767717  38.7562513  45.3414726
  30.7413006  11.1538637  57.1982956  29.8213077  11.3243794  57.4002123
  31.1937904  11.9611394  57.4428177  71.6023922  32.9209304  53.8309479
  71.4841795  31.9716454  53.8643360  71.2513971  33.2354498  54.6640825
  34.0184188  45.5857325  30.3595591  34.1244769  46.2503481  29.6789193
  33.1056261  45.3079462  30.2829099   8.9581758  24.4233704  59.9708462
   9.3890435  24.0105486  59.2224073   8.1386137  23.9393735  60.0723171
  90.8262359  36.8570495  55.8050156  90.5006579  36.3718653  55.0468397
  91.7760002  36.7423749  55.7729340  24.4709325  34.8525524  63.5482693
  24.5726895  34.2251682  62.8325415  25.3441215  34.9186444  63.9347982
  29.9935055  18.2507610  50.3161764  29.3550253  18.4924960  50.9871006
  29.8366714  17.3193669  50.1607990  43.8677359  13.0636740  55.8434010
  43.2648182  13.7949467  55.9774113  44.1054916  13.1158340  54.9176693
   7.8419286  51.8819094  20.1949716   8.0207551  52.5169039  20.8885407
   8.5119426  52.0546198  19.5335460  16.0070550  32.0869756  50.1111126
  15.7371283  31.3397765  50.6450272  16.9170439  32.2447753  50.3626108
  41.7518282  67.3599768  21.4352059  42.6272154  67.0470524  21.2071657
  41.9050932  68.1824303  21.9003057  66.8730879  58.4987450  68.5042429
  65.9264088  58.3575726  68.4942913  66.9730425  59.4452810  68.6057615
   4.3198633  63.2892513   4.7442612   4.9069062  63.8997650   5.1902318
   3.4523046  63.6841583   4.8315772  64.1709375  60.0985479  17.8587222
  63.6276245  60.7414818  18.3144414  63.8546324  60.1149225  16.9554424
  83.4872437  44.7475624  47.8683615  83.7409592  43.8572168  47.6251650
  82.5405312  44.6990252  48.0010796  60.5995798  35.2363372  13.1203413
  60.1476669  35.1515603  12.2808063  60.2460146  34.5258188  13.6554909
  14.6166825  20.6882715  58.4883976  14.8936713  19.8772466  58.9147186
  14.1759455  21.1834049  59.1789246  38.6555433  74.8135281   2.5395909
  37.8018069  74.4496822   2.3051012  38.8807034  75.3872919   1.8072465
  29.8938203  41.1457062   7.1781105  30.0519633  40.4260683   7.7891326
  30.6054091  41.7634392   7.3462707  58.8958168  47.0758009   1.3268033
  58.9379883  47.0392418   2.2823748  59.2158270  46.2204695   1.0400371
  67.4802828   9.2626113  64.4037104  68.3869600   9.2456126  64.0973139
  67.0769882   8.4934580  64.0012312  90.0542259   4.6571377  69.9915648
  89.8201275   4.0061855  70.6531477  90.4984188   5.3484881  70.4824495
  38.9029717  15.8249462  51.2537956  38.6405778  16.7404687  51.3497066
  38.7832785  15.4488695  52.1258450  80.1028252  67.8312206  54.0759563
  80.7256889  67.8739262  53.3503914  79.7270823  68.7104321  54.1211176
  64.5886898  70.3913689  43.3774185  64.6717072  70.6302023  44.3006182
  63.8665152  70.9303331  43.0545998  33.1961942   8.4885174  48.5262012
  33.1299639   8.8576233  47.6455164  33.6523342   7.6560116  48.4033060
  51.6784430  22.2395515  60.3840160  51.1852264  22.9992199  60.0743866
  51.7884111  22.3917198  61.3226223   9.8005760  13.5835588  69.9297667
  10.2996862  14.3259871  69.5892954   8.9426988  13.9499116  70.1443958
  72.2209358  69.4914913  39.9678826  72.7873421  68.7224627  39.9045539
  72.2034025  69.8497772  39.0804386  64.1732788  46.5261507  10.3280604
  64.4211769  47.4083376  10.6046963  64.8776054  45.9660482  10.6543112
  49.3757486  36.1792421   7.6231802  49.9417496  36.0303950   6.8657351
  49.0302753  37.0625424   7.4941230  86.0689831  10.0268948  46.8109703
  86.7100239  10.7358193  46.7587519  85.4127979  10.3426147  47.4322319
  22.2510910   4.6301436  56.3950920  22.5030088   5.3140032  57.0156574
  22.7915406   3.8775998  56.6355515  19.4694448   3.4926888  46.3537693
  20.2785063   3.7115547  45.8914423  19.7559321   2.9737100  47.1053171
  41.7026758  44.5221567   0.1850885  41.1594534  44.6042299  -0.5987502
  41.8579340  45.4244232   0.4644503  36.5882254  23.4319592  64.3345594
  36.0554075  22.6684999  64.1121578  37.0994210  23.1540775  65.0946236
  20.5666947  26.1467361  66.5589333  20.7331419  26.4332294  67.4569559
  21.2198734  25.4653287  66.3999605   9.2842603  18.6357307  47.0071077
  10.1465225  18.6696887  47.4213314   9.4165611  19.0317440  46.1457729
  12.3944902  42.0139456  58.7259960  12.8063941  41.8379259  59.5719194
  12.3202813  42.9675674  58.6895370  27.0210409  39.8571014  22.9727650
  27.0184994  40.4363060  23.7348318  26.9295764  40.4461956  22.2238803
  12.0730054  40.4820061  73.5318947  12.9360366  40.7765436  73.2409334
  11.8496799  41.0704374  74.2530775  61.3457966  38.8715291   5.4616934
  61.4437437  38.7517858   4.5170775  62.2175598  39.1283131   5.7622391
   6.0408723  19.9851489  49.1565180   6.5976077  19.2111850  49.2417145
   5.8371866  20.0320196  48.2224131  30.8472800   7.4352038  64.2549324
  31.6975713   7.8562343  64.3813086  30.2158356   8.0576718  64.6155453
  16.5640712  64.4022036   7.4567044  16.5787172  64.6819162   8.3720064
  15.7239103  64.7172642   7.1233904  77.3815203  41.2616539  35.7993770
  77.0471525  40.4153872  35.5022883  76.9414139  41.9024992  35.2409387
  61.8677902   0.7542836  13.7053943  62.0472050   0.1150222  14.3948781
  62.4493647   1.4885882  13.9023650  15.6582355  42.0160484  68.1942415
  16.1388302  42.0110130  69.0220308  16.3394356  42.0143461  67.5217867
  60.2654839  56.0567570  15.1108968  59.9381971  55.1666784  14.9809921
  59.8300219  56.5734053  14.4329035  30.7337737  22.1730351   8.6107969
  30.5408025  21.4587975   8.0034602  31.5298438  21.8941784   9.0632832
  88.6658096  21.2192559  73.6179018  88.3939838  20.3020597  73.6509609
  87.9705143  21.6576004  73.1273460  13.9001644  20.4458499   7.1626985
  12.9810274  20.7055545   7.0996660  13.9253545  19.5627904   6.7941839
  32.8219295  27.5424027  48.9251471  32.2851753  28.2575417  49.2667675
  33.7127495  27.7589297  49.2004395   8.2517135  46.1265230   0.4866287
   8.0085272  46.1950302   1.4098829   8.8282037  45.3634357   0.4467826
  74.2366171  82.8987694  13.1620133  74.2081213  83.1158447  14.0938389
  73.3313704  82.6821899  12.9387498  30.8694220  18.7725818  45.5134392
  31.5993023  19.3809342  45.3976250  30.6566525  18.4821534  44.6265268
  39.0576744  61.3697577   3.8323516  38.2053781  60.9633398   3.9893466
  39.6267986  60.6427670   3.5797310  14.9840605  57.9626369   9.1816568
  14.0701580  58.0009699   8.8996202  15.4559481  58.4900141   8.5371184
  66.8244219  49.4836712   7.4573898  66.2308455  49.2529821   8.1720096
  67.5846195  48.9161396   7.5848043  53.6617804  65.8206558   8.4784681
  53.7521124  65.5092144   9.3790662  54.5088387  65.6330633   8.0740720
  89.2724323   2.3351295  54.9030304  88.7315273   3.1210485  54.8256397
  89.1384411   2.0398915  55.8036518  59.0532637  17.9601645  40.1124048
  59.2572737  17.2157252  39.5463443  59.8498297  18.4908998  40.1065159
  36.7487001  41.8543959  73.3979130  36.8377376  40.9529066  73.0886936
  37.4804735  41.9733047  74.0033865  50.2008438  10.9962034  72.3391247
  49.7944593  10.7602882  71.5052032  49.7808933  11.8203056  72.5855541
  58.0631924  27.3072553  12.0429790  58.6142492  27.7260447  12.7041793
  58.0741262  27.9140735  11.3027871  52.5737381  78.1660461   6.7733258
  52.1669197  78.7736559   7.3910201  53.2580519  78.6812305   6.3460881
  63.3376026  76.2773895   1.5400398  63.6838102  75.4831171   1.1332254
  63.8768864  76.4010334   2.3211390   3.7368429  36.4523745  65.8469820
   3.1313860  36.9182825  66.4236832   4.3119100  35.9711742  66.4419413
   3.4103429  72.9596186  65.4548168   2.8153256  73.4979343  65.9767389
   3.4770811  73.4190702  64.6177483  62.2337151  72.0122051   9.0425664
  62.1974039  71.2684774   9.6440530  61.7723036  72.7141428   9.5014882
  52.9474211   0.1116031  62.6310921  52.9406357   1.0535051  62.4607801
  53.8468456  -0.0768927  62.8989267  25.3455210  13.4410322  58.1156540
  24.9061775  13.9773726  58.7756157  25.0886512  13.8312030  57.2801828
  62.9337978  78.7619352  31.2703753  62.5132608  79.6092081  31.1237216
  62.8223705  78.5981369  32.2068501  73.8845600  47.0137917  74.4635057
  74.1311563  47.4769168  75.2640923  74.6767248  47.0255821  73.9263199
   6.2963748  19.7836101  55.6070709   6.9519448  19.0879023  55.6565762
   5.9965831  19.7659814  54.6982002  69.5961523  73.3237410   1.0201906
  68.6942005  73.0033922   1.0296716  70.0433826  72.7998781   1.6848555
  27.4205923   4.3497416  66.6495705  27.7718329   3.9550456  67.4477434
  27.3454070   3.6200839  66.0346079  90.3746319  27.4510622  40.9229660
  89.7695923  27.5412893  41.6591883  90.5826855  28.3511090  40.6722450
   3.9922678  11.9795156  19.7381854   3.4073049  12.6153648  20.1501870
   4.0946350  12.2949433  18.8402665  22.6438069  17.8158641  59.9772501
  22.1026707  17.6991248  60.7581329  22.0694208  18.2573295  59.3516159
  21.9698858  22.3757863  64.1852236  21.1530185  22.5656128  63.7237835
  21.7128634  21.7871046  64.8948860   2.5898260  14.9781907  47.6164389
   2.8146836  14.3994534  46.8879223   1.6811600  14.7601736  47.8238678
  75.1017427  12.4040413  72.6344919  74.4610739  12.1725774  73.3069515
  75.5366898  13.1850064  72.9767609  59.1110706  67.0350218  16.5459061
  58.2522345  67.4535847  16.4872253  59.1239357  66.4118481  15.8194625
  21.2174106  19.0518272  71.6632605  21.9762254  18.4792054  71.7752123
  20.7867980  18.7269711  70.8725166  79.6604156  65.9626865  51.1348963
  79.3927002  66.8661737  51.3030338  80.0607491  65.9892893  50.2658415
  51.2829351  42.7910423  10.0990236  52.1802521  42.4738216   9.9969256
  51.3810492  43.6985970  10.3870404  77.1554089  60.9009075  15.7082403
  76.4407110  60.7916784  16.3355410  77.8047132  61.4276600  16.1742544
  24.7087145  12.6699293  44.2090464  24.2712831  11.8223679  44.1282749
  24.7127891  12.8487086  45.1493931  48.3967781  83.3619308  21.2283611
  49.2830992  83.0980682  21.4754391  48.4926271  83.7304115  20.3501439
  60.8808422  22.1349859  33.6360860  60.0586128  21.6484022  33.6944175
  61.4124250  21.7941117  34.3554306  31.0855937  58.0363464  15.0820470
  30.9714532  57.5023651  14.2958748  30.6688976  58.8709068  14.8673141
  66.0452175  34.8197961  47.9183006  66.9430828  34.9192238  47.6017904
  65.5481958  34.5470881  47.1470451  71.2383366   2.2152528  14.2033851
  71.7946243   1.9096768  13.4868681  71.8406916   2.6547864  14.8035586
  31.2939763  22.1708536  65.5473042  31.0457611  21.3687992  65.0875998
  31.5003586  22.7927566  64.8495388  62.4586773  74.5164061  34.7481918
  61.7584610  75.1624441  34.6556497  63.1468630  74.8228455  34.1576648
  33.9640164  27.7178001  57.6777363  34.3831062  28.5005093  58.0354548
  33.0303454  27.9285693  57.6695251  77.4269104   6.6290253   6.6223884
  77.0312881   6.8662399   7.4611032  78.3426094   6.8950772   6.7057312
   3.3370960  82.1131802  69.1536236   3.8342637  81.9773865  68.3470154
   3.1289396  83.0474758  69.1522551  47.4470152  21.5745104  74.2656632
  48.0726780  21.1938227  73.6493410  47.5571264  21.0615481  75.0662726
  73.7558508  13.7138474   9.0957630  73.6672115  14.1701519   9.9325192
  73.7209749  14.4092071   8.4388840  63.5369968  53.6077309  29.7362351
  63.2341623  53.3067751  28.8795280  62.9613352  54.3422031  29.9493122
  19.8685718  84.6007442  47.6647234  19.1964984  85.1636410  47.2804165
  19.3792367  83.8799667  48.0612993  35.7835579  76.3289642   7.0693225
  36.2356114  76.0788488   7.8751266  36.4059114  76.1231565   6.3717902
  35.3178144  38.6299086  68.9017916  35.8089161  37.8727031  68.5829020
  34.7137499  38.2678819  69.5500803  65.3421736  59.0825987   0.7607459
  65.4020309  59.9064159   1.2444615  64.4203711  59.0178537   0.5111177
   2.9437891  53.1649303  52.5451040   3.3748296  53.6243296  51.8244171
   3.5004947  53.3354330  53.3048677  47.6033211   7.0811081  58.2829618
  47.5483751   8.0319762  58.3781528  46.9761324   6.8730897  57.5904322
  34.3811512  22.5931859   7.9430401  34.3360972  23.5025692   7.6477027
  34.0175343  22.6105738   8.8283157   6.3899750  24.0625572  46.1865330
   6.5332001  24.8006320  46.7789555   5.6786197  23.5656404  46.5906143
  72.1584558  37.4696636   1.3712123  71.8510580  38.3058405   1.0211480
  71.3579559  36.9943714   1.5937583  44.7648525  26.2654090  71.3843060
  44.1836834  26.7910409  70.8345985  44.6417141  25.3683805  71.0738134
  40.9610033  35.6631136  59.1209269  40.4731655  36.3870835  58.7283564
  41.3922501  35.2357602  58.3809042  72.1964073  43.5420322  13.3973575
  72.5439310  44.0562868  12.6686609  71.8724680  42.7384853  12.9904044
  86.8290806  43.3811283  56.6094112  86.2831688  42.6897478  56.9838476
  87.3461723  43.7040806  57.3473454  60.0897087  86.1547413  29.6854591
  59.1853489  86.3329894  29.9434876  60.0184692  85.7745132  28.8099122
  10.1708817  41.3467979  71.7542076   9.9450487  42.1352339  72.2477674
  10.8649564  40.9334183  72.2676373  84.2304134  44.8009872  50.7988548
  83.8361073  45.2878857  51.5225172  84.5536327  45.4770565  50.2032900
   9.9835128  32.6101613  42.4834919   9.4238621  33.3845639  42.4258375
   9.4333398  31.9476175  42.9013157  84.5903301  24.8997474  66.1303854
  84.2296505  24.8793364  65.2439785  84.7534466  25.8273339  66.3012934
  55.9815979  51.4621639  67.0925760  56.8746376  51.5336895  67.4296093
  55.6718922  52.3664141  67.0410824   7.6838434  44.2562199  63.0985355
   7.1645361  43.9031553  63.8209629   7.3056483  45.1194715  62.9312134
  42.5804234  68.6408567  15.2341330  41.8252659  69.0427065  15.6636548
  42.9746914  69.3516254  14.7285724  91.0588551  13.2219958  23.4111881
  90.6612301  13.1572688  22.5428915  90.5414009  12.6293314  23.9563656
  71.7120457  58.7518692  11.4939630  71.7195225  59.5613861  12.0047009
  72.3838282  58.8844442  10.8251119  81.3202477  30.5125833  58.6890078
  82.1169567  30.7622647  59.1571283  81.5280247  30.6609464  57.7664900
  45.2365065  14.9979377  58.6400604  45.1518393  14.6224272  57.7636719
  44.7035980  14.4299531  59.1965103   9.5188332  36.5340352  71.0333586
  10.2216756  35.9034872  71.1903763   9.6731240  36.8477130  70.1422739
  49.5624256  78.2249117  29.3043756  49.8062611  78.8879299  29.9502730
  49.2189312  77.4985933  29.8246694  24.8762751  81.0655212  66.4307547
  25.1110077  81.0671425  67.3587275  25.2857471  80.2739525  66.0815001
  46.6643000  40.3826380   0.5399804  46.3668776  41.2819862   0.4023433
  46.5318346  39.9544716  -0.3058077  30.3527331   5.6400400  46.1262751
  29.6727872   5.2524829  45.5751801  30.5015802   6.5070355  45.7489204
  50.4326200  51.0070896  13.9911294  49.7118425  51.6356945  13.9515650
  50.7564259  51.0702181  14.8896825  87.3974800  39.0278888  48.9875984
  88.1034565  38.7533021  48.4024286  87.3903847  38.3676696  49.6806288
   9.3854111  31.1494613  72.1710062   9.4015735  31.2834954  73.1186342
   8.6434114  31.6726208  71.8677330  68.5953951  22.2680664   0.7688144
  68.8715696  22.4736714  -0.1243187  68.6311626  23.1063294   1.2295410
  21.1872602  20.3364825  52.0346785  21.5366864  20.3735852  52.9250479
  21.3647532  19.4416583  51.7448187  16.7528188  32.8664708  70.3381491
  16.1113334  32.4205017  69.7851229  16.4325058  32.7347279  71.2304926
  44.5548964  54.1113281  16.5346742  44.5101643  53.8464165  17.4533963
  43.6426926  54.2528677  16.2815297  19.4875753  39.5834136  73.1815100
  19.6593535  40.1932478  72.4639940  19.1813731  40.1380014  73.8990784
  54.3375683  40.1021528  18.2840097  54.3778706  39.5371079  17.5124311
  53.7057590  39.6739888  18.8616979  11.8631041   0.5141615  16.3850152
  10.9349048   0.7098266  16.5130579  12.2975516   1.3650772  16.4435756
  60.1239395  43.6812878   5.0178570  59.8472357  43.8531971   4.1177934
  59.4078588  44.0172958   5.5568922  31.8588233  13.8946271  57.0360327
  31.9213271  14.0728009  57.9744244  32.7112818  14.1532850  56.6858292
  81.9256973  35.7053804  66.7579556  82.6016903  35.0638533  66.9763803
  81.8150139  36.2186217  67.5583076  51.2961578  64.0201187  15.8325148
  50.6432867  64.5515966  15.3769708  51.0664558  63.1174660  15.6118751
  11.0105383  28.2349420  70.0620985  11.7032182  28.3449793  70.7134962
  11.0720134  27.3163962  69.7999382   1.5159334  33.6859393  66.8848610
   1.1710539  33.9354014  66.0275030   0.7404932  33.6017036  67.4396849
  64.5136213  68.7805414  20.3269863  64.8027658  69.6911526  20.2685308
  63.6515427  68.8290310  20.7401490  17.4724901  27.1489835  45.8354521
  18.2619703  27.6809692  45.9351826  17.7610242  26.2552047  46.0202122
  91.1274815  45.2141619  35.6513429  90.5647850  45.2246046  34.8770785
  91.3644505  44.2934799  35.7628107  24.8123479   0.6566829  16.4129233
  25.3142142   0.1674411  15.7609999  23.9460230   0.2497208  16.4030814
  61.2441492  82.9399681  17.9933965  61.8925428  83.4748459  17.5354373
  60.8301067  82.4221420  17.3029959  74.0738487  66.7566013   6.1677432
  73.8870716  67.6784182   5.9899652  73.2675552  66.4199066   6.5585935
  53.5186958  17.7911234  11.5759194  54.0685368  17.5878859  10.8192122
  52.7369833  17.2519577  11.4556921  82.4379444  59.6183538  72.3998928
  81.9880867  59.9573851  73.1737900  82.6233101  58.7035751  72.6121521
  87.2946548   8.7415868   3.4554949  86.7080975   8.7790483   2.6999944
  87.0173264   9.4705504   4.0104109   2.2359295  13.7136364  60.8825636
   3.1326824  13.6107528  61.2011290   2.2928131  13.5327339  59.9443388
  37.0469427  30.8235621  69.9765348  37.5051785  30.1501107  69.4738245
  37.4886751  31.6396880  69.7419262  17.6408052  49.1227722  72.0241165
  17.3124838  49.1790152  72.9214859  17.8652489  48.1994534  71.9086218
  45.7638884  37.3078585  12.3571181  46.6871262  37.1412039  12.5471127
  45.6641722  37.0779085  11.4333153  89.2867279  44.5509195  73.8943100
  89.1533089  45.4716825  74.1193008  89.4262505  44.5535421  72.9473352
  28.1196761  60.5159092  70.3132582  27.9906940  60.0108671  71.1160851
  27.5218940  61.2585831  70.3988504  16.9949067  64.2675734  34.0291715
  17.4324477  65.1178885  33.9872646  16.0654080  64.4711113  33.9250755
  80.8874893  61.3509417   5.5708647  81.3903236  61.1642742   4.7780585
  80.6237602  62.2663212   5.4772407  11.5323663   6.5660244  13.3683336
  11.7515922   5.6345946  13.3436358  11.4665735   6.7719519  14.3008029
  16.2434626  17.7468157  57.1104622  16.3150465  16.7986929  57.0001364
  15.3584015  17.8824222  57.4488544  21.0636377  26.7351842  59.9751520
  20.9919405  26.2431192  59.1572523  21.6502047  27.4622846  59.7666025
  16.8076968  71.7811060  23.5419178  16.9677258  72.5525379  24.0855265
  16.0804665  71.3315010  23.9722967  32.0913649  68.2755327  13.7105811
  31.8031168  68.5935402  12.8550029  32.8542376  68.8137960  13.9215934
  40.6118822  76.2265253  60.5492306  39.6853018  75.9995937  60.6278515
  40.7772160  76.8165064  61.2846327  77.5796795  25.4624224  11.4991724
  76.9275904  26.0474682  11.8848288  77.2856855  25.3376865  10.5968213
   9.7680694  38.5295630  66.8337917   9.9819595  38.9690661  67.6567841
   8.8587946  38.7737679  66.6611195  87.3408318  30.2526593  24.2782688
  87.0573997  30.3154302  25.1903868  87.6723289  31.1260939  24.0698195
  10.9117258  42.1567774  52.4074316  10.9782219  42.6774120  53.2078981
   9.9747795  42.1354485  52.2127295  17.7548039  70.6911421  63.7425327
  17.0461404  71.3160706  63.8958073  17.5392473  69.9432087  64.2996311
  81.4407730  37.3949766   4.5991585  80.9752083  38.0526257   4.0824613
  81.5895367  37.8166366   5.4455048  30.5572462  14.3323004  50.7905388
  31.4167786  13.9784098  50.5620718  30.0530815  14.2798102  49.9785709
  24.5039940  38.0591345   6.5708148  25.2826619  37.6513100   6.1918896
  24.8051167  38.9163494   6.8720442   2.3244236  83.9227104  60.9562159
   3.0445087  83.3522224  61.2250042   2.6201195  84.8044872  61.1826468
  14.9634850  22.2729087   4.1953823  15.2533519  22.1575952   5.1003194
  14.1393113  22.7543497   4.2673841  18.6003578  16.7275679  61.0522652
  17.9421043  16.9050550  61.7241573  18.4031796  17.3509824  60.3531933
  86.9219494   9.2971170  16.0736513  87.5533009   9.9835205  15.8580804
  86.1827660   9.4589031  15.4874170  10.9752667  56.1630678  42.5405693
  11.2757587  57.0582056  42.6976061  10.6086433  55.8828974  43.3792114
  26.0263348  53.1221962  24.6529937  25.7857513  52.9193544  23.7490010
  26.9234729  52.8000450  24.7401309  23.2373691  35.2161217  66.6405535
  22.5070858  34.9986744  66.0612154  23.0543327  34.7350359  67.4475765
  14.4246292  34.6786380  69.1777134  15.1791024  34.7939157  69.7553921
  14.3649435  33.7321925  69.0476656  69.7791100  73.9534330  27.8717279
  70.7023811  73.9324141  28.1234431  69.3446445  74.4093227  28.5925841
  54.5663261  49.3843746   8.4688562  55.1483727  49.9091387   9.0184665
  53.6858368  49.6089792   8.7697297  35.1643419  15.9097648  59.3357515
  35.5361772  15.8662724  60.2167034  34.8504019  16.8101752  59.2524719
  29.4652462  36.9508338  19.4699359  29.2422438  37.1923018  20.3689337
  30.0124288  36.1706567  19.5602036   3.9998621  36.7158818  48.1167984
   4.1195139  35.7777357  47.9691648   3.1191641  36.8993926  47.7898026
  38.1114697  11.2698925  67.7127266  38.4991884  11.3696826  68.5821819
  38.6535907  11.8171048  67.1444893  66.1428976  61.5129375   4.7030920
  65.7803011  61.4206219   3.8220522  67.0800352  61.3509512   4.5945954
  43.1994295  75.0958681  18.7742436  43.2779074  75.5261850  19.6256542
  42.5697422  74.3898106  18.9198673  28.0245280   4.1733149  38.3416677
  27.7589464   5.0926226  38.3656120  28.4065914   4.0569639  37.4717712
  23.6635447  43.2831907  23.3692598  23.9395618  42.5763273  22.7858257
  22.8277636  42.9849768  23.7281108  67.5935030  17.7948952  67.1063614
  67.4686670  16.9768012  66.6253519  67.7429390  18.4520125  66.4265823
   5.2579546  77.9909277  62.0409536   4.7202775  78.5315180  61.4622545
   5.8290702  77.5012827  61.4490891   1.1250776  44.9421406  64.6971369
   1.7940031  44.6812201  64.0641308   0.9182017  44.1374254  65.1723909
   6.8748468  22.6285744  59.4934320   6.1110222  23.1888366  59.6309423
   6.6621333  21.8164921  59.9533319  13.7054515  48.1978655   3.0814672
  13.2242835  48.8169909   3.6304581  13.0303180  47.7695084   2.5552171
  35.5991578   4.4645712  37.2998381  35.8062029   3.8274559  36.6161370
  36.4010811   4.5283541  37.8185701  51.9544554   1.8455228  43.7482548
  52.8206682   2.2265115  43.8923311  51.4760876   2.5158805  43.2603836
  70.9942961  72.6308584  33.0812621  71.6062832  72.6606655  33.8166642
  71.1500978  71.7785549  32.6744008  53.0093718  31.4324164  61.7537403
  53.8337374  31.3143635  61.2818146  52.9394197  32.3785830  61.8806601
  86.4445686   5.5404758  64.5067072  85.8465862   5.5969584  65.2520037
  86.8803692   6.3924158  64.4841909   7.7632695  30.3627467  66.0929155
   7.6329970  30.0723553  66.9956493   7.6856524  31.3158941  66.1343575
  30.4725194  15.2528369  72.8421164  29.7632599  15.6294549  73.3630228
  30.0334740  14.8625863  72.0863581  74.4601822  68.9403152   2.9964212
  73.9595079  68.2457161   2.5685269  75.3720665  68.6589956   2.9218864
  56.4342928  79.4305229   8.5590231  55.4813099  79.4737673   8.6376798
  56.6326714  78.4941149   8.5626358  40.5170202  58.2309532  14.3892562
  41.1474466  58.3848381  13.6856103  40.2631807  57.3136997  14.2870474
  83.9404678  76.9082069  26.2575579  83.5716724  77.3732328  27.0085382
  84.3103409  76.1076069  26.6296673  39.2188263  25.8448124  46.9763708
  39.3538284  26.2621284  46.1255741  39.9728703  26.1174035  47.4991894
  12.4666119  45.2678299  62.0288849  13.3288515  44.9185562  62.2542286
  11.8728232  44.5239878  62.1305990  64.8841572   2.1755418  24.3135953
  65.0464058   1.7814681  25.1706910  63.9506960   2.0327063  24.1571450
  70.2671862  69.1326141  44.8206377  70.3355932  69.8442030  44.1840887
  70.3955364  68.3366108  44.3047571  14.4679415  26.0889721  58.6505842
  13.7592244  26.2480402  58.0271673  15.2167559  26.5621448  58.2877922
  49.2624235   3.7242708  51.4117050  49.4695997   3.7523308  50.4776144
  48.6649466   4.4598132  51.5467215  48.6262846  52.9018354  13.4753656
  47.7419138  53.0117321  13.8247180  49.0507889  53.7460375  13.6281753
  31.1813521  63.4485626   0.2021573  30.2593040  63.6324215   0.0225593
  31.4006519  64.0201569   0.9379704  10.5464804  75.9287024   3.4087756
   9.9421322  75.2391386   3.1340095  10.1340759  76.3146973   4.1815391
  84.6475697  53.2528687   9.1431749  85.1383209  52.5298119   8.7525564
  83.7662125  53.1682348   8.7794584  28.0751157  13.2000470  57.5324535
  27.2512412  13.6747146  57.6426983  27.9923248  12.7711749  56.6807222
  41.3556433  52.4950600  65.6482124  40.7684231  52.1398258  66.3154507
  40.9013796  53.2699203  65.3173590  20.0976205  58.5741758  64.6654367
  20.8462548  58.9221621  65.1498795  20.0315619  57.6624012  64.9492168
  23.6906242  15.2718651  15.7092524  23.3559871  14.3784726  15.7873631
  22.9327130  15.7884359  15.4354739  25.8334827   4.7012854  19.3842602
  26.7339039   4.8051384  19.6919751  25.7413435   3.7617821  19.2259085
  81.1536312  41.8891716   1.3889812  80.6628513  42.2490883   2.1277863
  81.6496754  42.6325226   1.0460597  90.3070450  19.8398137   4.7652423
  91.1942577  20.1948190   4.7100717  89.7382736  20.5860066   4.5756814
  38.8446927  52.7146435  72.1996593  38.8424349  53.5665131  71.7631388
  38.1179142  52.7618694  72.8207827  42.7819586  38.2165670  73.0838776
  43.3161211  38.8542986  72.6103783  42.1009016  37.9645181  72.4602842
  10.5585420  36.3095355  58.8611078   9.8271757  36.4015412  59.4717360
  10.1870394  35.8459949  58.1105423  91.0678291  62.3946857  59.0021610
  91.4024258  61.9273424  59.7675848  90.3887177  61.8201351  58.6487007
  56.2428999  59.4726133  69.3666267  55.4006815  59.4115067  69.8173571
  56.8788338  59.1429901  70.0015783  34.7859406  32.8378081   4.8087937
  34.0762806  32.9204321   4.1717795  34.8134708  31.9039083   5.0168926
  76.6420507  18.6192596  73.2511950  76.9451094  18.4887052  72.3526716
  75.7579708  18.9737964  73.1566429  77.0259428  76.6490078   7.3212576
  76.8429232  77.4618721   7.7924061  77.8534317  76.3396788   7.6897794
  51.7457438  36.6837955  73.3701324  52.6880074  36.8177986  73.2680750
  51.6602945  35.7635689  73.6193562  46.0944891  64.3044662  54.4286633
  45.5808115  63.6028814  54.8288441  46.8370438  64.4251490  55.0205088
  77.8778744  40.0809097  10.0084674  78.6470604  39.8098540   9.5073557
  77.1535206  40.0230360   9.3854165  48.9538336   3.5855371  55.8559990
  48.2988071   4.2148387  55.5540895  49.7392750   3.7966210  55.3512621
  69.7932005   5.0431299  54.9717665  70.2975941   5.1492232  55.7783461
  69.1501427   4.3650308  55.1788616   7.4028337  14.5740366  69.9452734
   7.0307434  14.6178496  69.0644455   7.1686405  15.4111207  70.3461218
  64.1762543  80.8969116  11.9096017  63.9532423  81.8045998  12.1159887
  65.1320696  80.8907795  11.8585122   1.9074963   7.1551389   6.6023183
   1.1265204   7.6139081   6.9118977   2.3136669   7.7634722   5.9849137
  89.2733097  73.8041782   8.6232215  88.7368870  73.0590296   8.3526051
  88.6668777  74.5446968   8.6334515  35.6795478  26.1122632  56.6018820
  35.0556874  26.8179440  56.7722988  36.1887407  26.0425305  57.4094057
  86.6867447   7.2984761  20.3074646  87.5058746   7.4652213  20.7737851
  86.6045094   6.3448358  20.3012848  71.5709496   2.4010533  66.2726068
  70.8365870   1.7871010  66.2702131  71.1615896   3.2638654  66.3374949
  42.0995665  51.0701513  74.1107941  42.4417162  50.2883339  74.5442963
  42.1743917  51.7610979  74.7689962  19.8589003  54.3276215  61.0168362
  20.2344608  54.9265528  61.6621828  19.1820371  53.8512373  61.4976120
  49.9941349  70.0402451  25.8421540  49.5744991  70.7246780  26.3633895
  50.7990074  70.4450226  25.5187893  59.9668264  28.0627513  62.0891237
  59.9456882  29.0089154  61.9457436  59.1284370  27.8649640  62.5065136
  45.3000355  49.6370363  54.5623541  45.8389044  48.8528013  54.6664190
  45.3732061  49.8563957  53.6335039  46.5353251  56.0053492   3.3045161
  46.0790634  55.9590816   4.1447049  46.8243647  55.1079321   3.1391925
  19.0323818  76.0022449  60.1800871  19.2060745  76.1525154  61.1093235
  19.6602380  76.5636063  59.7252274  84.3587017  25.6061053   3.4701431
  85.2498341  25.5364656   3.1276947  84.3596935  25.0566459   4.2539313
  42.5324249  48.4994459  72.1073484  41.5973282  48.2951450  72.0978260
  42.8897953  48.0207968  71.3594103  80.3190041   3.2630906   5.0127614
  80.9513092   3.9368090   4.7627065  80.8168411   2.6607150   5.5655080
  38.3972120  78.9851713  25.5236816  38.7210441  79.8240900  25.1956964
  37.6863599  79.2195511  26.1203289  88.4216690  10.9219658  13.3178854
  88.1555557  11.8413341  13.3045185  89.3202114  10.9374750  13.6474442
   5.9978038  41.0772324  61.3099051   6.1529523  40.9018612  60.3817844
   6.6430652  40.5376387  61.7667484  83.3787060  79.3846130   1.4931978
  84.2892361  79.6729898   1.5565585  83.0216122  79.8791981   0.7555675
  82.5415421  14.2199135  28.9819574  82.7107239  14.3637955  28.0508804
  83.3781242  14.4047844  29.4087744  75.7185316  10.3045630  64.7471666
  76.5275002   9.9682230  65.1327610  75.2969360   9.5346159  64.3655014
  21.4277029  20.7980037  66.3196135  21.9479656  20.6687522  67.1126127
  20.5601454  20.4621410  66.5449381  69.3203068  50.6355429  44.3202829
  69.0947342  51.2785673  44.9924994  69.5404387  51.1606216  43.5508251
   6.4040977  15.6932139  14.7930789   5.5080110  15.6358433  15.1246929
   6.3479161  15.3697205  13.8939524  22.6382565  71.2202358  66.9741392
  21.8725514  71.0070038  66.4407873  22.8269958  70.4144907  67.4551582
  72.7892828  28.8314247  69.8183918  72.8151083  29.1503406  70.7205343
  71.9744778  28.3320403  69.7641277  80.6149864  26.1708641  13.0152380
  80.0439644  26.6918325  12.4506521  81.2952137  26.7822886  13.2975054
  22.0520949  24.6221519   8.0977142  21.6757298  25.3989363   7.6839679
  21.7284727  24.6498036   8.9981234  78.6737156  20.8863258   5.9037131
  78.2329559  21.7095399   5.6932670  77.9632568  20.2835155   6.1230350
  47.8608990  77.1613312  22.7824020  47.6038551  77.0645618  23.6993504
  47.3053932  77.8669453  22.4511147  67.5852776  81.2016773  19.1843820
  68.3607244  80.6934738  18.9463699  67.9033041  81.8381977  19.8246384
  57.5588703  83.7620449  30.8079243  57.5516319  83.9727211  29.8742247
  56.7734861  84.1850567  31.1549973  12.8347659  65.2457619  58.4075356
  13.2204473  65.4986572  57.5687742  12.2038949  65.9394598  58.5999393
  25.8481193  21.3085294   8.1762248  25.9787607  22.2563386   8.1475323
  25.2822733  21.1219573   7.4270642  16.6578138  81.7160988  59.5617676
  16.7866683  82.6163864  59.2632627  16.1331248  81.3081455  58.8729239
  62.2689295  65.9741879  68.3965826  62.5990343  66.7917633  68.0239773
  61.3222122  66.1027336  68.4552002  80.6699657  36.5946007   0.2081528
  80.6932068  37.5510001   0.1766641  81.4816761  36.3497949   0.6524868
   9.1848570  44.1542101  59.9985933   9.4370925  44.0900946  60.9197330
  10.0146174  44.2334557  59.5280123  37.2536945  48.1615114   8.3426440
  36.5450835  48.7885094   8.1978065  37.8643870  48.6194611   8.9201975
  73.9473724  66.7191982  66.4859724  73.6308241  66.9956732  67.3459673
  73.5876179  65.8398342  66.3696766  77.1060801  84.0188217  23.0759764
  76.3858509  84.6465206  23.1350780  77.6536322  84.3489265  22.3636174
  36.3941574  20.2503538  67.4087381  35.6918049  20.0638127  68.0317450
  36.5048099  21.2002444  67.4499083  89.7954178   3.5305640  14.1108000
  88.8876247   3.6866981  13.8504767  90.2325344   3.2583401  13.3039188
  88.0423927  11.9896007   3.5361910  87.9102421  12.8182065   3.9968204
  88.5828495  11.4688444   4.1302946  17.8654003  46.4475775  71.9717169
  17.4262655  46.0494280  71.2201405  18.7713325  46.1452436  71.9076014
  87.6492405  12.7839029   6.8012989  86.9866085  13.4370339   7.0261741
  87.2817707  11.9547105   7.1073002  36.1775303  35.5812311  64.6208334
  36.1287665  35.1051879  65.4498291  35.3924036  36.1287165  64.6124840
  57.2152710  40.7219696  62.1413231  56.6451788  39.9533629  62.1630955
  56.6347313  41.4440346  61.9008446  29.9023461  69.5888042  66.7133760
  29.4403076  69.3299913  67.5107288  30.5529118  70.2254486  67.0094776
   5.5091965  14.5420051  41.7979717   4.6392363  14.8688745  42.0272255
   5.4348344  13.5905957  41.8722725  45.2405405  51.9916058  71.5888453
  44.4919538  51.8889093  71.0012245  45.1863384  51.2402248  72.1793699
  23.1509399  21.8037915  16.7348146  22.5277638  22.3666358  17.1942592
  23.1018639  20.9661388  17.1954238  57.5134182  51.4445591   6.1974794
  56.8366814  52.0855808   6.4150846  58.0432940  51.3766813   6.9917452
  55.6758213   4.9540216   6.9348109  54.8494339   5.4340768   6.8813586
  55.8049107   4.8029271   7.8711540  45.8990669  60.0772572  73.8124704
  45.9457302  59.1345024  73.6534929  45.0146437  60.2198029  74.1496706
  73.8227415  84.2543697  15.7524824  72.9811382  83.9087200  16.0499120
  73.7552881  85.1993752  15.8890402  36.5294504  36.0396099  68.7124634
  35.8377790  35.7877016  68.1006098  36.3002539  35.5957770  69.5289850
  82.1402550  53.8595152  51.2828875  82.9833603  54.3053246  51.2012911
  81.8045330  53.8162851  50.3875399  48.8909578  77.4862432  61.7616987
  48.8264608  78.3208084  61.2974024  48.5489130  76.8409014  61.1430120
  49.1950798  69.8994541   4.3547970  48.3127356  70.2429819   4.2144808
  49.6837902  70.1698017   3.5774258  56.5873718  61.3698292   9.1843802
  56.8546915  60.4830551   9.4260454  55.9686613  61.2457132   8.4646422
  28.1353974  79.8945141   6.9713378  28.9004874  80.1033974   7.5072819
  28.4294724  80.0307178   6.0706717  36.6391039  39.0085006  72.9998970
  37.1155190  38.3187151  72.5378847  35.7178974  38.8333201  72.8077412
  67.8610277   1.4473645  26.6476393  67.0081186   1.0137944  26.6757846
  67.7968931   2.0544453  25.9103656  26.6454935  63.2392597  71.2153101
  25.7788324  63.4682846  71.5509844  27.2258711  63.3261204  71.9715166
  73.8200808  77.9892826  49.4872713  74.1831255  77.6183748  50.2915430
  74.2515993  78.8391638  49.3993759  45.6274652  62.1711302  24.8399138
  45.0657749  62.9396200  24.7390985  45.1391506  61.5927553  25.4258013
  83.3711720  23.4886503   9.7917151  84.1632557  22.9688406   9.6551806
  83.6446190  24.3904686   9.6238291  60.4335499  64.0281582   7.0466602
  60.5179214  63.0747223   7.0380706  61.1481094  64.3267822   7.6092029
   3.9431497  42.9935551  69.1939020   4.6469074  43.2169724  68.5847712
   3.8671333  42.0413113  69.1331911  83.3079815  19.5985758  72.5675631
  82.7652931  18.8142765  72.6487780  83.7043476  19.7061574  73.4321737
  46.8858767  44.2852211  73.5219526  46.7697144  44.4999886  74.4474840
  46.4464998  43.4415913  73.4148598   6.2152678   9.2663652   2.1867034
   5.5859786   9.7042131   2.7598664   6.0264653   8.3338702   2.2917683
  36.9448543  59.9964428  64.6689653  36.5410972  60.4532003  63.9310026
  37.8341722  59.8022985  64.3728971  19.3859339   0.9368844  23.5369873
  18.8356364   0.3870480  22.9792380  19.8815536   0.3160841  24.0710282
  23.2145572  53.6153841   4.8140422  24.0717173  53.3291483   5.1295984
  22.6213479  53.4470224   5.5461556  82.5767790  43.8486448   0.6336856
  83.4641634  43.6261760   0.9152723  82.7015625  44.3923581  -0.1441550
  26.6689777  63.9790058   7.7298361  26.2221217  64.1420412   8.5604805
  27.4382329  63.4620762   7.9691249  56.0029888  55.0786781   4.5579243
  56.3208485  54.6445751   3.7662470  55.9863806  54.3874550   5.2198648
  38.9501023  51.3846731  52.6301241  38.9988828  51.3382339  53.5849524
  38.8174677  50.4782057  52.3527050  35.8758116   9.0024328   9.2049450
  36.8129325   8.9493650   9.3926156  35.4580927   8.9916044  10.0661218
  87.0868778  33.0215311   3.8976812  87.9654884  33.2722521   3.6123484
  86.7884064  32.3987746   3.2348716   2.3358190  49.9939728  19.3031001
   2.9493758  49.3237305  19.0021741   2.7610108  50.3818560  20.0679445
  18.0481505  74.6158361  55.8376741  17.5982952  74.5952177  56.6823244
  18.4729850  75.4732513  55.8134413  28.3309937   3.5899937  72.6519060
  27.5905895   4.0631533  73.0315828  28.9961290   4.2628404  72.5066376
  71.3360405  74.6643162  11.4994252  71.3608551  73.8986158  12.0732880
  70.8095455  75.3049803  11.9775248   8.0106491  72.2122192   7.2143668
   8.2819766  71.2961054   7.1564883   8.6621445  72.6193523   7.7853543
  69.3818045  29.2920303  65.7891369  68.9455175  29.9586391  65.2585554
  70.2757692  29.2619276  65.4483175  52.6718378  82.6508331  24.4617987
  52.6669741  82.5970364  25.4174757  53.3834982  83.2582378  24.2597198
  69.5747232   3.7004903  12.5945747  70.1219034   3.0648497  13.0558646
  68.8186312   3.1944418  12.2971284  64.0618658  28.9628410   6.6319978
  64.4046259  29.7137499   7.1166432  63.4199333  28.5691667   7.2229093
  58.2960749  12.8879499  68.2442617  59.0757227  13.2399106  68.6738062
  58.6373425  12.3726499  67.5133467  55.9384251  67.9905701   1.5398064
  56.1345959  67.0602703   1.4289182  56.6307449  68.4406948   1.0557528
  74.8765421  11.2491417   1.4460053  74.2013741  11.8460417   1.7686364
  74.6542692  11.1113286   0.5252262  54.3901587  58.7438917  12.4574888
  54.3130207  57.8032875  12.2976732  53.9882851  59.1509867  11.6900218
   3.5472944  21.8151426   9.9507844   3.2728201  21.8877673   9.0366614
   4.1720539  22.5303364  10.0708127  20.7336640  14.7910070  30.7018518
  19.8026836  14.7277200  30.9151602  20.9466720  15.7152331  30.8309460
  16.4870763  26.5988541   5.4993498  17.2930539  26.0949349   5.3866726
  15.9543419  26.3721895   4.7370842  57.0142412  66.5656900  19.2689180
  56.0579824  66.5251780  19.2817152  57.2857761  65.7102394  18.9362049
   9.2692173  28.3820963   8.9855587   9.0667570  28.1420207   9.8897743
   9.5886767  29.2826080   9.0426338  60.1090527  30.8461070  65.3026009
  60.8134079  30.2072620  65.1930809  60.2394819  31.4710474  64.5893908
  29.8566461  73.6765623  53.6885309  30.2341866  74.1384983  54.4370699
  30.1582360  74.1698790  52.9257011  90.2888393  71.9703388  69.2138290
  89.4839096  71.4523792  69.2199564  90.0168514  72.8319025  68.8976669
  38.4452128  37.9128098  62.1164083  39.1370010  37.7884102  61.4666510
  38.0444503  37.0483899  62.2080564  12.1290028  24.0207028  42.9568720
  12.3866189  23.6923456  43.8182974  12.8501308  23.7699962  42.3795080
  33.6872077  53.8320112  64.5174408  33.5932994  53.2945585  65.3039265
  33.4806299  54.7202587  64.8082638  41.1403894  46.8011761  50.3533363
  40.3787327  46.5342760  50.8679914  41.5379524  45.9780502  50.0693607
  60.6435299   4.4247487  63.0056095  60.1102257   4.4481283  63.8001347
  61.5427446   4.5261249  63.3176470  49.6477222  45.9870672   0.3966790
  50.4495335  46.3100004  -0.0144686  49.1315937  45.6352186  -0.3286110
  52.1250820  60.5357981  57.8753424  52.7344942  60.7809067  58.5715961
  51.7803240  59.6852446  58.1472492  37.0653057  71.0503387  71.7212963
  37.2039390  70.1260710  71.5145445  37.3342657  71.5158749  70.9293556
  26.2258840  43.1709719  73.4515715  25.4274082  42.6454830  73.4012556
  26.9239306  42.5719309  73.1867886  42.6513100  79.7524118   7.4329352
  43.2437944  80.5034161   7.4673814  43.2259750  79.0003109   7.2903210
  63.7946558   6.7742795   9.5775461  63.2490206   6.7650551  10.3639483
  64.3712091   6.0167211   9.6771622  25.0789738  56.4959145  41.8554115
  25.5930376  55.8428526  42.3302650  24.7293925  57.0683432  42.5383091
  61.7524862  48.6143398  70.3848743  62.2566032  47.8191614  70.5574894
  62.3982859  49.3199301  70.4210949  34.2844081  84.3914127  48.7252188
  33.9546585  84.4350243  47.8276682  34.8625731  85.1500797  48.8051033
  27.9188156  70.5856609  45.2193928  28.7902188  70.5696535  44.8236275
  27.8709102  71.4346695  45.6588554  43.9965200  39.9966955  17.9990351
  43.4988832  40.7871819  18.2081366  44.9125147  40.2697229  18.0504215
   1.1518594  25.2277708  15.5762720   1.3036193  25.2941275  14.6335113
   0.8640553  24.3246460  15.7095575  24.6767354  49.2544794  72.2540140
  24.9418521  49.0897512  71.3491344  25.4211330  48.9603949  72.7790070
  39.8070025  60.4420853  68.8691664  39.7056961  59.9707699  69.6961069
  39.8260784  59.7552109  68.2027769  16.4247882  30.6399679   4.7035158
  17.2674525  30.2147770   4.5442700  15.9061563  29.9793458   5.1626778
  54.4963347  80.2690064   0.2781463  54.7404276  80.7974755   1.0379959
  55.3243123  80.0981795  -0.1707434  30.5185938  79.6508932  40.2110720
  30.5103374  79.4293165  41.1422348  29.9085045  80.3844357  40.1340055
  17.1667922  76.1295509  49.9750233  16.9841170  75.1901436  49.9556541
  17.8687871  76.2502766  49.3356037  16.5769041  19.2778265  22.6922822
  16.5060472  18.7349927  21.9070816  17.4586713  19.6477461  22.6489520
  34.6367526  70.8108282  70.4432869  35.4189110  71.0218954  70.9531021
  34.1669846  70.1716042  70.9789562  18.7173450  65.1549387  30.6981206
  19.0298831  64.8729372  29.8384523  18.1328309  65.8895683  30.5113196
  46.8991661  54.8822927  64.4657040  47.3607206  55.1330900  63.6655140
  47.4010897  55.2921677  65.1701927  31.3453031  16.4387178   7.3365432
  32.0047212  16.7649627   7.9488868  30.5114651  16.7321813   7.7037317
   4.8517179   7.0580363   2.7523085   4.1883716   7.1101707   3.4404114
   5.3610873   6.2772197   2.9693332  42.0995235  11.9794858  23.1523299
  42.0398426  12.3662412  24.0258813  41.4394665  11.2862623  23.1517076
  70.4674673  59.6785021  73.1397104  69.6965027  60.1640224  72.8462601
  70.8464575  59.3224001  72.3361015  28.3806777   8.6646241  20.3957582
  28.5654187   9.5170522  20.0014615  27.5856900   8.8057679  20.9098625
  21.6158414  82.8528309  63.3000517  22.1111155  82.3523808  62.6516056
  20.7196355  82.5259399  63.2213831  37.2499990  71.8271828  55.6003571
  36.5556073  72.0429897  56.2228298  37.8924561  71.3410807  56.1172581
  29.4427514  37.3390698  37.4101138  30.2464819  36.9070101  37.6992011
  28.7857509  36.6429830  37.4033308  16.0053957  14.8030102  10.0917315
  16.3572228  14.2747962  10.8082783  15.8012962  15.6471372  10.4942548
  42.0939827   5.5537969  12.7527452  41.6114426   6.3112342  12.4215794
  42.4507523   5.1357555  11.9690430  39.0872598  55.2744818  71.5044117
  38.9466667  55.6773615  70.6475830  38.9275122  55.9808493  72.1303177
  44.8189640  69.3304777  52.6802206  44.2301035  69.0448427  51.9817305
  44.9270439  68.5569859  53.2336283  69.7034693  85.0942230   4.3034047
  68.7686634  84.8890591   4.2866305  69.7811699  85.8994961   3.7918097
  54.1331911  36.2753153  71.9831133  54.7907209  36.9302893  72.2174120
  54.5390272  35.4377985  72.2069263  45.6316042  69.6603012  71.5885210
  44.9772072  70.1115656  72.1217728  45.8745861  68.8927698  72.1062946
  87.5064182  16.6058290   3.2870597  87.3830700  15.8105254   3.8052368
  87.3462105  16.3307786   2.3843350  65.1983166  69.7181225  45.9702063
  65.3247118  69.8875618  46.9037724  65.0464869  68.7745667  45.9164429
  85.3879356  81.9429588   7.2968614  85.0402737  82.7890015   7.5789499
  84.6465874  81.5076733   6.8759614   3.1377083   7.2075766   9.1508335
   3.0256262   7.0066208   8.2217014   3.1275800   8.1638384   9.1919792
  43.5677099  64.2063761  72.5498581  44.5080519  64.2964554  72.7043819
  43.4829426  63.3894205  72.0583010  90.0255203   2.9291993  -0.2633423
  90.7058811   3.1244910   0.3810232  89.2178249   2.8815809   0.2481115
   1.4959282  35.2035356  14.2321050   0.7420686  34.8569465  14.7093916
   1.7481907  35.9876966  14.7196364   2.5162706  79.6676540   4.0452251
   2.5834298  80.3277016   3.3552596   1.9605646  78.9845753   3.6699519
  21.1357141  62.6173878  67.2472048  21.8549037  61.9857407  67.2518063
  20.3492594  62.0857906  67.3701859  80.7221508  81.8896770  22.2000241
  81.6254902  81.7022228  21.9449353  80.6797218  81.6488934  23.1254721
  60.9726667  61.2677383  73.3854675  61.3089991  61.6594315  74.1914988
  60.2395439  60.7229137  73.6716986  11.8219864  76.7927647  17.7162838
  11.1104226  77.2669077  18.1465125  12.0746183  77.3537445  16.9829965
  27.0467520  23.0457807  40.3240967  27.2870874  23.6941051  40.9860229
  26.2669015  23.4093928  39.9047518  70.3365993  79.3406010  15.4468215
  70.8866644  78.6648226  15.8430302  69.6089840  79.4468737  16.0596132
   1.7056784  20.1827025   3.8613254   1.6761339  19.5056403   3.1853473
   2.4358898  19.9268329   4.4248444  28.7302279  42.0032692  73.6310577
  28.9988112  42.6134109  74.3179512  28.3926082  41.2430143  74.1046095
  14.8874009  47.6853609  61.0994625  15.7665980  47.9624176  61.3573074
  14.7681522  46.8376827  61.5277767  60.6461191  60.7688761  52.4213934
  61.0385513  61.5047932  51.9516563  60.4301262  61.1231279  53.2839966
  85.8217144  13.7719142  10.0728381  84.9833584  13.3598864  10.2817190
  86.4728546  13.2283795  10.5164850   6.6652119  66.1729765   7.2549647
   6.3605481  65.3700352   7.6776892   6.5158659  66.0236502   6.3213539
  48.8860607   9.7629708  63.2542658  48.8162994   9.8542541  62.3039865
  49.8232985   9.6556079  63.4164047  51.1577320  53.1135702  58.5637951
  50.5792236  53.2071781  59.3206310  51.0736704  52.1943808  58.3103085
  70.8062124  82.9848194  38.1313610  70.5331659  82.4270344  37.4029660
  71.7084026  83.2269859  37.9224658   7.4231541  25.7466531  70.2940989
   7.9049230  26.5446091  70.5118036   8.0651993  25.0440097  70.3956079
  25.5396390  36.5615678   1.9250003  25.6938887  35.8414054   2.5363979
  25.0622201  37.2133923   2.4382509   3.5751751  36.3818789  61.4742470
   2.8538758  37.0098448  61.4340353   4.2641282  36.8390250  61.9565248
   7.2715187  43.2097340   9.3783444   7.4187255  42.5248909   8.7260014
   6.7131811  43.8477373   8.9340025  70.1603889  31.1574388  48.2891607
  70.6508446  31.9407344  48.5384321  70.8192921  30.4641342  48.2516098
   8.2061082   0.4388744  12.3153806   8.1013906   1.3840142  12.4248171
   8.7862891   0.1777802  13.0305386  53.6501265  31.9674015   8.3000308
  54.2182732  32.5111508   8.8457221  54.1560221  31.1690259   8.1487203
  51.6275692  83.3777237  63.7575960  50.7761097  83.5920238  64.1388083
  51.9990301  82.7260494  64.3522167  30.2373457  38.7801814  70.4908466
  30.5084062  39.6707940  70.2682114  30.4857707  38.6767840  71.4094448
  13.0422533  78.1980085  68.4978294  13.6916971  77.4963236  68.5435867
  12.2140205  77.7474070  68.3328390  10.7891393  16.7918766   6.5962625
  11.6128194  16.5428436   7.0155054  10.1969814  16.9798112   7.3244536
  80.7567501  81.5066338   0.4709519  81.2618542  81.1525822  -0.2609902
  80.2863121  82.2525311   0.0987197   9.6959072  49.9644136  56.3711786
   9.7815865  49.2847729  55.7026100   9.1452020  49.5681095  57.0463800
  11.6326118  40.8505297   6.7464864  11.9725823  40.2751350   7.4317390
  11.9382036  40.4564857   5.9294355  54.9852610  73.9242887  51.5304232
  54.5928812  74.6872330  51.1059427  54.3123007  73.6150837  52.1368456
  64.6587753  84.6099377   8.3269340  64.5583153  83.7553120   8.7461770
  65.4563570  84.5279503   7.8040814  85.3966999  12.3260796   2.1247125
  84.9573231  12.7679908   1.3981503  86.2915230  12.1870279   1.8145514
  23.6114216  60.8734179  31.2080169  23.8877058  60.4442501  32.0177794
  23.0365944  60.2365637  30.7834935  33.0151224  70.7992411  38.7698245
  32.3022032  70.2178097  39.0342450  33.6577177  70.2195978  38.3607745
  15.3311360  30.7144523  17.0902824  15.9552693  30.1372147  17.5301516
  15.4648948  30.5455542  16.1576438  48.7059689   1.2104332  48.3043480
  49.2939520   1.2047148  47.5490522  48.5265732   2.1374950  48.4612131
  65.4954481  75.6720495  57.6656151  64.9390554  76.1048794  58.3131599
  66.3747787  75.7097960  58.0418873  31.4167070  36.1642003  69.7517824
  30.9349084  36.9731426  69.5794058  31.3525486  35.6686139  68.9353848
  50.6255484  60.9598970  72.8678322  50.6135702  61.0858488  73.8166332
  50.7288408  61.8418455  72.5104284  69.2289925   5.9989572   3.6395672
  70.0249481   6.3630462   4.0270305  69.2387247   5.0764471   3.8947377
  19.1808665  17.8690350  19.2543077  19.5493412  18.2553637  20.0487947
  19.8310769  18.0508435  18.5757768  63.9261436  66.4050102  38.1563425
  64.8543262  66.2967730  37.9489899  63.9073610  66.5497828  39.1023445
  39.7074437  56.4219761  28.8832474  40.0024605  57.0073318  28.1857109
  39.3119693  57.0034647  29.5326328  20.7498837  69.0288496  61.1562681
  20.0571918  68.6385632  61.6892672  21.1659837  68.2843494  60.7217407
  66.9202948   4.9662024   6.6415328  67.3603392   5.0486702   7.4875760
  66.0267162   4.7024319   6.8610340   5.4805440  65.8827543   1.7827322
   4.6973035  65.5086374   1.3792431   6.0121363  66.1793327   1.0440290
  15.0381339  61.4303398  59.1110468  15.4318917  61.5730381  58.2503319
  15.7546198  61.5747547  59.7291279   0.5776320  37.5914788  12.4403632
   0.9218206  37.1204925  13.1992674   1.0686707  37.2402287  11.6975737
  31.7158079  33.9870501   9.1396374  32.5365996  34.3591428   9.4622511
  31.6311336  34.3292713   8.2497227  33.9819860  45.8755541  66.8673658
  33.4106946  46.0530138  66.1201286  34.3136787  46.7357302  67.1248674
  74.2436266  38.1740117  67.6390028  74.5315504  37.3337770  67.9958487
  73.2878542  38.1222439  67.6458168  65.4334259  85.0362396  13.0474150
  66.2589502  84.6801567  13.3759713  65.4046488  85.9295368  13.3900833
  49.2958689  68.3779716  61.2984800  48.8586569  67.5639200  61.5482664
  49.9470520  68.1108046  60.6497765  19.0953469   9.6683145  31.6325974
  19.6398854   9.3498397  32.3525167  18.6926174   8.8793951  31.2697649
  33.8976645  33.6827278  16.0737002  34.5236278  34.2479420  16.5263963
  34.4133401  33.2520890  15.3918946  19.6818054  64.4619131  47.1360111
  20.4554272  64.9524450  46.8583012  19.9827313  63.9417505  47.8810644
  56.4132214  65.0018597   7.6647842  56.6490459  64.1788769   8.0929404
  57.1288490  65.5989647   7.8828931  24.7747421  25.9192395   0.7770626
  24.0106130  25.3499913   0.8681472  25.2341557  25.8390427   1.6129689
  86.9084072   0.9782165  14.5076692  86.8644238   0.9699003  15.4638219
  87.3906708   0.1824494  14.2831588   8.9854980  24.8210740  12.9802346
   8.1229609  24.4953728  13.2374883   9.5556402  24.5957208  13.7153435
  11.0090780  19.6186543  15.7230031  10.6819057  20.5182028  15.7251811
  11.9451845  19.7038233  15.9037852   8.1749147  74.5561838  34.3092608
   8.1408727  73.9047670  35.0097823   7.5510478  74.2386675  33.6564159
  33.8141942  73.5397100  52.9745960  33.7465382  72.5964499  52.8265619
  34.1847396  73.8837385  52.1618366  85.1562119  40.5852842   5.5295086
  85.8626175  40.4641056   4.8950401  84.3577480  40.5865669   5.0016129
  76.4922476  14.7392118   0.4593710  76.7321491  13.8133073   0.4965056
  75.8165216  14.8386371   1.1300007   9.0256852  22.3128009  29.4939208
   8.6805099  23.1965566  29.6206617   8.5251456  21.7704654  30.1034808
  76.7237663  76.3149548  61.6718006  76.3846684  76.2778187  60.7774496
  76.6668367  75.4129934  61.9871807  40.0062752  55.9681559  56.3659477
  39.7714043  56.0486031  57.2903919  39.2631507  56.3467455  55.8961964
  36.3423443  58.5740566  67.1647358  36.5033436  58.9982700  66.3219118
  36.8525028  59.0863514  67.7920532  51.9950342   5.5506569  45.5738163
  52.4198675   4.8571289  46.0785580  52.7170324   6.0164720  45.1519537
  91.1411953  51.7714167  60.3472281  91.7589951  51.6330671  59.6293068
  90.9978390  52.7177191  60.3608465  67.3085976  85.1160145  29.6065187
  67.6478767  84.4443798  30.1981401  66.3574696  85.0550461  29.6952367
  42.5139666  62.8331900  53.5946798  41.8004370  62.2146225  53.7511683
  43.1338358  62.6685476  54.3052340  83.8971233   7.2902322  20.5333519
  84.7961998   7.5146866  20.2935147  83.4398270   7.2064978  19.6966326
  63.2237768  22.6342010   9.0313804  62.7644014  23.3695221   9.4369763
  64.1430426  22.7700520   9.2610013  90.8668137   9.2600036  21.7121863
  90.3908634   9.3292087  20.8845925  90.3176975   8.6971003  22.2579360
  63.6377764  55.1608276  49.8801279  64.1184473  54.3403769  49.7703695
  63.4369516  55.4420233  48.9874744  13.1939793  81.5271950   4.4506156
  13.1339085  80.9577847   5.2176821  12.3942542  81.3479996   3.9560851
  11.5183997  28.9007878  39.8942232  11.7179441  28.9148283  40.8302879
  10.5675721  28.7983060  39.8535323  30.6520009  69.6750879  46.0771322
  30.1983976  69.5665932  46.9130182  31.3897204  70.2510023  46.2779474
  41.6664171  48.5167027  63.8269186  41.1096907  47.7426529  63.9113712
  41.7935181  48.6185551  62.8836775  36.4234710  27.0609999  13.3998930
  37.2009039  27.5926304  13.5707772  36.5292501  26.2941170  13.9628601
  21.0810733   7.0998204  30.3021002  20.2003837   7.0108706  30.6663871
  20.9387183   7.2852457  29.3738842  89.4107246  39.7538900  73.1056070
  89.9546528  39.4370437  72.3845005  89.7528172  39.3050838  73.8787699
  79.9010801  76.1700201   4.8651218  79.2285204  75.5574131   4.5674559
  79.4103765  76.8938589   5.2543521  72.5863218  51.2171173  59.4752073
  72.7909660  50.6339359  60.2061367  71.7041016  51.5370321  59.6638012
  42.7377605  76.0781860  54.4676495  41.8007851  75.9220934  54.3495798
  43.0516624  76.3214588  53.5967255   8.1313562   2.6162195   9.2548168
   7.3807997   2.3008938   8.7513626   8.8869327   2.1889120   8.8514012
  11.8189025  33.4197354  12.7835596  11.0280478  32.9315066  12.5546181
  12.4758673  32.7449226  12.9546058   7.5373995  21.7046547   2.8815314
   7.8822553  21.2639785   2.1049289   6.9371295  22.3650575   2.5354478
  41.0539436  82.6176643  57.6803541  41.0985184  81.7682266  57.2413921
  41.0961723  82.4076748  58.6132812  76.8813372   5.8562386  12.3044443
  77.5139856   6.3397706  11.7732346  76.1016512   6.4114380  12.3128164
  29.9769425  76.5055084  67.9313183  30.1098108  77.1224356  68.6510181
  29.6848202  75.6997013  68.3574343   4.7384453  10.0575638  64.8825169
   4.5756590   9.6070123  64.0538216   5.5956465   9.7382253  65.1644039
  87.0026302  15.6315458   0.7418257  86.9719315  15.9157920  -0.1716804
  86.2976456  14.9883699   0.8163595  18.3761048  41.2581778  29.8898458
  17.9637253  40.4427290  29.6048570  19.2160273  41.2749052  29.4310641
  60.6228161  77.3590136  74.1726780  60.7727718  76.4550447  74.4494104
  59.9758863  77.6951885  74.7929192  78.0692196  73.5106659  64.6037436
  77.3650408  72.9920959  64.9929094  77.8885984  74.4080496  64.8835897
  46.3760805  71.1714888  48.6431980  47.2835112  70.8750439  48.5730124
  46.0811090  70.8410263  49.4917393  21.6347528  73.8001919  73.0040503
  22.5369382  73.4820366  72.9713345  21.6392708  74.4625425  73.6950636
  87.7472591   1.8839628   0.9530103  87.2050762   1.4567052   1.6161247
  87.6567650   1.3309591   0.1769757  87.5892544  28.7030959  12.3464978
  88.1184959  29.4896173  12.4788547  86.7512894  28.9054465  12.7625573
  37.1612406  48.4380817  71.6282988  36.4228487  48.9333820  71.9828224
  36.7718458  47.6250315  71.3065100  13.3048356  18.2762432   5.3640544
  12.8734076  17.4342275   5.2187586  13.1704044  18.7582064   4.5480454
   2.8643483  30.6414437  38.5529709   1.9201872  30.4841685  38.5455227
   2.9539743  31.5710354  38.3430624  31.9530678  76.7683125  42.9663277
  32.5264955  77.2308350  43.5774660  31.1177945  77.2322607  43.0237961
  44.4485712  45.7398939  51.3672781  43.6384821  45.4938316  50.9206915
  45.0632477  45.0383711  51.1521673  63.7382221  81.2286472  15.8919048
  64.5001411  80.8671856  16.3447416  63.0154324  80.6533146  16.1425102
  41.9155550  65.6688023  61.1988401  41.3866711  66.2910509  60.6995201
  41.3805580  65.4601669  61.9646597  48.1375790  65.2566147  66.6201258
  47.7671003  64.7195816  67.3205328  47.5019550  65.1923609  65.9073210
   3.5462654  23.9581537   0.5359577   4.1165558  24.0631056  -0.2256103
   2.8263372  24.5699501   0.3821981  29.9998403  68.6520672  61.6006994
  29.6199560  67.8852224  62.0294952  29.9965692  68.4317875  60.6691933
  39.8115897  50.3805161  48.6446571  39.2138982  51.0526228  48.3171272
  40.6332397  50.5445337  48.1818104   8.6338276  15.3374171  17.8209317
   7.6927823  15.2336979  17.6798356   8.8317323  16.2110829  17.4836290
  73.1908274  62.4996996  15.8359396  73.7078810  63.3046627  15.8663023
  73.4623766  62.0111609  16.6129982  73.4282351  36.5528631   4.1917294
  73.2272291  37.2208333   3.5362568  73.0355787  35.7515717   3.8453385
  76.5870905  30.9712720   2.3645110  76.1305809  31.3193846   3.1304407
  77.4366999  31.4121222   2.3712058   7.5435561  12.4157619  33.5793686
   7.3704231  13.3279765  33.8120103   8.4864068  12.3108649  33.7068892
  33.0113840  18.8423336   6.2375730  32.3073244  19.4282603   6.5154612
  32.6340556  17.9652929   6.3057965   7.5659794  29.8607874   1.8259913
   7.8384751  28.9686894   1.6111922   7.2752434  30.2297807   0.9919957
  79.0351152  41.0437059  23.2334685  79.2414904  41.4178753  24.0899968
  79.1545200  41.7689085  22.6202369  33.1529713  49.6140051  19.9757588
  32.6996231  50.3523397  20.3826594  33.1492901  48.9314175  20.6467986
  70.0278616  84.2350006   8.4870988  69.6240234  85.0877762   8.3261174
  69.5928240  83.9088535   9.2748815  47.1691895  72.8553724  53.7864733
  46.3240147  73.0916834  54.1686583  47.1313095  73.1954813  52.8925371
  62.7613783  69.2641687  49.2159510  62.3023367  69.4661617  50.0312519
  63.6797285  69.1804504  49.4725561  79.7032547  59.0833616  53.7654924
  79.9623966  59.9257708  54.1388941  79.8895979  58.4476376  54.4564056
  20.3117514  15.6205332   5.1242179  19.8426723  14.7994864   4.9756327
  20.3307986  15.7165647   6.0763979  67.2992373  40.2794695  62.1010399
  67.2117615  40.3285360  61.1491060  68.1890869  39.9568009  62.2434711
  45.7273865   9.1092271  25.3164148  45.2128553   9.9118721  25.4015636
  46.3129663   9.1186571  26.0735416  24.3285394  62.6432943  47.7934599
  24.8026872  61.8235588  47.6539850  24.6185136  63.2120466  47.0802546
  72.3860216  42.4481201  67.1659279  72.5921583  41.8734741  66.4286852
  73.1538820  42.3927546  67.7347469  36.4046931  12.7179801   1.7955877
  37.2545123  12.3362553   1.5757577  35.7683897  12.0520663   1.5349951
  28.2656264  56.7613935  71.2106133  28.6440229  56.5764284  72.0701694
  27.4067712  57.1376944  71.4029598  59.0159321  65.1357603  21.4707470
  58.1401014  65.0758934  21.8522811  58.8690567  65.0922871  20.5258822
  68.9460468  30.8461237  30.4022717  69.0488338  30.1997852  29.7037625
  69.8313904  31.1762381  30.5553102  24.0124178   5.3247494  11.8596804
  24.8179603   5.5520034  12.3241055  23.4294558   4.9898803  12.5410390
  79.1035604  16.6848385  47.6787233  80.0166893  16.6340625  47.9612970
  78.6611032  17.1594155  48.3824587  71.3507414  74.7389889  23.2151079
  71.2317181  74.9689817  24.1366124  71.0545969  75.5123425  22.7350521
  76.9321299  79.2598057   9.0121609  76.7626238  78.7413454   9.7987330
  77.8806877  79.2115021   8.8932651  73.3674431  63.7757254  67.0190907
  73.8430357  63.0069733  67.3338175  73.2212210  63.6027431  66.0890770
  52.6886749  77.8472137  42.9387665  52.6322746  78.7362385  42.5884914
  51.8050385  77.6575136  43.2540846  18.5651505   4.4543523   0.5361993
  18.3049226   4.1550335   1.4073601  17.9685152   5.1775718   0.3432969
  43.5423946  62.2246981  46.4048862  43.6318398  61.2722921  46.3708639
  44.1646576  62.4998045  47.0781898   8.9184809  22.7177930   8.7571317
   9.4024527  23.1594372   9.4549519   8.0339551  22.6137781   9.1078842
  30.3615665  13.6093426  19.9279606  30.6505108  12.6978719  19.9722791
  31.1253953  14.1163898  20.2030969   4.0695006  32.1327662  13.3742070
   4.9642202  32.3858595  13.1469357   3.7348622  31.7030764  12.5870490
   9.3792111   1.9079871  23.2269073   9.9291366   1.6769883  23.9755416
   9.7883755   1.4651459  22.4834657  67.4658728  34.2848086  54.8247480
  67.5700808  34.2937088  53.8732767  68.3224201  34.0161729  55.1569986
  78.7124634  14.1816485   5.7920092  79.1348648  13.4674537   6.2692255
  77.8979540  13.8012373   5.4632306  29.4909501  59.6041489  52.6886082
  29.3535829  60.1372337  51.9055510  28.6399341  59.1986227  52.8546047
  37.4527001  55.0136805  47.2750187  36.9119549  55.8033562  47.2904444
  38.1901383  55.2394104  46.7080402  41.7796135  69.4824362  45.8800268
  41.2555122  68.7096262  45.6695223  41.3814449  70.1879883  45.3702259
  44.5613432  85.6889915   6.6137081  45.5145931  85.7614708   6.6615796
  44.2547989  85.9934616   7.4678528  53.9929628  16.4068019   6.3401115
  54.8603678  16.7153215   6.0781002  53.3970833  16.7948377   5.6993365
   5.0791049  14.0197122  36.9868970   4.9649289  13.1330299  37.3289347
   5.2435988  14.5562232  37.7623510  49.9882936  24.8665237   8.2035184
  49.1910839  24.4035244   7.9459900  50.1143551  25.5247617   7.5200987
  57.2845268  10.3043795   7.9715413  57.6017523  11.1184394   7.5805098
  58.0651903   9.7559977   8.0495125  86.0324001  80.1751709   1.2111610
  86.7213631  80.1607895   0.5468129  86.4057732  79.7004128   1.9537401
   7.4325901  11.0581779  10.0731027   8.2132369  11.4698517   9.7024977
   7.7355456  10.6625116  10.8903527  35.2387118  54.9819613  60.2016306
  34.7739887  55.2157211  61.0051346  34.5573688  54.6435833  59.6206808
   6.6370493  48.9727354  67.2078466   6.8543160  48.0941105  67.5193787
   6.9124562  48.9767361  66.2911320  27.8258181  64.0473461  48.3822250
  28.7012553  63.9787722  48.7631941  27.2407174  64.1135597  49.1368818
   1.1791250  36.4398098   3.6807609   1.4200060  35.6267571   3.2367393
   1.4135814  36.2909865   4.5967925  86.0889435  76.3158226   2.3853984
  86.6522217  75.5944729   2.6657811  86.4244843  77.0786715   2.8562626
  87.0785046  16.9864428  17.0472145  87.6863575  17.6769066  17.3118067
  86.2682152  17.4493647  16.8342209  49.7912788   1.9522992  65.3989363
  50.6846333   2.2699894  65.2677011  49.2617559   2.4686830  64.7913265
  67.6052237  71.0862923  44.6828270  68.1935263  71.2988520  45.4073620
  66.8485594  70.6756783  45.1012611  47.0318794  48.1671762  66.2188387
  46.3550425  47.7643633  65.6749105  47.1370697  49.0473413  65.8576202
  37.9078650  28.8394737  10.6513476  38.4756184  28.4407091  11.3107967
  37.0196843  28.6584830  10.9589303  74.7886896  83.3368111   8.4220225
  74.0106392  83.5126400   7.8929168  74.9271631  84.1427517   8.9195251
  81.4338017  36.7033195  11.4961004  81.1049080  37.0313311  10.6591618
  80.8421230  37.0771956  12.1490705  50.9078312  14.4240963  71.6307974
  49.9535704  14.4818199  71.6786385  51.1062765  14.5060670  70.6979895
  54.7415590   0.8451145   2.0014684  55.3897142   0.3970934   1.4579555
  55.2603817   1.3180152   2.6521757  37.3957777  67.7561808   1.1647468
  37.5875545  67.8950262   0.2372906  37.6917362  66.8627930   1.3393922
  80.4832840  76.6723824  13.7284529  80.2022457  77.3429728  14.3509960
  79.8117399  75.9929609  13.7888920  86.5219307  30.1237965  19.6408308
  87.2345638  30.7460046  19.7866023  86.0586929  30.0898075  20.4777837
   1.0801228  74.7490835  54.9310780   0.8237572  75.6701517  54.9773312
   0.7543433  74.4521713  54.0814066  14.2940235  42.7928591   5.5385160
  13.5559511  42.2254610   5.7610923  14.0199113  43.6648893   5.8225173
  31.8684793  63.0764198  72.5903940  30.9861183  63.4369040  72.5025320
  31.8922758  62.3475647  71.9703627  13.2061970  22.1637607  18.4319973
  12.6708484  21.8462038  19.1591775  13.9981890  21.6272378  18.4654868
  88.5504055  50.4464388  20.9495401  88.3505249  49.7797251  20.2924466
  89.4856358  50.6182098  20.8396697  39.5430899   4.0426853  40.3528070
  39.5710731   3.1185102  40.1051188  38.6108828   4.2358580  40.4523325
   2.3131260  40.3563213  12.3594749   2.3461518  41.0909700  12.9721975
   1.7129901  39.7316122  12.7666736  23.3727407  17.1979272  72.1416235
  24.1065574  17.8080010  72.2161722  23.7611318  16.3983560  71.7865610
   0.0906716  49.3037939  36.4937091   0.9807561  49.3627262  36.1465669
  -0.0155954  48.3810616  36.7250156  42.1759653  20.4230618  13.4627044
  41.5781116  20.9730673  13.9689636  42.4816418  20.9901476  12.7547455
  25.7258701  61.6319180  63.6398411  24.7847080  61.6415453  63.4656143
  25.8025694  61.8980074  64.5561075  85.5906582  43.1268978  16.6703916
  86.4577961  42.9762316  16.2940931  85.0274754  42.4841356  16.2392128
  13.7767482  73.5338163  41.5160990  14.4879317  74.1556072  41.3617563
  14.1366279  72.9100084  42.1466398  81.8899155   9.6034014  47.5990772
  82.4740505   9.3358886  46.8895292  81.5565586   8.7809634  47.9578209
  32.8713584  63.8085413  52.0905161  33.3226132  64.4976664  52.5780725
  32.0403004  63.6939573  52.5514317  79.3964529  18.3478034  66.5328217
  78.7795782  19.0795922  66.5463877  79.3655205  18.0251360  65.6321764
  69.6062803   3.3846569  59.9623108  69.1384935   3.9118451  59.3146372
  69.4195795   2.4792352  59.7141457  77.8000498  56.1945820  59.8252392
  77.5891352  56.3070583  58.8983631  77.7392769  57.0760632  60.1933813
  27.2333312  31.1840940  41.3792896  26.3281727  30.8733153  41.3609266
  27.7367735  30.4364514  41.7014790  41.3635778  19.7482312  73.5658169
  41.9856119  20.4249716  73.2987452  41.9057655  18.9775908  73.7342834
  84.7302437  51.8966627  12.0097721  83.9735317  51.7201519  11.4507794
  85.4164314  52.1748781  11.4031649  20.1153016  36.3959813  31.4918041
  19.3037236  35.9107208  31.3431692  20.6782460  36.1519694  30.7571054
  26.2198353  77.2027683  50.5531883  26.7183375  76.9222593  51.3206768
  26.7605925  76.9416237  49.8077917  38.3946490   6.2027860  10.3881812
  38.4541678   5.3957444  10.8994281  38.0286121   5.9274292   9.5476890
  73.1582451  83.9582443  49.1362762  73.4757853  83.0572605  49.1965055
  72.5901222  83.9609718  48.3659124  28.5513711  79.8536301  49.6444225
  29.0299106  79.0837717  49.3369389  27.6313257  79.6433592  49.4846201
  68.8925600  74.3773127  69.4485712  68.5078478  74.8775768  68.7288761
  68.4249067  74.6795034  70.2271652  68.6826801  71.8336105  71.4306641
  69.0416718  71.7391920  70.5483723  68.9195299  71.0190296  71.8740511
   6.4738315  12.3762667   7.5342822   6.9445461  11.8762624   8.2011074
   6.7895758  13.2736313   7.6404577  54.2769957  73.6897469  59.5036125
  54.3195677  72.8130388  59.8854542  53.5025311  73.6688089  58.9414787
  32.8756118  38.8344049   5.8196527  32.3295426  39.4251275   5.3009158
  32.2574329  38.3713436   6.3850397  45.4373407  85.2576160  51.9302320
  46.1166811  84.5899582  52.0248985  44.6145201  84.7718906  51.9874716
  27.4262309  11.2780166  34.9892282  26.5667129  11.5324581  34.6534944
  27.7999878  10.7295060  34.2995381   8.4386694  39.3892694  14.4208813
   9.3293142  39.0492940  14.5069098   7.8809828  38.6122417  14.4589090
  77.4371719  16.9474959  54.5920372  77.3443651  16.3023925  53.8909960
  76.5854502  16.9507444  55.0288343   6.2534505   5.9681416  19.5040059
   5.8517802   6.2367171  20.3302979   5.8271515   6.5127832  18.8422906
   1.5713280  17.7962315  71.6952944   0.8469566  18.1957865  71.2137604
   1.1472896  17.2782719  72.3795033  78.9026308  12.8839600  17.2683251
  79.4057560  12.6458204  18.0470335  79.4666386  12.6392519  16.5346718
  82.2459030  19.1428268   5.8722997  81.5730667  18.9786303   6.5330344
  82.9353237  19.6105838   6.3436061  21.6304588  29.9592471  32.1496034
  21.0550809  29.4885373  31.5466070  21.1782432  29.9195266  32.9923105
  40.4700756  29.7570944   5.5232203  41.2212276  29.3756032   5.0688303
  40.8551645  30.3682828   6.1512214  12.2111821  30.3905725  31.0122728
  12.8539300  30.6757760  30.3628373  12.4249375  30.8939147  31.7978859
  62.4999905  30.4765916  13.1925893  63.0059195  29.6972537  13.4225869
  63.1591606  31.1279106  12.9527807  22.9530787   8.3373135  18.8891613
  23.4699249   8.6617166  18.1516886  22.1649528   7.9720968  18.4870374
  91.1345196   6.5545386  72.2808552  91.7366982   7.1210575  71.7984962
  90.6000996   7.1577138  72.7973938   1.1686847  40.6808662   4.2583752
   0.5582919  40.8675337   4.9716818   1.5089507  41.5385294   4.0036947
  29.9896550  80.5592632  67.0703745  30.8034563  80.0845146  67.2393847
  29.6356940  80.7450485  67.9401016  42.1554756  69.6244383  48.8624144
  41.3165092  69.3688726  48.4789371  42.7812195  69.5481634  48.1420946
  25.0411010  32.0366406  12.1499443  24.8529053  31.1808777  12.5352836
  24.1978812  32.3374724  11.8112540   0.1345770  39.3736696  70.8172512
   0.9801282  38.9376736  70.7115126   0.3293011  40.1497078  71.3426781
  20.7962966  56.7338657  11.6429400  20.9572244  56.3881111  10.7649946
  20.0130200  56.2722445  11.9422960  14.5601618  70.5082130  49.3983793
  13.6324263  70.2968359  49.2941809  14.6172559  70.9163380  50.2623272
  10.1707518  28.5015678   2.6524374  10.7346809  28.6772585   3.4056631
   9.9342334  29.3685770   2.3229130   4.6987286   5.3612262  36.9344330
   4.3590066   5.6893253  37.7670026   4.8954347   6.1496949  36.4286113
  87.5870419  24.6877694  54.3064165  87.1514511  23.9160919  54.6683598
  88.4837437  24.6337152  54.6369219  17.9010296  43.4760666   5.7712859
  18.1480134  42.5686359   5.5929494  17.2180486  43.6690521   5.1290047
   4.0773782  73.6931658  63.0400848   4.1629818  74.6286869  63.2236767
   4.1265985  73.6307955  62.0861912   2.5516605  44.4009054   0.6444717
   2.0225954  44.3909383   1.4421058   2.2190905  45.1471837   0.1457763
  45.0018883  57.7184296  38.6599493  45.7047749  57.7719498  38.0123997
  44.5884228  58.5814047  38.6365175  71.0615206  49.5581770  53.3325195
  71.7284203  49.1465902  52.7829170  70.9354830  50.4253387  52.9473209
  26.0951591  79.4793797  59.4079065  26.1680079  80.0805759  60.1491785
  26.9618940  79.0792370  59.3379736  69.4994831  69.6381283  72.7711582
  69.9315166  69.0288210  73.3697557  68.8299894  69.1111326  72.3349380
   2.0838387  24.6109509   3.4846148   1.4145169  25.0627160   3.9985684
   2.5537044  24.0738463   4.1225624  62.0623350  10.3533411  15.7074237
  61.3745308   9.7583020  16.0058951  62.6211596   9.8126733  15.1491928
  65.8222151  71.2772846  28.2559657  65.0020790  71.6419601  28.5885596
  65.8012152  70.3582096  28.5225892  52.3330688  74.7051239  65.2335262
  52.7153826  74.5981455  64.3625402  52.6234055  75.5718184  65.5177355
  20.5889368  33.9705396  22.2344351  19.6568954  34.0019941  22.4501681
  20.8518457  34.8889208  22.1736860  12.3232472  16.1870670  11.2441862
  11.7501903  16.8458700  10.8519912  12.5912416  16.5695810  12.0797062
  21.9801092  74.8249865  53.3877754  22.1300316  74.2517853  52.6359844
  21.0346413  74.9743748  53.3902836  27.6584578  38.4953642   9.5941603
  26.9991493  37.8143001   9.7271901  28.2986712  38.0970430   9.0044999
  45.4162741  77.6836491  69.7463894  46.1925459  77.8026056  69.1991425
  44.9302101  76.9765568  69.3221378   5.9987020  45.8897781  12.3132598
   6.4109766  46.3715076  11.5961838   5.6301582  46.5693903  12.8776467
  82.1206188   6.7792934  39.5123506  81.7633343   7.5718904  39.9128103
  83.0679417   6.8616605  39.6220303  41.3746023   2.3118386   1.5367247
  41.8038034   3.1353265   1.3045910  40.6103039   2.2697799   0.9620009
   9.3590391  58.6278486   2.8692299   9.9045658  59.4022322   3.0069378
   9.7759253  57.9447222   3.3943754  23.6632824  77.3656034  56.2947130
  24.3633842  76.8825722  56.7337704  22.8865933  77.2003269  56.8291950
  55.7341099  70.3831530  71.8015385  54.8954248  69.9502563  71.6420555
  56.2706566  69.7157145  72.2291803  42.0483112  82.4263763  60.3090811
  42.8123808  82.3525810  60.8809090  41.3865137  82.8593540  60.8483219
  54.1813946  47.2401285  62.9058170  54.7619152  47.9630852  62.6679945
  53.8052845  47.5015163  63.7463188   0.4213858  70.0169373  59.4782591
   0.3949558  69.4853497  58.6826801   0.3595403  69.3825436  60.1923704
  69.8785830  52.2182703  58.9610481  70.2310181  52.7622032  58.2566643
  69.1929436  51.6982365  58.5418940  22.3496723  73.6038733  41.8114424
  21.4612913  73.4001398  42.1038532  22.5084186  72.9980183  41.0875797
  66.0826111   3.9488888  64.3843222  65.3797197   3.9005923  63.7363672
  66.8813753   3.7814689  63.8841391  13.8110101   3.3399570  61.0855818
  13.8091540   2.4713677  60.6833649  13.3678806   3.2161605  61.9249535
  33.9900875  19.6644425  14.7657144  33.8185692  19.1675746  15.5656743
  33.1761765  20.1402211  14.6001291  15.6637824  50.3229380  27.6830006
  16.1415339  50.7603931  26.9782901  14.9941802  49.8068953  27.2340369
  53.8848209  51.9305944  63.8556957  53.4839249  51.0726404  63.9950705
  54.8230982  51.7774963  63.9671803  47.9354715  65.8284235  61.2219143
  47.1613693  65.8908701  61.7814684  48.1890297  64.9064636  61.2658691
  53.4441519  39.6822095   8.6821622  53.7436342  39.9141860   9.5612121
  53.4609509  40.5076504   8.1978053  16.6737640  40.1441908  20.2517557
  16.8355119  41.0504293  19.9894452  15.7214689  40.0828457  20.3266025
  27.3145771  51.5876722  10.6141269  26.7728758  51.4000082  11.3806605
  26.7917514  51.2852812   9.8715329  78.3481836  57.3611546  34.6122742
  78.9709997  58.0428314  34.3599892  78.1554985  56.8989706  33.7964988
  18.6226273  78.5392284  32.1770096  18.2628763  77.9388237  32.8299475
  17.9822886  78.5310698  31.4655805  60.8986425  64.4046926  70.3340960
  61.4572001  64.8929405  69.7292328  60.6389809  63.6247158  69.8437452
  28.0207062  37.7658749  15.0135016  28.7979555  38.0653453  15.4851305
  27.7264833  36.9963813  15.5008841  24.7328544  18.5596859  12.9383099
  25.1339483  18.8947380  12.1363771  24.8339033  19.2702734  13.5716224
  20.8333445  35.3316355   3.5399130  20.0168586  34.8875618   3.3110452
  21.5135670  34.8271561   3.0937853  59.1509724  73.6534548  69.1224861
  58.4318161  73.3590221  68.5635996  58.7316179  73.8814783  69.9521732
  61.7900229   1.3089664  40.0757742  61.5954351   1.8052915  40.8707762
  62.7370548   1.3943526  39.9658918  28.2294083  85.1992702  62.0718765
  28.9108419  85.4093647  61.4333296  27.4385262  85.6094170  61.7218637
  69.9598503  15.8407021  59.6493912  69.3775606  15.1991343  59.2425013
  70.5249310  16.1375546  58.9360905  34.2567015   4.9209931   4.2335260
  34.9781275   5.4408324   4.5878488  33.5113835   5.5215108   4.2229649
  32.5665212  68.3315659  59.5414257  32.6888514  68.0081224  60.4339790
  31.7408276  67.9404259  59.2559910  47.3847723   6.7920399  65.3973150
  47.3581839   6.2852031  64.5857430  46.5213537   6.6617674  65.7894516
  35.7284403  55.1098394  70.7361126  35.1914883  55.6243277  70.1334333
  36.6152477  55.1745892  70.3816891  58.9887094  73.8865805  56.8913269
  58.9142084  73.1290388  57.4716806  59.9246645  73.9518976  56.7016983
  19.0096664  66.9850206  74.4351101  19.7763002  66.9483089  75.0070858
  18.9455593  66.1051321  74.0637350   8.9369994  22.3700285  18.9113688
   9.6094072  22.7233863  19.4938111   8.6441505  21.5673304  19.3428171
  69.1673422  70.7580233  48.7087393  68.4964132  70.7490921  49.3913889
  68.8485670  70.1394320  48.0515051  21.1593270  40.6972742  13.9255297
  21.9570851  41.0007572  14.3587863  21.1625218  41.1428547  13.0783713
  64.5611191  68.1977606  55.1673794  63.8161850  68.3523750  55.7482386
  65.2640963  68.7361860  55.5309105  76.4587688   5.4238594  64.7081852
  75.7224894   4.8777834  64.9837351  76.6522741   5.1330870  63.8169861
  33.2992864  27.6798010  19.9645257  33.7446451  28.4228373  20.3716898
  33.2301521  27.0296144  20.6636047  12.0370531   7.6544666   4.3485376
  11.6778588   6.7901373   4.1481751  11.9967985   7.7151948   5.3029609
  10.6658447  68.7705755  24.1490340  10.5871773  69.5164013  24.7438359
  11.6050744  68.5890532  24.1154265  42.5795269  77.5621653  65.6447124
  43.0880451  78.3698034  65.5715084  42.8075886  77.0635891  64.8600817
  50.7800865  62.6572800  59.6263075  50.1617146  62.8883886  60.3194427
  51.6394043  62.7096605  60.0447083  90.2453995  68.8695908  74.4346189
  91.1619568  68.6931324  74.6468067  90.2760601  69.3016720  73.5810375
  40.8901787  55.6410885  21.6550541  40.3787184  56.1150885  20.9993362
  40.8383274  54.7248793  21.3828301  56.6835308  72.7773380  71.0035706
  56.6979599  72.7809858  70.0464869  56.5024137  71.8668556  71.2369108
  48.8373804  28.1402540  49.7579527  48.6068344  28.7682605  49.0733433
  49.7693443  27.9692841  49.6221590  26.5535307  71.5283537  63.9585304
  26.5596342  70.7769585  64.5514870  26.9513011  71.2002850  63.1520653
  22.4207497  75.1133633  59.1817951  22.5013900  75.9890604  59.5597935
  21.9584107  74.6061230  59.8490143  27.4412227  43.1686831   7.7639323
  27.1857071  42.7575445   8.5897082  28.0343699  42.5379419   7.3557997
   6.6066837  11.9960701  16.1467719   6.6963571  11.7894411  15.2164531
   5.7143486  11.7284322  16.3666368  46.9807625  69.9404764  28.0659795
  46.7224503  69.1255617  27.6353765  47.5990438  70.3467560  27.4586129
   1.4495921  11.1291003  22.2600007   0.7704846  10.4571676  22.2004080
   0.9889008  11.9083095  22.5711727   2.0771186  14.2579448   1.0203348
   2.9828602  14.1303635   0.7382230   1.8209934  13.4140027   1.3923478
  76.6451502   2.4392116  66.2899733  76.5318918   2.1724540  65.3776979
  75.8030462   2.2464304  66.7021942  50.3916788  20.9681606  67.9842520
  51.0130405  20.9855723  67.2563505  49.7058630  20.3642559  67.6993322
  18.3189154  23.7434530   2.4163701  18.3374286  24.0172720   3.3333832
  19.1370046  23.2618952   2.2936372  82.8889370  51.2232494  51.6337395
  83.2337379  50.9303093  50.7902193  82.6704407  52.1449614  51.4961243
  23.5112810  37.7799916  15.0718176  22.6269865  37.4154854  15.0345087
  23.7436104  37.7503252  15.9999204  82.8497410  37.9792404  24.7630358
  82.2132206  38.3520651  24.1530538  83.6649799  38.4428787  24.5715642
  79.1738176   1.7275889  70.4073334  79.7181797   1.5152146  69.6491814
  78.2872629   1.7981884  70.0533962  38.9060831  50.5703020  31.9362235
  39.7095084  50.2191925  32.3202324  38.3307719  50.7259893  32.6852274
  39.8372912  67.6514292  44.9120760  39.5412946  67.1723461  44.1380644
  39.0360260  68.0128813  45.2909660  52.9591036   9.8875588  57.6425028
  52.5887680   9.5143050  56.8426466  53.0515051   9.1411924  58.2346439
  80.7628918  48.3922100  25.7676959  81.7025185  48.5622501  25.7011867
  80.5498219  48.5789251  26.6820097   2.3438364  33.2475901   6.4705580
   1.9216472  33.2610059   7.3295158   2.1194001  32.3911548   6.1067164
  85.9073448  12.5996959  16.1439764  85.7963181  13.5308170  15.9518325
  85.9756851  12.5584626  17.0978415  35.6156516  17.6526928   8.8306314
  36.1683559  16.8712735   8.8420802  36.1172295  18.2934678   8.3265877
  37.9881144  55.6274939  50.9404373  38.1267428  54.7073603  51.1648750
  37.9205775  55.6335831  49.9856424  20.0228810  29.5919681   9.2897332
  19.9081337  30.5370188   9.3894422  20.3221536  29.4809246   8.3873266
  15.9586799  65.4270792  60.1099205  16.1952019  65.5292797  59.1880512
  15.0022423  65.3888845  60.1089907  38.0235386  75.0724173  61.0188437
  38.3082008  74.3001938  60.5300999  37.4145722  75.5177021  60.4296827
  17.4812102  21.9411993  69.0320253  18.0004144  21.1813307  68.7688589
  17.3411191  22.4283886  68.2200813  45.6110477  54.6791553  32.8221869
  45.6363726  54.9636793  33.7357712  44.9628448  53.9749718  32.8085184
  68.1331873  51.0992956  49.6349239  67.9912758  50.1910639  49.3680811
  67.9907942  51.6084194  48.8369608  43.6434269  66.2879276  39.4153643
  43.7934542  67.1150398  38.9575291  42.7373314  66.0599709  39.2073774
  51.5314054  46.0664034  66.7358208  52.2241497  46.6269636  67.0852661
  51.9710255  45.2407360  66.5327406  11.0919905  78.5236788  21.5325999
  11.1562622  77.5995970  21.2914038  11.3984728  78.9952564  20.7580566
  26.9136095  55.6376266   7.3227763  26.4193845  56.4046860   7.6118994
  27.4373674  55.3891134   8.0844522  11.8158281  40.5601931  23.4450340
  12.6767349  40.6742048  23.0424500  11.9060969  40.9454060  24.3166375
  12.5223982  53.0653238   7.6122445  11.8231177  52.4123669   7.6420224
  12.3399913  53.6454916   8.3514094  16.2583065  84.9775887  69.1056395
  16.9131792  84.4778156  69.5930767  15.9476757  84.3724537  68.4321785
   9.5928925  32.7196836   4.4431335   9.6022999  33.6091661   4.7966397
   8.7072808  32.4016094   4.6184960  39.5513034  53.6699772   8.7953418
  39.7452927  53.3856916   7.9021555  39.8933101  54.5627689   8.8421398
  25.0931287  18.3628225  69.2834234  25.7844901  18.5554087  68.6500502
  25.4829907  18.5677791  70.1332664  83.1759548  20.7033157  56.3213921
  83.4905148  21.4550900  56.8235064  83.0984402  20.0001311  56.9661808
  67.2323322   5.8168912  60.3172779  66.4353085   6.3304365  60.4486465
  67.2434711   5.6277704  59.3790102  10.3191018  26.1141944   0.7465497
   9.5123106  25.9635615   1.2391245  10.7647157  26.8134212   1.2248194
  85.2634811  19.4256723  16.8047893  86.0254669  19.7488689  16.3240087
  84.5199585  19.8801816  16.4087725  24.1272950  58.3926392  52.5647736
  23.9188218  57.5102139  52.2580242  25.0748825  58.4677124  52.4521923
  83.8059616  79.9144125   9.5282584  83.7524891  79.1091824  10.0430155
  83.5279751  79.6558666   8.6495626  32.8863525  68.2433128  36.9999671
  31.9528818  68.2304001  36.7885470  32.9529619  67.7542925  37.8201246
  58.6070395  11.8631268  54.9533510  58.0316210  11.9457722  54.1928911
  58.3089018  12.5456595  55.5545950  60.9029341  67.3819065  72.5028133
  60.1576185  67.6161528  71.9497585  60.7850552  66.4488602  72.6810169
  37.3037529  68.5588551  60.7564497  36.4455748  68.9805031  60.7120037
  37.3649955  68.2344818  61.6549253  89.3325233   2.3473129  38.2607651
  89.6493149   3.1417245  37.8309011  89.5804787   2.4566059  39.1788101
  26.2258053  42.7404594  28.3650708  26.9075894  42.0859098  28.5166168
  26.6499138  43.4074736  27.8252053  25.9684491  21.1443520  17.6085234
  26.0641956  22.0965528  17.6280296  25.0327754  20.9948897  17.7441978
  67.3362231  86.1638691  46.5982485  67.7893460  86.4982974  45.8242512
  67.9092628  85.4734067  46.9315910  41.6548252  41.1530590  74.1703176
  42.1590900  41.4540577  73.4144449  41.1097050  40.4446745  73.8278723
   7.6235265   2.9993805  43.5050011   7.0370126   2.8921038  42.7561855
   7.8990769   2.1089742  43.7229013  54.8970509  21.5075779  11.0978043
  54.9466038  20.8742142  10.3818250  54.1333723  22.0456314  10.8891857
  42.6540041  77.5443888  49.7413349  42.5355959  78.4461975  50.0395823
  43.3816338  77.5908136  49.1211462   0.9930143  22.3797274   2.1802199
   1.5696880  23.1059051   2.4175912   1.3829820  21.6155696   2.6047429
  51.9494820  18.3875048  71.8512535  51.8767786  19.2804897  71.5143204
  51.0654259  18.1704450  72.1471643  56.5143204  84.8739338  70.2386856
  56.8298817  85.7019043  69.8765802  56.9319105  84.2021465  69.6996546
  13.4862530  74.2218494  61.7750502  13.3848751  74.0481186  62.7108765
  14.4331336  74.2539644  61.6386080  37.1082163  81.9716835  66.8195772
  37.1872854  82.1897125  67.7482557  36.2052631  81.6699028  66.7204380
  22.2029901   5.8414561  23.5353279  21.7701888   4.9896803  23.4770823
  23.0719781   5.6946081  23.1617951  77.9491806  17.0254993   0.0980901
  77.6397657  17.3536777   0.9423601  77.6830006  16.1061287   0.0863593
  50.5874681  14.8370552   6.6381949  49.8635387  15.3715992   6.3119698
  51.1664438  14.7315598   5.8832866  59.0721464   8.0708927  52.9025459
  58.4908247   8.4159821  53.5801983  58.5638285   7.3779315  52.4810600
  17.4090815  53.7351227   7.8259057  16.7987192  52.9991245   7.8705823
  16.9036877  54.4848204   8.1401730  65.5651045  41.4960718  31.9046569
  65.3120613  40.8507586  31.2445235  65.7590532  40.9769154  32.6851034
  77.8700304  30.9578490  18.3335555  78.8050938  30.8091688  18.4742153
  77.4588585  30.6920433  19.1560614  39.4166589  45.4854298  42.3107147
  39.9908733  44.8089838  41.9516468  39.6872377  46.2894106  41.8672800
  12.5091100  39.5584989   4.3461376  12.5168121  39.5080590   3.3902985
  13.2271552  38.9887357   4.6218434  74.7656393  85.2364731  12.0889127
  74.6265793  85.8274651  12.8289258  74.5774078  84.3657494  12.4391198
   4.4261521  37.5825524  71.1168718   3.8556784  37.0157647  71.6360474
   4.2817083  38.4590387  71.4734364  24.8754478   5.3162932  54.7004795
  24.1046834   5.1075530  55.2282858  24.9343538   4.5996207  54.0687037
  77.3680592   5.1728195  56.8466759  77.8645849   5.0165826  57.6499701
  77.1584129   4.2976171  56.5206385  57.9346275  61.7586660  45.5340433
  58.7533092  61.5174055  45.1007080  57.2863245  61.7735910  44.8299742
  86.1091232  16.2385035  63.9575291  85.8277321  16.1484694  63.0470657
  85.5249500  16.9021869  64.3242598  71.8070173  74.8028469   0.4573387
  70.9501553  74.4045401   0.6102291  72.2883844  74.6553802   1.2714463
   0.3711332  56.9151783   2.4944752  -0.0481974  57.7679300   2.6094285
   0.3665460  56.5261793   3.3690542   8.7335110  47.0355034   7.0055163
   8.0012536  46.8364096   6.4220840   8.3427089  47.5457716   7.7148342
  50.4439068  39.3496847  69.1921568  50.6408834  38.7996459  68.4339428
  50.8096743  38.8715863  69.9363804  80.1402855  39.8039389  12.5702715
  80.7605934  40.2119112  11.9661081  79.3077374  40.2403545  12.3896444
   3.4414420   9.8870087   8.4712970   3.1848332  10.5892718   7.8736264
   4.0244845  10.3100526   9.1016364  28.9612079  80.5021954  62.6561737
  29.0951610  80.0521564  63.4902906  29.8244047  80.8481312  62.4293375
  25.5985570  53.4456062   6.2149292  26.0927200  52.7054453   6.5673399
  26.1478925  54.2082977   6.3959491  71.8469620  66.2628698  55.8161259
  71.3369417  66.5441179  56.5757418  72.7105570  66.6535759  55.9494877
   9.8659819  25.1788568   4.2553592   9.2911381  25.8688617   3.9241830
  10.6734800  25.6339669   4.4942164  75.1025248  63.7182045   8.8304639
  75.8057928  63.1759644   9.1877055  75.5415249  64.3041563   8.2138824
  10.8579767  22.6190639  20.8668971  11.5206933  22.1918154  21.4095736
  10.0538993  22.1298885  21.0412455  24.7108960   3.0972826  53.3542824
  24.0521693   3.0918482  52.6598167  24.5986986   2.2562839  53.7974167
  51.5049696  25.5755043  19.9992537  50.7719517  25.0123501  20.2477932
  51.5060091  25.5588746  19.0421987  21.1435580  12.3205209   9.2529631
  21.0449123  11.7065060   8.5253054  20.7582641  11.8671799  10.0028038
  79.4309807  44.8001051  16.9466937  79.6256781  45.6997108  17.2094262
  78.5754633  44.8547840  16.5208602  89.7783661  18.2739794  56.2908602
  90.3922558  17.6781070  55.8615494  89.8730755  19.0991163  55.8150339
  69.9961615   9.5639640  73.5345840  70.0038481  10.3166246  72.9432535
  70.2201653   8.8189405  72.9769135  50.0104046  62.3282719  23.4165955
  50.4334211  62.9107332  24.0474916  50.5436182  61.5334463  23.4294891
  13.8616037  84.4205761  42.8586149  14.0118635  85.0836468  42.1848249
  12.9701090  84.1120720  42.6964617   3.9757156  26.0524487  51.5511322
   4.5813707  26.6119266  52.0373392   4.2185012  26.1771607  50.6336737
  19.3845928  46.4849472  11.5686798  18.7347937  46.6647863  10.8892310
  20.1160383  46.0828352  11.1001432   1.9665836   3.2682821  65.3692627
   2.2051740   2.6404914  66.0513115   2.3263288   4.1013044  65.6740427
   1.0497964  25.3683662  22.7436519   0.7491697  25.8244514  21.9576240
   0.7817663  24.4591880  22.6102948   8.1108177  37.1672392  22.7670908
   7.8666037  37.9904294  23.1901169   8.5004818  36.6442847  23.4677410
  36.1405659  69.2298508  52.1643448  36.3164663  69.0396500  51.2428713
  36.8139815  68.7452316  52.6417208  17.4153543  24.1711831  54.9230862
  16.7608905  23.7276196  55.4626799  16.9050241  24.6256304  54.2528105
  74.3580866  74.8354006  24.6030927  73.6411905  74.2437172  24.8315573
  75.0401974  74.2616701  24.2541075  66.0087156  39.5133162  20.0300622
  65.6626320  38.6523962  19.7949553  65.9638309  40.0192261  19.2187226
   7.8666145   3.3043161  74.3708324   7.0701683   3.7862459  74.5936537
   7.6511830   2.8488734  73.5569572  85.1660824  17.5796437  49.5595407
  84.7941685  17.2556961  50.3798866  86.0687828  17.2612917  49.5635986
  54.2993975  66.5739059  73.2779217  55.1180172  66.3604784  73.7257385
  53.9134932  65.7238913  73.0662966  70.8694696  19.7529054  72.7727365
  69.9972534  19.8841810  72.4009323  71.2188530  20.6373405  72.8820181
  30.5783486   0.1017774  63.8608885  30.3258538   0.9427153  63.4797049
  30.2300525   0.1285352  64.7520733  17.9895270  16.4890325   1.0926284
  18.2241106  16.8213224   1.9591069  18.6940205  16.7934465   0.5205686
  78.5632753  36.6159225  68.9715862  78.2980728  35.7005715  69.0612221
  77.9515505  37.0981002  69.5279360  33.2168961  80.9361172  60.7038260
  32.4685502  81.1870956  61.2453222  33.9809370  81.2283039  61.2009144
  82.2531700  14.7258639  19.4367182  81.3218021  14.5061338  19.4592166
  82.5375462  14.4739091  18.5581505  19.9305463  26.6729307   7.6523721
  19.4765246  27.2174716   7.0092750  19.2582893  26.4531016   8.2973349
  11.8295681  41.4115286   0.1167319  11.1973751  41.6020107   0.8097535
  12.0555067  42.2690201  -0.2436672  22.4833202  24.9714756  38.5084701
  22.0720720  25.0234818  37.6456857  22.6314950  25.8834743  38.7585402
  32.8342152   9.5624852  65.3164816  32.4248695  10.1907873  64.7215796
  33.6994958   9.9306500  65.4953003  78.0543709  24.0969801  64.3309975
  78.4411860  24.7874379  64.8693943  77.3995781  23.6896157  64.8980379
  32.6649499  48.8647985  30.6562352  32.4524260  49.2143154  31.5216255
  32.6789975  47.9155016  30.7781696  79.9580145   5.4280484  20.2727842
  79.9698400   4.8913306  21.0652661  79.9667215   4.7951582  19.5547271
  47.1707773  58.8086653  62.5104856  46.3841391  58.8072062  63.0558538
  47.8945446  58.8664913  63.1342268  61.9768190  61.6878748   3.9149898
  62.5993919  62.3315668   4.2530558  61.3633251  61.5464067   4.6359944
  69.9116755  11.8094897  68.3099174  69.2402697  11.9268823  68.9819765
  70.2006388  12.6980877  68.1022501  46.0406590  10.5647135  22.0771146
  46.7450285  10.3579485  21.4628291  45.7740784   9.7159523  22.4303412
   5.7541227  41.6917133  19.8690677   5.9736526  41.3258410  20.7259083
   6.5484703  41.5746117  19.3479812  62.4770975  68.0612087  57.1203899
  62.4002838  67.1684837  57.4570894  62.5520325  68.6068439  57.9032660
  85.2611160  79.8067856  39.5783806  85.3072929  80.2557468  40.4225016
  85.9176922  79.1129827  39.6398830  60.8119535  50.0545406  60.6055450
  61.2716198  49.8336697  59.7955132  60.6970644  49.2157173  61.0520983
  25.4614735  32.2835588  50.8211136  26.1269426  32.9144740  50.5466557
  24.8751974  32.7850389  51.3877058  13.9146781  39.3703508  68.9807129
  14.1677928  38.5133362  68.6376476  14.0376604  39.2953777  69.9270105
   2.2662561  29.3163681  16.8839180   2.8079253  29.9094605  16.3632762
   1.5380299  29.0878153  16.3062668  37.7351403   4.6129707  33.8351059
  38.5179400   4.8237145  34.3440676  37.4109459   3.7988994  34.2203569
  50.9946585  81.1987114  53.5197449  50.6620073  80.7114124  52.7660084
  51.0201168  80.5557251  54.2283678  11.2919390   4.9812701  70.9955740
  11.4433324   4.3176454  71.6685629  10.6837189   5.5992186  71.4010859
  60.4078102  47.0785475  67.3227549  59.8609257  46.7915440  66.5914726
  60.5697823  46.2817478  67.8278399  47.3379469  17.4144363  16.9180751
  47.3795128  17.2021461  17.8505111  48.0557871  18.0326033  16.7809439
  73.5851192   9.9527907  71.9321489  72.9324484  10.0539994  71.2393188
  73.3916140  10.6591034  72.5485182  32.3204494  84.4876289  61.8473339
  32.5441813  84.9522781  61.0409403  32.8556848  84.9063778  62.5214291
   6.0550547  84.8779392  71.1911345   6.6841334  84.1565132  71.1849546
   6.4961791  85.5762386  71.6748810  84.6186924   8.6535484  64.7088099
  84.1851616   9.3126345  65.2509260  83.9193821   8.2954466  64.1620398
  72.2794580  85.0865364  67.0858717  72.9854918  85.5274677  66.6132879
  71.5410233  85.0963020  66.4768982  26.2204695  17.9539788   5.4691982
  25.9599257  18.0474579   4.5528954  25.4076052  18.0663681   5.9619975
  87.0193291  11.1831260  57.9725266  86.5100574  10.5315197  57.4905777
  86.4714241  11.9679737  57.9660702  88.8246727  45.6380558  37.7371621
  88.4137154  46.2282991  37.1055317  88.9290905  44.8137617  37.2619081
  72.0183706  34.0499210  57.2532177  72.5207281  34.3760586  56.5065575
  72.5203466  34.3278241  58.0193901  34.9493337  25.5924463   6.1852092
  35.8016777  25.1679921   6.0873371  34.3143249  24.8952413   6.0211909
  33.2063174   6.5352255  71.3371849  32.6903272   7.2863775  71.6300249
  33.9354515   6.4897555  71.9556713  51.9266462  53.9505816  63.6153841
  52.7782202  53.5363674  63.4758329  51.4257336  53.3059025  64.1150951
  55.3365040  75.8101654  67.5415087  55.1386356  74.9475050  67.1769524
  55.0332594  76.4270020  66.8753338  46.1384487  52.7527761  14.7239077
  45.6414986  53.3385372  15.2950072  45.7940578  51.8808270  14.9171233
  66.5481281  72.7780771  72.7250767  66.6049814  72.5885582  73.6616039
  67.4445248  72.6761103  72.4052238  69.0491152  18.6038458   4.8248377
  68.6954165  19.1019809   5.5617177  68.9569187  17.6882744   5.0883925
  35.1477718  84.0931797   9.9917138  35.5994868  83.5481548   9.3474042
  34.9495053  83.4963989  10.7133591  56.4687204  83.5398960  73.1910753
  56.3196564  83.5822773  72.2465038  56.1394024  84.3750381  73.5232306
   8.4813422  16.4392424  57.3240471   8.0888903  16.5497506  56.4580202
   8.5309160  17.3265970  57.6795387  81.6265965   7.0056099  55.5459452
  80.9019566   7.3835492  55.0476551  82.0664883   6.4244223  54.9255037
  62.1451950  29.0425062  73.3446550  62.0636749  28.1518888  73.6858082
  63.0843353  29.2252183  73.3740377  24.8689818  43.8109493   6.3639271
  25.5317187  43.3504009   5.8492327  25.3628039  44.4614363   6.8631631
   2.2832882   0.4679485  66.5223789   2.7678102  -0.3229544  66.7588997
   2.5043279   1.0982696  67.2079945  29.7544479  25.5224872  52.0072031
  29.8628569  24.7504878  52.5626278  29.9605155  26.2608290  52.5804567
  33.6745811  12.4236166  32.6677990  33.3755398  13.3116519  32.8632474
  32.9601026  12.0361245  32.1622300  12.6156521  20.9640217  70.6570578
  11.9602215  21.4500260  70.1566172  13.2968640  20.7534051  70.0184488
  31.9395518  72.2205734  47.1577978  32.3887396  71.4312553  47.4601889
  32.2071171  72.9002762  47.7763844   5.3898692  54.6453142  10.5513501
   5.6483340  53.8106441  10.1605189   6.0242760  55.2759552  10.2106822
  33.4467316  19.1814184  24.4083786  34.2316556  18.9736509  23.9014673
  33.5376763  18.6687672  25.2115893   4.8496598   9.0446955  55.4278612
   4.6412307   8.2895702  55.9779310   4.0071660   9.3146038  55.0623655
  57.7563524  77.0259619  53.7644482  57.0868778  76.3603973  53.9227581
  57.8887272  77.4401045  54.6172047  30.1869392  21.6397548  43.3308411
  29.7792554  20.7742524  43.3613539  30.9513116  21.5647340  43.9021015
  51.8496037  73.7678528  58.1983709  51.2949705  74.2091179  57.5550175
  51.4147949  72.9295397  58.3545876   0.6725483  72.1007299  22.1983695
   0.8498442  72.7463818  21.5143132   1.4612621  72.1036863  22.7407289
  13.6360443  79.9362850  65.1070118  13.7821138  79.0306950  64.8335075
  14.0695524  80.0024033  65.9578562  23.3274055  27.7236915  58.7939119
  23.3466601  26.9585943  58.2190323  24.0910220  28.2385516  58.5330725
   8.8692814  13.9640772  42.2106743   8.1365347  13.6911321  42.7627754
   9.2490512  13.1444025  41.8942213   5.0980985  81.7506027  67.1633101
   5.4444265  80.8721542  67.3202181   5.0048649  81.8049431  66.2122107
  16.1077237  40.4671621  40.5967522  15.8305466  39.5512938  40.6210089
  15.3556108  40.9540224  40.9336853  47.7305841   1.3122320  67.7181005
  48.2547903   0.8894385  67.0378923  47.4763536   0.5983832  68.3029222
  81.7537403  75.0672817   6.9246829  81.5028286  74.3290854   6.3693941
  82.4500561  75.5076933   6.4374387  77.4444103  84.8656654  57.8959990
  77.2095728  85.3081894  58.7116289  78.1868410  85.3659344  57.5572443
  60.3084755  84.9105835  49.5163679  59.4708776  85.0042629  49.9701071
  60.9664917  85.0741100  50.1920223  82.7505875   8.6121649  52.7162313
  83.3035851   9.2592245  52.2783613  82.7914143   7.8406000  52.1512079
  76.4498806  82.1079063  58.8288736  76.7354822  82.7913094  58.2225561
  77.2240925  81.9194412  59.3592548  19.5627844  23.1195855  62.9185581
  18.9070046  22.8794956  63.5731888  19.1548562  22.9028273  62.0801973
  28.8000655  17.8897703  13.3661866  29.7048330  17.7426934  13.6418557
  28.2903051  17.8265691  14.1738892  23.1270385  76.1773634  66.5694284
  23.4354377  76.6616774  65.8035517  23.1193519  75.2627230  66.2872934
  35.0233173  25.3421783  42.8799343  35.9093618  25.6981683  42.8134155
  34.9147248  25.1421857  43.8096857  33.4695435   2.6703647  29.7573662
  33.6007214   1.9055127  29.1969872  32.9723191   3.2823864  29.2147517
  65.4096603  30.7982063   8.0859196  64.8369122  31.5462875   7.9169172
  66.2859440  31.1122704   7.8629363  72.3328590  10.4661119  69.4067478
  72.1519327   9.6834636  68.8862085  71.5455341  11.0025740  69.3142462
  25.2679062  39.9917889  15.0838864  26.1707592  39.6914721  15.1882720
  24.7512364  39.1871309  15.0413609  69.9159002  59.7359562  22.3974752
  69.0965271  60.0845337  22.7486920  70.5203676  59.7514725  23.1395054
  17.4885571  48.2412481  61.7505503  17.4811578  48.7339830  62.5711536
  18.3237123  47.7736282  61.7594862  35.3731155   5.3985929  28.5041022
  35.8620048   5.0238544  27.7714419  34.4655848   5.1399255  28.3437443
  37.0944452  20.1121449  71.4453173  37.8493094  19.5967019  71.7294502
  36.5203691  19.4787741  71.0146093   0.8002477  83.0441761  54.3746996
   0.7566861  83.4641647  55.2337360   0.5132207  83.7213993  53.7621546
  59.1711330  58.2426405   9.3895984  58.7838650  57.7258062   8.6831027
  58.5045719  58.2466459  10.0765538  36.0216761  83.9949608  23.0363202
  35.3659916  84.6154118  22.7179623  36.8518233  84.4661236  22.9649496
  29.0485048  18.6148286  47.5692320  29.5391989  18.4317708  48.3704424
  29.7212863  18.7487471  46.9016504  29.5634413  18.4510875  38.6892247
  29.1077566  19.2684388  38.8905215  30.4364538  18.7262547  38.4092832
  29.5179033  59.2953300  21.4250994  29.8555160  58.4083271  21.3007021
  30.0332832  59.6482420  22.1504045  26.0637617  69.0516853  50.3495836
  25.1440930  68.8234186  50.4849911  26.0671425  69.5620775  49.5398188
  30.9155703  17.3086238  67.6288271  31.5451193  17.4075818  66.9146109
  31.3805771  16.7938542  68.2883835   1.6630863  24.2600703  63.3101702
   2.5047213  23.8951850  63.0367756   1.2438206  23.5534167  63.8011789
  60.8368254  78.8973665  55.4517412  60.5319548  79.6211195  55.9989834
  60.5771494  78.1097794  55.9297609  90.3570080  18.4158897  49.8691607
  90.0171757  18.0936825  49.0343380  90.6554604  19.3052769  49.6790218
  54.4527912  79.3862152  66.7122698  53.5978603  79.4938087  67.1291018
  54.5669651  80.1810551  66.1912823  84.6772480  77.7010012  60.5719519
  84.3378258  77.0706081  61.2072706  83.8957310  78.0812359  60.1708508
   0.4454185  62.9094934  68.7410402   0.5798734  63.6828804  69.2887926
   0.3920088  63.2537794  67.8494978   3.9095059  10.2909958  45.4626846
   4.0495306  11.2060070  45.2190065   3.4491122  10.3340924  46.3007832
  71.8559170  17.1785212  53.6768198  72.0404863  16.3239729  54.0665817
  70.9671354  17.3863328  53.9651108  81.2993145  71.3078260  53.6839008
  81.8949413  71.6776228  53.0321980  81.8312740  70.6702805  54.1601133
  26.3450766   3.8568473  42.3247051  26.2949300   3.2096642  43.0281782
  27.2440696   3.7913215  42.0026112  18.7769008  13.0240333  54.7609329
  18.7795186  13.4543419  53.9059114  17.8550220  13.0077326  55.0180435
  27.1880913   1.6355938  44.3632841  27.2623682   2.2223216  45.1159239
  28.0841780   1.3416596  44.1993809  66.7404222  85.4531574  59.0784359
  66.5590858  86.3749218  58.8948727  65.8845806  85.0269413  59.0325642
  77.5358009  64.4354582  61.3902807  76.6156292  64.4760132  61.6508055
  77.6047611  63.6289310  60.8794022  61.8685961  52.0130301  11.3535523
  60.9596968  52.1425104  11.0826945  62.3063040  52.8324509  11.1229062
  68.4205914  71.7206001  42.1985245  68.1302881  71.3448095  43.0296278
  69.2993784  71.3641644  42.0684671  43.5160542  75.6302643  64.0208435
  44.1207123  75.5378771  63.2845831  43.0284166  74.8067141  64.0350962
  30.5416465  23.2187366  53.6712408  31.1361837  23.0053639  54.3904257
  30.8725643  22.7131248  52.9288912  22.4763918  56.1794615   4.2713863
  23.3547878  56.5580225   4.2347017  22.6247096  55.2362108   4.3385598
  60.1305914  41.2671232   2.9563969  59.4652987  41.5057993   2.3109116
  59.7731495  41.5688038   3.7915346  65.7569647  80.6364250  66.8466425
  65.2960682  79.8733473  66.4980459  66.3722897  80.2740288  67.4840450
   1.2903315  19.9946201  26.9884634   2.0825988  19.5611739  26.6711807
   0.7359530  20.0781465  26.2126303  35.9701157  15.2847397  50.3680515
  36.7054939  15.3318191  50.9789801  36.3689685  15.3913569  49.5044661
  12.3334408  77.8544521  58.1167603  11.5180552  77.6051044  57.6817846
  12.2749412  77.4528933  58.9836836  11.5750539  52.6214981  66.9219637
  11.1201501  51.8851137  66.5132761  11.0399580  53.3845472  66.7036533
   0.3101190  63.5619640  39.6211076   0.2470776  64.5166826  39.6487808
   0.1174361  63.2831573  40.5163002  15.7014334  27.3184609  54.2401934
  15.8684123  27.3883438  55.1801205  16.5649641  27.4051666  53.8364267
  18.6999118  13.8750887  49.5425415  19.0789711  14.1130733  48.6964273
  17.7543545  13.9376116  49.4074726  38.8545322  45.4805803   2.6481989
  39.0402818  45.1520729   1.7685337  37.9005504  45.4480219   2.7195367
  89.5804214  32.3300457  46.7334032  88.7902546  32.7347589  46.3755178
  89.9177837  32.9734159  47.3566961  36.4117074   9.8540837  32.7576113
  35.9103823   9.7065067  31.9556618  35.7632065   9.7972214  33.4593558
  76.0811663  60.5574512  25.1613045  76.5446234  61.3717175  25.3572869
  76.1161709  60.4855490  24.2074513  89.4752216  82.2268581  49.3843412
  89.8379421  81.3846302  49.6587801  89.9389267  82.8725147  49.9175692
  89.9906635  85.7933617  51.0333776  90.6877708  86.4384270  51.1524010
  90.4476166  84.9902058  50.7836342  17.3934460  15.6744027  44.5745420
  16.7485774  16.3061559  44.2563248  18.1959414  16.1849213  44.6822643
  68.5003567  75.2593660  33.9998126  69.0050745  75.0523710  33.2132745
  67.9324102  74.4994116  34.1268420  22.7337456  16.7303979  49.5917797
  22.8416824  15.7793057  49.5895386  23.6116552  17.0714831  49.4210005
  63.6086321  73.8443613  12.0758903  64.1977119  73.5952711  11.3637304
  63.7841654  73.2052851  12.7665401   8.3836615  34.8097897  14.6976924
   7.9571205  33.9774585  14.4939351   8.5619622  34.7639132  15.6370199
  44.5186234   0.5926427  68.8786554  44.2890358   0.8795089  67.9947853
  45.1940393  -0.0726578  68.7466717  88.7599373   2.6280889  49.9617863
  89.6998310   2.6014173  49.7825527  88.6948395   2.9893178  50.8458138
  71.3663864  76.3544512  41.4263582  71.4808321  75.4296494  41.2075663
  70.8783627  76.7168856  40.6869602  20.4070950   7.9471684  46.8280125
  21.2329721   8.4300578  46.7967129  19.7751224   8.5255742  46.4010620
  29.6543241  71.6737652  69.4066477  29.1863370  70.8426332  69.4868851
  30.5583525  71.4631271  69.6403074  43.0466175  55.8575726  23.3245945
  43.3373690  56.7692375  23.3009338  42.3812008  55.8005190  22.6388836
   4.9274769   9.6009696  33.2789803   4.2407867   9.9212921  32.6941037
   5.6715405  10.1802754  33.1146455  60.9539890  82.8245735  39.2499590
  60.9849834  83.0540752  40.1787233  60.2082491  82.2291660  39.1751313
  54.1954994  22.7792406  59.9476480  53.3568954  22.3310614  60.0576878
  53.9859867  23.7077069  60.0490713   7.2758180  74.5069218  61.8425512
   7.8791320  75.0576782  61.3436460   6.4783168  74.4851398  61.3136387
  46.5344143  86.0903740  58.2835007  46.0596132  85.3016186  58.0214739
  47.3553610  86.0498142  57.7929544   2.0064202  63.9616251  30.1413488
   1.8050581  63.4836769  30.9458685   2.8784698  63.6552095  29.8926115
  81.6652393  20.3171158  41.5713835  82.5044537  20.5182815  41.1572742
  81.1816883  21.1428094  41.5461683  31.7822528   1.5423548  57.8197432
  31.8865776   0.6021976  57.9662085  30.9191132   1.6273402  57.4147749
  31.4653063  20.7865095  40.6799889  32.0270920  21.5221143  40.4360294
  30.5850863  21.1604357  40.7202721  30.1110458  83.9276600  52.5969267
  30.9691620  83.8776970  52.1757698  30.3064275  84.0839863  53.5208416
   0.4099951  57.7005625  30.6224489  -0.2211529  57.1785545  30.1270771
   0.8535079  58.2313824  29.9608183  13.1993318  37.1068263  55.5646753
  13.4638023  36.3781786  56.1262465  13.3455014  36.7880845  54.6740150
  81.9831848  71.2090063  61.3024426  82.4671745  70.4109240  61.0902023
  82.1463203  71.3470745  62.2354746  87.3307800  18.6187553  31.9474292
  88.1695747  18.1823158  31.7985153  86.8663311  18.0438817  32.5557423
  72.0074844  55.1654577  25.2401280  71.5951157  54.6957302  25.9650683
  72.9141951  54.8586893  25.2408743  75.6872892  50.8569098   0.9634834
  76.0477495  50.8580542   1.8502188  76.4414692  51.0237646   0.3981483
  76.0063124  82.3577976  67.1366167  76.8418121  82.7236080  66.8461943
  76.1902523  82.0007706  68.0054855  10.0098872  74.3832684  70.1884556
  10.5548060  73.9899397  69.5068502   9.4094324  73.6844730  70.4480171
  57.3312283  34.5082712  12.9174542  57.9299641  34.9114561  12.2888124
  56.9487000  33.7695193  12.4440098  41.5290356   9.2398107  45.2559185
  41.1188269   8.7788916  45.9877062  42.3843431   8.8212615  45.1584530
  53.1363535  59.7171021   1.0019126  52.4177742  60.0641632   1.5305179
  53.4866095  60.4806376   0.5430328   3.1580436   7.4883240  23.7502885
   2.4757090   8.1093270  23.4953237   3.6706680   7.9537553  24.4112158
  53.7011814  16.3713527  72.2156191  53.1136036  17.0853746  72.4629164
  53.1626129  15.5830789  72.2848940  17.3479879  26.3253164  21.0900497
  16.5816259  25.8449817  21.4034176  17.9405832  25.6464887  20.7671642
  42.8099680  23.9871073  52.9726315  43.0945396  23.3873343  53.6622143
  43.0785179  24.8522711  53.2818317  71.3601112  64.3010092  54.0611553
  71.4631605  65.0764608  54.6127796  72.1856213  63.8263750  54.1585493
  12.7298033  79.1378975  28.3892560  12.1946299  79.6806526  27.8102565
  13.0769634  79.7500086  29.0381241  57.9760551  59.8819494   5.1361156
  57.2772455  59.2968893   4.8435363  57.5428534  60.7252455   5.2680796
  69.6413851  82.2436523  24.5569086  69.7843170  81.4326382  24.0690017
  69.0524006  81.9941425  25.2690005  16.4313090  16.5653777  51.1742926
  15.9770441  16.8515980  51.9667292  15.7617378  16.1067152  50.6668139
  70.0510073  76.9584656  16.9879997  70.5856800  76.1698246  17.0796251
  69.6377802  76.8692398  16.1292124   3.6015263  32.1029234  63.7422657
   3.6023921  32.9338408  64.2174578   3.3720577  32.3409677  62.8439856
  69.6490955  78.9609480  53.4292269  69.0244007  79.6830845  53.4963465
  69.8914576  78.9391804  52.5034714  22.7902484   9.5806068  58.7497854
  23.5621071   9.3035686  59.2434597  22.4207449   8.7670404  58.4065533
  56.2485790  31.9133306  12.3802495  55.6823587  31.1604881  12.2103846
  56.7110729  31.6878939  13.1874132  75.8357811  57.0615578  50.8575010
  76.3146019  56.2591743  50.6497812  76.0499907  57.2379541  51.7735958
  70.0819349  49.6207619   2.8837764  69.2939377  49.9326468   2.4387753
  69.8316050  49.5693874   3.8062343  19.6027005  84.9270821  72.6793814
  18.8537288  84.8428345  73.2694435  19.6546471  85.8640289  72.4905491
  19.1419590   4.6323487  58.9739609  20.0793362   4.4646648  59.0711069
  18.7389243   3.7647015  59.0053034  37.3502278  52.7326822  40.4615974
  36.4099383  52.6267910  40.3171301  37.4693656  53.6746931  40.5826426
  19.4524753   4.8714203  11.4970803  18.8587928   5.5639714  11.2070012
  18.9632618   4.4048488  12.1747327  54.1163301  26.2338328  53.8837767
  53.6792278  26.3650060  53.0423689  54.9901152  25.9183288  53.6531401
   8.8031709  15.6328487  66.7178011   9.5310026  15.7669604  67.3248482
   9.0521449  14.8588789  66.2126112  48.2779932  40.4179764   2.6493126
  47.7283144  40.1917219   1.8990499  48.7303209  41.2181473   2.3821841
  39.3001723   9.9546355   4.9530831  38.9326525  10.8138072   4.7457579
  39.9863052   9.8233861   4.2986915   9.5424014  49.3114853  73.1276512
  10.3294754  49.5083046  73.6355972   9.7254306  48.4645748  72.7208614
  60.7212210  84.5997238  37.1174788  59.7748756  84.7432232  37.1093893
  60.8650160  83.9912128  37.8422332  47.7403307  16.9204414  67.7974319
  47.7234316  16.0168600  68.1128454  48.1111479  17.4209356  68.5242271
  60.9981203  60.9753370  32.6620173  61.1718559  61.4659739  33.4653378
  61.2325573  60.0725985  32.8772759  18.4141314  32.7931309  58.2725334
  17.5366986  32.6910615  57.9038477  18.6667979  33.6879826  58.0453062
  36.5152526   3.5674849  59.6322012  35.6898284   4.0454444  59.5518208
  36.9337869   3.6668131  58.7771034  90.6743717  85.6747150  66.4525175
  90.7739258  86.3817596  67.0900202  89.8209572  85.2901745  66.6526556
  74.4845819  69.7941589   5.5191833  74.4490004  69.7934151   4.5626456
  73.6283493  70.1250792   5.7904559  33.6948061  10.3475094  61.7498684
  33.1550717  11.1153758  61.9377518  34.5921016  10.6409931  61.9078636
  88.0787182  81.0585690  41.6763401  88.2563019  80.4610443  40.9499311
  87.5931931  81.7813396  41.2787294  88.8045883  24.3102336  28.1157231
  89.7252655  24.0683818  28.0152440  88.7872887  25.2552271  27.9643297
  28.0071235  20.4082847  11.6048217  27.1702886  20.2402210  11.1715877
  28.2819247  19.5529032  11.9350314  57.3777962  42.9775620  16.0712945
  57.6691961  43.8885593  16.1088228  56.5096188  43.0201244  15.6704307
  72.1826029  80.8641815  59.2462492  72.7250767  81.2857437  58.5797405
  71.5447140  80.3533077  58.7479115  32.2713804  18.5421121  27.5992775
  31.9329262  18.0153978  26.8752241  32.9919600  18.0231547  27.9566002
  86.6157341  57.9106092  64.0250826  85.7774162  57.7526808  64.4592524
  87.2084999  57.2626495  64.4058847  64.0679216  44.3260622   1.8471678
  63.8322878  44.6918631   0.9945835  63.8571262  43.3951616   1.7749222
  10.9716117  16.7257285  54.7772169  10.0617337  16.4680660  54.9254227
  11.3190961  16.8924105  55.6534052   0.3981498   2.0921527  49.7329760
  -0.1082801   1.3430209  50.0469208   1.2929946   1.7610976  49.6562481
  75.4630613  44.2734385  27.0224833  75.9827948  43.5162163  26.7528033
  76.1083031  44.9081039  27.3340845  47.0285177   8.2270968  48.0545092
  46.3412905   7.9963368  48.6795616  46.8984795   7.6244760  47.3222733
  52.5409794   1.2121802  36.9240069  51.8942165   1.9171657  36.9545078
  52.5157499   0.9030144  36.0184622  71.0247231  75.2074623  56.0938311
  70.3280687  75.7563639  55.7338190  71.0963774  75.4805899  57.0084333
  18.5930455  14.2994058  52.3824835  18.7441742  14.2553401  51.4383173
  17.6995671  13.9757943  52.4973917  80.4566288  20.2113748   3.9549100
  79.6857214  20.4088283   4.4868433  81.1741161  20.1521349   4.5857263
  20.0653982  79.6901035  62.0275259  19.7347403  78.8120985  61.8377829
  19.9412274  80.1743793  61.2112617  47.1249390  77.3942900  72.2103500
  46.4906740  77.3138285  71.4979792  47.9777336  77.3438597  71.7785788
  13.7759924  18.7887514  51.4339876  13.0689061  19.2556465  51.8792629
  14.5575225  19.3122065  51.6112947  67.2638798  77.0160818  38.2204700
  67.6086760  76.9799757  37.3282576  66.5018845  76.4369488  38.2063890
   3.2514873  10.4660583  60.0951338   3.8603073  10.0465882  59.4871759
   2.5900137  10.8683598  59.5322514   9.6850318  19.5259666  54.7448778
   9.9976569  20.4147410  54.5758247  10.0076628  19.0135241  54.0035677
  36.2437892  83.6560631  38.3724523  35.9465599  84.0223980  37.5395751
  35.7096505  84.0977669  39.0326166  80.5704975  62.2909880   1.4136073
  81.4029121  62.4563837   0.9709282  80.2803326  63.1542063   1.7083801
  42.9531765  37.9922581  69.2890787  43.7242079  38.2952785  69.7685766
  42.9768944  38.4789920  68.4652138  32.2628713  26.5435672  42.2416496
  31.8562508  26.6419911  41.3807154  33.0946374  26.1040902  42.0648527
  84.7992516   8.5407811  59.1973209  85.0580120   8.9312547  60.0320721
  83.9818096   8.9833897  58.9690256  32.2153497   0.1733569  41.8717766
  32.7092147  -0.2712332  42.5607395  31.9449687   1.0019247  42.2675085
  61.2387609  51.0817862  16.7966676  61.8753052  51.6838694  17.1820736
  61.3153982  51.2239218  15.8531868  85.7429695   9.4829047  44.0999222
  86.5510559   9.0755069  44.4117832  85.4008961   9.9504453  44.8619080
  65.4270029   7.4075729  14.4850361  65.2261066   8.3085161  14.7383618
  66.3818693   7.3835582  14.4226837  12.0027375  19.5230961  28.4156466
  12.1392810  19.6698773  27.4796748  12.7915287  19.8723674  28.8304353
  72.3377466  42.5376225   3.0755398  72.7630281  42.5849771   3.9317667
  72.6823759  43.2902956   2.5949785  72.5757694  77.0431805  27.2466612
  71.9940472  77.0573521  26.4866424  72.4118137  76.1945534  27.6579785
  68.2268715  31.4486051   7.2318906  68.2611895  31.4791894   6.2757951
  68.8833475  30.7955456   7.4743509  12.0180249   5.0716025  54.4952154
  11.0858536   5.0184143  54.2843628  12.0638776   5.6909913  55.2235603
   8.7176174  58.4101105  73.1477547   7.8447324  58.0285215  73.0545187
   8.5926759  59.3413639  72.9650307  87.8251362  83.6895847  66.8650055
  86.9916153  83.2708836  66.6501665  87.6248360  84.2519665  67.6132298
  77.7359104  75.4110193  69.3169069  78.4510660  75.1273632  69.8864031
  78.1423855  75.5173159  68.4568453  13.5374331   2.3109554  19.3921280
  13.6105931   2.9333943  18.6686313  13.5613966   1.4512928  18.9718461
  63.2743120  48.9573908  12.7156329  64.1415882  48.5705566  12.8357303
  63.3880663  49.5829344  12.0001030  18.0157423  20.5866432  40.6053495
  17.1275234  20.3604627  40.3294134  18.5667694  20.3443003  39.8611259
  43.1174660  84.9246883  13.2245564  42.3029709  84.6455097  13.6427498
  43.3398056  84.2076588  12.6306999  25.7015443   1.3110065  59.6484852
  26.5051651   1.0584375  59.1939163  25.6484652   0.7109848  60.3923845
   2.3503052  78.9759398  55.6738329   3.0225238  79.3242311  55.0881338
   2.7320737  79.0514851  56.5483475  49.7095919  17.0083499  57.8757477
  49.1941690  17.7417934  58.2113600  49.9390268  17.2656143  56.9827700
  17.4766135  28.2865572  27.2194481  16.7648113  27.7021599  27.4803090
  17.0488250  29.1272187  27.0565963  35.4754090  12.0031667  53.2340956
  35.2053547  11.3092875  53.8356256  34.8199606  12.6907384  53.3518362
  27.2213721  10.4881334  37.6386476  27.4561286  10.5850840  36.7157602
  26.3607168  10.0694478  37.6241565  25.7755542  36.0534620  44.0093040
  26.5033603  35.4362655  43.9344883  25.1678205  35.6344104  44.6186352
  55.9307289  12.8364074  65.2418756  55.8983660  12.5742853  66.1619186
  56.7690563  13.2894206  65.1512480  89.1288376  66.7879248  42.1476412
  89.5761204  67.2888041  41.4655209  89.6496010  66.9393110  42.9363823
  60.8901072  67.7526951  11.9685102  60.9966183  66.8175364  11.7942429
  59.9426031  67.8883076  11.9772398  27.4386477  15.4804587  50.6245089
  27.2809339  15.7795119  51.5200138  28.3658195  15.2429652  50.6110954
  40.2508879  10.8814251  36.7900109  40.9997177  10.7168734  37.3630786
  39.5357943  11.1006999  37.3873329  30.1495814  71.4034510   6.5761572
  30.4438043  70.5474472   6.2648356  29.2944479  71.2336397   6.9713092
  44.0608549  84.4246006  29.6418309  44.0048265  83.4786797  29.5064592
  44.9528837  84.5689487  29.9575543   1.9415143  56.9846582  43.4417868
   2.8198040  56.7354155  43.1541824   2.0068666  57.9215813  43.6265469
  45.0397968   4.9462685  59.4597483  45.4777431   4.3776914  58.8263798
  45.2378845   4.5545247  60.3103542  11.0014808  22.0622969  68.8788748
  11.2111926  21.7405438  68.0021000  10.0448346  22.0626426  68.9114141
  26.6996026  70.8660507   6.6741055  26.3520646  71.7156363   6.9454896
  27.0092082  71.0085678   5.7796419  55.5179787  33.5491538  72.6324701
  55.1980400  33.0253863  73.3669996  55.4629660  32.9625344  71.8780947
  18.4330368   6.6818702  30.9845328  17.6005888   6.6648245  31.4567327
  18.8446057   5.8435184  31.1943150  34.7169447  35.0397372  67.0293617
  34.0580845  35.3833747  66.4259958  34.3159413  34.2532325  67.3992777
  89.7602272  54.0604591   4.9948570  90.2687836  53.3624792   5.4076850
  90.3795815  54.7840929   4.9000269  78.2900715  78.8892984  28.9142656
  78.2253647  78.1475639  29.5158291  77.4597740  78.8845682  28.4380126
  11.3567078  21.1877871  42.9183292  11.9485307  20.4357576  42.9390049
  11.5528691  21.6691160  43.7221146  76.8770075  41.0787439  44.0007401
  76.2947941  41.8374586  44.0409613  76.7690277  40.6487465  44.8490763
  10.3133893  73.6628056  53.4451818  10.4702318  72.7187109  53.4630537
  10.5954826  73.9688206  54.3071651  45.8808517  79.0676022  22.1199036
  45.8143759  79.7967005  21.5032744  45.7376671  79.4661188  22.9783416
  34.0713739  10.4105592  54.8700047  34.5379210   9.5779651  54.9431705
  34.3212390  10.8950710  55.6568003  24.9085903  21.6270781  44.9971437
  24.9930763  22.5606203  45.1910257  24.8655486  21.5837789  44.0418911
  26.2977290  35.0417852  72.1202612  26.6101527  34.4443846  72.7997732
  26.5826249  34.6406317  71.2992001  77.8703928  74.5281839   3.8475728
  77.0055389  74.7151136   4.2126971  77.7128506  73.8443232   3.1966126
  15.0747263  85.4734230  60.2690125  14.7869086  85.2640915  61.1575937
  14.7047257  86.3389111  60.0950527  47.8835917  21.7915368  48.7280941
  47.1690655  22.1753216  48.2197714  47.4860048  21.5688753  49.5698643
  81.7051029  81.2074852  40.0995207  81.2375355  80.9042168  40.8777523
  81.4725113  80.5757809  39.4190192  76.3186789  83.6231709  37.6545405
  76.2620926  83.5804176  36.6999698  77.1062326  83.1237698  37.8703976
  41.2580872   9.5623505  25.5057359  41.6341162   8.6863559  25.5921483
  41.5951681  10.0433207  26.2615633  82.5379944  33.9662433  64.4991875
  83.3098030  33.7255049  65.0116205  82.1423531  34.6885490  64.9870157
   2.6321417  21.2766719   7.1128720   3.2093590  21.0336399   6.3890016
   1.7711473  20.9489202   6.8530649  16.5277314  27.4021912  56.9911861
  16.4626789  28.1310391  57.6082563  17.4485433  27.3909426  56.7300129
  47.2144127  25.3470755  54.8972130  47.8220654  24.7321439  55.3081274
  47.5452280  26.2110186  55.1429749   7.7447033  28.3138728  44.7385645
   7.4804896  28.0329299  43.8624954   7.6421171  27.5324512  45.2817869
  26.4728236  15.4890430  38.5777402  26.5187478  15.2179611  37.6608777
  25.8960581  14.8454022  38.9892006  78.6983490  69.9622345  36.0747004
  78.3166695  69.5153189  35.3191733  79.5446157  69.5340252  36.2039304
  24.3527889  27.7943254  61.3644838  24.2643285  27.5861120  60.4343987
  23.8665676  28.6114955  61.4742851  39.6055388  26.9408441  55.5439854
  39.7637177  26.2658882  54.8839521  38.9401579  26.5625095  56.1187601
  89.3867207  65.1231194  34.8167944  89.2679977  65.9845972  34.4168139
  90.3271770  64.9568272  34.7526503  16.6723013  81.2795830  62.0961189
  15.7347584  81.3988018  62.2478771  16.7708492  81.3409996  61.1459923
  44.8086786   5.9475118  48.1134462  44.2717838   5.6465238  47.3803806
  44.2786026   6.6225123  48.5372686  38.3336902  12.2087383  53.3947325
  37.4032021  11.9969511  53.4693718  38.3653569  13.1647432  53.4305763
  71.4956856  76.8899775  52.8179884  70.6534100  76.4485312  52.9272175
  71.3405609  77.5344276  52.1274424  30.4437184  26.4753962  34.0994072
  30.6946111  25.6731677  34.5573497  29.9914026  26.9978166  34.7617674
  32.8122473   1.1528422  67.0616341  32.8466296   0.3039240  67.5025272
  31.9808459   1.5350991  67.3424959   7.1805441  32.3553896  21.1930060
   7.3255688  31.4144349  21.0939908   7.4454898  32.5451636  22.0930195
  61.3944626  80.6427479   9.5186985  61.5370941  81.5340137   9.8373479
  60.4456568  80.5757141   9.4114363  -0.1573568  48.5010386  19.5979548
  -0.0459559  49.0936804  20.3413224   0.6960541  48.4975052  19.1644692
  32.2164607  28.0567074  46.2615252  32.5624323  27.9356623  47.1457672
  32.1534729  27.1703911  45.9055662  29.6814775   8.3417785  42.1360350
  29.4968009   7.9992694  41.2614965  30.2566910   9.0914303  41.9831181
  57.4462652  71.7563820  24.0147662  57.9270458  72.2492790  23.3498311
  57.7742338  72.0951223  24.8477864  63.7088346  16.0508394  53.6525106
  64.0362692  16.7682827  54.1949940  62.7668524  16.0333216  53.8216305
   8.4573436  80.5971527  44.3482590   9.0620691  80.0128937  44.8056316
   8.2585865  80.1428795  43.5295010   0.4475701  35.5266166  69.7839689
  -0.3724509  35.5975986  70.2725983   0.1749790  35.4257822  68.8719606
   9.1501731  17.6369321  16.2068474   9.6740741  18.4100688  15.9970391
   8.4234077  17.6639903  15.5845046  54.5297289  14.6690667  56.7761326
  53.9065075  14.6658516  56.0496235  54.7530460  13.7471342  56.9042110
  59.9359131   8.4127313  68.6688805  59.5773792   7.5799215  68.9756632
  60.2802658   8.2186377  67.7971125  58.6211634  30.9687304  69.8794174
  58.8929892  31.6175413  69.2302752  59.0379858  31.2541795  70.6924391
  15.7524478  33.5960746  26.7079020  16.6477978  33.9176393  26.6021800
  15.6711185  32.8964639  26.0596991  88.6725235  28.0583215  43.4109735
  87.8586769  27.7776766  42.9925013  88.4919548  28.9484811  43.7130308
  21.5442729  22.4525309  38.5652781  20.6666541  22.2860742  38.9092374
  21.6695499  23.3951831  38.6745787   8.4171265  13.3907235  55.4678249
   7.5621003  13.4824204  55.0474072   8.6527240  12.4727070  55.3337669
  73.4888029  33.9396000  20.4076123  73.6257935  33.9739299  19.4608867
  72.8761816  34.6528673  20.5869913  15.6687129  41.6549683  62.2581005
  16.2456334  41.0752487  61.7607880  15.8182406  41.4147949  63.1725311
   3.9016756  41.0117340  35.1691866   4.2887640  41.8869448  35.1890445
   4.5190096  40.4883480  34.6581078  52.4894857  45.1544285  15.6678426
  52.1953726  44.9053717  16.5440273  52.0285034  45.9729433  15.4841089
  55.0350618  31.2776804  56.6374683  55.7165480  31.8031287  57.0566463
  54.5926142  30.8366466  57.3626995  41.3062811  18.8489854  69.2769766
  40.4114819  18.6957955  68.9734936  41.4703178  18.1447816  69.9042082
  65.1526451  69.5373154   7.8982484  64.5822191  70.1350307   7.4149454
  65.3968811  70.0235796   8.6857301  47.1306324  62.4291182  16.4356482
  47.3414230  61.4989996  16.3539195  46.6129208  62.6268530  15.6551957
  11.7878497  29.6731257  51.7608452  11.2637651  29.4787264  50.9838152
  12.3362398  28.8976908  51.8800211  61.7451334   0.9219776  50.3048038
  61.1429262   0.1779892  50.2969980  62.5025892   0.6222963  49.8021269
  11.9556582  27.8794456  73.7355328  11.0035825  27.7834845  73.7594986
  12.2791779  27.0048332  73.5196161  15.6467569  20.7121849  62.6111269
  15.1294243  20.9526348  63.3797503  15.1356208  21.0334563  61.8683243
   2.5434300  65.6137276  17.7311885   1.6988194  66.0640669  17.7234721
   2.5914857  65.2096176  18.5975695  14.9326992  29.6844196  38.0263448
  15.3992879  30.3337288  38.5525775  14.0335190  30.0101233  37.9860640
  32.1224976  20.6235623  31.0933948  31.7568970  20.0958419  30.3834105
  32.8392005  21.1098194  30.6858158  71.3999748  82.9649734  71.6454220
  70.5563831  83.3997536  71.5207148  71.8740320  83.1233311  70.8290768
  13.7572181  31.8844342  63.8453484  14.3391728  32.5803852  64.1506529
  12.9323173  32.3297262  63.6517429  42.9390383  83.1589794  11.2408233
  42.5591898  82.2889042  11.3629961  43.5968828  83.0391026  10.5559111
  43.2738543  17.5942576  58.8345480  44.2285490  17.6049399  58.7661409
  42.9871559  17.0515621  58.1000280  44.5406771  28.2632160  48.5202074
  43.6378145  28.0719590  48.7741518  45.0670576  27.9583955  49.2592859
   6.7447799  80.4430676  38.8335419   7.0622271  80.9644318  39.5708561
   5.8939892  80.8253860  38.6185575  55.8862829  13.7359333  52.9897070
  56.3174820  13.8696814  52.1456623  55.8084679  12.7853668  53.0709457
  47.3707628  10.6966043  50.5869341  47.4123859  10.4131019  49.6736288
  47.0460415   9.9309570  51.0608244  45.0306749  74.4406414  69.1027737
  44.2061758  74.9244452  69.1513395  44.9070454  73.8289309  68.3769941
  81.8886375  80.9209728  43.4986353  82.3322392  80.1628113  43.1183147
  81.6494751  80.6403255  44.3819618  39.7426558  78.2253170   7.7395910
  40.3763437  78.6199617   8.3386934  40.2196693  77.5055742   7.3264766
  84.3281746  38.5526824   3.3401453  83.7794876  39.1067433   3.8952985
  84.2010212  37.6684666   3.6839819  27.7459669  34.5760202  69.5504522
  27.2474718  33.9752555  68.9965439  28.1517172  35.1875472  68.9359283
  48.5682487  24.7237873  45.6520891  47.8754854  24.4667244  46.2605572
  48.2118273  24.5261168  44.7859955  31.8728161  79.7587109  21.1719275
  31.0690951  79.2782402  21.3704491  31.7062664  80.1625633  20.3202224
   9.4640642  46.1665058  69.5367146   9.5190030  45.2659607  69.8564529
   9.7052729  46.7037296  70.2913284  39.0508246  14.9543655  53.8395309
  38.2556438  15.2220488  54.3002510  39.7638607  15.2054155  54.4267178
  33.8944316  11.8073475  73.7813520  33.2070994  12.2761178  73.3080006
  33.5436368  10.9248292  73.9010859  52.4400568   8.5132128  22.0704651
  51.9619465   7.8758788  22.6009798  51.8215990   9.2330629  21.9457412
  12.4475348  57.3937035   8.8491291  11.9044650  56.7117405   8.4538651
  12.4193645  57.2082758   9.7877747  74.2195177  60.8069420  58.1272554
  74.3306589  59.8661137  58.2640648  73.5712814  60.8720684  57.4259806
  52.3776627  71.5886021  28.4239793  52.4209356  71.8490791  27.5039196
  52.3808384  70.6316519  28.4023881  37.6935720  13.9656496  64.9990892
  38.2467151  14.6879947  65.2965450  38.2981181  13.3645654  64.5638275
  73.8698483  75.4043245  55.2010584  72.9512501  75.2597427  54.9741030
  74.2521954  74.5270681  55.2225447  20.6161928  76.4445162  45.7293034
  21.1899519  76.6439438  46.4690733  21.0966325  76.7568398  44.9625778
  15.9779966  25.5065012  31.8533969  16.1807656  25.7121706  30.9408069
  15.0244832  25.4252553  31.8744445  58.7360477  16.1543059  52.4225760
  58.9774275  15.2296698  52.3676682  59.5014381  16.6219151  52.0882845
  16.6552484  46.6353989   4.0971282  16.7340696  45.7007217   4.2879194
  16.5077460  46.6753578   3.1522059  69.9515772   7.7191150  14.0553689
  69.2009687   8.2805908  13.8615680  70.4385900   8.1942511  14.7286427
  44.0613079  26.7218781  60.0282145  44.2974138  26.9713879  59.1347742
  44.8841858  26.7676258  60.5150509  48.0324637  -0.2244694  50.7401991
  47.3211001   0.4159897  50.7426405  48.4669923  -0.0965817  49.8969555
   5.6938171  16.4483047  72.2155714   5.0647283  16.1634803  71.5527344
   6.0668254  17.2552454  71.8606901  16.4659274  12.4315321  37.9209018
  16.1634529  13.3099914  38.1512308  17.4158740  12.5184238  37.8416395
  28.6036563  83.2067204  73.4952879  28.3943105  83.0378342  74.4139194
  28.7014413  84.1574669  73.4427977  55.2055073  51.7964077   2.8007430
  55.9897852  52.2241116   2.4569228  54.4830561  52.3557520   2.5153866
  91.0219097  81.4715576  42.6135302  90.2407837  81.9134045  42.2805977
  90.9140587  80.5593014  42.3444748  90.9407759  62.3240709  21.4099789
  91.0053224  63.2381058  21.1331940  90.9356626  62.3632193  22.3663640
  50.9998941  66.5731859  13.3136272  50.3568172  66.7831898  13.9908135
  50.8307934  65.6558132  13.0989861  18.3366668  27.4860668  12.6016498
  19.2652488  27.2597194  12.5493574  18.2785583  28.0893874  13.3425009
  32.5473762  19.4210851  50.2048063  31.6491580  19.1016519  50.2908182
  32.8602266  19.0383780  49.3851185  87.1401596  63.2255316  73.1253242
  87.2743893  62.4159861  72.6325274  87.9160309  63.2990646  73.6810732
  38.2315946  23.3557200  48.7672615  37.2982550  23.1680965  48.6677408
  38.3832240  24.1189933  48.2098961  21.8930721  28.2197142  68.0809402
  21.5925860  28.1701708  67.1734762  21.2833834  28.8254261  68.5023928
  13.4516823  27.7037716  52.8686285  12.8665304  27.3559999  53.5415936
  14.3041396  27.7632546  53.2999182  29.4864893  36.9631362  73.6612320
  29.5474076  36.3275027  72.9481459  29.8899889  36.5231204  74.4094324
  56.1581945  81.1895275  28.1257653  55.9686089  80.8492088  29.0001059
  56.4742184  82.0800209  28.2786822  14.3284225  80.5877781  54.8210764
  15.1095366  81.1362362  54.8937702  14.3432558  80.2682114  53.9189196
  33.8131356   0.3938084  61.7915344  33.7217474   0.3017444  62.7399063
  33.2626414   1.1447773  61.5696478  66.5743971  51.3699055  14.6377993
  66.8843222  50.4642868  14.6437919  66.0211897  51.4388847  15.4158962
  20.5370760  27.6181674  42.5367832  19.7330213  27.1179390  42.6764154
  20.6224060  27.6736379  41.5850067  78.7966824  71.9945097  50.4612446
  79.2588949  72.8323460  50.4364586  78.4276104  71.9505739  51.3433361
  47.8612804  28.8530397  53.1731272  48.5204697  29.3326950  52.6714993
  47.1680593  29.4937325  53.3318281  37.7338457  14.7986221  41.8287039
  37.1588516  15.1745296  41.1621380  38.5780644  15.2265000  41.6857052
  27.9100680  27.7104616  40.6008816  28.1876659  26.8063903  40.7486248
  28.3877611  28.2179499  41.2570047  52.1037722  22.1702409  45.5699348
  52.3101521  23.0013609  45.1422977  51.1511040  22.0997167  45.5092239
  25.5958843  18.9191353  72.1300411  25.0349593  19.6232116  71.8046618
  25.7954144  19.1693759  73.0321503  19.4785213   2.4513392   6.9995922
  18.5276246   2.3585260   7.0580035  19.6771300   3.2216829   7.5319052
  25.3819919  11.4575541  65.5316019  24.5690203  10.9570265  65.4624510
  25.1799035  12.1581554  66.1517239  45.2907991  13.4616613  67.8164864
  44.8438406  12.7074981  67.4321747  44.8027325  14.2192781  67.4939346
  58.3962584  30.9314609   3.8048306  57.6643372  30.8536339   3.1928989
  58.7068844  30.0336933   3.9221290  30.8543110  11.0168886  51.8918562
  30.3672409  11.5906417  52.4833012  30.9266257  10.1890278  52.3668814
  41.4280510  34.3920684  56.5618563  42.3260880  34.1968203  56.2941980
  40.9106588  34.2797160  55.7644129  47.2798872  56.9234705  57.4587679
  47.7800226  56.1119938  57.3715734  46.9418526  56.9014597  58.3540201
  42.7583170  28.6842275  54.3563080  42.0322800  28.6775708  53.7325621
  43.4556246  28.1970406  53.9173985  60.1863146  31.8385267  58.6688852
  60.8847475  31.4329815  58.1551170  60.6392574  32.4550056  59.2442369
  47.0292425  38.8831830  51.9575834  46.8154240  38.1345105  52.5143623
  47.2208548  39.5916605  52.5720549  39.6196890  58.5175180  64.0869617
  40.2547789  58.2279491  63.4319496  38.8356447  57.9991102  63.9059496
  35.5202651  47.0376396  63.7949419  35.9606910  47.3134470  64.5987988
  34.5925426  47.0067644  64.0286255  81.0863495   0.7055400  65.0000095
  81.8541527   0.9733449  65.5049658  80.6302071   0.0851533  65.5685949
  51.0609293  32.9839993  56.4346075  50.7773590  33.8964629  56.3778162
  51.3442278  32.8773046  57.3426771  17.0451474  78.7897491  15.3721702
  16.9577873  78.8168907  14.4193518  16.3407910  79.3527126  15.6933975
   2.0216799   3.4013858  60.7283115   1.8950814   3.0690533  61.6169977
   1.3354632   4.0596673  60.6187487  55.7971573  41.2021065  59.0416813
  54.9267244  41.4183998  58.7073231  55.9998846  41.9076252  59.6559906
  45.4258442  32.5566339  42.7755404  46.3735771  32.6909137  42.7772760
  45.0756550  33.3266854  42.3276329  52.2831535  32.5969791  58.6965609
  52.3231506  31.8501163  59.2939138  52.9334688  33.2112145  59.0371895
  48.4276772  32.3584533  57.4576521  47.8191519  33.0963326  57.4958611
  48.7078857  32.3262000  56.5429544  39.0424657  20.9545088  57.2018909
  38.5815001  20.2197552  56.7970705  39.2388010  21.5443683  56.4740515
  43.1144047  71.6690636   6.0157037  43.0173254  70.9288120   5.4166776
  43.8506651  71.4274740   6.5776533  41.2711620  60.7537460  72.3302364
  41.4816904  59.9279547  71.8943691  41.9894457  60.8881664  72.9484892
  55.6785631  79.1909647  26.2705016  55.2943325  78.6739635  26.9785333
  55.9149218  80.0222588  26.6819787  47.8946304  73.1625414  73.8967419
  48.4772968  73.8380003  73.5496235  47.5567579  73.5334921  74.7118950
  37.4758577  51.4814711  34.0974760  37.4354196  52.3503113  34.4971156
  37.4687862  50.8762026  34.8389816  23.6935616  52.8893280  28.5189056
  23.8767648  53.2204151  27.6396728  22.8606105  52.4258661  28.4315753
   8.1215888  11.4107263   4.2218980   7.1951330  11.6512287   4.2135280
   8.2379085  10.8781695   3.4350786  73.0649328  30.9957862  10.7033932
  72.3167944  30.7956576  10.1408350  72.6745796  31.2502885  11.5395069
  46.3211393  61.3624811  60.9351349  46.7355728  60.7044935  61.4932823
  46.4808893  61.0547161  60.0429487  58.1105089  67.1189404  64.3364525
  57.3504019  67.5068474  64.7700453  58.8582850  67.4096298  64.8585272
  41.6583061  62.9714966  48.0595922  42.0215750  62.5876999  47.2614908
  42.1907377  63.7518311  48.2139444  17.9726958   7.3059541  10.5358517
  17.4629772   6.9323772   9.8169219  17.6278186   8.1929642  10.6383431
  27.5832772  70.7049561  40.3426647  28.4219599  71.1638832  40.3898525
  27.0547271  71.1000109  41.0360575  34.4302464  65.6284475  24.8330474
  33.5445833  65.4416132  24.5217156  34.5268607  66.5747976  24.7266841
  36.6488886   1.5500441  22.8872180  37.0198917   2.1673177  23.5177445
  35.8542299   1.9796184  22.5706482  19.8104572  36.3151026  74.3143320
  19.0599108  36.4939070  73.7478161  19.9317372  35.3672218  74.2591715
  17.5543010  77.6703167  40.5145359  16.8426919  77.8338671  41.1334801
  17.5221550  78.4125948  39.9110293  74.5455551  58.6364079  17.7530992
  75.4724121  58.6362123  17.9921854  74.1304731  58.0691862  18.4028661
   6.3716811  35.7780504  71.7308617   5.8762842  36.5115047  71.3663626
   7.2789103  36.0831261  71.7406845  39.8490071  62.7398539  44.7393131
  39.6616745  61.8334293  44.9833059  40.7560635  62.7231407  44.4340229
  81.5320492  39.2350459  52.2588873  82.1560669  38.9795637  51.5794992
  80.6855011  39.2519045  51.8124437  50.4580021  53.4376478  55.0955677
  51.1132574  52.8469038  55.4669046  50.6017685  53.3910608  54.1503763
  59.6193552  41.5103674  60.8875751  59.9939919  40.6814528  60.5896139
  58.7633705  41.2720966  61.2436008  27.1413517   8.3095759  51.1147928
  27.1412539   8.6988461  50.2403212  28.0543089   8.3578658  51.3983583
  34.5703650  56.2893820  68.6000776  35.1263523  55.8323860  67.9689980
  33.6817932  56.1757803  68.2627821  60.8210850  40.9936476  27.2902131
  60.7090569  41.7965078  26.7811966  61.5707493  40.5565739  26.8862343
  25.2649903  12.6646888  14.6287668  24.5984054  12.6591182  13.9418435
  25.9200382  13.2915092  14.3217790  24.1248059  72.4217463  36.7898321
  25.0583458  72.6331282  36.7970753  23.9994717  71.8643761  37.5578570
  35.8460999  13.2200277  24.9434710  36.5145850  13.5956931  25.5163884
  35.9544015  13.6835408  24.1130137  57.3036671  54.6176481  74.0962791
  58.2451200  54.7905350  74.0995455  56.9029713  55.4761505  73.9597034
  46.5965462  43.0923128  47.4771881  47.0503759  43.4441376  46.7113590
  46.6164780  42.1434832  47.3524618   9.9000508  32.5770164  30.7933474
   9.3730319  32.2863936  31.5376735   9.4678634  32.1942163  30.0298619
  49.1287661  57.0973396  61.0280752  49.5487881  57.9422951  60.8672523
  48.1909752  57.2831249  60.9804916  14.5705569   6.3468623   6.2855947
  14.1489673   6.9661671   5.6898135  14.0591335   5.5426764   6.1963612
  53.7317276  69.4694138  66.4136028  53.1425905  69.0312624  67.0277500
  54.3612051  68.7936258  66.1620140  56.2235785  60.6530857  63.5859489
  56.7062807  61.3914299  63.2143593  56.7583132  60.3653765  64.3258905
  47.0867491  64.9039030  51.4145947  47.3107672  63.9837885  51.2751675
  46.6825533  64.9232101  52.2820520  58.1566095  67.5945091  70.9703875
  58.4464169  68.3888817  70.5218172  57.8318453  67.9022264  71.8165970
  37.1441507  69.2033339  38.7148690  36.5158772  69.2312241  37.9932547
  37.2026610  68.2762527  38.9458036  38.0537415  55.8505440  69.0059853
  38.4215331  55.5430508  68.1774855  37.8592372  56.7752314  68.8531637
  41.7457724  45.0542879  64.0329027  40.8419180  45.2834892  63.8166809
  41.7767429  44.1009188  63.9531517  68.7636423  44.6124601  56.7656660
  69.1694403  45.2853298  57.3123026  67.8295374  44.8207092  56.7833519
  80.3177452  54.8183441  38.7437201  80.4218769  54.4711304  37.8578138
  79.3740082  54.7926760  38.9016342  39.7102547  50.9841061  67.5616932
  40.0212669  50.5367088  68.3486748  38.7601686  51.0267544  67.6700926
  26.2523413  81.1735439  69.4720697  26.4769983  81.6954422  70.2423811
  25.3062582  81.2829590  69.3762350  67.1844196  79.4461489  39.9480009
  67.4018145  78.8351917  39.2439365  68.0164480  79.8661613  40.1660633
  39.7000003  76.4600420  53.0610800  39.4721127  76.3532925  52.1375513
  39.6593285  75.5743170  53.4217358  68.2015038  31.7218089  40.3956842
  67.3739815  32.1096087  40.6803799  68.2507372  31.9219112  39.4609308
  31.6951156  76.9631624  65.5328226  32.5370979  76.5649891  65.7536221
  31.0927272  76.6354561  66.2006283  22.1172333  64.5462561  63.0629587
  21.7325497  64.5311069  63.9393282  22.8631377  65.1412868  63.1390572
  43.6669445  54.1532707  58.5175467  43.3182859  54.4207382  57.6671791
  43.1137514  53.4185505  58.7828684  69.9155998  51.7736530  51.7989874
  70.4566240  52.2264576  51.1520720  69.3997097  51.1513329  51.2863445
  22.5114942  52.1168470   2.5456047  21.6485929  51.8243551   2.8390047
  22.7193546  52.8580761   3.1144655  69.8878479  29.8549294  33.0036807
  70.3742218  29.7941589  33.8258600  69.2676687  29.1266155  33.0378795
  32.8615332  63.3304405  69.7000885  32.8117943  63.8481998  68.8965464
  31.9696188  63.0098581  69.8340416  37.0782566  71.7294264  60.6618214
  37.5651288  70.9069490  60.7140255  36.9826412  72.0093489  61.5721703
  73.2340717  44.4593000  36.8301988  73.6726236  45.0708532  36.2386703
  72.6155901  45.0015116  37.3198056  44.3647194  48.5844231  51.3237286
  43.9326763  47.7320623  51.2684488  45.2936077  48.3907366  51.1976862
  71.7616701  22.1959066  72.7964687  71.2556171  22.9771423  72.5732803
  72.1991968  22.4204636  73.6176729  73.0164623  78.1497478  19.0641201
  73.8587904  78.0969238  19.5157003  73.2163048  77.9195881  18.1567490
  38.3265114  45.8734179  73.7769508  37.4545717  46.2527800  73.8866615
  38.8943028  46.4158058  74.3243647  61.8240452  65.1251221  53.1266117
  61.5529585  64.4305849  52.5263119  61.2151146  65.0572634  53.8620186
  59.5534945  66.2930679  68.6280775  59.2755270  66.4261532  69.5343113
  58.7485743  66.0687828  68.1611395  86.0211182  48.7766266  56.4064503
  86.3596821  49.2126369  55.6244659  85.2450562  49.2831278  56.6460419
  83.1166267  16.2421703   7.2038561  84.0051270  16.2029946   7.5577909
  82.8073788  17.1194756   7.4295366  60.9072399  83.1392670  63.0522823
  61.5755892  83.4180069  63.6782598  60.0770092  83.3632755  63.4727192
  49.8491383  42.6254988  61.0253334  50.0293398  41.7423868  60.7030487
  49.9811745  43.1900072  60.2636719  50.2128887  35.4287052  56.0708237
  49.4366884  35.7445312  56.5334177  50.5024052  36.1776090  55.5497122
  28.5650611  14.2584443  26.2083507  28.5413861  13.9924645  25.2891517
  29.4781303  14.1378939  26.4691281  79.6541357  56.7921734  40.7760668
  79.9127245  57.7137566  40.7832050  80.0622177  56.4350080  39.9873185
  62.1711874  34.9800205  69.2562532  61.5795708  34.8993874  70.0043964
  62.4031496  34.0778446  69.0360117   5.3911841  63.9603138  58.3367634
   4.4990706  64.2402124  58.1317759   5.9328306  64.3765116  57.6662207
  47.0948744  64.0079021  57.4088240  46.7866516  63.3257389  58.0053806
  46.8220043  64.8276377  57.8208971  38.6572194  50.2117634  64.4686413
  38.8173819  49.6433926  65.2219868  39.0344071  51.0547924  64.7201633
  16.6352129   1.7016685   1.5821567  17.4964571   1.8984330   1.9506298
  16.4435542   0.8132048   1.8823750  54.6546364  56.1705017  57.7460909
  54.6133614  55.9000587  56.8288183  54.1612291  55.4984760  58.2163668
  56.8723536  65.5294991  57.8815556  55.9696388  65.8410454  57.9469156
  56.7944336  64.6404552  57.5354862  32.4318242  64.7466707  59.9048996
  31.8447232  65.3428030  59.4399595  33.2896852  64.8973227  59.5078945
  74.5149040  66.4956331  51.0303593  73.8477564  67.1705294  50.9052086
  74.9152088  66.7079973  51.8735027  20.8268976  22.2678280   2.4407007
  21.5900230  21.9681168   1.9466892  20.4556561  21.4692545   2.8157881
  11.6316271  72.4230671  62.8281212  11.7925227  73.0484819  62.1215820
  10.8310843  72.7372551  63.2484198  51.0878372  44.4123030  59.3054485
  51.2819338  44.9543810  60.0701094  51.9108105  43.9615822  59.1162491
  87.2446060  14.7539032  69.9848747  87.0587444  13.9629412  70.4909039
  87.6434994  14.4326711  69.1762161  54.2324257  67.3380899  57.8788185
  53.8798809  66.4773846  58.1049538  53.6658907  67.6512432  57.1736908
  68.5879850  35.6301761  62.8839397  68.9899635  35.0895286  62.2039795
  69.3066502  36.1655521  63.2202816  54.8242855  75.0573683  63.4274340
  55.4934311  74.6820021  62.8550959  54.7282457  74.4191265  64.1343021
  46.6122723  79.3674564  39.4953966  46.6996908  78.7561798  40.2267885
  46.6199255  80.2328777  39.9043179  47.3654795  20.5667424   2.9460862
  47.6856422  20.9730339   3.7514773  47.6286936  21.1710119   2.2519615
  61.0920954  20.7685995   1.7097214  61.9183302  21.2427330   1.8033107
  61.1605740  20.0431991   2.3304763  20.3354955  10.3792775   2.9068410
  20.6998396   9.4950557   2.8663939  20.4957128  10.7443810   2.0366329
  29.2910171  49.2657757  38.7030864  29.2361164  50.0634384  39.2293501
  30.1224351  48.8665819  38.9592481  83.8956356  42.9754734  41.1305189
  84.1717148  43.2190895  40.2469730  82.9450035  43.0872154  41.1237669
  32.6438308  58.4665442  50.6833553  32.6358867  58.2678986  51.6196823
  33.2915449  57.8648758  50.3163528  28.7504244  73.4579182   5.1695067
  29.2046499  72.9074574   5.8073968  28.2402253  72.8428364   4.6426243
  49.5806456  40.1388788  57.0094252  49.0450335  39.5584416  57.5502110
  49.3768311  41.0183477  57.3275852  90.8446693  30.1551676   2.7408653
  91.3034153  29.6620488   2.0607090  90.0769138  29.6218753   2.9467461
  78.6282969  18.1681335  39.4479823  79.3928957  18.2611740  40.0162840
  78.9248943  17.5976074  38.7389255  58.5159874  35.3784990  57.5714111
  58.9090919  34.6626616  57.0721340  59.2478704  35.9629416  57.7689028
  90.9187222  14.5233262  20.0276184  90.2582073  15.0415015  19.5677805
  90.4697704  13.7085032  20.2528667  25.2502298  23.6353135  13.6408937
  25.7582998  23.6960244  12.8319383  25.9002185  23.7177420  14.3387139
  39.6795607  23.4751415   2.6633266  40.5974054  23.7140536   2.5340429
  39.6285844  23.2080102   3.5810819  76.5492344  85.5785084   3.1878844
  76.3345242  85.2832508   4.0727326  75.9379101  85.1060677   2.6228055
  85.2421665  76.9969940  31.2734771  84.6528912  76.4197779  30.7878709
  85.4388332  77.7072620  30.6626797  44.2240381  18.4685314  36.8293142
  44.6105766  18.0443645  37.5954103  43.3214092  18.1505787  36.8094420
  50.9610748  58.2485056  73.1524897  50.6970310  59.0796232  72.7578354
  50.9190178  57.6179218  72.4335814  53.7122917  73.0153036  55.8976173
  53.4068537  73.4737968  56.6803837  53.6319923  73.6607456  55.1953411
  59.3327904  56.2915659  58.4955168  59.5188570  55.8545828  59.3265724
  60.0003529  55.9591913  57.8954172  33.9103127   9.1658765   2.7669781
  34.7212672   8.6609721   2.7064875  33.8977909   9.6953553   1.9696534
  45.6557608  62.2890568  64.1737461  45.4718256  61.4707851  63.7124109
  46.0243797  62.0132351  65.0129557   5.1857942  59.7601175  74.2782640
   4.7416803  60.5688095  74.0232849   4.6449214  59.0627384  73.9076567
   4.7899771  16.8431032   8.6971605   4.4271129  16.9395101   9.5776528
   4.2736000  17.4424922   8.1583476  15.7791221  65.9904337  70.9953117
  15.0525224  65.6225395  70.4923820  16.3685811  65.2504444  71.1408567
  11.9249988  17.2361588  17.6049602  11.2282836  17.8825188  17.4907684
  11.5953362  16.6458178  18.2824945  55.6139278  32.3768353  67.9796743
  56.1753654  31.9054079  67.3642254  55.6325722  33.2838655  67.6744175
   5.0147629  29.9765539   2.5915202   5.0139564  29.0201783   2.5518286
   5.9299153  30.2212024   2.4541350  58.3554173  44.2114210  70.8296585
  58.9807320  44.2801905  71.5511036  57.5505352  44.5998287  71.1724901
  37.8719091  64.9937153  51.5561152  37.1782660  65.3658247  52.1007442
  37.4350739  64.7634792  50.7361174  35.1003122  64.5657730  34.3468142
  34.6452212  65.1646662  33.7548232  35.7108831  64.0901804  33.7835717
  53.4665346  64.1364717  54.4406939  53.8644171  65.0062227  54.4788074
  53.8752079  63.7191582  53.6823606  71.6388559  51.1638355  46.0633039
  71.1686134  51.8751431  45.6283951  71.6297865  50.4474258  45.4285526
  37.7455568  73.3912420  58.4929609  37.5008297  73.0341721  59.3466854
  37.1828008  74.1577959  58.3837175  65.8824158  68.5427332  17.3862302
  65.3829145  68.5952616  18.2010734  65.5837107  67.7321196  16.9740224
  75.5451775  80.4635525  36.0915327  75.6274605  80.0582218  36.9547653
  76.4441156  80.5227661  35.7680702   7.9349828   8.0127275   4.8114505
   7.2675425   8.6977625   4.8499572   8.4251451   8.2006228   4.0110332
  44.8768759  58.3544016  53.0845022  44.8858547  58.1331539  54.0157366
  45.7593822  58.6799145  52.9071379  78.5119867   4.2864484  47.5799847
  79.3459034   4.5128065  47.1681881  78.6914062   4.3219107  48.5195494
  61.5784693  58.4597731  51.4237356  62.4792004  58.6771917  51.6638136
  61.0658216  59.2171288  51.7062855  20.0560236   3.9105788   9.0726572
  20.9919977   3.7836438   9.2278105  19.6823728   4.0289533   9.9459296
  90.9547329  11.6698015   0.7751332  91.8008804  11.2286806   0.6997757
  90.8405685  11.8099594   1.7151088  26.1008430   2.1514535   3.6565599
  25.1728988   2.1418548   3.4219158  26.2608171   3.0435452   3.9644763
  74.0511513  53.6274099  56.9137335  74.9288988  53.6483574  57.2949839
  73.5721397  54.3142271  57.3774862  24.0992856  25.7121682  28.2986331
  24.7520089  26.3645697  28.0445528  23.9856791  25.1703143  27.5177884
  80.6015015  32.8052258   7.0549852  80.2428341  32.9739952   7.9262507
  80.0709343  33.3448815   6.4688969  37.1196127  54.0603685  58.0620909
  37.9301381  54.5611811  57.9700661  36.8899107  54.1443920  58.9875126
  41.3129759  49.4568634  50.8954287  41.1743450  48.5470009  51.1584234
  40.8183718  49.5488119  50.0810909  33.0577898  59.0449858  64.5603800
  32.2871351  59.4814205  64.1972685  33.6502099  58.9457226  63.8151169
  45.4527187  40.5571747  47.1701193  45.9303713  40.4016733  47.9849148
  44.5352697  40.6132650  47.4372816  66.7735863  39.9755096  59.3728304
  65.9451628  39.4994783  59.4306517  67.3120546  39.4483471  58.7825918
  44.6208382  57.5474787  69.9725914  45.4504919  58.0120659  70.0824404
  44.1111851  57.7806568  70.7485485  65.8733559  25.8944774  57.1574783
  65.2996778  25.3122687  56.6593266  65.8372736  26.7269230  56.6863489
  42.6936865  51.7671299  56.1686277  42.4842453  52.4609089  56.7939568
  43.5754013  51.9790554  55.8621931  79.3899298  47.9259825  53.8781023
  79.4462156  48.3828115  54.7173691  79.8549891  47.1018744  54.0223265
  16.1693025  69.9766016  17.9015255  16.4882100  70.8092117  18.2497907
  16.7014122  69.3135023  18.3412838  52.4752188  85.4944897  62.3194122
  52.7441740  84.7231674  62.8183699  51.5509510  85.3421021  62.1225882
  30.7888889  11.4099288  29.4534111  31.2913847  11.5067148  28.6444855
  31.3638949  10.9119117  30.0344253  39.5351219  63.7053728  56.7910290
  39.4306970  63.7472820  55.8404684  38.9464736  63.0023909  57.0658875
  14.0765977  76.8547964  14.1772246  14.3804801  76.6672421  13.2891309
  14.0098917  75.9956741  14.5939851  33.4595132   6.1696887   7.0351750
  33.4401178   6.3937718   7.9655743  34.1856313   6.6826159   6.6803652
  16.7746878  15.1871777   6.8234533  16.6582406  14.3160045   7.2025675
  16.3934278  15.1203299   5.9480083  72.8608179  33.4815526  45.3986788
  72.0232630  33.0251241  45.3186178  72.6226044  34.4028902  45.5017519
  69.4121075  38.1007981  66.2027264  68.5283518  37.8529406  66.4743376
  69.4920111  39.0200138  66.4574671  37.3349380  50.3804827  68.7777185
  36.5560555  50.9159327  68.9289331  37.5689125  50.0479460  69.6442652
  71.7818022  36.4734173  45.9761047  72.6748943  36.3600063  46.3013029
  71.4477777  37.2329640  46.4533329  79.4635534   2.4543943   2.1539071
  80.1221371   2.6290026   1.4815944  79.8044586   2.8814936   2.9397824
  66.0091734  20.9384871  42.8715038  66.5802050  21.3795471  43.5004902
  65.6484509  21.6466045  42.3379517  44.9866438  46.0023499  47.8278494
  45.7955503  46.5118933  47.8755236  44.2988634  46.6560602  47.7019310
  39.0434480  60.1893473  59.7382832  38.3357334  60.6590748  59.2970037
  39.6754766  60.8702087  59.9689341  67.5719166  18.4298408  57.3893833
  67.0126104  18.1161010  56.6787624  67.9769516  17.6378667  57.7428722
  54.7091770  66.2142515  68.0260801  55.1014853  66.1223984  68.8943481
  53.7923241  66.4281225  68.1989193  48.0009079  56.0068321  72.0776129
  48.1227016  55.3322315  71.4095449  48.5985661  55.7567739  72.7822447
  32.1504688  55.8001852  67.6443577  31.7629004  54.9251080  67.6604366
  31.4450955  56.3798618  67.9318571  55.8033323  49.4699478  62.4418879
  56.1110449  50.0362968  63.1495523  55.1847172  50.0124407  61.9527531
  25.4677725  65.2348852  74.1010761  25.0120735  66.0098267  73.7723923
  26.3665843  65.5296993  74.2475367  10.5113351   9.7771436  48.6573696
  11.0942471  10.2060843  48.0309057  10.8617175   8.8904279  48.7422180
   1.8440703   4.6963063   5.8549964   2.1237089   5.5902028   6.0524368
   1.4635870   4.7524652   4.9784636  63.0322838  40.9791756  14.1882575
  62.2471237  40.5235910  13.8846171  63.1306124  41.7153645  13.5844481
  74.9356556  18.7952387  18.3086729  75.3016853  19.0107274  19.1664720
  75.7001829  18.6745572  17.7454948   7.8260124  21.0296893  66.0890627
   7.7600068  21.5278506  65.2743816   6.9624609  20.6310248  66.1966658
  37.6058245  43.2871580  12.6604640  38.5375333  43.1565094  12.8367603
  37.4507570  42.8247309  11.8368459  83.0993843  21.4068007  28.6316299
  83.6298943  21.9826651  28.0810213  83.3876896  21.5967035  29.5244050
  49.9157572  73.6255360  54.3696308  50.4417610  72.8297997  54.4493818
  49.0116596  73.3127928  54.3374968  63.5960770  53.0544376  54.1043854
  63.8548613  53.7555122  54.7025156  62.6616335  53.1991768  53.9557266
  79.0236902  67.1406841  64.9936962  78.7270403  66.3419437  64.5575190
  78.2536125  67.7091408  65.0020695   2.3447540  49.8603678  65.0045347
   2.3208375  50.8045673  65.1599455   2.0278503  49.4750738  65.8214521
  69.5118904  42.3027945   5.6697041  69.9681044  42.2926140   4.8282799
  68.6505079  42.6697397   5.4706943  56.6277742  70.7298136  10.4168546
  55.9237099  70.9561586  11.0245490  57.3527908  71.3029194  10.6661189
  88.5184574  46.2544680  26.2889338  87.7515411  46.6808128  25.9064436
  88.4068871  45.3273487  26.0786176  75.7451963  65.0292158  48.8470459
  75.3712511  65.6307888  49.4908714  75.0678539  64.9453163  48.1759310
  48.2830143  72.8471756  44.1203117  47.4415255  72.6852369  43.6938000
  48.9352751  72.5967407  43.4660435  42.9391909  68.8662481  73.8249302
  42.4789953  68.2792187  73.2250547  42.2922707  69.0753984  74.4987202
  75.8645058  71.7152500  64.8000526  75.9913015  70.7704687  64.8869228
  74.9471807  71.8112612  64.5440674   3.2118037   3.1561503  36.4466834
   2.7823073   3.0800146  37.2987223   3.6639732   3.9991245  36.4808679
  50.8007050  75.4182339  51.6266489  50.1795530  75.8411026  51.0337019
  50.3861427  75.4743385  52.4875879  19.8283768  63.9817190  55.0431061
  19.3584502  64.3465805  55.7929564  20.3972363  64.6927023  54.7479153
  52.0505810  72.7296162  50.8032417  51.4121723  73.4416485  50.7622671
  51.6327095  72.0060968  50.3361893  16.8416333  54.9222136  53.3832550
  17.2199917  55.3713799  54.1391182  16.7488980  55.6060934  52.7199745
  56.6754532  37.9997659   0.3562487  56.4456463  38.5155272   1.1291704
  57.5416517  37.6439667   0.5545957  78.9303732  74.0510130  61.4349556
  78.9757299  73.1315422  61.1727571  77.9934216  74.2426586  61.4752054
  51.9642115   5.2077526  11.1873341  51.7810154   5.3055942  12.1217310
  52.2355223   4.2949027  11.0907555   9.8012692  60.0566483  70.6546497
  10.7060456  60.0820398  70.9660387   9.3021816  60.5142260  71.3312292
  88.0640697  11.8266952   0.8278809  88.9758301  11.6859293   0.5727052
  88.0804920  11.8268096   1.7849401  76.6117382   9.8074496  59.0540314
  75.8223391   9.5764405  58.5644197  76.6065931  10.7643068  59.0791130
  24.5553732  69.1092873   7.5885481  24.1209412  68.2582951   7.5309813
  25.3961992  68.9791155   7.1500307  65.7919359  23.9364147  67.6855707
  65.2388382  24.2547274  68.3990049  65.2088308  23.9026260  66.9272375
  89.9922848  17.6085484   6.4557081  90.5932522  16.9683456   6.0746372
  90.0184917  18.3507299   5.8517945  90.5563641  67.6091909  64.0166759
  90.0196457  68.1635809  63.4502649  90.2092266  66.7266893  63.8865900
  72.0375919  78.8140345  54.9052334  71.6349220  79.6408176  54.6396828
  71.7586660  78.1866741  54.2382622  54.7203875  79.2419195  57.3535204
  54.6676970  79.5400047  58.2615948  54.2107964  78.4318066  57.3374081
  46.4728689  51.0496616   1.6313626  47.1790171  50.5372334   2.0250788
  45.6707382  50.6508636   1.9686753  21.1338210   1.8137726  58.1640720
  21.1182809   2.5039330  58.8271475  21.0706592   0.9999110  58.6639452
  48.9320898  50.5541277  66.1916590  49.5899153  50.4608679  66.8807125
  48.1355906  50.8140755  66.6545248   9.3209034  53.5164070  61.7138672
   9.5965123  54.0345526  60.9576988   9.6572345  52.6377535  61.5375662
  34.4332623  49.5932055  37.7820420  34.2053366  48.7570906  37.3755956
  33.5902190  50.0035763  37.9746747  48.4184980  24.5544648   5.3584141
  47.7356625  25.0402403   4.8958230  49.1016102  25.2034020   5.5271256
  55.6338024  19.7476637  67.7591419  54.7845602  20.0792933  68.0507612
  55.4441500  19.2917717  66.9391251  14.6856594  20.8887601  69.2125702
  15.0508523  20.0674272  68.8835144  15.4451108  21.4603639  69.3254137
  33.0920339  78.2458305  35.8733368  33.3750653  79.1421413  36.0542965
  32.5290799  78.0184126  36.6133356  90.1871777  26.6474342  64.3138695
  89.5714474  26.8516970  63.6100340  90.8085632  26.0360146  63.9185524
  57.2448397  56.4409161  70.7143021  58.0549383  56.1239529  71.1136818
  57.3564005  56.2708235  69.7789669  46.7243433  81.1927795  65.5759335
  47.3383856  80.5348492  65.2498722  46.8224192  81.9308758  64.9744129
  45.2717829  55.0342560  35.7352042  44.3439627  54.8238993  35.8407235
  45.4283524  55.7452679  36.3566375  24.9468064  41.7514324   2.3353645
  24.1157031  42.1013832   2.6563504  25.1889181  42.3326206   1.6143680
  55.5285215  63.2237387  61.0816574  56.1920261  63.0545759  61.7505217
  55.6086254  64.1593552  60.8960676  63.4445477  41.0348368  49.0354824
  62.7774429  41.3840628  49.6264553  62.9775524  40.8736992  48.2156134
  17.3199463  13.8341320  58.7074089  18.1094396  14.1329300  58.2561302
  16.8925750  13.2500041  58.0810070  89.7995281  52.5940228   1.9451143
  90.5658150  52.7951050   2.4823323  89.3363190  53.4280205   1.8669093
  70.8897209  43.4147692  50.7945585  71.2729645  43.0601025  51.5967846
  70.1315117  42.8559780  50.6239510  82.6531982   6.6051632  36.8751788
  82.4906826   6.7648870  37.8048611  82.1647739   5.8052742  36.6806197
  27.2357798  68.8564634  42.7828455  27.4106741  69.3000126  41.9528389
  27.2635984  69.5540428  43.4377050  85.9884262  58.2242346  61.4793205
  86.2086582  58.0938721  62.4016714  85.4228401  57.4834728  61.2611103
  45.9346104  57.2772789  73.3494949  45.1583910  56.8433666  72.9953289
  46.6642284  56.9041634  72.8548479  71.5851450  86.0520363  13.7612295
  71.5419388  85.1066875  13.6173964  72.5158358  86.2317371  13.8944769
   1.8865645  45.6074667  44.8590517   2.1040824  46.1489868  45.6177807
   1.1249369  46.0364771  44.4690418  77.6646471  32.6046205  31.9309902
  77.9679823  31.7812181  31.5485930  77.7832937  33.2502770  31.2343669
  57.1434879  80.3780556  53.5742807  57.4076176  80.5003071  54.4861603
  57.1336031  79.4286156  53.4530258  66.4589310  53.6609697  55.7714176
  66.6928530  53.3483124  54.8974848  65.7107735  54.2401314  55.6262922
  47.9504633  22.2463274   0.8466932  47.9059982  23.0292845   0.2978465
  48.7132788  21.7685390   0.5210166  71.9326448  25.0298190  12.5475204
  71.0266542  25.3084564  12.6808298  72.4209452  25.8460784  12.4402094
  34.3134236  62.9193211  45.8471441  34.4946766  63.8263798  45.6009245
  34.7706580  62.8012133  46.6797447  67.6228952   3.4967226  55.7746315
  67.6293039   2.8180793  56.4496374  66.7187834   3.5138115  55.4607487
   9.8821998  21.2322426  12.1005595  10.7195067  21.6943836  12.0608866
   9.4357818  21.6100264  12.8583336  55.4497623  85.6016636  54.6023273
  54.9573088  84.7844505  54.6790695  55.2629423  85.9115601  53.7161589
  83.6556053  82.1555805  68.7966490  83.9204788  81.3153172  69.1708565
  84.0901756  82.1858311  67.9443216  16.9578707   8.4132791  69.1720295
  16.3236248   8.9739960  69.6187496  17.2529042   8.9335370  68.4246874
  83.6258221  58.4047651  57.8776550  82.7803802  58.8169622  58.0552864
  83.5831928  58.1594133  56.9534206  28.7707615  20.5045247  69.7950649
  28.5307932  19.7472239  70.3290558  29.6383476  20.2904391  69.4519997
  71.5134668  59.0809536  32.2048211  71.2603998  58.8086748  31.3227487
  72.2048187  59.7283697  32.0665359  21.0388088  70.8231497  52.9428005
  21.4357448  71.4615059  52.3501968  21.5571404  70.8864260  53.7450218
  73.8156557  44.5851088  69.2916489  74.1744471  44.2489147  70.1129103
  74.0944099  45.5004454  69.2654181  38.9790474  24.6460180   0.3486515
  39.1167580  23.9631347  -0.3078055  38.9822470  24.1791181   1.1842514
  28.4413433  77.6270723  61.9867897  29.1373730  77.4365664  62.6156616
  28.6252022  78.5178614  61.6885853  58.5092592  73.0410433   8.8422358
  58.8089323  73.5962391   9.5620871  58.7228823  72.1507502   9.1214740
  83.4596920  81.3200569  51.3546753  82.8634834  81.8098450  51.9211435
  83.0026531  80.4972935  51.1803198  75.9543419  82.3217297  26.8248725
  76.7043924  82.2842407  27.4183798  75.3268576  82.8930664  27.2676682
   7.2418225  63.1100416  68.4206581   7.9123068  62.4269009  68.4194803
   7.2892737  63.4906960  69.2976332  61.9586706  75.7141542  71.8125248
  62.1246243  76.3052273  71.0781384  61.3686609  76.2038517  72.3855114
  51.1070681  14.1216254  26.0600424  50.7793713  14.5201623  26.8662786
  51.4173126  13.2570183  26.3291740  28.9955711  82.3283482  39.3999100
  29.7503662  82.7136135  38.9548445  28.6026430  81.7489624  38.7471104
  20.5881786   8.0725104  17.8311408  20.1487565   8.5045999  18.5635614
  19.9677575   7.4041951  17.5401676  88.5205364   8.5864669  12.1796501
  88.1062984   8.0141139  12.8254426  88.3549500   9.4719660  12.5032306
  83.1530571  35.9369373  59.7169876  82.9788208  36.8745899  59.6352577
  82.4256325  35.6030226  60.2419567  30.6501961  30.8766270  18.9755630
  30.0793719  31.5270209  19.3846834  30.6483865  30.1388931  19.5854652
  81.7140770  34.7786665  61.9784498  81.1722565  34.0673065  61.6369390
  82.1853638  34.3885660  62.7146149   6.1970103  25.3510499   8.4050536
   6.2421536  25.2254868   7.4571991   6.0753024  26.2939501   8.5162240
  25.0999522   2.3555355  14.2975044  24.3860936   2.9058456  13.9753294
  24.8074555   2.0653160  15.1614785  30.2105165  62.5539732  70.0017309
  29.7047925  63.3539915  69.8587370  29.5553493  61.8563461  70.0190496
  74.8236561  74.4492483  50.2316999  74.4569302  75.1588440  50.7591677
  74.4622421  74.5898914  49.3565845  42.8168774  76.2570715  71.6910744
  43.6441469  75.9688854  71.3053226  42.9104662  76.0707617  72.6252937
  38.4355879  62.8397274  17.6301241  38.0281401  63.1580353  16.8245828
  37.9149342  62.0750427  17.8759134  87.6870060  74.7195005  50.5191898
  87.1856403  73.9915180  50.8864737  87.1341801  75.0604153  49.8160601
  31.6853619  33.5371089  12.6723528  31.4353776  34.1861725  13.3299673
  32.4515152  33.9157653  12.2412395   5.0387472  30.8156180   9.0323025
   5.9886444  30.9004498   8.9502645   4.7010401  31.0617185   8.1711286
  44.1081095  63.5475492  67.9161072  43.6443377  64.2205381  68.4143353
  43.5306358  63.3560181  67.1771383  33.7812114  79.8431826  40.8385420
  33.0559587  79.4562817  40.3480816  33.9404702  80.6830883  40.4079199
  84.3815231   0.5649137   3.3643797  84.2875099   0.2106529   4.2486262
  85.3042793   0.8116342   3.3020639  81.1423111  50.6310892  22.6508808
  81.3096237  51.4850712  23.0495715  80.2005672  50.4972267  22.7577806
  16.9855988  16.1041522  14.2210138  16.3486838  16.4117229  13.5760546
  16.8775809  15.1531053  14.2296112  61.9204664  65.0775051  45.2661514
  61.1785221  64.8939991  44.6898890  62.2315693  64.2141724  45.5383730
  15.0376272  67.9077530   4.0337372  15.9290290  68.2400751   3.9279222
  14.4975507  68.4999037   3.5103804  37.7407408  48.5129833  14.1623998
  38.5335398  48.5339499  13.6264312  37.5933743  47.5832224  14.3357873
  55.7528019  38.4305549  59.1916180  54.8915815  38.0856943  59.4274187
  55.5897284  39.3452668  58.9615297  52.2587538  23.0025196  12.9411554
  52.0763063  23.3865738  12.0835721  52.9004717  23.5927033  13.3362687
  23.1555724   6.5261245  52.1854305  22.7474761   5.6836981  52.3854446
  22.6988316   7.1527690  52.7466202  83.9398289   0.9063557  52.1298313
  84.4074726   1.7412856  52.1506405  83.5397339   0.8342636  52.9964113
  24.0553951   6.1586750  49.3456602  24.2260528   6.0533249  50.2816153
  24.8806095   5.9200579  48.9233875   6.5765899  75.2928734  39.0151620
   7.5281632  75.3824377  39.0672922   6.4235854  74.3481588  39.0333509
  84.8023129  35.1336336  46.5463066  84.0077209  34.6054029  46.4699602
  85.1056385  35.2416444  45.6448889  16.0499692  37.6125646   0.1432160
  16.8047988  37.0275640   0.2083200  16.2410045  38.3195519   0.7595836
  66.7916393  69.9508095  55.4628468  66.6510582  70.8925009  55.5612326
  67.7037001  69.8165941  55.7204437  80.4177570   8.6219651  68.2726383
  80.3946495   9.5480728  68.0317640  81.0841846   8.2421213  67.7000761
  31.2740636  71.6684341  51.2425232  30.5853343  71.2581444  51.7655420
  32.0072317  71.7701578  51.8494415  44.5994139  18.0066788   8.2323456
  45.5060196  17.9742932   7.9269832  44.4276047  17.1262717   8.5664052
   7.9102385  10.2892232  29.1066408   8.1669033   9.4389921  28.7496209
   6.9564998  10.3044999  29.0267587  27.6964879  80.0506306  27.5375605
  28.3332229  79.3826103  27.7916193  27.9201698  80.2623558  26.6312623
  40.3891182  70.5917931  56.7912340  41.1399269  70.6330824  56.1989355
  40.7554245  70.2870369  57.6213980  59.3076563  77.3993969  37.6297832
  59.5021725  77.8618288  38.4449863  58.5408878  77.8500175  37.2758937
  33.0362010  15.7000959   0.1380076  33.6962414  16.1517787   0.6638981
  32.2031522  15.9318376   0.5485688  66.4233303  74.0006495  60.4705286
  66.9931078  74.7682428  60.4216528  66.7975569  73.3841133  59.8411846
  75.6425333  52.8324461  69.5905256  75.7786512  52.0636749  70.1443291
  76.5156174  53.0500221  69.2639923  41.7278242  53.2086849  20.4455018
  40.9869671  52.7345610  20.0679231  42.0852852  52.6108313  21.1020255
  65.4383659  48.9209700  70.7941484  64.9643707  49.4827747  70.1810074
  65.5132151  48.0812693  70.3408003   3.5723695  11.9714665   4.0379092
   4.3354741  12.3822033   4.4443563   3.7124273  12.0835114   3.0976635
  90.4502296  22.9952621  36.7035294  89.8631001  23.7411475  36.8267131
  90.1506233  22.3468328  37.3407197  12.8400624  82.1734524  23.3778644
  12.0187116  82.3867130  23.8207340  13.3781528  81.7639256  24.0553451
  81.2796211  59.9209833  57.6659727  81.0945606  60.0267744  58.5991383
  80.4166698  59.8793364  57.2538853  60.5215715  85.6449192  65.7859898
  61.3025859  85.9947010  66.2148237  60.0476837  86.4193405  65.4827833
   1.8261687  71.7430019  35.7408738   2.2397912  72.0845461  36.5336490
   1.5432726  72.5228310  35.2633119  51.0182238  53.6250877  72.7365255
  50.6176472  52.7744198  72.5572681  50.8990002  53.7524033  73.6777020
  71.0662651  73.6620760  61.2124014  70.9305334  72.7247906  61.3513374
  71.1220121  74.0293694  62.0945692  16.7827463  37.1773386  69.0646601
  16.2840617  37.2405005  69.8792458  16.1766636  37.4805379  68.3886671
  30.2404952  45.4639149   9.5752567  30.5579376  45.9964466  10.3045535
  29.2867613  45.5115557   9.6412474  70.2476788  61.2284231  61.4350700
  69.6531200  60.4835558  61.5239811  70.9070158  60.9348726  60.8063126
  26.2769448  34.0056495   0.4424167  25.5627571  34.5470695   0.1062131
  26.8365227  33.8481263  -0.3180384  16.9719815  21.8975592   6.4729750
  17.2360146  22.7972412   6.6655582  16.4249098  21.6441441   7.2164297
  43.8308573  61.4185667   2.2270213  44.5961142  61.2408400   1.6801834
  43.3181524  62.0507383   1.7233153  22.9338264  74.4821501  48.3205843
  22.7048016  75.4000854  48.1750631  22.6304603  74.0317440  47.5323343
  86.5047455  14.5659626  35.5210280  86.2891483  15.2656388  34.9044251
  85.8507729  13.8877594  35.3519297  85.5943203  68.0632782  48.7869167
  85.1683235  67.3188305  49.2118406  84.9553299  68.7731361  48.8504267
  22.8566551  32.8432441  10.4419410  22.5742245  33.3572197  11.1984432
  22.7089548  33.4196305   9.6921438  66.1241293  74.0806293  48.8359642
  66.2198019  73.8766861  49.7662783  67.0158482  74.2582369  48.5367632
   2.6007247  82.3178959   3.1325862   1.9559030  82.4537277   3.8268387
   3.1526142  83.0994225   3.1620473   8.7252873  57.1134520  17.9076254
   9.1121721  56.3443518  18.3259940   8.8093704  56.9434738  16.9693995
  77.7203226  54.4517517  41.6185617  77.8953791  55.3839684  41.4898729
  77.4451065  54.3837118  42.5328112  23.5972571   9.4100606   8.8326448
  22.8415155   8.8307405   8.7353057  24.2015338   9.1332364   8.1438428
  12.4634087  22.5008273  11.1088181  12.2000241  23.0458355  10.3673148
  13.3939254  22.3307014  10.9624362  22.6587510   6.8306452   0.7775255
  22.5316358   5.9807336   0.3559512  23.4993076   7.1414751   0.4412533
  43.1204844  82.1794224  71.9872379  43.7275839  81.6219330  71.5005445
  42.5457859  81.5655708  72.4445581  87.0242882  72.1624088  66.8304539
  87.6813984  71.7160463  66.2964058  86.1866188  71.8356991  66.5021276
  23.5546374  62.5376415  34.3334961  24.1363597  61.7814732  34.2557454
  23.0250859  62.3536634  35.1093578  74.4977093  77.9976320  56.2350607
  73.6870909  78.5056448  56.2673998  74.2096043  77.0954800  56.0959530
  17.3254943  68.2152271  24.9429584  16.8849444  68.6298656  25.6847286
  18.2387865  68.4905863  25.0223875  43.7115049  48.1065750  14.1069615
  43.8059378  47.7662754  14.9966300  43.4118843  47.3560333  13.5939860
   4.5497113  45.6744146  21.7039824   4.1591769  44.8211193  21.5153027
   4.3642053  45.8229685  22.6312089  60.6812620   2.3489574  29.4982958
  60.4081869   2.5580734  30.3915668  60.8535910   1.4075410  29.5147133
  56.2018919  75.8624458  48.4895897  55.4407406  76.3536453  48.1804037
  56.7114925  75.6873894  47.6984549  81.5028572  84.4304276  47.0407009
  82.1981049  84.2192078  47.6637936  81.8362141  84.1246128  46.1971426
  66.3288975  63.7963724  64.7082615  65.7087898  63.9204025  65.4268074
  65.8301020  63.3266830  64.0398073   6.6313457  39.9840093  70.0005007
   6.7520976  40.8818626  70.3095484   6.4724082  39.4761682  70.7961559
  59.1819906  64.7471857  59.4115496  59.6449232  64.4883442  58.6147261
  58.2551146  64.6583986  59.1896152  52.4113226  50.9167099  55.1346636
  52.1132994  50.0709438  54.7998619  53.3656120  50.8763552  55.0719118
  43.7948895  64.7136307  28.0509710  44.7020340  64.9686003  28.2192326
  43.3654261  64.7795773  28.9038754  61.4911222   9.0295964  52.8156042
  61.3957977   9.7321838  53.4586573  60.6434298   8.5850370  52.8191376
  60.9083271  21.6340852  17.5452244  61.3224936  22.4733543  17.7460265
  60.2809715  21.8365574  16.8512058  88.2976341  78.8297272  48.4797907
  88.5116291  79.6208477  47.9852581  89.0235615  78.7284040  49.0954113
  28.0122113  33.1912041  22.1678090  27.7148628  33.0898595  21.2636256
  27.5205684  32.5314927  22.6569915  86.5640354  29.0563726  52.1095085
  86.6902447  29.1245675  51.1631203  87.2901249  28.5093451  52.4091625
  22.4485397  76.0551214  43.1670713  22.5320578  75.1575947  42.8450441
  21.7747426  76.4471579  42.6116085  41.2516975  29.3587852  12.1095324
  41.9594193  29.4801569  12.7424824  41.5703917  28.6732316  11.5224361
  18.6511588  72.9632759  31.3612342  19.3106544  72.8626680  30.6748128
  17.8161025  72.9603100  30.8933616  26.9254899  33.0382299  10.2131736
  26.3276076  32.4741864  10.7037079  27.7851582  32.6332045  10.3278863
  85.0682354  10.5152524   6.9873697  85.5819702  10.5621421   7.7936584
  85.6917095  10.7292736   6.2933218  40.0076056  57.8521013  17.8949380
  39.1420650  57.5677156  17.6013434  40.2043104  58.6173677  17.3546529
  81.3999653  83.0619431  14.7497737  82.2437382  82.6762962  14.9854922
  81.5737534  83.5415936  13.9398503  62.4511290  60.8198023  39.4308257
  62.4556303  61.2058353  38.5549307  63.0817986  60.1015902  39.3792748
  90.3070164  28.4496212  54.7169352  89.6090794  28.4787560  55.3713560
  89.9437904  27.9262495  54.0025234  38.7187505  53.4808493  61.1529732
  38.6599231  52.5501680  60.9370995  38.1293988  53.5913706  61.8990850
  63.0166101  66.8349743  73.9124918  63.6036062  67.5859213  73.8245201
  62.2135925  67.1052027  73.4670973  68.0769396  43.9993000  36.6511583
  68.9710951  43.7076998  36.4731598  67.9654455  43.8688183  37.5928473
  85.1280212  15.2355516  24.5601535  85.3240585  15.4983199  25.4594612
  84.2175293  15.4990602  24.4267011  64.2459536   3.0098748  62.4143171
  63.4199810   3.2366785  62.8415918  63.9915943   2.7281240  61.5355968
  60.0562429  71.4487362  43.4233475  60.5898142  71.7684603  42.6958132
  60.0579691  70.4969740  43.3214712  44.1798973  55.3497219  51.5508223
  45.0423861  55.7646990  51.5391064  43.5759401  56.0451746  51.2904119
  30.2173125  37.6352386  -0.0117135  29.9478041  37.5581912   0.9035278
  30.8861481  38.3199863  -0.0076031  64.5338154  10.9322917  11.0249865
  64.5119476  11.7323184  10.4999053  63.7206984  10.4782856  10.8037293
  86.0409546  55.8066988  29.7912550  86.6824913  56.2821913  30.3190470
  85.2390099  56.3239956  29.8656106  18.9443779  69.9783278  38.5583305
  18.9504778  69.0368032  38.7307429  19.7581625  70.1396704  38.0808830
  60.1202822  60.3274965  62.3490000  59.4922066  60.4526329  63.0604029
  60.2440357  61.2028503  61.9820213  34.2611289  59.3650055  71.3634634
  33.9140010  59.3221855  70.4724503  34.0348768  58.5188580  71.7495775
  80.7218838  47.7610922  48.8370657  80.1008606  48.0840302  49.4899654
  81.4917946  47.5050306  49.3448973  36.4254475  68.6719990  55.0911283
  36.4616203  69.2517757  54.3303490  36.3022852  69.2610264  55.8355141
  19.2311919  11.6956794  17.7202880  18.6391759  12.2025442  17.1645582
  19.8351336  11.2765944  17.1072173  88.4574890  79.9254608  26.7015910
  88.4226131  80.8410835  26.9784451  89.1047573  79.9129105  25.9965277
  70.5832434  24.9561429   2.5254944  71.1206722  24.5713830   1.8331358
  71.1437845  25.6238747   2.9206601  66.3264418  63.7514877  50.8103657
  67.0942211  64.0373135  50.3153467  66.6787243  63.4586906  51.6508389
  32.4479604  79.3851995  68.0788088  33.2306051  79.9179935  68.2196236
  32.3365045  78.9022064  68.8976622   9.3735290  83.3122444  11.9819355
   9.7840112  82.8874779  11.2287354   9.9709779  84.0243816  12.2103119
  62.4109840  55.5205965  57.9418230  62.1923828  56.4513254  57.9886150
  62.4830294  55.2452469  58.8557243  14.7050261  32.1106553  68.3731413
  15.0287163  31.4294028  67.7837753  13.9281547  31.7265081  68.7795067
  90.1065636  17.6221192   3.1509298  89.2411041  17.2937822   3.3946523
  90.1956749  18.4438419   3.6336964  87.6737213  15.0573599  46.0713339
  87.0232677  15.4675019  45.5013084  88.4259701  14.8987961  45.5010557
  85.0002670  14.6661425  20.1057911  85.1658440  15.3751659  20.7271624
  84.0470600  14.6377671  20.0232077   2.5089991  17.0409644  41.0073900
   2.9462829  17.4787080  41.7377281   2.9221603  17.4082518  40.2259588
  31.0815978  12.2593653  62.4062538  30.7029915  11.6954041  63.0806684
  30.6200743  12.0160413  61.6037416   0.2978959  80.4871368  56.0475874
   1.0384630  79.8878431  55.9546375   0.4153865  81.1241817  55.3428841
  89.6501732  56.9661570  57.2341824  90.4481125  56.4716864  57.0470142
  89.5789433  56.9535732  58.1886435  26.6165733  48.6449814  10.2939832
  27.0352912  47.9576635   9.7758090  27.1578360  48.7154675  11.0803032
  43.2819796  58.3025789   3.5759532  43.3686304  57.3507643   3.5233369
  44.1472769  58.6353827   3.3377537  51.8618488   5.8636850   3.9176998
  51.5584278   6.3079762   4.7093904  52.7777672   5.6519568   4.0979671
  71.9679785   1.1501723  47.3062897  71.8106794   1.5891628  48.1422186
  72.9176569   1.1858843  47.1919775  35.6396914  75.5384541  70.5018282
  36.3759303  75.6268167  71.1071205  35.0263524  76.2229824  70.7691669
  61.7912149  74.0031338  56.6776609  61.6436958  74.0844345  57.6199245
  62.3700047  73.2457733  56.5903139  66.6405821   1.8180603  51.4017916
  66.6747522   1.7825259  52.3577213  67.0468616   2.6555210  51.1785698
  81.1356831  80.5060673  58.4603691  81.8780518  80.7386875  57.9026794
  80.3648949  80.7271194  57.9376411  82.9264832  69.2584133  70.5282450
  82.1297264  68.8831949  70.1532412  83.4308910  69.5553017  69.7708416
  25.1367664   4.6229985   7.1481526  25.1294804   3.7102380   6.8599737
  26.0618091   4.8689273   7.1413720  64.9899769  67.3637819  34.4650578
  65.3350878  67.8838348  33.7393355  65.6761599  67.3976803  35.1315689
  83.8325405  74.9624157  66.1083460  83.6746311  75.8513832  65.7904911
  82.9587650  74.5834303  66.2037754  54.0139008  35.6378150  11.3065314
  53.6316109  36.0525084  10.5331516  53.5394144  34.8111367  11.3942456
  60.0487185  30.0344539  49.9660540  59.4891548  29.3132472  49.6779823
  59.4529152  30.7779884  50.0577307  47.3503065  43.4346151  20.4284906
  46.6074657  42.9629278  20.8052278  46.9611931  44.0017271  19.7627532
  61.2137651  83.2660961  34.5420051  62.0602465  83.4043789  34.1170669
  61.1879444  83.9181423  35.2422857  70.5832434  78.4373665  63.2724619
  71.2667370  77.7714872  63.1971264  70.0537109  78.1538105  64.0177250
  30.2732182   5.8497572  58.7993670  30.3723478   6.0404521  59.7321272
  29.9263763   6.6595125  58.4248924  78.8641405  59.0499210  62.8449297
  78.1621313  58.9956141  62.1964979  79.4141388  58.2869959  62.6669455
  36.1218190  81.0069084  23.0323410  35.9788370  80.0932503  22.7853179
  35.4798961  81.4971638  22.5187111  64.6863890  64.7140074  54.9371815
  64.3598270  64.5303059  54.0563631  64.6738768  65.6688643  55.0029612
  43.5457420  82.9825783  69.0948582  44.1745138  82.4091148  68.6566639
  44.0520859  83.4094620  69.7859573  74.9346113  57.1436596  68.2047939
  74.6611118  56.4231491  68.7725067  74.2952251  57.8361368  68.3717966
   8.5486728  18.7875998  34.9204659   8.4396523  19.7217107  34.7421885
   7.6670033  18.4792018  35.1297045  68.1239700  85.8286190  55.3425694
  68.3906317  86.4900398  55.9810495  67.4702311  85.3018093  55.8022690
  30.0115657  49.7146368  67.5679398  30.5723619  49.3820190  66.8671513
  30.5981016  49.8124313  68.3180380  54.4392490  77.9917145  74.2397356
  54.3831158  77.2475147  73.6403608  54.0287304  77.6808691  75.0466299
  39.1707063  84.5940018  57.9690266  38.6339521  84.2156696  58.6654425
  39.8274565  83.9233208  57.7816629  29.3925071  21.0134721  57.0428753
  28.7314487  21.1394358  56.3621664  30.2279878  21.1192083  56.5878773
  21.9826555   2.5980935  72.0085955  22.0133781   3.0556113  72.8488111
  21.2404180   1.9990602  72.0890617  83.3957481  69.2512465  64.8616362
  83.5158920  68.5518122  64.2193031  82.4793911  69.1769314  65.1280832
  69.6572208  63.1248808  33.1485415  68.9286661  62.5347376  32.9557395
  69.2466688  63.8863993  33.5581255  88.3415031  71.8861961  26.0788155
  87.7613163  71.2659645  25.6373119  89.0163898  72.0862484  25.4301715
  23.5568905  40.8529234   4.9209481  23.0752063  41.4272833   5.5161989
  24.4748521  41.0932350   5.0467467  75.6341171  33.3340907  45.9130049
  74.6926785  33.1611228  45.9115887  75.9272575  33.0568886  46.7810249
  66.3332367  54.9056959   8.8147575  66.1759663  54.3854189   8.0268449
  65.6154346  54.6720314   9.4033051  90.9840298  67.8617620  44.3320227
  91.0080242  67.9756594  45.2821207  91.6929722  68.4163427  44.0063334
  35.9368634  61.9712591  62.2055578  36.8018150  62.1172428  62.5886774
  35.3646874  62.5861597  62.6646280  86.5645409  27.9305434  55.5858135
  86.6676998  27.7299738  54.6555614  85.9563637  27.2654080  55.9082270
  76.9639826   3.7137017  59.5246983  77.5155210   2.9454595  59.6724749
  76.1817265   3.3678535  59.0949345  59.1983604  61.4829397  57.5989580
  58.3004379  61.7528677  57.7915859  59.3754053  60.7780361  58.2218552
  69.9978638  40.0164890  62.3188829  70.3484726  39.2225671  62.7226067
  70.4734612  40.0947475  61.4918900  49.9692535  53.9941788   6.7646170
  49.5558023  53.4813404   7.4590874  50.6359053  54.5131302   7.2146088
  63.9794827  14.5191455  40.5438423  64.2917395  15.4181647  40.4414082
  63.7530708  14.2416334  39.6561718  82.5266743   4.2274180  63.4475136
  82.2433758   4.3942666  62.5485468  82.7890396   3.3068788  63.4490061
  17.6036608  64.3679428  68.2360458  17.7477789  65.1908255  67.7687836
  17.5595832  64.6206999  69.1582203   0.7700605  73.8442469  26.1353230
   0.8026693  73.3049536  26.9254684   1.2145593  74.6556997  26.3806653
  84.3165493  21.3867068  70.1001406  83.9387226  20.5089378  70.1549768
  83.9414120  21.8559146  70.8453608  84.3875694  72.6064253  31.8998861
  84.2414761  72.6053762  30.9539032  83.7903118  73.2757950  32.2337389
  33.3929467  12.6435363  29.4849181  33.0974793  13.5538447  29.4685411
  32.7142024  12.1802092  29.9757004  62.4374342  65.2401924  42.4529886
  62.4693060  64.6669149  43.2188654  61.5188789  65.5013037  42.3873186
  28.3629417   8.3826476  34.5801950  28.4450960   7.4435031  34.4143939
  27.8302979   8.7082702  33.8545966  62.0746756  68.6393929  59.8705769
  61.8148041  67.7541876  59.6154213  61.8356419  68.7020016  60.7953310
  11.8711996   9.9202085  43.2788181  12.1131480   9.1922915  42.7062511
  12.4981570   9.8757011  44.0007401  22.6408720  48.7731791  19.9725652
  22.6530075  48.1575394  20.7054162  22.5649238  49.6340275  20.3841543
  28.8774419  38.2837367  21.8539310  29.7102976  38.5997128  22.2042775
  28.2144427  38.6750126  22.4227619  46.7864227  75.7724094  59.9076748
  47.4719524  75.7729149  59.2396355  46.0702467  75.2728415  59.5155525
  83.9670181  45.4767609  56.9278193  83.5199547  44.6313047  56.8881369
  83.3006096  46.0853338  57.2468328  70.4378843  54.3225098  18.7553489
  69.8808241  53.7681484  18.2089043  70.8704185  54.9111652  18.1367791
  55.5458450  48.5492182   6.2677032  55.1896334  49.1087914   5.5776149
  55.1328850  48.8668966   7.0706826  90.8721256  11.8393564  39.8851466
  91.3353157  11.2871706  39.2552495  91.2867165  11.6437805  40.7254362
  64.1494894  57.1774530  17.6423943  63.7668180  56.8073416  18.4378910
  64.2978764  58.0990219  17.8543437  65.7966089  54.2117882  65.8697557
  66.1008644  53.8136053  66.6852999  64.9079418  54.5089149  66.0652447
  89.9235821  12.8644848  59.6630430  90.8108807  12.5851524  59.4374084
  89.7050095  13.5233283  59.0039635  83.4352493   8.5782939  45.6255722
  83.8562584   9.4363606  45.5736065  84.1451263   7.9763412  45.8490849
  72.2955418  14.0072691  41.7391729  72.1484327  14.6365833  41.0330915
  72.4812984  14.5478427  42.5069666  12.9240906  86.0922337  34.2678380
  12.8755617  85.5421925  33.4859657  13.8329983  86.0160923  34.5582151
   1.6429047  85.7476997  53.1493759   2.1311028  85.7545280  52.3260593
   0.7556649  86.0099697  52.9039049  46.0486937  49.5968580  62.8786325
  45.7183695  48.8232470  63.3354139  45.2673912  50.0093365  62.5103140
  34.2496371  75.9045935   1.2343813  34.6357012  76.5065384   0.5981046
  34.2534685  76.3920355   2.0581639  23.3580279  11.6163754  29.2692113
  23.3616471  12.3541605  29.8790407  22.4431491  11.5321112  29.0006447
  51.6664505  70.0709152  68.8883114  51.4683771  70.7193422  68.2126331
  50.8726549  70.0306845  69.4217014  19.2691028  66.9560432  58.9397764
  19.7461307  66.6911507  59.7262287  18.9421821  67.8326988  59.1418362
  82.2429657   7.9073834  66.0875511  83.0489731   7.7649355  66.5838242
  82.4648857   7.6525134  65.1919937  61.1842585  74.8875475  42.0086718
  61.1397076  75.7341051  41.5641642  61.5727711  75.0846958  42.8609753
  63.7891626  80.1897717  28.7777543  63.4981918  80.8053875  29.4504976
  63.7932920  79.3393087  29.2169976  32.1391869  51.6003180   6.7459559
  32.0959640  51.2448215   7.6336414  31.3995481  51.1980772   6.2905830
  53.4560537  82.0691681  41.1610699  53.1484222  81.3254929  41.6792822
  53.9479637  82.6065826  41.7819071  88.5821629   5.6537831  40.3455734
  89.2261314   6.2887305  40.0319242  88.0216599   5.4868728  39.5878100
   8.7928623  10.7261086  64.2879391   8.2340360  10.0094259  64.5884562
   8.4926856  11.4879310  64.7836733  43.7406921  30.1787949   9.9206060
  43.3236790  30.9952140  10.1959121  43.0771875  29.5066309  10.0761235
  80.7672977  63.0018473  61.5112734  81.2108040  62.3148155  62.0087862
  80.9813309  63.8105726  61.9764471  60.5055237  58.9486456  69.4431734
  61.0905218  58.1919003  69.4798517  59.9433279  58.7803507  68.6869717
  24.7117615  15.0135243  60.4517508  25.3903198  15.6441581  60.6927633
  24.5149446  14.5505369  61.2660837   7.7771538  72.3240185  36.2988639
   7.0394492  71.9444799  35.8213949   8.4525651  71.6461897  36.2742901
  82.8868771  25.0140619  31.1610150  82.6055527  25.2213621  30.2698827
  82.7549362  25.8268833  31.6490173   5.6561482   9.3391746  37.4743247
   5.3097612   8.9972830  36.6500926   5.6683111   8.5829669  38.0610394
  90.9798311   2.2628492  19.5116937  91.7626841   2.1996321  20.0588465
  91.1234830   1.6241583  18.8133597  75.1738548  81.0926247  48.0551004
  75.1826429  81.6091061  48.8609552  75.1293373  81.7430401  47.3542356
  73.3477974  74.0490341  58.8323689  73.9862919  74.7566509  58.9208794
  72.5165319  74.4953012  58.6709070  62.3024607  27.1415472  13.2127225
  63.0080271  26.4966035  13.2622862  61.6745424  26.8612528  13.8785946
   2.0608021  70.2699327  40.0742340   1.4506656  70.8526039  40.5264091
   1.6534831  70.1107025  39.2227840  72.1714258  68.6727762  72.9535770
  72.9297161  69.2124414  72.7300024  71.7137861  68.5466433  72.1223783
  24.5820141  53.4341049   0.8897999  23.9232349  53.1229925   1.5106489
  24.9839759  52.6358747   0.5470462  60.0393867  84.7726250  60.8040810
  60.4648638  84.0573025  61.2768364  60.7465649  85.3898716  60.6166267
  91.1337480  42.0855570  16.7123628  91.6839078  42.3497963  17.4497449
  91.1308254  41.1289692  16.7464244   3.6747158  25.9692264  64.9626064
   2.8586462  26.4653802  65.0265884   3.6210257  25.5281806  64.1147709
  55.5778122  55.6326532  63.5359192  55.2477455  56.3649130  63.0152655
  55.0407028  55.6407785  64.3281841  28.3229375  42.0411396   1.5238298
  27.5632548  42.5949001   1.3436565  27.9824948  41.3414812   2.0813289
  83.7482548  32.5805402  51.3511944  84.0852547  33.3196855  51.8574762
  83.6383247  32.9270148  50.4656982  65.3628016   7.5258040  44.6354771
  65.4532146   6.5729749  44.6223021  64.8297691   7.7051276  45.4100418
  60.6909895  50.8845615  53.7680960  59.8830080  50.7680416  53.2682753
  60.8442259  51.8293667  53.7588167   6.0705042  49.1619587  56.3967419
   6.4430362  49.0631676  55.5205631   5.4411566  49.8779488  56.3100863
  47.2523689  78.8174486  47.4181604  47.1457720  78.9204788  46.4725113
  48.1872940  78.6500263  47.5369692  56.5507460  78.3876467  51.3070774
  57.1867371  78.2166338  50.6124496  56.2534761  79.2828798  51.1445475
  46.5930748  66.1321497  39.0569592  45.7600403  65.7926035  39.3840599
  46.4731979  67.0815897  39.0363503  13.3782470  31.1369181  13.4668207
  14.2386687  31.3161206  13.0876219  13.5636163  30.6046319  14.2404771
  86.3645935   2.8715172  71.1919355  85.6651497   3.4965116  71.3826942
  87.1718693   3.3721495  71.3098478  36.5421700  22.9593253  54.4694996
  37.2228718  23.2439280  55.0793219  36.0835600  22.2583127  54.9326324
  48.6121178  71.5123940  34.0338707  48.4113359  70.5793953  33.9601779
  49.1177225  71.7115545  33.2458758  60.2259684  71.2811708  66.5796089
  60.6142855  70.7661390  67.2868490  60.9575367  71.4715433  65.9924126
  84.0500259  65.6523800  56.0310984  83.9064407  66.0903454  55.1921701
  85.0010967  65.5663919  56.0966969  67.7801132  67.9352903  49.6268797
  68.1401443  67.3444510  48.9654255  68.4976482  68.0667067  50.2466440
   7.9841739  23.8081646   6.4036274   8.6631501  24.1458082   5.8194876
   8.4674942  23.3878303   7.1149302  88.7838554  14.4823337  72.7127600
  88.0767059  13.8614154  72.5377178  89.1012478  14.7345400  71.8456507
  33.6666131  24.2165065  12.2906101  34.4375491  23.7426329  12.6025903
  33.8997936  24.4970345  11.4056456  47.4136400  57.4484301  22.2138262
  48.1476355  57.7291441  21.6673088  47.4605274  56.4924145  22.2052431
  53.2649040  62.3537397  70.7692957  53.9954853  62.8191996  70.3620720
  53.5076380  61.4296341  70.7114983  71.3316345  21.2445116  11.3436413
  71.1348724  22.1451020  11.0858536  72.2105455  21.0836887  11.0002923
  38.8556147  32.2262311   8.3398151  39.4867659  31.7883730   8.9109194
  38.9991522  33.1597233   8.4954458  42.3603439  74.0902138  24.6518064
  41.8627977  74.7258854  24.1374111  42.1305752  74.2849493  25.5603862
  11.4547110  70.8610535  68.1559849  10.9343934  70.9251165  68.9568567
  10.8141756  70.9301281  67.4480486  59.2574692  48.1662464  32.3562431
  58.3181858  48.0675030  32.2005677  59.5223475  48.8810682  31.7773676
  88.6551285  61.2886953  61.1373472  88.0622578  61.9685602  60.8171511
  88.7131405  60.6622887  60.4159021  37.3562980  60.2375603  17.2641921
  37.7016807  60.1970100  16.3723969  36.5894461  60.8066320  17.1984017
   5.8597755   0.2112930  36.0980582   5.8214188   0.8223598  36.8338323
   5.1537704   0.4925411  35.5160880  33.1003594   1.7962173  73.8856268
  33.2689738   0.9274987  73.5207558  33.2436538   2.3955695  73.1531811
  19.2023969  75.4686975  71.8402004  20.1469040  75.5321026  71.6983652
  19.1146541  75.2156353  72.7591658  19.8996532   9.5312148  40.0035334
  19.1206944   9.0751898  40.3221178  20.1296926  10.1346183  40.7100916
  25.2318430  13.6047876  46.7118025  25.0887251  14.5510018  46.7324781
  25.0322509  13.3128691  47.6012850  69.8430586  58.6089897  58.9855337
  69.8979521  57.6536131  58.9637423  70.7545090  58.9013672  58.9838600
  43.9011765  49.9086475  67.9338217  43.8827085  50.1507378  67.0079231
  43.2668066  50.4942465  68.3471966  23.4168887   5.6921971  26.5035129
  24.2826557   5.4073066  26.2110829  22.8637838   5.6139326  25.7262230
  59.5264769  55.1505804   0.5802709  59.9134493  55.9624958   0.9078072
  59.5219469  55.2542400  -0.3712887  87.3012543  57.1884346  71.5860653
  88.1412983  57.0248795  72.0147991  86.8350983  57.7700806  72.1865845
  81.9221020   9.5337975  31.7240381  82.2830582  10.0404954  30.9965777
  82.2525597   8.6462772  31.5849733  90.0212479  21.1219454  66.5061569
  89.8785114  21.5876484  67.3301601  89.8715401  20.2015352  66.7221880
  49.2564821  84.6754074  60.1160908  49.2259407  85.2391624  60.8890581
  49.6008921  85.2381897  59.4226360  56.7091990  72.5717020  68.2732105
  55.8025837  72.7384329  68.0153656  57.0673227  72.0422125  67.5607347
   1.2589450  27.4771118  72.8679180   2.0519598  27.8371334  72.4707508
   0.5919353  28.1478143  72.7213287   2.6326394  76.8058777  72.8693867
   3.0448329  76.0907698  73.3541059   1.7728667  76.4643431  72.6236725
  33.8993096  20.4973483  34.8376822  34.0251160  21.4436793  34.7679377
  32.9624081  20.3687310  34.6896935  35.4251480  63.1793070  23.6932874
  36.1404848  62.9057884  24.2674923  34.9616337  63.8521433  24.1919613
  82.8390217  12.5647199  73.8461447  83.2045841  12.4961674  74.7281265
  82.2353935  13.3060539  73.8940144  88.3830929  62.4020863  30.0266075
  88.4589386  63.1635284  29.4515562  88.6596203  62.7219772  30.8853459
  46.9719696  47.6937151  47.8535414  47.5696898  47.5999069  47.1118116
  47.2259235  48.5209751  48.2626534  30.4924035  53.8299227   1.2211256
  29.6565461  53.6016941   0.8143237  30.2572155  54.4211006   1.9362643
  75.0714970  72.7434587  72.4601984  74.7001410  73.2418394  73.1881666
  75.2194262  73.3949518  71.7747021  15.4312015  45.1278400   7.2762406
  14.9661303  45.0035048   8.1035745  15.9405029  44.3250799   7.1647877
  74.3580389  78.5368729  25.4138327  73.8371181  78.0287457  26.0356712
  74.8879766  79.1156006  25.9619832  58.4294558  65.1809263   3.2869998
  57.8246641  65.6000853   3.8991800  59.2741489  65.1955128   3.7370121
  15.1318872  30.0749612  52.1927500  14.5000219  29.3963861  51.9550276
  15.7909811  29.6165037  52.7139425  79.6191597   5.4568732  72.4728298
  79.1612434   6.1276257  72.9794264  79.0769672   5.3333575  71.6937256
  22.5839329  14.8138881  11.6531777  22.7068830  13.8801908  11.8244278
  23.3031583  15.2396989  12.1196842  52.7495050  49.0786648   1.7481135
  53.5818338  48.7037706   1.4601606  52.3550272  48.3967590   2.2918287
  18.5203695   0.6669002  55.9805298  19.1412687   0.3108247  56.6160822
  18.2924581  -0.0784416  55.4248714  38.3553553   8.8746250  46.8544579
  38.4492064   9.8218977  46.7539597  38.1672835   8.7499213  47.7846766
  79.5738029  84.1073036  55.3135300  80.4485130  84.4913578  55.2533960
  79.6215868  83.3172417  54.7752428  44.0797853  74.5102167  45.9538221
  44.0401888  74.9765301  46.7888165  44.8682356  74.8472691  45.5284119
  80.5117989  84.0587521  18.2531559  80.8946228  84.9326611  18.1759405
  79.7738457  84.1726017  18.8520718  76.1030483  73.7946844  54.7839928
  76.6041231  73.8562012  53.9707470  76.1192036  72.8635883  55.0054216
  67.2553205  80.9675503  28.6344028  66.6355276  81.3867569  28.0374479
  66.9712543  80.0542450  28.6720276   0.4923278  83.8295174  50.0813484
   1.1692595  84.3398762  49.6369028   0.8032796  82.9255390  50.0327635
   1.0127577  70.3681135   7.8119338   0.8265404  71.2265158   7.4315393
   1.8768369  70.1373339   7.4708474  63.2861805  67.5923681  40.7638693
  63.7129211  67.5568199  41.6199398  62.4441290  67.1573353  40.8977461
  24.1664648  76.4394045  17.6709270  25.0505710  76.1051369  17.8220963
  23.6941624  76.2418365  18.4797084   2.2532615  60.2067614  58.4150267
   3.0925447  60.6645393  58.3673382   1.7382622  60.7153940  59.0413666
  86.0681820  23.1202722  21.4530087  85.7393360  24.0190411  21.4355898
  87.0199585  23.2126045  21.4101696  17.3116457  33.5145116  32.7141285
  17.3537505  34.1538143  33.4252906  18.2192564  33.2387710  32.5858951
  26.4923406  15.0916421  63.3984804  25.5541587  15.1114142  63.5873032
  26.7480755  16.0131788  63.3584690  82.1430683  63.2507801  47.5903749
  81.6172123  63.9985275  47.3064995  81.6168404  62.8328991  48.2720566
  36.1590219  81.7598724  31.3515949  35.2631879  81.9083977  31.6543388
  36.2060714  80.8165169  31.1963487  85.2720070  60.2756500  37.8573632
  85.2220249  59.3970585  37.4807811  85.2436161  60.8622026  37.1014643
  24.8719096  82.8463364  28.6624408  25.1405287  83.6139297  29.1672945
  24.0321755  82.5905228  29.0440679  70.2902508  14.7166634  68.7863874
  70.9145498  15.2743971  69.2505169  69.4521427  15.1706398  68.8742256
  69.5981455  23.9284039  10.0376832  69.1605473  23.9925218   9.1887856
  70.3537607  24.5111465   9.9622548   3.0955267  13.0643785  45.1102877
   3.1845760  13.8432992  44.5611238   2.4551086  12.5202000  44.6520710
  57.8540897   6.5922081  64.1875887  58.4007788   6.7645133  63.4209919
  58.2239056   5.7972747  64.5717096  91.3178730   8.4997112  25.7825089
  90.3694820   8.6288339  25.7930541  91.5970230   8.7016034  26.6755629
  74.7529459  70.3760195  16.9729280  75.1839209  70.7364130  17.7479160
  75.2219677  70.7656670  16.2350774  15.3913426  83.9417267  25.4991841
  14.7976160  84.4100094  24.9123025  15.6322694  83.1515694  25.0156140
  11.0458159  24.1121769  50.1451302  10.8602405  23.5083199  50.8642626
  10.2621818  24.6583009  50.0826883  37.8923368   8.6273974  35.4597664
  37.3414159   7.9035395  35.1618600  37.2875381   9.3621898  35.5623889
   3.1616262  81.0519886  11.5405536   3.9037722  81.6144085  11.3188851
   2.4224082  81.6539001  11.6270828  15.8559680  85.4552841  12.6770627
  15.3964210  84.7577477  12.2096324  15.5223846  85.4035091  13.5727596
  63.0670357  72.8331470  27.1952391  63.4234715  73.6874151  27.4389839
  63.5836411  72.5661612  26.4349294  20.6081891  72.7032661  29.5741200
  21.3480639  73.1929541  29.9333143  20.9488654  71.8188810  29.4398069
  79.2746162  68.7024927  51.0210848  79.1500235  69.3333101  51.7301559
  78.4483624  68.7187529  50.5381060  54.4464350  46.5479279  28.6717606
  54.3512917  45.7138777  28.2118297  54.6093130  47.1868563  27.9778814
  32.8909516  10.2687955  68.2787132  33.4529805  10.4835653  67.5342512
  32.0100284  10.2198184  67.9074907  73.6488724  79.2138958  29.2631578
  73.1858349  78.6798477  28.6176944  72.9536533  79.6383619  29.7658801
  84.9523544  84.2263317  45.2587748  84.9509621  84.9802589  44.6690035
  85.1858234  84.5906067  46.1126089   3.1987467  18.3671510  25.8664393
   3.8584575  17.7241361  25.6065464   2.3963022  17.8566623  25.9746814
  36.2807846  76.2075949  59.0822458  36.5239763  76.6730547  58.2819748
  35.3327060  76.3222456  59.1473007  20.0970626  85.2529716  63.8919497
  20.2845645  84.3484592  64.1428089  20.9470224  85.6119537  63.6371374
  52.8844213  17.6632559  52.1730566  53.1855297  17.9392493  53.0387306
  52.8769588  16.7070353  52.2156763  16.6731369   9.1134208  15.6948364
  17.3391056   8.8270235  16.3198912  16.3670218   9.9526262  16.0387254
   5.7598650  77.3450851  43.9903164   6.0556388  77.8429556  43.2281637
   5.9145790  76.4305687  43.7537670  16.5450358  17.4199164  41.8052912
  15.9828234  18.0662572  41.3782167  17.4154139  17.5818133  41.4413357
  50.2021027  77.5909328  57.9248285  50.2498531  76.8291950  57.3471546
  50.4481649  77.2540092  58.7863207  84.8868942   3.5502911  46.8786430
  85.4125595   3.4878862  46.0811329  84.6909904   2.6418772  47.1080732
  25.9751415  13.1528556  49.4177723  26.3294554  14.0331197  49.5435810
  26.4231563  12.6183760  50.0733995  16.1737216  43.5165882   0.8939447
  15.8808446  44.4260406   0.8360969  16.6968632  43.3826971   0.1036101
  44.6890450   1.8316017  20.9837532  44.5068264   2.2879528  20.1623082
  45.5814409   2.0933804  21.2103200  28.7760711  79.6796513  59.4748211
  29.4093466  79.2083788  58.9334393  29.0662003  80.5913067  59.4440842
  72.4475336   2.1279939  44.3679905  71.8061256   2.0245664  43.6650467
  72.2258139   1.4417733  44.9974155  42.2521353   3.6862612  35.4200554
  42.8790665   3.3243954  34.7937608  42.4434996   3.2316124  36.2403631
  17.1579587   6.4841920  58.1275988  17.9321551   5.9399390  58.2712650
  16.6917360   6.0531473  57.4113083  20.6809640  77.8654242  58.9079618
  20.7266951  78.0635118  57.9726028  21.4538908  78.2895660  59.2806768
  57.4579334  28.1827664  67.1069622  57.6020050  27.2548413  67.2925234
  58.2047987  28.4374475  66.5651512  28.0132174   7.6053149  11.1405694
  27.6311326   8.0267406  10.3707361  28.9474440   7.8061205  11.0846233
  28.4062386  18.4116840  71.7723703  28.6912155  18.0554307  72.6138592
  27.4729824  18.5884309  71.8908072  33.5249853  40.0654078  27.1496201
  33.9752936  40.1502657  26.3092303  32.9828262  39.2825055  27.0528626
  87.5683784  19.1555381  38.4877300  87.8838348  18.4879136  37.8786373
  86.6991997  19.3869650  38.1603026  72.2145367  76.2900066  33.5197473
  71.4973021  76.2697840  32.8861904  72.9389715  76.7013788  33.0483627
  38.0424309  11.7220294  38.5374141  38.3765817  10.8892632  38.8706946
  37.1619129  11.5179276  38.2223558  13.5759473  84.2572212  54.1277885
  14.0467834  83.6104202  54.6533298  12.9637051  83.7404346  53.6040306
  88.8847828  76.6876841  52.0368385  88.5086536  76.0282326  51.4538431
  88.3601475  76.6286993  52.8352785  19.8667777  13.0156696  34.3556023
  18.9492297  12.9023945  34.6036077  19.9791300  13.9632130  34.2796421
  34.8092794  19.9660277  18.7500203  34.0527511  19.3801165  18.7745583
  35.1199102  19.9941301  19.6549797  74.0297079  79.4727802  73.5220957
  74.9356556  79.7187805  73.3350801  73.5736895  79.5862579  72.6881886
  78.8747644  70.6558037  42.3823452  79.7262430  70.2277946  42.4719524
  78.7359428  71.0913420  43.2233381   1.2660286   8.4434903  46.4135075
   1.6527811   9.2440367  46.7681646   2.0141590   7.9326105  46.1044216
  77.7685404  63.7689972  40.4447651  78.0464888  64.6842241  40.4812479
  77.4601555  63.6479521  39.5467234  83.8336754  73.6599302  13.5172069
  84.3750286  74.1236353  12.8783453  83.0616093  73.3853006  13.0225039
  16.1554289  81.3927174  34.1180658  16.7450249  81.4874744  33.3699799
  15.3035498  81.1963081  33.7282515  11.6902304  29.6529841  60.0735521
  12.6271856  29.5956612  60.2607965  11.5210605  28.9267921  59.4733381
  44.1949511   1.6799727  58.7692022  43.5431242   2.3669529  58.9085150
  44.0793037   1.4219704  57.8547096  21.9898081  24.0743661  44.7731209
  22.2734642  24.9153066  44.4145250  22.7312875  23.7763095  45.3000021
  73.6244202   0.8724449  74.1227245  73.4533501   0.9606951  73.1850815
  74.5125484   1.2106649  74.2370319  85.3395462  78.8122892  52.1157694
  85.1388359  79.4581938  52.7930880  86.1689949  79.1083050  51.7407799
  13.9686036  17.2633660  35.4590321  13.0186331  17.1463943  35.4488397
  14.1510308  17.8084707  34.6936488  41.9738007   3.8678804  62.5082016
  41.5617418   3.7947693  63.3690691  42.3188019   4.7603828  62.4828196
  58.2547474   5.7591391  39.6771789  58.9103079   5.4600877  40.3072929
  58.1794596   6.6997129  39.8380637   5.9933305  74.7244787  28.2246208
   6.7929369  74.6689701  28.7478614   5.9547389  73.8901997  27.7569413
  18.1775320   7.7021956  41.5055180  18.3972716   6.8913889  41.0466719
  18.6706066   7.6550567  42.3245907   3.2284635  15.4644740  66.6701460
   3.0282748  15.6108463  65.7456303   4.1615856  15.6632805  66.7475510
  72.1705198  22.0284677  29.8759460  72.8444719  21.3631535  29.7367501
  71.6818285  22.0501566  29.0531826  28.5274315  25.2469826  41.6952658
  28.5772514  25.4117942  42.6368523  29.3529654  24.8107696  41.4844561
  65.4136753  62.1925831   2.0125701  65.7251215  62.2148848   1.1077296
  64.9297667  63.0114937   2.1195629  72.2094631  73.7460375  40.7898092
  72.4547625  73.4198952  41.6556549  72.8383780  73.3394241  40.1936865
  88.2961559  75.7303381  37.0877910  87.5814724  75.1248741  37.2849751
  88.3646011  75.7172871  36.1331296  66.5962839   2.4337675  22.2132111
  66.4236021   1.7073956  21.6142154  66.0210848   2.2698492  22.9605460
  69.3924141  77.3307514  22.3907280  68.6251974  77.6119566  21.8921971
  70.1021099  77.3134518  21.7486525  32.1612263  18.6827374  21.3775015
  31.8952847  19.2681038  20.6683826  32.5231385  19.2648673  22.0456147
  80.8804321  22.9784012  41.9102287  81.5794468  23.4992480  41.5148306
  80.0837421  23.2718658  41.4681911  30.2184439  13.6469281  40.8225250
  29.5707059  12.9804862  40.5933475  29.7004843  14.3800700  41.1548710
  31.0318422  10.0100207  54.4394350  31.9549346  10.0463510  54.1888094
  30.9517670  10.6449008  55.1512957  85.1793098  66.8640327  45.2765703
  85.6371975  67.2613382  44.5358133  85.8147240  66.8886185  45.9920263
  47.7196693  13.1130385  65.1396322  47.9379463  12.1875215  65.2492046
  47.3154259  13.1628597  64.2734146  24.5337629   0.3877227  50.4826164
  24.8680162  -0.5000050  50.3543901  25.2740049   0.8718460  50.8485270
  70.7862854  49.6275854  41.3081980  70.5600977  50.2397108  40.6079292
  70.2341318  48.8628197  41.1454248  53.6635733  60.6109476  16.3499856
  53.8543272  60.6510878  17.2871280  52.7706957  60.2693796  16.3017190
  61.5317345  17.2448397  23.5483432  62.2879839  17.7158833  23.8982582
  61.9105196  16.5502465  23.0095530  59.2390490  81.1597061  27.1632361
  59.0335703  80.9441376  26.2535429  58.6854458  81.9150257  27.3613191
  24.4938231   3.0433655  56.6567135  24.3431568   2.1438023  56.9470882
  25.0782633   3.4138250  57.3180866  88.1511784  79.6593475  61.9281197
  89.0637398  79.9399900  61.9966698  87.9940987  79.1577864  62.7281189
   7.8479564  31.1996198   8.8683146   8.2808644  30.9288526   8.0586803
   8.1628084  32.0904064   9.0219235  26.2411714  12.7017331  41.9681168
  25.5874681  12.8948331  42.6401424  27.0404100  13.1239080  42.2831059
  86.5322971  51.6736078  33.0258298  87.0972538  51.6652822  33.7984729
  85.8287430  52.2826576  33.2501173   9.4670975  80.6819820  28.8607597
   8.8274586  81.2702179  29.2620969   9.5530570  80.9990978  27.9617167
   4.5022017  56.3211441  47.1834993   5.0890207  56.6998005  47.8380919
   3.7309250  56.8878746  47.1968508  88.8109398   7.3170865  22.6558423
  89.6311855   7.0079267  22.2713280  88.5378170   6.6088080  23.2389140
  10.8703184  64.1375732  63.4802246  11.5538287  63.7339783  62.9452896
  11.3373005  64.4962120  64.2349005  91.1351738   1.9074075  23.6209559
  91.9431110   2.2618507  23.2496881  90.8491918   2.5705418  24.2492056
  54.8286057   2.4033645  44.4825411  55.0256395   2.3992658  43.5458517
  55.3149891   1.6570881  44.8328781  65.5408859  43.7410736  35.8473516
  65.3987169  44.5229387  35.3137708  66.4603376  43.7931633  36.1083627
  27.6391721  26.5074444  71.7973089  27.4701905  25.9637666  71.0278368
  28.1771231  27.2275782  71.4683008   1.3037924  16.1659837  33.4674001
   1.2512799  15.2124691  33.5328627   1.3918535  16.3371992  32.5297642
  27.4431753   1.3964041  38.3897042  27.6790142   2.3195487  38.2979703
  27.0269346   1.3398646  39.2498088  13.3162618  19.2399085  43.4348774
  13.0725002  18.3535457  43.7016582  13.4825981  19.7003818  44.2573881
  50.7920885   7.8718978  60.7156277  51.4784622   7.6290357  60.0942230
  50.5969667   8.7865156  60.5115843  32.8709388  79.7000360  58.2736254
  32.1558428  80.1697350  57.8443718  32.9777050  80.1435375  59.1151381
  10.6988561  14.5849645  36.5757442  10.5655193  14.7044849  37.5160456
  11.3255346  13.8642049  36.5124059   7.2843164  54.8862219  13.9564037
   6.3892549  54.8862123  14.2956626   7.2353202  54.3707418  13.1513500
  10.4718590  42.9022026  18.6142683  11.0101008  43.1783724  17.8724742
  10.9097254  43.2745695  19.3796754  65.1235199  85.9738445  22.0152020
  65.1602173  86.3513565  21.1363554  65.7511806  85.2515316  21.9920039
  82.5016689  53.7660885  40.5815744  81.7030907  53.9687252  40.0943041
  82.6376915  52.8293037  40.4395819  71.5217590  66.6177464  44.2308807
  72.4063492  66.9702911  44.3280315  71.6211700  65.6772661  44.3787050
  71.2089586  74.6733809  63.8265514  71.8740606  75.3387117  64.0032053
  70.5712748  74.7788095  64.5325756  77.6053166  86.0422471  37.0183444
  77.0275724  86.3291724  36.3111544  77.1616936  85.2832761  37.3970175
  10.4594302   6.0931921  26.3921285  10.7304657   5.3824788  26.9732141
  11.2775278   6.4261144  26.0231972  77.0988941  59.1795826  43.0697870
  76.6050434  58.6036158  42.4861765  77.4234676  59.8767948  42.4998856
   9.2132360   8.2104349  40.3705692   8.5119122   7.5849211  40.5525255
   8.9970154   8.5689861  39.5097995  64.5580959   0.2744301  42.6102161
  65.2669334   0.8604502  42.8754711  63.7602997   0.7839063  42.7522850
  36.1192632   4.9112341  43.9528036  35.9082150   5.5114073  44.6679878
  35.4574442   5.0919414  43.2852936   5.7679385  61.7435932  29.7713232
   5.9237641  61.6853285  30.7139540   5.7309854  60.8332109  29.4779444
  14.2484367  16.3435078  49.6383524  13.7301385  16.3117552  48.8342476
  13.9028358  17.0973015  50.1164627  45.9962320  16.8394732  34.8843741
  45.5302906  17.5073516  35.3874326  46.9209814  16.9995379  35.0726557
  14.7721052  67.1707487  31.2635541  15.4993165  67.6150417  30.8276701
  14.5128357  67.7677059  31.9654465  78.8845253  75.7704735  72.3523808
  78.5064697  76.4806223  72.8710318  78.7958860  74.9953842  72.9070091
  87.4905205  77.0316315  54.8680258  86.8367672  77.0863962  55.5650425
  88.1072044  76.3646936  55.1699114  12.2759116   1.6750003  27.4476910
  13.1153190   1.2514296  27.2682071  12.1013212   1.4801072  28.3684349
  53.8333368  84.3505478  68.5795498  54.3914986  83.8006210  68.0297565
  54.2412567  84.3164253  69.4448090  39.3961573   3.3672917   8.3601469
  40.1419973   3.9649025   8.3070576  38.8598180   3.5853156   7.5978875
  89.1878223  63.9719343  38.3868003  90.0827599  63.7762737  38.6643314
  88.7528706  64.2812681  39.1813850  61.2326670  82.4211216  66.7223024
  61.3760471  81.5892792  67.1736431  61.3567305  83.0857468  67.3998833
  32.9354692  20.5397630  44.2976046  32.7908111  19.7986484  43.7093401
  33.6061454  21.0648417  43.8608885  46.1575222   6.9348836  36.4053011
  46.3114262   6.1467719  35.8843160  45.2202415   6.9150162  36.5985274
  15.2854943  34.4909072  29.4953132  15.2514195  33.9189291  28.7285590
  14.6600854  34.1059804  30.1092553  42.0642185   6.6888124  26.3879561
  41.7856455   6.9477385  27.2663546  42.8919888   6.2281889  26.5252542
  54.7016621  17.6556897  31.5195322  53.8819504  17.2144735  31.7423201
  54.6592569  18.4900165  31.9867921  10.1444304   0.5522381  40.6417322
  10.5058789   1.1547844  41.2917519   9.5370889   1.0872954  40.1307726
  11.5740883  81.2405014  45.2560091  12.4956954  81.2421799  45.5146027
  11.4205289  80.3565407  44.9224424  50.9091187  25.0795078  53.1799889
  50.0851440  25.2546382  52.7254200  51.5841484  25.4146314  52.5898504
   1.1549038  86.1382580  46.6966820   1.6849858  86.0705757  47.4908209
   1.0775539  85.2372837  46.3828325  17.1483707   5.5528998  44.1318083
  16.6815913   5.5103356  44.9663973  17.8563142   6.1786711  44.2849731
  82.3867702  82.2471333  18.0683374  81.6774940  82.8865242  18.0025709
  82.0680046  81.5996361  18.6971247  89.9987411  31.1915660  27.7991581
  90.6969833  30.8040547  27.2714043  89.3190670  30.5182147  27.8287435
  47.4014759   5.8716542  50.9259272  46.8651247   6.3813508  51.5331888
  46.7779589   5.5280298  50.2861023  10.3297341  21.5029430  51.2340927
  10.3719401  21.3408327  52.1765184  10.4197776  20.6363297  50.8377218
   4.6966341  62.8667879  70.8579588   5.6458145  62.9627323  70.7799673
   4.5564768  62.6030970  71.7673874  18.4809828  17.3542893  53.0651474
  19.4286096  17.3729742  52.9314137  18.1508839  16.7946815  52.3622179
  80.3385544   5.6212163  45.0755930  81.1287594   5.9478843  44.6453667
  80.1041508   4.8356408  44.5814657  40.3179359  62.0720625  13.9086056
  39.9026179  62.9052544  13.6860383  39.6792388  61.6274023  14.4658995
  26.6660595  84.5879173  68.4901810  26.0537815  84.4239426  69.2074394
  27.1002007  83.7466240  68.3488178  23.1627440  83.6923027  52.2538900
  23.8567948  83.0580139  52.4333429  22.9210567  83.5312462  51.3418150
  28.8197088   0.0981968  36.3312364  28.6170149   0.6376426  37.0955253
  29.5198297  -0.4834397  36.6274834  65.8763504  18.3644903  54.9205732
  66.1932182  19.2376316  54.6893740  66.4237261  17.7680373  54.4098282
  21.1778975   6.1859673  49.1106462  21.0735273   6.5636241  48.2373095
  22.1076179   6.2963855  49.3097973  79.2990160  83.7383842  32.3585153
  78.9037609  84.0499115  31.5442967  78.9253187  84.3010235  33.0367661
  41.2416792  28.5318899  57.1404171  41.2197638  29.4869590  57.0804691
  40.7145643  28.2332325  56.3993454  63.2856846  27.2098494   2.3791783
  63.9503717  26.9034553   2.9960623  62.5349903  27.4355340   2.9284978
  58.7393379  52.5795841  64.2333698  58.6942053  53.4470749  63.8313007
  59.0671682  52.7423000  65.1178360  63.8837242  71.8540621  38.6049581
  63.3038616  72.2606134  37.9609776  64.7619724  71.9669294  38.2414150
  90.9609890  74.4041204  43.0045462  91.8510056  74.2784452  43.3336639
  90.4368210  74.5688868  43.7883425  15.5520391  24.9196744  38.2917094
  15.8848739  24.0257335  38.2122040  16.0112250  25.2796078  39.0505433
  45.1502943   0.3396837  31.2435555  45.2567148   1.2825410  31.3697577
  44.2258644   0.2307373  31.0204077  29.9480534   2.0281027  67.5943041
  29.5018506   2.3841977  66.8259716  29.7681928   2.6603040  68.2901478
  21.6489387  77.7359343  20.2243614  22.2910976  78.4339285  20.3534579
  20.9260774  77.9644299  20.8087325  17.3991263   1.2559105  73.5381269
  17.5365913   0.7073711  74.3104219  16.4550591   1.4129823  73.5208750
  12.7149141  64.4475460  30.1444077  12.8393126  65.3667927  29.9083185
  13.5840392  64.0570450  30.0529671  26.8373656   0.6080478  51.9156981
  27.5637412   0.0633620  51.6124964  27.2286630   1.4692499  52.0621538
  75.2280521  76.2567997  65.5635405  75.1044989  75.3400183  65.8094597
  76.1507797  76.3161087  65.3159714  82.7071095  83.8772202  49.5140982
  83.0079269  84.2422104  50.3462791  83.4515572  83.3686638  49.1925526
  50.4077339  69.6422052  66.0304213  50.9103918  69.5983028  65.2170086
  50.4547405  68.7560177  66.3891602  87.4298763   5.4094380  68.5921383
  88.2705688   4.9972835  68.7911177  87.1698952   5.8308738  69.4113064
  88.1286907  64.4157887  46.6017294  87.7339172  63.5597420  46.7677593
  88.1004810  64.5119810  45.6497955  29.9384212   3.0879936  56.5737534
  29.6374345   3.8682812  57.0393562  29.2154551   2.8652468  55.9872913
  10.0022030  75.9198952  51.9556141   9.0549093  76.0462046  52.0095825
  10.1647556  75.1142740  52.4463081   5.5274415  70.8816814  59.6706629
   4.7390291  70.7115459  60.1861143   5.2667171  71.5643454  59.0524197
  38.5797739  82.8740597  64.5708704  37.8496194  83.0626965  63.9813566
  38.1669307  82.5145149  65.3560591  37.6015925  84.3318939  46.5503836
  38.5555148  84.2530251  46.5437889  37.3506093  84.1278172  47.4512672
  32.9320931   9.8915285  28.0655861  32.8905797  10.4943466  27.3232126
  33.7072182  10.1671851  28.5548997  41.9409752  12.9490614  25.9136391
  42.0797873  13.8208115  25.5434847  41.0594416  12.9841268  26.2849975
  37.1324086  85.2294922  66.7695189  36.5097427  84.9845219  67.4539948
  37.6745987  84.4499493  66.6488123  14.8550093  77.2958660  74.1294241
  14.6020377  78.2187891  74.1506243  15.8120644  77.3099899  74.1205597
  45.5604124  10.9165978  56.6127014  44.8231316  11.5034151  56.4444828
  46.1628342  11.0744119  55.8857822  49.6602964   3.5318735  60.8915901
  49.5218611   2.8290138  60.2567196  49.1984749   4.2838803  60.5208588
   4.7730803  67.1508884  19.8818743   5.5850118  67.1798325  20.3879976
   5.0314599  66.7866468  19.0352345  77.8492355  46.0649109   7.2521490
  77.7179098  45.2657032   7.7622992  78.3856058  46.6230392   7.8151989
  18.2725179  12.1418953  41.2152243  17.9538739  12.2762334  40.3226709
  18.5192418  13.0165970  41.5156507  24.0029597   5.0277829  64.1224909
  23.9860463   4.8977429  65.0706625  23.0972815   5.2360159  63.8931036
  71.3555956  84.0535355  25.9008551  70.7841587  83.5130215  25.3553915
  70.8857870  84.1369820  26.7306447  36.0406446   6.7250246  34.7841454
  36.6460752   5.9860480  34.7241330  35.3913713   6.5588289  34.1007304
  26.4178467  26.4743614  36.7637491  25.4843664  26.6797447  36.8153930
  26.4531636  25.6331134  36.3084626  82.0447922  55.5245447   8.4527737
  81.1194515  55.4673529   8.2146150  82.3231602  56.3809204   8.1281859
   3.2151240  46.3633490  13.1911075   3.9146248  46.9471788  13.4844947
   3.5475740  45.9802771  12.3793411  28.0015230  10.6796515  53.5950041
  28.1798530  10.7850528  54.5295191  28.2670283   9.7808391  53.4003878
   7.1187699  12.6024115  23.5556149   7.3303419  13.5348094  23.5097408
   7.9474539  12.1795702  23.7808251  89.7486973  76.7282963  30.8776379
  89.8189163  77.1632338  30.0278544  88.9493084  76.2056684  30.8138752
  38.2913446   8.4826642  30.9144425  38.0096841   8.8198984  31.7648387
  37.5629187   7.9356402  30.6205153  37.5856209  12.0536757  31.9107485
  37.2540903  12.7223754  32.5100493  37.1808362  11.2402368  32.2119141
  46.5511084  76.6854334  56.8928432  46.8075991  75.7711411  57.0132923
  45.5951786  76.6622782  56.8492889  44.5213652  18.1312931  51.5682840
  43.6756706  18.4163177  51.2221670  44.3396711  17.8911841  52.4768925
  46.9645119  20.1650262  63.6824417  46.5516996  19.8805368  64.4978476
  47.7963924  19.6921790  63.6574602  66.8957472  16.7585754  60.2657938
  67.2093058  16.0602331  60.8404493  67.4846411  17.4932098  60.4382706
  29.4064212  49.3166304  21.6774964  29.3982673  48.3653641  21.7835808
  29.6794319  49.6505880  22.5319958  67.3452663  74.5493937  54.2392445
  67.8257036  75.2063560  54.7430420  66.7141581  74.1857100  54.8602676
  44.3643761   1.8830664  71.4948988  44.6246386   1.4313772  70.6921053
  44.6660709   1.3107085  72.2003174   4.6613389  18.4491527  28.1755352
   4.1138983  18.5895085  27.4029803   4.0890872  18.6539590  28.9150047
  47.7792740  32.6272035  43.7729025  47.9413509  32.8158569  44.6972275
  48.1976795  33.3492970  43.3041286  26.3977599   3.7464648  29.8250484
  26.3176966   2.9980725  30.4164290  25.9281492   4.4531459  30.2681088
  78.2987595  72.6350260  36.0275960  77.4288082  72.7559233  35.6470704
  78.4905815  71.7064476  35.8965158   1.2567732   1.6767721  10.6157672
   1.1370727   1.5803373   9.6709901   1.8584579   0.9715304  10.8541822
  73.7653112  15.8135343  65.6033516  73.4315157  16.3998389  64.9243355
  74.6929932  15.7069552  65.3929281  13.2899857  13.4008133  57.1359682
  13.0386746  14.3238008  57.1701670  13.7435985  13.2452381  57.9643774
  51.8179512  13.1640899  50.7878542  51.9555902  13.9139104  51.3666916
  51.3930416  13.5337996  50.0138998  38.1585526  17.7964723  59.3897057
  37.8215909  17.0532942  58.8893318  37.8653193  18.5662079  58.9021063
  48.8695526   1.4906429  57.7572870  48.7177467   2.2155598  57.1509171
  49.7074747   1.1191195  57.4814320  18.0658066  34.9100828  23.0950594
  17.8847170  34.1969490  22.4827862  17.2339642  35.3775096  23.1711054
  15.9175634  57.2116566  32.1809959  16.8578768  57.1390057  32.0173955
  15.8492279  57.3583508  33.1244183  27.1405315  64.2322731  57.0239162
  27.9377723  63.7937212  57.3210907  26.4293361  63.6690569  57.3292398
  33.5949397  20.2308559  67.6232052  33.7270308  21.0469437  67.1407270
  33.4774351  19.5671427  66.9435644  18.4094989  86.1997128  23.6194277
  18.0683661  85.3079700  23.6877275  18.9204895  86.3226032  24.4194388
  22.3807049  15.8304691  36.7284870  23.1155324  16.3698995  37.0205045
  22.6916790  14.9302280  36.8238330   8.8846368  63.5545826  50.0145245
   8.0961263  63.4739208  49.4778872   8.6112481  63.2692337  50.8863401
  72.0828342  70.2238131  16.1730289  72.9052401  70.2044392  16.6624177
  72.3511648  70.2764940  15.2557218  45.7495451  27.8441620  57.5223732
  45.0585604  27.3223352  57.1143723  45.5974960  28.7339044  57.2038269
  48.9047527  32.2238946  46.5359163  48.6417103  33.1130219  46.7735958
  49.8574400  32.2695184  46.4550209  87.5072765  72.6147318  52.6975822
  87.1466446  73.4757662  52.9092360  86.8664837  71.9945717  53.0454779
  68.8358116  31.6306663  11.5877819  68.7430334  30.9422541  12.2463500
  68.5120487  32.4209166  12.0201147  40.4653358  44.9751234   9.2850119
  40.7419252  45.6112051   8.6253673  39.7902203  44.4555902   8.8485122
  62.8629494  17.1681690  68.9388895  63.6875582  17.6042724  68.7242651
  63.0959940  16.2436759  69.0239573  39.9721432  26.2868500  51.3860035
  40.1878309  26.4498091  50.4677677  40.5068541  26.9141722  51.8726110
  24.7039175  84.7005367  70.1344299  23.9193606  84.5134068  70.6498766
  24.3764400  85.1453781  69.3526983  73.0253744   6.6089767  48.1659651
  73.3404016   6.1615813  48.9513445  72.8054333   5.9018588  47.5594664
  69.2860985  22.1744227  55.6636095  70.1577091  21.9342589  55.3492117
  69.4064236  23.0320930  56.0712290  28.6156201  14.4353926  60.2390289
  28.7087989  14.1262162  59.3379450  27.8011465  14.9382448  60.2366972
  59.7036886  10.9634089  46.7067146  59.0387440  10.3776181  46.3448715
  59.8105145  11.6440034  46.0421753  36.4123178  25.6986451  46.4118004
  37.2833467  25.4938245  46.0718107  35.8448052  25.0242805  46.0384417
   2.0688894  79.7827005  38.4397388   1.5062311  79.4719601  39.1490269
   1.4638922  79.9908924  37.7277923  85.8325577  81.6742229  44.2568731
  85.4091549  82.2990799  44.8455286  85.2923393  81.6855812  43.4667730
  42.2619677  14.5016396  35.9121680  42.3910284  13.6902654  35.4209995
  41.5093946  14.9185097  35.4925442  36.5301108   8.7779528  42.7564907
  37.3982048   8.4670389  43.0133533  36.6607976   9.1650915  41.8908787
  48.1879568  27.5957584  55.8635283  48.0353498  28.1103396  55.0709724
  47.6698256  28.0351543  56.5378475  70.2751398   6.1295837  63.4427977
  70.9526587   5.4836535  63.2428646  69.4578409   5.7107997  63.1728506
  15.7748830  18.1177878  47.4172783  16.7149818  17.9854727  47.2950602
  15.5555451  17.5856221  48.1820822  27.8960943  26.6163111  23.9644337
  28.1338072  25.7935190  24.3919086  27.2701621  26.3618565  23.2864261
  56.8727875   5.6932199  69.6046686  56.7887783   4.9238387  69.0414381
  56.0622787   6.1826444  69.4640398  10.3196812  70.6201887  54.8512316
  10.5987883  70.5136395  53.9418507   9.3680060  70.5215025  54.8228121
   6.1388379  59.4220066  11.4509106   6.8014264  58.7342405  11.5155864
   5.3897715  58.9946461  11.0355842  38.6209297   6.1635160  46.4504576
  38.4548831   7.0896906  46.2747812  39.4986582   6.1456954  46.8319130
  68.8402796   3.7619367  41.0757685  68.7700224   3.5987496  40.1352024
  68.9021540   4.7142720  41.1496639   4.0285480  47.5541162  68.3554363
   4.7114894  47.9383659  67.8057289   4.3791962  47.6062393  69.2445707
  38.6285830  29.0939093  51.2130976  38.3933473  28.2989645  51.6915941
  38.3196855  28.9366555  50.3208590   3.6675587  18.0512381   4.1749239
   3.9995852  18.4684384   3.3799815   3.3587933  17.1931720   3.8840309
  62.1053028  75.5816364  37.6142645  62.9843521  75.2446127  37.4412990
  61.5633726  74.7986078  37.7112532  60.6771517  18.3928025  59.9009848
  59.7415543  18.5824263  59.8307562  60.7652998  17.4975479  59.5739031
  76.1204910  18.2481933  52.4199438  76.2304020  17.7490175  53.2292461
  75.2684450  17.9722297  52.0821619  36.1893153  82.4212742  53.7716341
  36.3784957  81.5034962  53.9668798  35.4137802  82.6226234  54.2953110
  52.6976919  23.4201813  62.6581478  52.9193211  24.2290688  62.1968317
  53.5049057  23.1728244  63.1092024  23.3212733  77.0062542  13.5321724
  24.0358925  76.4953279  13.1520379  23.0153322  77.5609541  12.8145778
  31.3055921  67.1976423  43.8650131  30.6603122  66.4918947  43.8230038
  30.8378148  67.9258537  44.2738199  21.1907983  79.1068935  45.3035927
  20.8830404  79.6723652  46.0119438  20.3964162  78.8664246  44.8267698
  38.4968567  27.7942443  44.6819448  38.1595922  27.5749207  43.8133955
  37.7767515  28.2590222  45.1081610  37.6525283  14.4902956  26.8056011
  37.6214743  15.4219389  27.0231104  36.9522381  14.0989590  27.3277926
  36.0978007  72.8183079  43.1476450  35.2873373  73.3130980  43.0269718
  36.0197544  72.0798206  42.5436735  57.8971338  12.4250662  39.2337179
  58.8257217  12.2911596  39.4235039  57.8344250  13.3466625  38.9828014
  89.9988270  25.3866863  51.3466835  90.8114624  25.2196288  51.8241215
  89.9031162  24.6322346  50.7654142  39.7800064  13.4183919  68.5040045
  40.2064896  13.4201694  69.3609381  39.1715622  14.1565585  68.5377502
  49.9476194  14.1357625  53.7867212  50.1840591  14.7166038  53.0635643
  49.6113777  13.3473670  53.3605671  23.8093448  13.5024023  34.9307990
  23.4242654  13.2795906  35.7783246  23.3653617  12.9274976  34.3074250
  47.4646139   2.7485237  21.2395406  48.1304312   2.1101463  21.4952707
  47.8904629   3.2834533  20.5696630  25.4791141  82.6205730  64.1235733
  25.1725626  82.1363735  64.8902559  26.3220668  82.9858780  64.3923044
  59.4868851  23.7589169  31.9010949  60.1863766  23.1621671  32.1672320
  59.5885611  24.5182204  32.4749875  13.5405338  15.8796954  39.3264365
  13.9133441  15.8901310  38.4448838  12.6046622  15.7331252  39.1889858
  73.3073568  16.7283523  28.1674314  73.2447100  16.0693216  27.4760675
  72.4094582  17.0386231  28.2846451  22.2679710  80.7529259  40.2601671
  22.7841449  81.5589523  40.2706242  21.6664791  80.8632374  39.5237780
  61.1193991   2.7117592  56.9058132  60.3652906   2.9892009  56.3856411
  61.0091782   3.1590083  57.7448893  56.4107418  55.4740906   8.8897532
  57.0751905  55.3331518   9.5641965  56.8552017  55.9948063   8.2207668
  55.8468914  57.1991634  17.6481688  54.9121761  57.2977448  17.8293419
  56.2770081  57.7505064  18.3018124  34.6158743  12.8945160  48.6041260
  34.0481830  12.5586879  49.2977953  34.9437809  13.7267399  48.9448786
  59.2432594  65.0259733  55.0183296  58.7609577  65.8525801  55.0001049
  58.5739994  64.3551445  54.8830271  40.2737093   8.6466253  64.9726534
  39.5602775   8.7527955  65.6019211  39.9865174   7.9328912  64.4031477
  58.6493921   0.9511777  59.3987417  59.3852282   1.5382910  59.2253160
  58.0325127   1.1237220  58.6874580  15.0511622  76.3163996  67.6996136
  15.9592807  76.6189718  67.7014399  15.1168299  75.3615284  67.7116776
  75.2892685  49.2524815  10.6819892  74.9008369  48.3779001  10.7033801
  76.0329723  49.1989994  11.2822199  62.5766468  71.2692118  41.2093830
  62.8932190  71.6672087  40.3984499  62.0812225  70.5021811  40.9222412
  85.1732349  45.3106117  21.8899155  85.4686069  45.1465702  20.9943247
  85.3201485  46.2470865  22.0228243  88.4471416  14.6495557  48.7686586
  88.2986069  13.7062800  48.7023211  88.3873272  14.9654257  47.8670597
  62.1787119   6.5319335  40.7492971  62.5931311   5.6700122  40.7890797
  62.2609711   6.7951638  39.8326850  10.4471529  72.7429056  66.0132504
   9.6692693  73.1485891  65.6304359  11.1630869  73.3362961  65.7861948
  88.8219070  12.1585977  53.3494473  88.2952595  12.6333749  52.7064419
  88.5715485  12.5385332  54.1915894  88.8957882  37.7137685  62.6610851
  88.1026745  37.9083657  63.1604242  89.5756912  37.6018357  63.3254910
  82.2215080  14.2667484  43.4318399  82.9522896  14.5932984  42.9069042
  81.8610668  13.5444379  42.9174662  34.6383548  77.7881336  62.4908543
  34.4470739  78.0937243  61.6041422  35.2127337  77.0327997  62.3651934
  19.3320978   7.4046165  44.1364956  19.7827673   6.7677319  44.6910286
  19.8140717   8.2209468  44.2689276  59.5936060  37.2960472  17.3547137
  59.7605419  37.5746775  16.4543092  58.6820126  37.0041370  17.3499894
  68.1534147   9.1780955  16.2585723  68.9561844   9.6633041  16.4492691
  67.5487328   9.4320190  16.9557881  11.0639310   9.0122133  17.8638184
  10.2300489   8.8263220  17.4321735  10.8555043   9.0111780  18.7980509
  18.8763726  16.6617310  40.3385162  18.8948739  17.1048725  39.4902754
  19.3666065  15.8519673  40.1964474  40.1955080  55.4642868  31.8541026
  39.9350929  56.0030317  31.1069942  39.9959660  56.0035229  32.6193690
  36.2651491  20.3751898  58.5432768  36.8692636  20.8099675  57.9414082
  35.6209064  21.0479903  58.7635612  21.0100555  83.0519962  70.9469509
  21.0934138  83.5445881  70.1304770  21.2197137  83.6867142  71.6320848
  47.8250360  14.2159772  32.3297191  48.1526089  13.7996376  33.1269574
  48.5317421  14.8013735  32.0574880  27.8362346  14.4290888  19.9910080
  27.0785356  13.8491774  20.0673437  28.5921335  13.8469625  20.0683141
   8.3145601  41.6025209  56.3285303   9.2563653  41.7304420  56.2150812
   8.0137593  41.2736511  55.4814196  39.0726328   4.8955548  58.2814693
  39.2039418   3.9509669  58.3635902  38.3208084   4.9828079  57.6954889
  30.7330775  75.2382421  36.5073466  30.1520133  74.6708107  37.0139241
  30.4777479  76.1264038  36.7567658  28.1407166  10.4851794  56.3107157
  28.3342361   9.5723414  56.5240431  27.2583222  10.6291592  56.6525984
  16.7082250   9.2313576  57.3811007  16.9125640   8.3693719  57.7436733
  17.3837948   9.3790966  56.7192793  28.0320787  82.3312283  47.7847862
  28.0742073  81.9571114  46.9047308  28.8468003  82.0524502  48.2028055
  17.6821470  74.6380424  28.6889434  16.8273294  74.9528122  28.9829493
  17.5772154  73.6891127  28.6200094  47.8283405  27.2950983  63.8818979
  47.9249525  26.4332843  64.2870808  48.2554340  27.8960276  64.4923925
  66.9970751  44.1462040   2.2465454  67.3733234  44.9192667   1.8257806
  66.1039591  44.0986967   1.9054914  31.9852853  22.6541924  45.4883814
  32.4243379  21.8036270  45.4890347  31.1219239  22.4783611  45.8624411
  77.9916668  77.7030325  47.3931170  77.7725506  76.9803858  47.9813337
  77.2543955  77.7483082  46.7843390  25.7149792   8.3376330  68.6912632
  25.4774523   8.8066137  69.4911814  25.0497842   7.6544315  68.6076880
  51.7397976  33.7738109  47.1277761  52.2696733  33.9473844  46.3497400
  50.9158945  34.2325997  46.9636726  62.2005558  35.6575823  43.4377527
  62.8243065  34.9353337  43.3634329  62.5973368  36.3693547  42.9355812
  13.7523007  70.9565401   3.5824868  13.7093031  70.9963274   4.5378923
  13.5189056  71.8392992   3.2952586  14.5847523  82.3733425  40.3833055
  14.9071670  81.6805553  39.8068333  14.9304068  82.1467304  41.2466717
  56.5739775   9.9682379  70.5450630  56.3178492  10.0316811  71.4651728
  57.2067547  10.6760395  70.4232311  71.0463524  15.2405298  50.0953770
  71.4032888  16.0347927  49.6979189  70.8850241  14.6544003  49.3560123
  58.6051750  42.9607725  48.2237577  58.8204956  43.6749792  47.6239395
  57.6508856  42.9862833  48.2937860  18.1422698  83.6490059  52.0349312
  17.7493954  84.4585419  51.7085218  18.8781250  83.9400768  52.5734758
  54.4157648  20.2072334  45.3483677  53.7232351  20.7678533  45.6981373
  54.9192810  19.9404383  46.1174726  69.0004396  44.9415731  43.1707716
  69.9564695  44.9607658  43.2139444  68.7175941  45.0404882  44.0798616
  64.0145063  33.4680176  44.1123009  64.7210026  33.9152646  44.5782042
  64.3425131  32.5791430  43.9761209  53.8422823   3.9212257  35.9896588
  53.2038450   3.8791472  36.7016006  53.3347368   4.2048037  35.2292562
  39.9138427  12.8603363  64.0163803  40.0747013  13.6741090  63.5387516
  40.4983473  12.9071259  64.7729492   6.8666363  54.4458485   4.6680245
   7.2594798  54.9567270   5.3757739   6.0098863  54.8492479   4.5284554
  69.0421057  57.4016428  16.4614689  68.7325716  57.2946548  15.5620396
  68.4840679  56.8199062  16.9776106  57.3022556  30.5013442  42.7951574
  56.6321802  30.9644532  43.2979155  56.8714094  30.2788401  41.9698715
  80.9407043  54.0590525  53.7627697  81.3314056  53.2402420  54.0679550
  81.1346722  54.0823412  52.8257179  15.3777111  82.8913403  47.6833820
  14.9468124  83.3874130  48.3794212  15.0588620  83.2890129  46.8731833
  25.5877161  24.1970038  42.7753830  25.1477861  23.4831166  42.3137999
  26.3329601  23.7795877  43.2073593  65.4729176   1.7994118  17.5356233
  65.3977346   2.1609363  18.4187305  65.5356789   0.8535690  17.6685655
  59.3166256   4.4121426  12.4044061  58.4639263   4.8387444  12.4889374
  59.2215252   3.8347396  11.6469145  41.2374306  70.7119226  59.3603134
  41.5342283  71.6217136  59.3807745  40.6571817  70.6321907  60.1173973
   1.6490567   1.4756066  21.3673735   2.5880229   1.3032904  21.4372420
   1.2603664   0.6180761  21.1947656  56.5228558  21.7688012  19.3451262
  55.6435251  21.8826365  18.9845002  56.4244366  21.0812926  20.0038195
   7.1781981  55.1795006  53.7387085   7.4672222  55.1699686  54.6511793
   7.6503181  54.4538546  53.3303308  60.1006079  83.7484550   2.9495621
  60.3312397  83.3468819   2.1118388  59.2430592  83.3808517   3.1633624
  61.6630602  13.1166184  64.2107916  62.3717594  13.5221255  64.7103310
  60.8640862  13.4931421  64.5797014  36.8013716  81.8108273  42.1540594
  36.9785023  81.9587708  43.0830240  35.8711743  82.0124722  42.0525217
  28.9735389  26.8876982   5.1321203  29.8069048  26.4246368   5.2175963
  29.0082502  27.2846127   4.2617837  80.0928974  28.1903815  26.3166332
  79.8531914  28.9029050  25.7241130  79.2976618  27.6628232  26.3908768
  66.8922615  17.9737258  62.9141378  65.9916735  18.2535470  62.7501917
  67.3775768  18.2638514  62.1417904  62.1039152  26.9613600  67.6222277
  62.5453424  26.5323806  66.8891859  62.3210526  26.4210486  68.3819294
  10.1280761   6.2688398  63.0393553   9.7279346   6.8443137  62.3874760
   9.5926487   5.4756469  63.0194855  73.3444881  25.9809756  35.6805038
  73.0424356  26.8204474  36.0273218  73.5477257  26.1602736  34.7624731
  78.8344669  47.3155546   2.6457918  78.5415554  47.9962301   2.0398933
  79.1891098  46.6287661   2.0811802  86.3452721  69.7467756  45.9795761
  86.1447525  69.5558023  46.8958473  87.2808075  69.5624495  45.8956861
  65.7841825  25.2348709  15.7094467  65.6052208  24.3267655  15.9534705
  66.7364693  25.2761102  15.6218064  70.1246452  31.6436648  62.1040535
  70.4739285  32.5207353  61.9459963  70.8492947  31.0554242  61.8917131
  65.7612848  72.5223923  66.3986301  65.5135155  73.4233189  66.6064167
  66.2982464  72.5975275  65.6097937  52.4417448  23.2859731  72.7278090
  53.2293034  23.8003898  72.9048729  52.7557421  22.3846889  72.6548576
  64.9544477  67.5727367  43.1468248  65.8443594  67.5364494  42.7961445
  64.7741604  68.5075235  43.2463503  89.2846203  47.5397301  14.0717280
  89.0643311  47.9153728  14.9241364  89.7652531  46.7385864  14.2800319
  33.5207915  58.6821270  68.7226582  33.5583568  59.3195438  68.0095530
  34.1869569  58.0323696  68.4984541  58.0042744  59.9883652  50.3979778
  57.8452873  59.9723387  49.4542074  58.9573956  59.9580240  50.4808521
  42.1728277  78.0815125   0.7342207  42.9368114  78.4416437   1.1846322
  42.5398159  77.5108671   0.0590055  40.6635427   1.4312704   4.1953096
  41.3185453   0.8169340   4.5266679  41.0627460   1.8068014   3.4105515
  80.9770298  46.8014908  46.0433674  80.6899548  46.8898249  46.9522238
  80.9321117  45.8615112  45.8682919  60.9749174  46.5958691  53.3543396
  61.6171074  46.0103178  53.7555265  60.8496094  46.2456894  52.4723530
  76.4044857  50.4192305  55.2480507  75.7775354  50.1569080  55.9221077
  75.9095860  50.3738976  54.4299698  78.9025736  24.3992305   8.0176747
  79.1357613  23.6980200   8.6260825  79.7232676  24.8682094   7.8668165
   2.3159876  50.1451254  58.6407804   1.7290950  49.4305515  58.8881159
   3.1633475  49.8982477  59.0112734  20.4125881   7.6727098   2.2925793
  19.7530115   7.9757679   1.6686025  21.0877824   7.2666115   1.7490457
  12.2161555  84.1925716  32.2341871  11.9220674  84.8581123  31.6122532
  11.8293667  83.3777428  31.9137526  64.6649170  62.5122261  41.2970591
  64.4129944  62.4854565  42.2201252  64.8596096  63.4341431  41.1285591
  80.7696438  51.8823290  32.7854371  80.2692890  51.2996769  33.3567452
  80.9496784  52.6513910  33.3261466  49.2951775  63.6002302  64.6867609
  49.1610813  63.3426523  65.5988455  48.4916115  64.0621471  64.4477081
  76.9060373  52.0775032  32.2442389  75.9810162  51.8782187  32.3886371
  77.0939493  52.7945280  32.8498745  10.0209749  13.2321179  62.4658918
   9.8117822  13.1282198  61.5376234   9.2922437  12.8133667  62.9239655
  63.6941528  40.5824232  53.0916309  64.1901875  40.0987148  53.7520933
  63.5898972  41.4580059  53.4640694  67.8391552  45.2410984  18.9450216
  67.2788048  44.5897627  19.3669188  68.7306881  44.9534416  19.1416323
  65.5300951  46.2918282  27.8661728  65.4441929  46.4789915  28.8009572
  64.8191404  45.6790733  27.6782680  12.7153707  10.5566990  47.2435904
  13.1513596   9.8912942  46.7112541  12.9030299  11.3819540  46.7964125
  86.8750191  34.2322707  60.2221060  86.3034248  33.4724331  60.3323889
  86.9160938  34.3656445  59.2751312  78.7081766  52.3185110  74.3532944
  78.2351494  51.5905380  74.7564459  78.1194973  52.6369953  73.6689949
  63.1428671  27.2263837  45.3610086  64.0049791  27.6064706  45.5299044
  63.2753325  26.2826896  45.4511452  72.0381069  76.6985750  21.2400031
  72.1275520  77.3344660  20.5301571  72.8402758  76.7976284  21.7527843
  74.0385580  48.9882183  45.8121347  74.3131638  49.8943186  45.6714106
  73.1782770  48.9313364  45.3963089  37.1648097   1.5790913   8.1100518
  37.5691462   1.6298388   8.9761740  37.2313952   0.6552941   7.8683960
  71.9914722  68.8640356   7.8397208  72.7663565  68.6721611   8.3678991
  71.3381815  69.1624308   8.4724951   7.9500347  22.7111292  68.3303690
   8.1698769  23.5483599  67.9217768   7.7719790  22.1250725  67.5948000
  90.4432487  62.8641415  42.1272516  90.6741047  63.6178207  42.6703072
  89.4860935  62.8569841  42.1219206  62.6105595  59.0141392  34.9440503
  61.8216848  59.0643167  35.4838562  63.3164024  58.8409233  35.5669594
  14.9807155  80.1894188  38.6385632  14.3632638  79.4671202  38.7537384
  14.9686205  80.3672028  37.6980948  37.6669741  53.7145758  54.4507980
  37.8526473  52.7780294  54.3827009  36.8286014  53.7597370  54.9104977
  26.3587189  13.9781046   1.4049260  27.1389627  13.4236252   1.4027816
  26.1661434  14.1241729   0.4787453  75.6727362  63.3528996  42.4715853
  75.8625984  62.8354645  41.6889954  76.5193129  63.4457588  42.9085255
  73.0144644  43.3023500  45.7783842  72.9817963  43.4247303  46.7271662
  73.9459896  43.2036352  45.5815506  78.0958796  30.4477358  25.9874630
  78.3094454  30.9360123  26.7825770  77.7978802  31.1150885  25.3693485
  53.3007860  14.9031448  52.4292898  52.9766417  14.4070530  53.1809902
  54.2340946  14.6944594  52.3890305   7.1802032  77.5457430   2.0667805
   6.6730613  78.1704807   2.5851864   6.6885084  76.7269421   2.1302737
  90.5282497  16.2990534  39.0861607  90.6895351  15.4400218  38.6959267
  89.5847893  16.3157785  39.2468977  85.3956604  27.6268387  65.8927011
  85.5836105  27.3179841  65.0064087  86.2271595  27.9856563  66.2026691
  68.3030987  50.7853174  56.3519430  67.9081678  49.9884653  55.9979725
  68.1837130  51.4384651  55.6624746   9.7231603   8.8679963  57.6389360
  10.3968024   9.5051146  57.4011993   9.4432563   9.1312373  58.5156298
   9.2589098  40.9574604  12.2979355   9.5504534  41.7638779  12.7232909
   8.8867927  40.4335165  13.0073309   4.2875406  27.7796841  36.5062881
   4.9278244  27.1195769  36.7718530   3.4670159  27.4921942  36.9066882
  59.0964460  67.4207401  52.0000601  59.8671389  67.8298283  52.3936462
  58.4996557  67.2778511  52.7346754  65.6225014  70.5457258  71.5215874
  65.2471638  70.9510612  70.7398844  66.0618687  71.2642431  71.9764805
  76.1328745  34.4967294  38.5459447  75.9510994  34.7520399  39.4503832
  76.5314293  33.6293864  38.6174011  73.8271332  25.3207803  28.3646917
  74.0066099  24.3952227  28.1992745  72.8812742  25.4064035  28.2453060
  60.4756117  63.8922453  57.1623421  59.9964857  64.3337917  56.4611244
  60.0256538  63.0541563  57.2690010  70.5511284  47.2875595  47.9257917
  70.7329082  47.2676373  46.9862223  70.7848024  48.1755447  48.1961775
  79.3334579  43.7953091  29.5523906  80.1690197  43.3285046  29.5394325
  79.2211628  44.1103268  28.6555147   5.4304671  83.2866859  31.5504265
   4.4893575  83.1132317  31.5290189   5.7111692  83.1978321  30.6396341
  85.8085632  52.2108173  38.9660811  86.3037777  52.8051424  39.5297956
  86.3998890  51.4728165  38.8179922   5.2354437  21.6081309  32.7296901
   4.7066042  20.8727312  33.0391192   4.8783869  22.3692250  33.1873775
  43.8835859  80.3543758  16.6882527  43.8508844  79.4273996  16.9246435
  44.1004658  80.3562927  15.7559490  89.2766762  61.0537243  50.8800459
  89.6084595  61.9435596  50.7602930  89.6233940  60.5662394  50.1328039
   2.2939457  39.0497851  58.9334440   2.0416349  39.8460841  59.4008636
   3.2287431  38.9517927  59.1145039  68.3271837  74.7541904  25.3322172
  68.4860325  74.4565964  26.2280059  68.4165621  73.9648438  24.7982025
  70.3721571  43.3454943  31.8951249  69.5947790  43.2195091  32.4392176
  70.4156733  42.5574923  31.3534689  88.9823151  69.8572636  44.0903854
  89.7231579  69.3000889  44.3289948  89.2991352  70.3721905  43.3482838
  81.7786407  78.9116049  54.8048401  81.8481064  78.2195473  54.1472244
  80.8599472  78.8956976  55.0731611  18.9851940  16.0129809  23.1875229
  19.2287540  15.1556492  22.8383923  18.1020415  16.1662555  22.8516960
  63.3261919  45.1537180  32.1262002  62.3967266  45.3300238  31.9804335
  63.4228182  44.2177057  31.9507647  77.6368284  34.3816996  29.9143243
  77.5600529  35.3007913  30.1704669  76.7447186  34.1217828  29.6845102
  87.9057026  32.8468895  40.4571056  88.1837463  33.5749888  39.9014139
  86.9784069  32.7289033  40.2511024   0.8172860  79.8161602  60.3978777
   0.3285241  80.2185440  61.1158133   0.2071583  79.1844177  60.0172472
  82.1917534  68.5670280  46.4335775  82.7770233  69.1307735  45.9277201
  82.5191879  67.6810789  46.2782907  78.1107473  63.8773203  43.8340569
  77.8808498  63.8033152  44.7602892  78.6322784  63.0952454  43.6534977
   2.5263795  84.4682407  24.6097136   2.2699565  85.1317120  25.2502465
   3.1957227  83.9500141  25.0565338  17.8054893  43.9359570  28.9194107
  16.9354844  44.2643070  28.6924553  17.7110326  42.9834461  28.9135909
   5.0994253  49.8658705  44.4944668   5.0299668  49.0534163  43.9931440
   4.2728153  49.9230003  44.9737167  50.9421587  56.9311285  70.5517244
  51.8234110  56.6561794  70.2986813  50.3607464  56.3299799  70.0860977
  90.3566647  68.3767986  35.7550573  89.5441341  68.2012367  35.2805042
  90.2248669  69.2414474  36.1439538  78.3702230  56.2167454  47.3041582
  78.2453394  56.9457626  46.6965628  78.4093428  56.6284370  48.1674099
  72.3899174  71.7313910   6.0246277  71.8431616  71.7951965   6.8077135
  73.1667614  72.2507715   6.2319392   0.2363418  36.6635394  63.2930231
   0.3401865  37.2864366  64.0123653   0.4403891  37.1696448  62.5066042
  73.6113071  52.9483175  46.5161467  73.3398867  53.7469244  46.9686842
  72.8282261  52.3978710  46.5112495  16.5224862  10.3292441  61.4729691
  16.6640317  10.2240014  62.4137783  15.8865154   9.6498376  61.2489653
  57.7873230  55.6060934  25.8343434  58.2601643  56.0064173  25.1046896
  57.7322960  56.2986183  26.4928389  81.1111259  49.9214649  73.3015156
  80.6945801  49.0930414  73.5390711  81.6629505  50.1363850  74.0535259
  87.5961494   5.0595498   9.2135400  86.9892883   5.0190622   8.4744090
  87.9912090   5.9292227   9.1517103  22.8260374   2.2394696  35.9829140
  22.5323057   2.1405916  36.8885517  23.7179399   2.5791496  36.0561299
  61.5001345  21.1709857  44.4966125  60.9532022  21.7603254  45.0160122
  61.9231272  20.6052375  45.1425505  82.6624966  33.5474062  18.9522541
  81.8568516  33.2669616  19.3864501  83.3306503  32.9414606  19.2726183
  40.2646971  15.0880373   0.8141665  39.7715640  14.2807293   0.6681909
  40.1570988  15.5844426   0.0028488  77.8871489  10.5303669   4.8268625
  77.6000690   9.7583878   4.3391496  77.1200895  10.7902753   5.3370523
   8.1065309  57.1613026  28.5710478   8.8538516  56.7127514  28.1753922
   8.1617165  56.9436121  29.5015287  67.1900225  64.2092180  39.8697805
  66.6563892  64.4710588  40.6200552  66.7101908  64.5362139  39.1088128
  51.2755060  68.9941454  56.5051270  51.9027901  68.2818890  56.3808632
  50.4211473  68.5625553  56.5110731  45.2844906  59.1248512  22.8894091
  45.8143234  58.7447739  22.1886611  45.7160521  58.8427544  23.6958861
  43.9085960  45.2719641  54.1252422  44.1800070  45.5400181  53.2473421
  42.9520988  45.2665520  54.0890265  72.3143864   3.6446080   7.3292267
  71.8634701   3.9575663   8.1134212  73.1628370   3.3364871   7.6477057
  73.5416365  41.7293072  37.2184253  72.8688812  41.4644003  37.8456879
  73.4457922  42.6793337  37.1513510  38.3512759   5.3602558   5.1464051
  38.2562065   4.7933465   4.3810245  37.7530980   4.9892282   5.7950604
  38.3429432  44.5041370  17.0464778  37.8734827  45.0146055  16.3867342
  38.1640506  43.5925055  16.8159139  84.7691345  43.6350822  59.7301722
  84.6055317  43.3931637  60.6417322  84.0099907  44.1628981  59.4824934
  47.8210545  13.9848709  71.0940266  48.0247927  14.0127206  70.1591778
  46.8715858  14.0988970  71.1357355  63.1888437  40.1855707  60.9553146
  62.2701931  40.0227356  60.7413292  63.6789274  39.6650481  60.3188324
   0.8419955  85.0519371  28.8823581  -0.0982980  85.0830364  28.7059712
   0.9038685  84.8914337  29.8239756  69.6448374  65.2781677  39.7001410
  68.8028574  64.8252535  39.6535826  70.1455450  64.9293375  38.9626861
  25.1191998  57.8073597   1.0692143  25.4399180  58.2134581   0.2639467
  24.5824146  58.4842157   1.4814693  25.6689477   5.4835367   2.0610917
  25.6490088   4.5498171   1.8513243  25.0134659   5.5881321   2.7507532
  67.1339178  59.1685772  58.2089901  66.9289017  58.2932854  57.8802586
  67.9517031  59.0568972  58.6937428  77.2886705  47.1854973  58.5274220
  77.0037222  46.7364931  57.7315378  77.0085907  46.6109133  59.2399120
  77.2978210  51.8710947  59.5879793  78.1525803  52.1952152  59.8718166
  77.1720648  52.2552299  58.7203074  70.8154058  69.2336273   4.6042639
  70.2154350  68.5020924   4.7496122  71.0477352  69.5312452   5.4838538
  58.6183357  59.2623758  71.2320232  59.2152739  58.8857079  70.5854797
  58.6736393  60.2069664  71.0873699  36.0277629  50.0105762   3.1495658
  36.2079167  49.9911547   2.2096723  36.5330791  50.7555676   3.4749475
  75.1991796  75.5013800   5.4314852  75.9107924  75.7671309   6.0139060
  74.4233084  75.9334326   5.7886785  90.7767868  69.4508266  31.6516471
  91.4265442  69.8185635  32.2506618  89.9385834  69.7802019  31.9759274
  77.9466677  74.0854406  25.5026269  77.9237509  73.6634350  26.3614726
  78.0709314  75.0147104  25.6956148   5.9063882  37.5875282  45.3004217
   6.4871085  37.0579243  45.8467865   5.1219577  37.0495820  45.1931238
  87.5957298  54.1321325  40.4952431  88.0052948  53.6157036  39.8011303
  88.1229019  54.9296379  40.5432415  20.3760123   6.7654419  61.6784239
  19.8026454   7.3396236  61.1706877  19.8609173   6.5356851  62.4518108
  15.5694187  82.6308155  51.2518883  15.6361353  81.9384861  50.5942678
  16.4754689  82.8115273  51.5021801   4.3743688  51.3288736  56.7161226
   3.4859261  50.9999418  56.8528795   4.2776212  52.2810602  56.7014456
  51.9004154  76.0499001  35.7848215  51.1855173  75.4860878  36.0802221
  51.6869354  76.2496710  34.8733664  23.9911842   6.2475771   4.1333225
  24.4749045   6.5102798   4.9164158  23.6800170   7.0706910   3.7566409
  75.0688314  27.0430446  17.8616548  75.6669903  27.5445724  17.3076630
  75.4940367  27.0258784  18.7190557  88.2405090  58.9022923  18.2414210
  88.9653683  58.4759712  18.6986554  87.4544048  58.5023594  18.6133409
  55.3631353  57.6190758  25.4397964  55.3048611  58.1935453  24.6763682
  56.1349869  57.9283857  25.9139323  66.1245966  79.5835972  45.6162453
  66.2710667  79.9524260  44.7451830  66.0426760  78.6416864  45.4668427
  16.4529657  46.8901634  34.4565296  15.9169412  47.3049545  33.7806201
  16.6896272  46.0398245  34.0862012  79.4924641  72.7652931  55.1209927
  79.4448757  72.5759745  56.0580778  80.0875092  72.1014643  54.7724438
  64.0136814  60.5467129  49.6943331  64.4847107  59.9338150  50.2588844
  63.8142776  60.0415087  48.9061451  86.0958862  69.2658424  51.9282007
  85.5395222  69.6033430  51.2262154  85.8629513  69.7926617  52.6926851
  61.1072254  53.4397316  53.9297009  61.0453606  54.1554832  53.2971621
  60.4687500  53.6628389  54.6070480  59.7337961  77.1081829  61.5307379
  60.3957081  77.4551344  62.1288443  59.2975950  77.8845835  61.1797905
  24.3225503   0.2782458  53.5038376  25.1955676   0.3131156  53.1128645
  24.4192576  -0.3086067  54.2538261  61.8371105  60.4894114  46.0337019
  61.0991430  60.6813478  45.4550838  61.9146538  61.2655783  46.5884876
  67.5040913  57.0155144  46.9817448  67.7294159  56.1463976  46.6499329
  66.9290400  56.8453789  47.7278042  68.9397860  79.2296314  30.1823950
  68.6905050  78.6977148  30.9381437  68.1581259  79.2421961  29.6300507
  80.5348301  70.0105572   3.3980256  80.4165268  69.8940325   2.4553391
  79.6574402  70.2056122   3.7272245  87.7812862  81.8924427  56.2693214
  87.6813412  81.0166359  56.6424417  88.6499119  82.1763992  56.5540600
  51.1446524  71.9385052  37.2280717  50.8104897  72.8271580  37.1061707
  50.3725243  71.3788414  37.1454501  58.0972719   4.4264665  37.5267363
  58.2228613   4.9363852  38.3270121  57.3868799   3.8206270  37.7377748
  50.0659370  35.1778388  22.3775172  49.6601963  35.9008288  21.8990850
  50.5127859  35.5978513  23.1124616  80.0447559  71.6814184  27.1507668
  80.7124043  71.2421656  27.6775837  79.5925474  70.9707546  26.6961384
  89.6625710  66.3512516  25.8116722  89.8760223  66.9770288  26.5038276
  88.7463379  66.1232901  25.9690928  86.1307049  10.0465775  61.0137320
  85.7812023  10.8709288  61.3521481  87.0062065  10.2694964  60.6974459
  52.9684448  67.4490595  62.4881268  52.3765612  66.8452549  62.0394325
  53.5442877  67.7774143  61.7975998  72.6711941  75.4421616  38.0253983
  72.7180243  74.8413944  38.7691164  73.4671307  75.9695530  38.0930424
  70.5314207  53.2358408  65.4294109  70.7738829  52.3514891  65.1548862
  71.1929035  53.8005304  65.0296593  74.1812134  74.2515039  46.6788816
  73.4812450  74.9031115  46.6379404  74.6233559  74.3214560  45.8328056
  85.2289200  72.4175978  34.7746587  85.0473785  72.1110535  33.8862300
  84.3660450  72.4991083  35.1809072  79.5541859  38.3187461  62.1145010
  79.3058920  39.1927290  62.4157238  79.3446207  38.3187962  61.1805248
  62.4302912  46.2451172  60.8773708  61.7529488  46.8225050  61.2295914
  62.0695400  45.3641081  60.9769487  33.3598542  12.1176398  40.8957767
  33.5120034  12.5902402  41.7141485  32.4830222  11.7462635  40.9931183
  65.1810026  65.0932121  41.3293028  64.3368530  64.9720430  41.7640018
  65.4835987  65.9506178  41.6285086  36.2893152   7.6941800  26.0521698
  36.4373016   6.9369119  26.6186285  35.3975177   7.5775790  25.7245493
  14.3348253  17.8530109  13.8753295  14.1797721  18.5155022  13.2020581
  13.4594631  17.6002681  14.1687465  53.1607580  82.4339962  50.7795286
  52.7732372  81.5782261  50.9631395  54.1051006  82.2796822  50.8047295
  64.4517040  85.4241180  24.7318363  64.3759775  85.6960201  23.8171959
  65.3505993  85.6465530  24.9741983  85.4816151  41.0205841  67.2760248
  85.9609509  41.6520548  67.8124142  85.9539700  40.1967859  67.3963261
  71.9173574   2.8176486  69.1182804  71.0639286   3.2392436  69.2190313
  72.4899101   3.5111910  68.7905455  71.5616608  53.0062294  27.3359323
  71.8601894  52.2755575  26.7944217  70.7485580  52.6937294  27.7327156
  75.9068346  65.7407045  36.0236907  75.2595901  65.1037693  35.7210016
  75.4320240  66.5714788  36.0482383  38.3754754   4.2753077  31.0911441
  38.2806015   3.3249074  31.1541557  38.0505943   4.6045244  31.9291782
  13.8701749   2.1669082  38.4620047  13.3402061   2.9575348  38.3606410
  14.4120836   2.3389094  39.2320561   0.8990476  11.2812304  36.4965010
   1.1064373  12.2151041  36.4633131   1.6811961  10.8498144  36.1524725
  65.0035143  69.0151262  38.7178993  64.4001007  68.5295391  39.2803288
  65.3831911  69.6803570  39.2919636  19.8489249  63.0231476  42.3993921
  19.3445206  62.8195953  41.6117525  19.3221462  63.6771059  42.8588104
  40.1659489  10.4593956  34.1421890  39.3530655  10.0281656  33.8785791
  40.1787663  10.3836370  35.0962996  13.9892519   7.1008521  47.0876694
  13.9238858   7.7071232  46.3498402  14.2855620   6.2788963  46.6967487
  88.2195759  85.7695580  10.3065085  87.9016495  86.5629196  10.7374787
  87.7459240  85.7423782   9.4751573  45.1824856  66.6515303  47.6565695
  45.1632929  65.7289028  47.9107857  45.9938717  66.9879484  48.0369759
  90.3648853  80.2643967  33.8727355  89.7399330  79.5394421  33.8624287
  90.9713078  80.0680161  33.1586432  54.3812609  62.0131445  56.7473555
  54.0602160  62.6404428  56.0995483  53.7888098  61.2652493  56.6706562
  62.6995182  60.2343464  30.2332115  62.7740240  59.5800734  30.9279084
  62.2397852  60.9672499  30.6427574  54.5589161  53.4776878  61.6095924
  54.0868759  52.7389956  61.9939661  55.1292706  53.7892485  62.3123407
  64.6515465  55.1181889  21.8785048  64.1833639  55.4993153  22.6213264
  65.5524540  55.4252052  21.9801688  70.1705790  61.0079241  52.3735476
  70.4723406  61.6383076  51.7194939  70.9427023  60.4768133  52.5684261
  73.0593920  52.3327971  74.2104721  73.3328438  51.4195156  74.1245985
  73.2890797  52.5680733  75.1094246  28.9475346  22.9408073  27.5448108
  29.4358778  23.2156157  28.3208466  28.6602330  22.0500922  27.7455950
  72.6695204  27.8510356  43.4843302  72.3139381  27.5328422  44.3141174
  73.0759001  28.6894655  43.7036896  66.0549450  77.4646378  55.4595804
  65.5103588  77.3119831  54.6873426  65.8538485  76.7328596  56.0429287
  79.6387863  54.7795916  19.6791101  79.8252106  54.3243599  20.5002332
  80.2534103  54.4010305  19.0504920  17.3513424  82.3431969   0.9519707
  18.2636809  82.6204681   1.0355830  16.8588829  83.1602764   0.8739186
  69.8661184  36.5139771  53.1121492  70.3465271  35.7240438  52.8642654
  70.0652361  37.1429372  52.4186134  66.2736559  27.6547575  74.3398380
  66.7699146  27.3997569  75.1176119  66.6109848  27.0898438  73.6446285
   2.4717514   3.7326577  32.4963403   1.6708829   4.0580487  32.0852900
   2.1652263   3.2075420  33.2356143   3.1135881  75.7567310  34.8498797
   3.1134924  76.6803217  34.5984697   3.8330671  75.6791306  35.4764247
  79.5285130  59.7843599  18.2626724  79.2885447  60.3484201  18.9978468
  80.3945160  59.4472790  18.4921241  89.0795326  71.4982557  59.2170286
  88.7378311  71.9481611  59.9897242  89.9993515  71.7597532  59.1748333
  33.4449029  12.0426261  46.2143660  33.9967561  12.3199868  46.9456387
  32.8328061  11.4160955  46.6004086  78.7393475  49.1995716  38.6846709
  78.3198452  49.9487925  38.2616830  78.7668467  49.4328547  39.6126032
  86.4202499  34.1131496  32.5341868  86.6947269  33.5279369  31.8281984
  86.4204597  33.5613990  33.3163643   3.3353785   8.6894184  72.4364042
   2.5858480   8.5385460  71.8604898   2.9539338   9.0520251  73.2359314
   3.0763698  47.5066233  47.2546911   2.7159694  47.2458029  48.1022215
   4.0090889  47.3009014  47.3175001  72.8802299  63.0555201  50.6568193
  73.0560303  62.5282860  49.8774910  73.0008268  63.9596367  50.3665400
  84.7272682  62.8183937  48.4112501  83.8440990  62.9074907  48.0530643
  85.3034973  62.9034901  47.6516771  19.1127634   7.9988360  59.2173338
  18.3211291   7.4619788  59.1808558  18.7996495   8.8713884  59.4557524
  23.0053020   0.3142095  61.2140703  23.3698654  -0.4387860  60.7489634
  23.7430477   0.9164716  61.3102102  44.3459415  22.1654058  68.7216043
  44.2366934  21.8672132  67.8186226  43.6000299  21.7901993  69.1896486
  59.9133873  81.3305187  45.6970501  59.6033955  80.6148243  46.2519455
  60.0616360  82.0564842  46.3030481  80.4012012  82.0673656  53.0610847
  79.9518347  82.1814919  52.2236633  79.7410870  81.6806889  53.6363745
  61.6030788  61.3089991  70.7363892  61.1395836  60.5608368  70.3600216
  61.2338686  61.4023876  71.6145658   3.3475995   4.0788800  58.3325148
   4.1631770   4.5125863  58.5834408   2.9239804   3.8658080  59.1640091
  62.2446537  58.3672571  28.4356165  62.4557781  59.1149473  28.9947367
  62.2488737  58.7237310  27.5472832  64.7473669  26.9871569   4.9434474
  64.7434998  26.1441493   5.3968304  64.3390751  27.5933933   5.5615163
  86.6290188  72.3310184  43.8773251  87.0772457  71.4854288  43.8947248
  86.9223213  72.7740049  44.6735477   3.2004753  80.3330517  61.9228411
   2.3801133  79.9357510  61.6306162   3.3366346  81.0684013  61.3253832
  70.8063269  85.0808144  64.8931980  71.0305405  84.9090099  63.9786243
  71.1554670  85.9553146  65.0651884  63.9126778  61.9720697  37.0480990
  63.5306883  62.7877617  36.7241168  64.0770531  61.4548159  36.2596440
  86.4764500  49.2959023   6.1613452  87.1198463  49.7438812   5.6121701
  85.8025360  49.0011311   5.5488241  48.3276796  12.7751338  73.4049559
  48.4978437  13.4957397  74.0115881  48.2565451  13.1953180  72.5478554
   7.9156208  67.4629450  50.8093452   7.8203994  67.7248716  51.7250729
   8.7099314  66.9290161  50.7943010  13.2678747  50.5127001  65.9945154
  13.3921087  49.9603510  66.7663336  12.8633153  51.3110495  66.3339233
  63.3044338  23.0698442  58.9367771  62.9273748  22.1973181  59.0497303
  63.6747599  23.2834363  59.7932053   9.0159386  68.0732918  34.8606372
   9.3381423  68.3327436  33.9974451   8.7887323  67.1485424  34.7634697
  42.0434284  12.0843780   0.9298177  42.7985907  12.5945425   1.2225579
  41.4641237  12.7272439   0.5207165  66.6002941  37.0621586  61.4169025
  66.6116571  36.8348742  60.4871464  67.1658897  36.4096570  61.8299055
  67.4589825  65.4877806  60.4122019  67.4348545  64.6136808  60.0228405
  67.8280497  65.3512001  61.2847662  80.3586292  45.2128601  26.8346930
  81.1746979  45.4678440  27.2650981  80.5983162  45.0990248  25.9150076
  73.9602709  39.0771914  37.0860028  73.9693117  40.0326920  37.0297050
  73.6332655  38.7901139  36.2334251  75.9280109  64.2477942  65.1233339
  75.3724480  64.7264719  64.5081520  75.5922842  63.3516598  65.1019049
  79.6665907  48.1397438  58.2991505  78.8188171  47.8565884  58.6416912
  79.4576406  48.5754395  57.4728727  56.4293575  72.8027201  17.9506576
  57.3500299  72.5884771  18.1013072  56.2676811  73.5669947  18.5038030
  75.7172012  29.1311836  54.1805792  75.9521198  28.8015842  55.0479937
  76.4711285  28.9174819  53.6308908   9.9302262  57.7705622  69.4425774
   9.7018886  58.5780096  69.9031496  10.5285168  58.0508804  68.7499762
  83.8532734  82.6309681  38.4656572  84.0099907  81.9172287  37.8473926
  83.0439186  82.3859501  38.9141607  54.5079660  10.6940103  33.7931752
  53.9571953  11.3060260  34.2813540  54.9159813  11.2294137  33.1126618
  68.3151531  49.6962500  30.8172297  68.8496685  49.9924278  31.5539789
  68.4395027  48.7473726  30.7972884  15.7674384  26.3619924   2.7802986
  16.5062118  26.2937403   2.1754953  15.4590464  27.2626972   2.6810151
  84.7747135  29.2472792   6.4128882  83.8597488  29.4567442   6.6005200
  85.2635002  30.0092340   6.7239171  65.5802774  80.7815552  32.8751969
  66.0886288  81.4127159  33.3845520  64.8974323  80.4833794  33.4760690
  57.9444933  84.9107933  37.2180629  57.2690582  84.5423698  37.7875209
  57.6070166  85.7722092  36.9724989  66.0679865  56.8713856  49.3390369
  66.4163780  56.2283468  49.9565744  65.3338242  56.4250040  48.9171600
  50.3852510  13.6443257  14.3319190  51.2276649  14.0030789  14.6109617
  49.7592306  14.3504131  14.4924545  74.5546055  68.1491470  36.6399765
  75.2327108  68.0965233  37.3135018  74.5797110  69.0595627  36.3454461
  12.6735198  58.4778595  41.2745380  13.4654915  57.9566193  41.1429262
  12.1061325  58.2408381  40.5409718  16.7921555  71.0418797  39.8605084
  17.5247467  71.0431576  39.2444396  17.2047853  71.0009480  40.7232332
  66.6200495  44.3011808  22.7440047  66.1977768  43.6266470  23.2759142
  66.3015938  44.1400433  21.8558311  68.9907122  35.1147604  43.0435276
  69.1575861  34.1766620  43.1349325  69.5049334  35.5187297  43.7425375
  59.5479012  80.8187771  57.0567703  58.6057758  80.6915665  56.9451761
  59.6519566  81.7653656  57.1536350  10.5335832   6.6674089  37.3588562
   9.7862500   6.3972014  37.8924417  10.4824936   7.6230890  37.3415971
  15.3410304  49.8640776  44.5279074  15.8574355  49.3990993  45.1862001
  15.9585762  50.4760599  44.1274691  67.9580116  65.8605814  66.1961889
  67.9335546  64.9961472  65.7858372  67.7758265  65.6921005  67.1206617
  90.5795860   7.4435312  51.3743925  90.4656792   8.3029580  51.7801523
  90.5228043   7.6132041  50.4340601   1.7199042  15.0271034  13.4401476
   1.8741609  15.6889534  12.7660608   0.7761233  15.0598824  13.5964644
   2.6452383  60.0769901  45.4718161   2.5551355  59.3424940  46.0789680
   2.4632986  60.8514500  46.0041094  43.3702326  55.5623484   3.4561890
  43.7495804  54.7213984   3.7113929  42.4257660  55.4368591   3.5482445
   8.6946845  25.3569627  29.0394258   8.3465087  26.1216664  29.4979358
   8.6085731  25.5744791  28.1112528  84.2965889  85.2530384  40.7121277
  83.8848209  85.0358868  39.8757505  83.5862064  85.6145859  41.2420988
  76.0907841  59.2992163  27.7818251  76.4098597  59.7428274  28.5677195
  76.0768414  59.9815178  27.1106291  72.8314209  64.4660616  39.6678877
  73.0516148  64.0804815  38.8199067  72.9996300  65.4017544  39.5564628
   5.0363398   8.2174110  44.4206715   5.8771837   8.2094681  44.8780012
   4.5456043   8.9277595  44.8339701  24.3982005  16.6346157  23.2622194
  24.1295409  17.4500322  22.8389597  25.2992630  16.7956591  23.5421920
  20.8396173  81.6447830  23.0919957  20.2695799  81.3359642  22.3877788
  21.6872549  81.2394142  22.9091835  78.7728453  82.4822998  50.7629681
  79.2749548  83.2279491  50.4341650  78.3374596  82.1264458  49.9883461
  78.7055540  59.9013996  56.5507317  78.2880354  60.5941296  56.0388422
  77.9867506  59.3193197  56.7971706  69.5870638  51.0042191  39.0153623
  69.2044783  51.8119144  38.6725950  70.0452328  50.6201649  38.2678246
   0.4590603  20.9942031  52.2650909  -0.4670658  20.9781981  52.0237064
   0.7016342  20.0717330  52.3453331  71.9283628  76.2744236  46.4783478
  71.7345905  76.5098715  45.5710173  71.5316391  76.9740820  46.9973040
   4.6838447  75.6272125  57.6264715   4.8285758  76.3802385  57.0535517
   5.3409350  74.9876022  57.3519468  27.1993017  18.5447419  33.6483121
  28.0368853  18.9304292  33.3915401  26.9769025  17.9541552  32.9286075
  78.8208246  52.7227831  50.9394503  79.1780901  52.0702267  51.5417528
  79.3394184  52.6213741  50.1413250  42.5888729  69.8647356   9.3189269
  42.4579191  70.8123636   9.2859507  42.4997997  69.6427488  10.2457595
  86.1959076  84.8167706  31.9665432  85.7715511  85.2718544  31.2391853
  85.5349731  84.2001915  32.2815633  69.0058851  49.0400887   5.4135406
  69.2594957  48.1246901   5.5316991  69.5997620  49.5286417   5.9834993
  21.7851424   8.1378144  68.5518980  21.5592265   8.9171547  68.0441332
  20.9497046   7.8310460  68.9042711  64.8917437  38.5084200  55.0062323
  65.8029795  38.2156157  55.0180864  64.4635105  37.9330397  54.3723679
  63.9920521  43.3262730  57.8233004  64.1682053  43.1735420  58.7516689
  63.9410591  42.4498463  57.4418402  81.3477612  64.0376902  43.6956406
  81.2386608  64.4861269  42.8570509  80.5230045  63.5697174  43.8260841
   1.5694636  67.9964352  50.9939623   2.1041057  68.4376049  50.3338432
   1.9632126  68.2491112  51.8290377  12.9724050  52.9234600  48.9575624
  12.6541996  53.7567616  48.6103106  12.5934565  52.2622728  48.3783674
  84.4830799  77.8327084  13.0925500  83.6833858  78.0459833  12.6116812
  84.4963551  78.4523058  13.8220394  32.1607971  15.8382499  36.4744639
  31.3140512  16.2620556  36.3343048  32.0162225  15.2548003  37.2193909
  80.9640026  50.5306387   4.7881025  80.8172512  50.7878399   5.6983453
  81.3133049  51.3177443   4.3701455  71.4201927  72.2103548  72.5222588
  70.5172777  72.0332384  72.2584295  71.8879271  71.3959789  72.3371840
  25.9428072  58.8010645  40.1629257  25.6839228  58.0342913  40.6740713
  26.2549257  59.4290066  40.8144665   4.5652902  35.4172015  17.2989511
   5.3265005  35.2119660  17.8417861   4.2217255  36.2316036  17.6662970
  20.7850194  21.3985252  55.3100824  21.4749694  20.7411647  55.2202082
  20.8495927  21.6907525  56.2192917  87.8856564  59.8356152  45.9027195
  87.9294395  59.0905285  45.3034210  88.1517315  59.4777060  46.7496777
  78.8650751  58.3778715  23.1709218  78.5558128  57.8333139  22.4470139
  78.2625151  58.1858969  23.8894606  42.7663803   1.6052763  43.6324692
  42.9454470   0.8608858  43.0579710  41.8147326   1.6048795  43.7354231
  65.5355644  66.1825085  16.3289642  66.4647532  65.9875393  16.2072039
  65.0805807  65.4812765  15.8626056  60.3954554  77.9867268  52.8324413
  59.4844818  77.7102089  52.7329683  60.4368305  78.3632994  53.7114859
   1.6927932  52.5473499  57.4439192   1.9203627  51.7596817  57.9379129
   0.7767119  52.7132702  57.6663971  85.1353168  46.2700558  17.5597727
  84.2215824  46.1294937  17.8079188  85.5610275  45.4292297  17.7271414
  64.9233913  66.2146616  70.9798527  65.6502628  66.0763025  71.5871000
  64.4696760  65.3722382  70.9534597  46.6537619  60.5079746   8.0540723
  46.2251949  60.0587893   7.3255157  46.7448378  59.8359060   8.7295389
  59.3950653  72.0137978  31.4559889  60.2941322  71.9098711  31.1443710
  59.4881201  72.3054981  32.3628998   1.6448601  80.6772518  48.5780621
   1.3486724  80.9438896  49.4483566   1.8207508  79.7400713  48.6616230
  88.3363724  56.5617943  41.0872793  89.1071796  57.0728302  41.3341141
  87.8015995  56.5365171  41.8807650  58.3106804  70.2273655  29.9152637
  57.7335024  70.8475065  29.4697070  58.5065794  70.6432247  30.7548571
  42.3882246  64.8858929  30.5917597  42.1373034  65.6162167  31.1573529
  42.9498482  64.3393040  31.1413527   5.0881743  82.8315735  43.8053370
   5.1099175  82.7319813  44.7570896   4.1568705  82.8198433  43.5845041
  37.3758960  84.1691399  30.3668261  36.7520189  83.7038326  30.9240484
  38.1418991  83.5960579  30.3344703  73.8406801  17.5159454   5.9870863
  73.2762194  17.1690202   6.6779256  74.0477705  18.4061527   6.2714756
  82.0728683  51.2139702  27.8053999  81.5134907  51.9876242  27.8746080
  81.6473103  50.5603027  28.3602381  65.7245970  26.4924979  59.7175598
  65.4865646  26.0959673  58.8795090  65.0229454  27.1192646  59.8938560
  21.4510775  14.4674504  53.3634806  20.6719065  14.6216214  52.8292942
  21.9455242  15.2851403  53.3074474  11.2550819  61.9292927  49.7805023
  11.7764688  62.5371170  50.3048468  10.4078281  62.3637152  49.6821594
  18.2542217  17.9505873  49.6249390  17.5203633  17.5372720  50.0797510
  18.5157037  18.6714387  50.1978540  85.5314922  51.4545345  70.4329062
  86.3193989  51.9498205  70.6568050  85.8605766  50.6389475  70.0550699
  17.3189712   4.6082580  33.2962561  16.6496909   4.6411857  32.6127267
  17.4185598   3.6760184  33.4892416  90.2536011   2.0249853  12.0233417
  89.9901581   1.1051722  12.0511639  91.0988998   2.0185483  11.5742815
  14.4851613  72.5395727  44.0305090  14.8912168  73.4029293  43.9532614
  14.7387135  72.2326612  44.9009943  60.8116913  81.5379143  50.2973175
  60.0473499  81.5140343  50.8730316  60.4575586  81.3789940  49.4223499
  70.6768131  71.8081570  29.9466872  70.2743244  71.2316513  29.2971683
  70.0093889  71.9067907  30.6256938  47.2220230  20.9571862  51.4194727
  47.2465944  20.0559497  51.7410326  48.0451632  21.3415885  51.7209768
  80.5842400  80.3074455  15.1723158  80.2255440  80.2964878  16.0597014
  80.6444931  81.2364674  14.9497879  86.0672665  79.5775414  33.0257392
  85.8362293  80.1090717  32.2639489  86.5630817  80.1706791  33.5901737
  71.7367506  40.8872461  30.7618284  72.0614576  40.7929659  29.8663330
  72.3259020  40.3469610  31.2883496  32.2679186  57.6660347  37.4268246
  32.0909572  57.6879787  38.3672690  32.7171636  58.4921932  37.2482967
   2.8804812   4.2638713  28.9070415   1.9471493   4.2537019  29.1192222
   3.2754397   3.6588389  29.5348763  17.2033751   5.3901625  51.7542696
  16.4386392   5.8815771  52.0541382  17.8925085   6.0488319  51.6677809
  73.2464504  62.3134375  11.2882388  73.5067034  63.0307627  11.8661165
  73.8633394  61.6092634  11.4877856   5.7834733  36.4375138  23.8818669
   5.8918619  36.9049215  24.7101283   6.5731281  36.6474438  23.3832622
  17.9747963  79.2978096  58.9912653  18.8820863  79.2304707  58.6937380
  17.8890491  80.2011871  59.2958736  59.6529341  74.7861624  52.0131874
  59.1035938  74.1971302  51.4959860  59.1028547  75.0366831  52.7554035
  60.7541180  60.7942200   6.0293615  61.0866117  60.5410433   6.8905133
  59.8023033  60.7946110   6.1307472  33.9826441   9.6805823  34.0660715
  33.3264875   9.0598541  34.3829083  33.4794044  10.4574919  33.8223648
  74.9640465  36.3391376   6.6102296  74.1865778  36.8109417   6.3116109
  75.6178951  36.5000868   5.9299290  33.3200288  39.0987253  66.2916040
  34.1583371  39.5386648  66.4327669  32.7988124  39.3234849  67.0623493
  27.3867345   6.3400871  -0.0623484  28.2754564   6.0780430  -0.3026293
  27.0438933   5.5969894   0.4341375  75.2169466  61.7167377  40.0279665
  74.3135214  61.4568710  39.8476171  75.5573606  62.0035887  39.1805792
  60.4081631  63.5302544  38.8147902  60.4173899  63.2455826  39.7286320
  59.6220064  63.1272507  38.4463096   8.2497841  21.2813830  42.0909977
   8.2431906  20.4226041  41.6682768   7.3557293  21.3967919  42.4128294
  51.8442392   0.9381404  17.2943711  51.7503452   1.1216502  16.3596308
  51.5180159   0.0441058  17.3968899  22.4861813  12.7233613   4.1249970
  23.2187676  13.3191955   4.2816198  22.7455950  11.9072294   4.5526248
   8.2329714  20.8393908  39.0087080   8.6845648  19.9967384  38.9614606
   8.7409192  21.3482499  39.6405983  75.3091240  24.4287300  53.4114790
  75.7879448  23.6170912  53.5794258  75.8963251  24.9429631  52.8574133
  59.7578669  40.3844929  48.0933094  59.4665146  41.2808704  47.9264164
  60.5982780  40.3174973  47.6400423  77.1819925  73.0948687  31.8333530
  76.7206383  73.4698343  32.5835419  77.5194740  73.8530254  31.3563490
  83.4497547  49.8163223  68.8228130  83.1302166  50.6970215  69.0190172
  83.8134480  49.8846292  67.9400349  33.4058404   0.8137487  11.4077687
  33.3706260   0.6588122  10.4638481  32.5874543   1.2686940  11.6065085
  72.0606852  74.1826677  35.5966210  72.1083641  74.6698904  36.4191651
  72.1134472  74.8545265  34.9168777  60.0325775  68.4213018  42.9877520
  59.9371433  68.7931585  42.1109104  59.9983358  67.4744844  42.8514051
  76.0194159   0.6098675  49.5859766  76.1416817   0.1741707  50.4294538
  76.4346504   0.0251932  48.9519691  83.0443192  78.5492134  42.7160311
  82.6252174  77.8021479  42.2888517  83.4627914  78.1773663  43.4924555
  89.4848251  81.7581081  52.7514648  89.2213249  80.9654236  53.2188559
  90.3650379  81.9466305  53.0769157  12.6935291  51.8748617  51.5364790
  12.2979426  52.2199726  50.7360744  12.4788630  52.5221968  52.2081232
  30.9515548  13.2525253  68.1030369  30.0324750  13.3779132  67.8668118
  30.9830904  12.3755717  68.4853840  23.7411547   7.9781920  21.4437580
  23.4424758   8.0876505  20.5409622  23.9306068   7.0431674  21.5216589
  43.7192869  13.2163942  29.6312976  42.9179525  12.8970730  30.0461888
  44.2614555  13.5198593  30.3594398  11.6997004   7.3646998  48.5115004
  11.2119961   6.9903541  47.7778482  12.6162839   7.3146981  48.2401943
  57.8670692  75.2550173  36.6109109  57.1150208  75.2375793  37.2028136
  58.3862066  76.0034227  36.9052291  80.3160477  75.6803989  59.6787500
  79.8432779  75.4413557  60.4759789  81.1561298  75.2277517  59.7536373
  81.0672951  13.5938358  32.3568201  81.9667339  13.3905232  32.1001029
  80.8731079  14.4204056  31.9148850  67.8461552  57.2771978  13.8964283
  67.2156048  56.6569471  14.2623913  67.6665735  57.2746420  12.9562283
   5.1128638  45.5007124  15.8513522   5.9073591  45.1085043  15.4891610
   4.5762640  44.7536373  16.1162508   2.4515809  10.5860269  47.7318192
   2.1262091  11.2576985  48.3311701   2.8327763   9.9194270  48.3032799
   6.9220835  61.6761065  43.9696693   7.4089599  61.9885540  44.7322702
   6.2359309  62.3305845  43.8389587  41.9367695  73.4631300  62.9176521
  40.9974575  73.6397552  62.9698610  42.1198797  73.4163189  61.9792938
  48.7658501  16.6950381   1.6387056  49.3301392  17.1765995   2.2436079
  48.5292768  17.3370337   0.9692977  74.3434858  47.7884865  39.7108674
  75.0603437  47.3108768  40.1282835  74.5767498  48.7108183  39.8163700
  62.2093058  72.0712852  33.4511161  62.2294617  72.8172636  34.0505672
  62.6053143  71.3547325  33.9470553  69.1846657  75.3939438  51.9536304
  68.4273481  75.9282637  51.7144537  68.8511562  74.7886181  52.6158857
  17.3125577  68.0889988  19.7810519  17.3351407  68.8002682  20.4212260
  16.5775132  67.5415277  20.0571275  69.1753292  71.8812656  65.7815266
  70.0684595  71.7281151  66.0899067  69.1073656  71.3648415  64.9784565
  17.5203323  23.1965470  32.5219345  16.9857049  23.9618731  32.3105597
  17.6286483  23.2351065  33.4722042  30.8254862  28.7839103   8.8464206
  30.1473022  29.4373965   9.0174609  31.5209961  28.9915538   9.4704252
  86.9443035  78.9340973  43.1648779  87.2955513  78.4256792  42.4338722
  87.0688534  79.8465300  42.9037476  34.7373629  59.9882936  43.2266808
  35.3250408  60.5334520  43.7498140  34.4043374  59.3356752  43.8426495
  22.4068689  19.9030411   9.3615794  22.8754592  20.0660992   8.5430032
  22.4697065  18.9564526   9.4890654  81.7662334  11.3643658  33.8730192
  81.1781025  12.0057714  33.4743619  81.9169235  10.7169962  33.1842256
   3.7328559  71.4646435  43.4622622   4.1944686  71.6557932  44.2787218
   4.3076107  70.8551645  42.9992008  66.4097691  85.1600361  49.8241282
  67.2782278  84.8413944  50.0700665  66.4111614  85.1446247  48.8670540
   4.7840548  51.2303114  66.9305801   5.3814548  50.5123568  67.1400595
   4.9478495  51.4161587  66.0059881   3.4143382  74.4180489  29.4627142
   4.2793855  74.1639185  29.1412449   3.5822886  74.8049068  30.3219938
  59.0258741  77.0960522  43.0884600  58.4148836  77.7364063  42.7239418
  58.5251474  76.2810850  43.1250334  64.9007463  58.7183189  39.0838432
  64.6382427  58.4911442  38.1918120  65.1143837  57.8791285  39.4917011
  20.9629869  11.2509108  41.6960382  20.8897257  12.1085107  42.1148348
  21.1123300  10.6428027  42.4200106  28.9572263  20.0470209  19.7989976
  28.5132742  19.2676735  19.4647002  28.9324045  19.9471259  20.7506466
  64.4147062  17.1709454   2.5416538  64.5097303  16.4899611   1.8757236
  65.0840616  16.9634080   3.1936681  20.7591414  19.0162587  42.0404387
  20.0531578  19.0675533  41.3960886  21.5222120  18.7316036  41.5375185
  78.0028009  63.5050297  49.6770334  78.2988691  64.4061089  49.8059845
  77.1725750  63.5904551  49.2083549  25.0082612   9.4901860   6.2808502
  25.2080083  10.4254150   6.2398654  25.8603096   9.0599287   6.2092555
  38.2257152   4.0099233  12.1923995  37.7282643   4.4431534  12.8860033
  39.0653825   3.7947500  12.5984693  75.5164433  74.2234421  70.3197622
  76.1478138  73.5064697  70.3793955  76.0342836  74.9752808  70.0319958
  56.9669533  23.9815378  23.0290413  56.9957781  24.4712567  22.2071075
  56.2361336  24.3672204  23.5121369  35.1003742  49.4562864   7.2032392
  34.8609543  50.3812695   7.1456808  34.7934508  49.0777254   6.3793939
   5.4106462  25.9564877  20.4963279   4.7341561  25.2914810  20.6242347
   5.0979584  26.7143536  20.9903955   2.0162512  63.1472588  37.4889016
   2.0787939  62.2024441  37.3487234   1.4496274  63.2387495  38.2549286
  68.1192875  39.7514606   6.0204458  68.6295509  38.9811230   5.7705545
  68.7327051  40.4817629   5.9391493  80.1827812  79.2229748  38.8419080
  80.2968979  78.2868528  39.0058541  79.5777369  79.5136309  39.5243096
  25.0154853  18.5712683  53.3170891  25.7614541  18.0765462  52.9779530
  25.2332497  19.4859576  53.1377745  76.6892624  34.8223734  65.2487087
  77.4206400  35.2964497  65.6444025  77.0867300  34.3181324  64.5387840
  34.1112280  76.8509579  16.4923084  33.2254720  76.8493462  16.8551660
  34.2609334  77.7592468  16.2299550   8.0258566  71.3850069  20.0139523
   8.5441715  70.6484556  20.3380990   7.2252148  71.3635302  20.5381107
  68.4740305  55.2591562  62.4790239  68.4846020  54.3511724  62.1762228
  69.2412663  55.3312302  63.0468225  45.1497555  49.2751122  72.5275755
  45.3683615  48.3911991  72.2323847  44.2094421  49.2431116  72.7036810
  30.7543063  23.5350132  41.2791872  30.2473235  22.9178619  41.8067551
  31.6668963  23.2984900  41.4449215  69.4915676  58.9165831  33.8201690
  70.0002718  59.1428232  33.0415344  69.3160295  59.7566843  34.2440224
  75.1456547  63.3241272  27.0498514  74.7450876  64.1355133  26.7377162
  75.9497309  63.2413054  26.5371752   4.3967861  85.5904675  32.7410460
   3.7535155  84.8849297  32.6728630   5.0968516  85.3351974  32.1402335
  19.5117927  76.2113571  52.6502800  19.6573746  76.3633347  53.5840607
  18.7832904  76.7896414  52.4242210  67.6365709  32.3904228  44.7562599
  67.3356771  33.2274580  45.1099110  66.9015980  32.0743418  44.2307711
  53.8750839  26.3011646  70.6428194  54.4700193  27.0086646  70.3943825
  53.0108166  26.6073966  70.3680563  69.7208357  53.1943321  31.7165589
  69.9574661  52.4399853  32.2561836  69.3694067  52.8126049  30.9121895
  25.2835727  11.9121778  20.7912254  24.7067857  11.7151642  20.0531650
  25.3741717  12.8649700  20.7767177  90.3922749  76.9825029  35.5167270
  89.8939419  76.4157581  36.1055374  89.9269009  76.9289732  34.6819830
  73.8167858  65.4387999  42.2721148  73.1863546  65.2212048  41.5854979
  74.2381239  64.6056414  42.4831867  67.5199318   7.8497249  52.5830746
  67.4135351   8.6842209  52.1264219  67.1023846   7.2076094  52.0089865
  46.7681360  15.2646565   2.6860997  46.6128635  14.6205246   1.9952914
  47.4453497  15.8396041   2.3296572  12.0310760  13.3524692  42.4825430
  12.8418028  13.8543499  42.5666237  11.3753057  13.8782597  42.9405212
  29.4969535  22.0222878   2.2566427  29.4292998  22.0255709   3.2114431
  28.7485647  22.5410938   1.9617143  76.3281870  71.3566780  19.1774058
  76.3918400  70.5246401  19.6463335  77.2294188  71.5601349  18.9271665
  76.1084986  67.5815010  53.2244349  75.3183413  67.5902319  53.7646246
  76.6949177  68.2085705  53.6476707   5.7417643   2.2677442  17.4605811
   6.4457190   2.7105683  17.9344869   5.9314907   2.4361639  16.5376139
  85.9120560  63.9367533  39.2181325  86.4084625  64.4903469  39.8209167
  86.3249111  63.0760193  39.2882967   5.4590911  65.8532476  26.4954948
   5.4735321  64.9173498  26.6958022   4.6525013  66.1723852  26.9002104
  81.6016674  56.8956137  37.2030425  80.9232426  57.5253439  37.4467921
  82.1176147  56.7786360  38.0007529   5.6880695  14.6379352  48.1945324
   6.2312418  15.3059566  48.6127949   6.3101202  14.0849388  47.7217913
  58.2440710   0.7205925  30.6520581  57.4897146   1.0215253  30.1454854
  58.9625454   0.6959195  30.0200629  13.5163319  67.6823568  48.8649082
  14.3165731  68.1534576  48.6327267  13.8229227  66.8385839  49.1969919
  36.1817718  16.0755944  43.6587667  36.7505670  15.5419087  43.1038952
  35.7647729  15.4475224  44.2485714   6.5199763  82.9680347  48.7664509
   7.4070251  83.3216381  48.7005472   6.1498076  83.3925343  49.5404053
  76.2385273  66.6120100  41.1598730  75.6127071  66.0244274  41.5833426
  76.2340832  67.3992872  41.7043114  25.0246716  16.2595987  18.9731574
  25.7521510  15.9209299  18.4513223  24.2532945  16.1295629  18.4215248
  25.0145912  20.0982118  49.6902418  24.1477346  20.5029774  49.6592951
  25.3674078  20.2200222  48.8088131   5.6587189  77.4507189  33.1642818
   6.5085751  77.2648668  32.7649903   5.8648872  77.9961491  33.9233828
  76.3385201  62.3843336  57.7136374  75.5305958  61.8715096  57.7359486
  76.7224407  62.2643375  58.5822248  33.5394263  83.3793831  58.1442738
  34.3759012  82.9438114  58.3080387  32.9032636  82.6658154  58.0958271
  88.1442928  66.8232727  32.7114105  87.5853920  67.0110607  31.9573593
  88.0554295  67.5932550  33.2730722  58.7849092  61.9159222  16.5415645
  58.7432289  60.9637547  16.6302788  58.5167313  62.0842743  15.6382549
  30.5604482  31.3931823  14.5167172  30.7359719  32.0637107  15.1768780
  31.1267972  31.6270351  13.7813306  10.9415209   0.9641961   9.3918335
  10.4727924   0.4418537   8.7409240  10.5245328   0.7404563  10.2238750
  25.1383543  85.0831604  11.7056322  24.3203831  85.4416084  11.3611555
  25.8237600  85.5958366  11.2771320  54.7215748   7.4230289  51.0706186
  53.9527225   6.8560410  51.0103798  55.0984144   7.4098426  50.1908159
  87.0100021  39.8035192  43.8029146  86.6016293  39.2521453  43.1354904
  86.5034580  40.6155205  43.7855291   1.2387299  66.7735672  47.0317650
   1.6869929  66.1101627  47.5563478   1.9453844  67.2845173  46.6370487
  15.9677231   4.1749418  31.1368990  15.8832467   4.7755006  30.3963423
  16.1598837   3.3268663  30.7368064   6.8557239  61.6892576  21.5081453
   5.9984970  61.3162899  21.7137885   7.2225267  61.0982990  20.8505297
  39.1490727   0.0988548  25.4629254  39.2808079  -0.6593735  24.8937416
  39.7175222   0.7757251  25.0955939  42.9839945  21.3776517   5.1755726
  42.4057579  21.1650467   4.4429898  42.9090071  20.6275153   5.7654077
  47.0600939   4.6607789  19.2446685  46.1779690   4.2891788  19.2456245
  47.1171570   5.1443881  20.0687432   6.5457064  71.8139696  13.9179981
   5.9043211  72.4964571  13.7203419   7.3722607  72.1562290  13.5775626
   2.2118680  51.1617184  54.2297363   1.5037301  51.4696693  54.7953701
   2.1300653  51.6889048  53.4349918  60.9584332  73.0069304  45.5265903
  61.4534330  72.3577213  46.0263252  60.5640554  72.5084591  44.8108912
  48.9870977   5.6909704  38.8720322  49.7501040   6.2455469  39.0348148
  48.8485765   5.7456911  37.9264903   5.3110874  54.7094870  21.8978095
   5.3678447  55.6643581  21.9329166   5.1026285  54.5153809  20.9839702
  24.9034309  62.6124430  29.4862819  25.7773066  62.5990629  29.8766589
  24.5395541  61.7494583  29.6839762  43.2323742  23.7009454  60.0812864
  43.2423115  24.6577382  60.1073837  43.8092613  23.4358025  60.7976151
   2.7484959  24.1442800  32.1678257   2.5413299  24.7947598  31.4968657
   2.9326823  24.6601677  32.9527903  37.6766825  13.7170184  36.1067986
  38.5531235  13.3531463  36.2320065  37.1369147  13.2717025  36.7599273
  72.6833630  18.6099327  37.6283240  72.5031233  19.2228067  38.3411551
  73.0492163  17.8390276  38.0620146  29.7119093  17.2967887  56.5053701
  29.0946865  17.9296947  56.1383581  29.6943927  16.5619338  55.8922529
  44.2611408  13.0404592  44.8850393  44.2536497  13.5650039  44.0843964
  43.7297487  12.2729266  44.6735048  19.0131807  76.5591621  37.7923393
  19.1730630  75.6430435  37.5656319  19.6357453  76.7440557  38.4955168
  20.2135706  32.5422978   1.4087696  19.7246766  32.6180172   0.5893296
  21.1318898  32.5264740   1.1391978  86.9656563  70.2131462  37.7137256
  86.1636353  70.4893255  38.1572461  86.7374325  69.3789291  37.3035717
  74.1783619  65.2356195  31.3600826  73.6308432  64.5515871  30.9746480
  74.3946266  65.8110905  30.6263995  20.2048945  12.0161319  26.4070249
  20.2143335  11.9611299  27.3625946  20.0955606  12.9488683  26.2218714
  31.1290932  55.6109667  54.7319984  31.3471985  55.0497913  53.9878559
  31.9302106  55.6370544  55.2552176  88.4789944  86.0037613  18.3377016
  88.0188084  85.9344196  19.1741538  88.6758423  85.0985146  18.0968630
  21.3315892  27.1610761  55.6110907  20.5869412  27.7133632  55.8492327
  21.4653230  26.5976405  56.3732481  25.4715776  83.9982891  36.4071918
  24.5399594  84.1986561  36.3167763  25.8319426  84.7452736  36.8850923
   7.2417963  66.1674118  28.3473063   7.7795398  66.9550848  28.2658792
   6.7201304  66.1495447  27.5449491   6.7128676  34.2524409  19.0216029
   7.5346571  34.0901589  18.5583985   6.7732042  33.7154913  19.8117137
  25.1871133  65.1954317  25.9404588  25.7387519  64.7624350  26.5919518
  25.2048135  66.1198997  26.1879945  22.1614313  16.1039555  45.6652927
  23.0376577  16.4599824  45.8126307  22.1549010  15.8590162  44.7399855
  53.7055874   6.8466818   6.0967666  52.7903557   7.1145606   6.1793470
  54.1829729   7.4445301   6.6720200  69.0791225  13.1162834  32.4427605
  69.9014902  13.5497296  32.2145724  68.4843445  13.8326669  32.6647067
  31.8860292   9.2218089  38.6744714  32.0264578   9.5481992  37.7856636
  31.5107751   8.3496702  38.5528564  24.8477411  33.9089608   8.6482382
  25.2298212  33.5920835   7.8298032  25.4848528  33.6657834   9.3199420
   6.9997513  81.4500427  28.4978795   7.4392790  81.3986683  27.6491117
   6.7743403  80.5433750  28.7061405  86.1720276  36.2102675  44.3613482
  86.1204052  35.4012942  43.8523006  86.0375309  36.9066978  43.7185955
  90.6388855  77.5916624  59.5583725  90.0838947  77.9882908  58.8868809
  90.8025837  76.7038870  59.2401123  41.9150496   1.3039388  53.8331604
  41.7944717   0.5040653  53.3214045  42.1722746   1.9637825  53.1892109
  10.9425640  50.9684467  62.2047377  10.5290282  50.9187794  63.0665684
  11.5623116  51.6942501  62.2779226  12.7096832  39.5132399  65.9822893
  13.3146262  39.8585176  66.6388416  12.0006430  39.1216540  66.4923429
  11.9865501  84.3738556  12.4249613  11.6057110  84.5687485  13.2812369
  12.3453319  85.2095985  12.1265709  11.0961890  59.7740793  30.2856398
  11.4064491  59.5320129  29.4130731  10.1451933  59.6766138  30.2372766
   5.9000993  82.2299480  10.8777440   6.5112042  82.8413296  11.2888348
   5.3968388  82.7685642  10.2671289  40.8529186  14.7047985  49.7370625
  40.0474930  15.1018512  50.0685358  41.3604069  15.4413629  49.3962383
  84.0838909  77.0657587  16.8067932  83.6260319  76.4037037  16.2888324
  84.0830898  77.8461885  16.2525761  29.3845892  29.6352172  16.1148775
  29.8350573  30.2481771  15.5338514  28.4556508  29.7593379  15.9202003
  41.1373186  28.7811613  52.3995686  41.5971327  28.6049438  51.5787411
  40.3229523  29.2066932  52.1313190  32.0573950  29.0877938  26.7786169
  31.2819767  28.9158463  26.2443972  31.9034815  28.6005306  27.5880098
  35.9475517  32.0181012  74.0751839  36.2568283  32.6858521  74.6872997
  36.7471576  31.6237330  73.7268543  53.1536007   9.1672760  71.1799479
  53.0532074   9.7735447  70.4460621  53.6449003   9.6632290  71.8348455
  40.4451561  15.0994468  44.5788431  40.2663660  14.5977759  43.7834883
  41.3742447  14.9489748  44.7531509   4.6234432  55.4757738  31.3321900
   4.0783739  55.5330944  32.1169496   4.4769204  54.5889664  31.0030508
  17.4226189   4.1756997   8.4022146  18.3496141   4.3392426   8.5759014
  17.1113920   4.9796772   7.9862940  -0.2021419  84.1235256   8.4039414
   0.6699108  84.0743256   8.0123603  -0.2754470  83.3248997   8.9264929
  24.3388557  22.0627403  32.7983379  24.2471528  21.6399860  33.6522126
  23.8523507  21.4978886  32.1979332  88.0631542  67.6043606  51.3138819
  87.6467896  66.7496490  51.4250040  87.4006653  68.2326746  51.6012287
  20.9442210   0.9551117  45.8992100  20.6007838   0.0943290  45.6597614
  20.7730699   1.0285579  46.8381166  84.3951988  71.9259548  21.7472720
  85.3302956  71.8313122  21.5659404  84.1148090  71.0527658  22.0214105
  31.8869042  18.6076319  42.7669096  31.7333722  19.2268372  42.0532990
  32.0532775  17.7732265  42.3283672   7.5745010  62.3462534  17.6437140
   7.1502173  62.2923422  18.5000479   7.5331265  63.2745457  17.4139369
  82.9374218  85.3729916  52.1110821  82.5026608  86.2052441  51.9251394
  83.8130379  85.6211853  52.4075985  43.3067703  81.3373661  19.4241095
  43.9268446  80.9984970  20.0697947  43.5416603  80.8922863  18.6098838
  28.4661102  13.9634395  43.4211349  28.3991218  14.8013842  43.8789463
  28.6558676  13.3279288  44.1113186  26.9543123  79.8465109  35.2713037
  26.2005281  79.6564531  34.7128081  27.6206732  80.1782799  34.6695352
  55.0140142  10.6284738   1.4570476  54.5030260   9.9956071   1.9616275
  55.7385874  10.8667779   2.0353556  52.7083158  79.2010593  64.3096113
  52.3768759  79.8971558  64.8769140  52.0529938  78.5064268  64.3749619
  55.4058218  12.7195644  29.9257970  56.0592842  13.2678223  29.4914746
  55.9163046  12.1447146  30.4960513   0.2904194  73.1465578   7.6284385
  -0.5586606  73.2982254   8.0435199   0.8482240  73.8502121   7.9600346
  55.3101826  20.8444762  23.9197373  54.9325800  20.1919627  24.5095444
  56.2152290  20.9401751  24.2163324  87.5728035  15.7577467  23.6484718
  88.1157780  15.3685880  24.3340158  86.7228603  15.3278017  23.7431741
  19.1264415  73.4583473  47.9778242  19.7042036  72.7912235  47.6071882
  18.5906374  72.9845524  48.6139536  23.2782912   2.1367711  31.2948990
  23.1571245   3.0404082  31.0033679  23.8891125   2.2018006  32.0289993
   5.0355750  53.9926004  35.8275127   4.3220279  54.0944624  35.1976657
   4.7427347  53.2916784  36.4099050  50.7329798  15.4096329  18.6357605
  51.5508127  15.0561035  18.9856195  50.0956583  14.7062624  18.7595284
  11.2212884  66.8321037  28.6897993  10.7437217  66.0037899  28.6445045
  10.5628669  67.4991274  28.4953928  41.8699074  74.6108675  27.1837282
  41.8059921  73.7558222  27.6092219  40.9832144  74.7893810  26.8704581
  70.9513855  54.1972637  54.2733431  70.3992224  53.7787247  53.6129141
  71.3536453  54.9357700  53.8161516  73.8357830   4.7906914  33.4618759
  74.4363451   4.5720679  34.1744471  73.3581686   5.5576301  33.7779832
  76.3808632  10.2972174  27.4227452  76.2951803  10.8868051  28.1719303
  76.3402748  10.8728719  26.6590643  51.6174269  11.2406659  27.0198441
  52.0731258  11.5369904  26.2319589  52.2881651  11.2510061  27.7026582
  52.7241659  21.6752028   7.2033000  52.2441578  22.2391534   6.5968484
  52.3907137  20.7954264   7.0271432  90.5674648  22.4680066  71.8622732
  89.9117088  22.4545789  72.5594378  90.6048298  23.3837724  71.5862131
  64.4414711  16.7524230  45.0863552  64.7526741  16.7701089  44.1813278
  65.2287865  16.8899310  45.6130934  41.4580870  84.4210625  44.6948528
  41.8209076  84.9103451  43.9564848  40.9981966  83.6848259  44.2914963
  54.2944622  46.4698792  33.2056665  53.9104319  47.3466206  33.2142377
  55.0469017  46.5437078  32.6186228  53.4242964  75.0439644  17.4119973
  53.6003637  75.9775257  17.2949922  53.6857367  74.8622179  18.3146882
  42.7003813  56.9310093  47.1214390  41.8522930  57.1243525  47.5209332
  42.9044676  56.0418272  47.4111557  11.6761935  84.2385292  27.6984119
  12.3422205  84.9258518  27.6835346  10.8738387  84.6881962  27.9634619
   8.6755395  73.5094738   2.5885683   7.8455043  73.4523582   3.0618668
   8.4558761  73.9605331   1.7733817  75.3016615  42.3280048  10.0809014
  74.3560076  42.2450590  10.2037418  75.4021692  42.5913763   9.1661519
  21.0649252  74.7741079  27.4813414  20.5193615  74.5444012  26.7291260
  21.3254285  73.9319515  27.8543591  62.7408552   1.5255733   1.5831016
  62.1839237   0.7528147   1.4887308  62.8888988   1.6004270   2.5258160
  67.1527243  14.9243116  21.9501925  67.4751186  15.7987833  21.7320323
  67.4154854  14.7925282  22.8611374  36.3179135  78.5248280  66.9096613
  35.9178805  79.2639637  66.4515257  36.4298368  78.8326979  67.8090572
  69.6875858  13.2014251  38.7469029  69.3796253  12.2986078  38.8263655
  69.2793417  13.6592948  39.4816971  15.6286168  76.1721134  29.6528697
  14.9341071  76.3337612  29.0143108  15.7675958  77.0197344  30.0753117
  21.2527728  66.9400358  16.1337745  21.9959235  66.4624548  16.5023839
  20.4882550  66.4175892  16.3762534   1.1823390  68.5033607  12.0650685
   1.9537765  67.9399538  12.0043182   1.4097279  69.1495419  12.7336311
  37.6036286  84.9683952  11.9299257  36.9176650  84.3133545  12.0588243
  37.9453111  84.7882366  11.0541236  33.9497709  70.9317827  52.5028992
  34.6963120  70.3591633  52.3267841  33.2819986  70.3499222  52.8658772
  66.8063784  60.9165812  46.9600153  65.9337473  60.5533409  46.8090057
  66.9312811  60.8539915  47.9069662  64.4205236  43.4953308  63.1592846
  65.2234888  43.4312534  63.6763620  63.9613771  42.6723385  63.3269310
  31.8757820  24.0720558  26.7197108  32.4313569  23.2938766  26.7644906
  31.1346459  23.8704085  27.2909284  52.1424913  16.6515064  30.2572799
  52.7955961  16.0220349  29.9515820  51.6110897  16.8400133  29.4837761
  59.0924536  32.4989680   0.4802585  59.8065172  32.1671418  -0.0640225
  58.9376437  33.3866100   0.1572109  23.4763908  58.9688206  49.3869066
  24.2671490  58.4367943  49.2981148  23.2514691  58.9104652  50.3154707
  61.5666103  22.3914957  22.7243042  62.4340057  22.4456811  22.3231435
  61.0695744  23.1008792  22.3169184  19.9826813  62.7916193  52.4470711
  19.9692380  62.9301119  53.3941031  20.0216150  63.6733627  52.0766020
  18.6232901  53.9621067  22.5612354  19.5222867  54.2859507  22.6174688
  18.3271444  53.9184046  23.4704232  52.7055168   0.0480405  29.3310022
  53.0856276   0.7728432  29.8273969  53.3029175  -0.0765032  28.5935497
  44.2194557  18.3846068  40.6487942  45.0856781  18.1693280  40.3030396
  44.2504978  19.3290186  40.8016157  73.1683302  15.2584434  13.7537277
  73.8689327  15.6372488  14.2846608  73.6100101  14.6180952  13.1959593
  20.4684138  82.9867077  56.9878387  20.8825445  82.2818756  56.4899015
  21.1686802  83.3324051  57.5413275  33.8862991  70.7471180  31.2923527
  34.3155861  69.9296665  31.0399318  33.5863328  71.1252880  30.4657674
  40.2613211  75.9937096  30.1158357  39.7920084  76.1670589  29.2997909
  41.1837912  75.9707022  29.8613715  74.1530228  27.1006775  48.1535625
  74.8088837  26.8622518  48.8087177  74.5629454  27.8032017  47.6489258
  69.0758657  64.8838568  27.4333024  69.1789961  64.8320532  28.3835196
  68.6590099  64.0566206  27.1921730   8.4671003  83.4456539  43.2627583
   8.3258814  82.8219509  43.9750004   7.8043884  84.1221809  43.4018993
  66.2985182   4.1826189  36.8768811  66.4148855   4.4618037  35.9687257
  65.3498125   4.1236597  36.9896412  32.9381156  80.1577282  23.7802720
  32.8569388  79.2471361  24.0639329  33.0407572  80.1043606  22.8300881
  25.8077216  20.0360775  42.2086668  24.9593472  20.4583454  42.0738125
  25.6261158  19.1003454  42.1211672  34.8496914   8.2692146  14.2835748
  34.9639487   8.4280384  15.2205658  34.6370602   9.1284239  13.9191854
  27.5180364  42.3966980  17.8050923  27.8434300  41.6009712  18.2260108
  27.8446269  42.3432541  16.9069195  66.5888548   9.3272877  10.8525431
  66.2939215   8.8458353  10.0795949  65.9896231  10.0711453  10.9144628
  26.2393260  13.7795985   8.7608176  25.5074310  13.1671727   8.8349611
  26.2550092  14.2369843   9.6015227   8.0552882  81.3896847  52.3829412
   7.2459239  81.8421841  52.6204300   8.7132096  82.0834732  52.3378706
  30.0821400  78.6688852  42.6161861  29.1532922  78.4468269  42.6806831
  30.3846145  78.6997366  43.5238123  31.1192632  60.5853367  50.2218580
  31.5358472  59.7520876  50.4418230  31.7894220  61.0677099  49.7376728
  39.1880941  69.9317026  31.6822553  39.3652725  70.8692503  31.6058135
  38.6946797  69.8469353  32.4980903  54.1341448  29.8557425  24.7998309
  53.9353609  29.6991348  25.7229733  53.6222458  30.6320953  24.5729613
  82.9389954  65.9095049  12.2502780  82.9158783  65.4221058  11.4267862
  83.6913681  65.5500317  12.7203166  67.1019745   6.0869557  46.9838715
  67.2719955   6.9370568  47.3896503  66.1513186   5.9852755  47.0302248
  40.5361366  69.0755033  39.8557878  39.7293282  68.8698339  40.3280067
  40.3682375  69.9283266  39.4548678   4.6178260  82.2829056  46.5183973
   5.2262300  82.4148273  47.2454977   4.9013060  81.4625931  46.1147165
  10.7922888  65.9719610   2.0218730  10.2712870  66.7225409   2.3072194
  10.5749619  65.2787256   2.6451099  78.0111647   1.2412754  33.8959241
  78.7898540   1.5527061  33.4345341  78.2174683   1.3623919  34.8227477
  81.3238621  28.5989094  17.0147049  80.5998516  28.6609888  16.3916504
  81.0398865  27.9386282  17.6468611  48.3786964  20.1878071  17.9818082
  48.8921213  19.4080615  18.1930470  49.0220976  20.8172345  17.6560903
  10.3614581  78.5666513  32.5394154   9.4397718  78.3083630  32.5358129
  10.8405495  77.7433443  32.6335859  11.4829886  80.7814789  31.0406208
  11.0276723  80.2624702  31.7036057  10.9584928  80.6703949  30.2476549
  20.5154777  19.0038514   0.8628247  20.6107521  19.8171508   0.3671442
  20.2659869  19.2872667   1.7424059  15.3722286  55.7855415  26.1567211
  14.8854232  55.6498909  25.3437924  16.2251997  56.1144924  25.8730650
  29.2698216  59.3855953  48.1068373  29.8657346  58.6425018  48.0123186
  29.7095490  59.9679661  48.7262821  76.2675095  27.7933049  44.3155909
  75.9235859  26.9011378  44.2710018  76.7202425  27.9174399  43.4814119
  50.6039238  12.5571990  46.1199474  50.3347158  11.7045999  46.4617586
  49.7845840  12.9851806  45.8714628  40.7829618   4.6170777  42.8065920
  40.0677395   4.4215474  43.4119463  40.4132080   4.4550917  41.9386768
  62.9551840   1.9817771  44.0904045  62.2436714   1.6335779  44.6277475
  63.4819317   2.5012094  44.6978235  50.3098059  30.2483869  61.3879681
  49.7837496  30.9835005  61.7027855  51.0393286  30.6577945  60.9227705
  58.3994675  46.2998438   8.7180185  59.2875862  46.3810921   9.0656865
  58.4340000  45.5299616   8.1502849  23.6978197  79.8937607  32.2297239
  23.1928182  79.7086906  31.4379191  23.8610101  80.8363056  32.1948814
  27.4455905  32.4102855  14.1892552  26.7179060  33.0270076  14.2690110
  27.7933741  32.5625372  13.3105636  81.7558384  52.1662426  56.4208889
  82.4165916  52.8045940  56.6894770  81.0513783  52.2669315  57.0610619
   9.0285492  82.5955486  38.0557609   9.6431673  82.3523808  37.3634124
   8.5968173  83.3839512  37.7267361  30.4277778  71.0483313  37.1166539
  30.5872941  70.1633358  36.7886806  30.9828448  71.1196423  37.8932166
  77.5948381  68.9756775  33.5378814  78.1447029  68.1931257  33.5765004
  76.7503929  68.6594391  33.2167315  50.6025553   9.7691959  30.5676007
  51.0264349   8.9128822  30.5102777  50.8270407  10.2031481  29.7444844
  90.5349541  37.8563166  31.9368982  91.0590839  37.2403479  32.4488568
  89.7240734  37.9534960  32.4361658  65.4095602  56.8267298  71.9706392
  66.2263775  56.9675398  72.4493980  65.2114534  57.6776171  71.5795088
  20.4946899  60.0054646  43.3262825  20.9655285  60.4772472  44.0132809
  19.9325788  60.6672239  42.9233694  65.0753069  28.9820814  42.2254848
  65.8036327  28.4383726  42.5257397  65.1510000  28.9781976  41.2712908
  50.5658531  25.0762439  11.2794435  50.0624371  25.1090121  12.0929134
  49.9042559  25.0865769  10.5877686  61.8467665   1.1132261  24.3176723
  62.0295286   0.1957359  24.5202613  61.3825655   1.4407411  25.0880504
  54.5022583  13.6176693   1.0766691  53.8209581  13.9541578   1.6587637
  54.4966650  12.6717484   1.2230702  57.3493147  23.1048131  30.6426668
  57.3841143  22.2252083  30.2667499  58.0915785  23.1368899  31.2461948
  34.2855859  60.6994009  30.5321908  34.7573185  61.5312386  30.4903841
  34.7276378  60.1409674  29.8926806  73.4632063  55.7453060  -0.0396068
  72.6431322  55.4065418   0.3194808  73.9406824  56.0737324   0.7222245
  43.2442093  13.8746870  39.5103192  42.6015949  13.2030690  39.2818332
  42.7966261  14.7030091  39.3377519  22.7661014  51.0710907  41.8972445
  22.8674984  51.3837862  40.9982586  23.2095265  51.7300272  42.4314785
  39.2712116  73.6216021  19.7668278  40.1224041  73.1842995  19.7885144
  39.4699931  74.5196342  19.5017540   2.5910032  82.8168583  57.0795250
   2.6609135  83.0105114  56.1447287   3.3684501  83.2195759  57.4663448
  50.6450748  26.5254188  63.0277109  49.7444916  26.8454432  63.0803156
  50.9700441  26.5757680  63.9266491  52.9705763  29.1533136  57.5285816
  52.3019791  29.7796917  57.8058195  52.6276159  28.3015513  57.7989721
   4.3298715  19.4568217  57.5188398   4.5243418  20.1961231  58.0949020
   4.8478737  19.6239829  56.7314625   8.1746244  73.3361530  15.9594369
   8.4382600  72.5161886  16.3770330   7.2228462  73.2702589  15.8819270
  66.0350800  20.1230550   9.9580985  66.1560869  20.2327943  10.9012556
  66.8235636  19.6649265   9.6671611   8.8322282  50.9553719  11.9211149
   8.4064317  50.1678514  11.5823793   9.5825952  50.6275606  12.4168181
  11.6982806  77.4388075  41.5974188  10.7779491  77.1970129  41.4937019
  12.1247649  77.1015739  40.8096266  43.3218956   9.7145760  37.4974513
  42.9837561   9.7873008  38.3899784  44.1015434   9.1655242  37.5806975
  74.0631962  48.7640762  60.6658697  74.0587568  47.8238630  60.4863787
  74.8977137  49.0715456  60.3119326  66.2796497   4.9877745  25.5098486
  66.7264128   4.8101801  26.3375521  65.8636236   4.1571397  25.2791953
  32.8788757  21.9833970  10.4366541  32.6205802  22.7642965  10.9262574
  33.1002784  21.3405871  11.1104560  87.3905373  75.7549286   8.3907813
  86.6003418  76.2357378   8.1445396  87.9628563  76.4171505   8.7782776
  69.0811348  28.6874652  28.9380383  68.7207890  28.0579567  28.3134580
  69.2823124  28.1657100  29.7149086  67.9794836  12.7371347  29.0236378
  68.5389233  12.2402143  29.6205711  67.1588659  12.2449851  28.9989495
  90.8468151  82.8002548  74.2072392  91.2097073  82.4340248  75.0137234
  91.6135216  83.0280590  73.6814213  12.7777660  86.1542702   9.2644989
  12.2093129  86.7294979   9.7765505  12.2394967  85.3833008   9.0853077
  56.5015173  12.8831136  47.3743916  56.8262386  13.5223544  46.7402315
  55.6660318  13.2435930  47.6714706  62.1355772  45.4335880  22.3736358
  61.4915323  45.6540537  21.7007041  61.9483852  46.0383272  23.0916047
  62.8904152  26.8021750  61.2154198  63.1328440  27.4081302  60.5152178
  62.4861431  27.3566818  61.8827438  33.4498906  75.9694910  67.7214956
  33.1543469  76.2855101  68.5753202  34.1245365  75.3220320  67.9261446
  16.3190162  60.1446962  32.7791548  16.1090612  59.4266510  33.3762789
  17.1134698  60.5348206  33.1436801  50.9042597  29.8374653  16.3885629
  50.0594568  30.1958513  16.1163557  50.7327557  28.9078784  16.5391767
   1.2758584  59.1555595  63.0557680   1.3207817  59.5225477  63.9386797
   0.3469013  58.9679289  62.9213572  86.3000870  81.0985565  17.3594213
  87.1895790  81.1631870  17.7070677  85.7567692  81.5484238  18.0064583
  70.6592989  10.2132225  21.8843961  70.6317091  10.3953528  22.8237057
  70.9845591  11.0237885  21.4927077  38.7242508  81.7805290  33.0937457
  37.8181243  81.8940067  32.8068805  39.1734171  81.4173412  32.3304796
  64.6688318  75.0511980  38.3071208  64.0836000  75.4456663  38.9537525
  65.0547409  74.3010616  38.7594485  61.8729162   8.5134625  30.1103759
  62.7378321   8.3316010  29.7428441  61.4131594   7.6750219  30.0670886
  75.7029915  50.0848770  38.9481688  75.9270668  50.7073021  39.6399808
  75.4765415  50.6330872  38.1968927  18.7782693  84.9137306  29.9690509
  19.6701169  84.8288536  30.3061509  18.7139797  84.2422199  29.2899561
  47.2900009  17.4918914  19.7060335  46.5015221  17.8422928  20.1204634
  47.9768801  18.1204271  19.9282360  82.4493980  55.2284241  63.4600592
  82.8633022  55.2507257  64.3228579  82.3110962  54.2976332  63.2847500
  12.7205598  82.3860645  52.0322847  12.3641014  82.1893597  51.1659861
  13.6698222  82.3656273  51.9109774  43.9070368  72.9345989  40.4704189
  44.6757841  73.2618618  40.0033522  43.2726383  72.7397966  39.7806191
  31.6805363  77.8738403  14.6926641  31.2020731  78.1156349  13.8996696
  32.5872493  78.1201267  14.5097911  43.6395359  84.8162365  18.3082068
  43.4182024  84.2631054  17.5590169  44.4566345  84.4481945  18.6445510
  90.5734825  79.3945551  29.3541694  89.9756622  80.1148224  29.1540337
  90.1736355  78.6294699  28.9406490  16.7260492  70.8018064  43.1968784
  16.1768067  70.1183939  42.8128052  16.1086106  71.4811802  43.4678936
  61.3896751  17.5806618  34.9650884  60.5282354  17.2178757  35.1713228
  61.4466667  18.3772504  35.4927516  49.8994350   2.3997283  19.0183032
  50.6486368   1.9441557  18.6344028  49.7642374   1.9692586  19.8624885
  65.9721565  72.0371962  34.5389462  65.2025366  71.5752506  34.8714042
  65.9441614  72.8909588  34.9708414  46.9728374   4.0951899  40.7413435
  46.4450407   4.4997102  40.0528526  46.9788361   4.7401047  41.4486504
  56.0825443  15.0544178  21.2063599  56.3405848  15.3010392  20.3182030
  55.2727795  14.5571864  21.0911560  15.6449163  24.5101213  26.4009643
  15.3681719  25.4012299  26.6144323  14.8367584  23.9975023  26.4191699
  70.8153677  15.1985490  15.3776252  71.0745764  14.7174740  16.1635077
  71.5862608  15.1651418  14.8111916  38.1481814  47.7863836  29.0274000
  37.6614165  48.2010221  28.3151031  38.9753819  48.2666588  29.0635490
   5.8807927  78.4806967  19.7266901   4.9383533  78.3285141  19.7965455
   6.0854185  79.0577221  20.4624891  22.1468067  20.0294042  37.0263028
  21.9408274  19.1134775  37.2130775  22.4794412  20.3739095  37.8551006
  77.2990322  24.8460674  24.4346905  77.4532127  23.9841366  24.0479922
  76.3610077  24.9966979  24.3178129  87.5047779  61.5007782  39.3484211
  87.2938442  60.9756947  38.5763931  88.1943798  61.0073757  39.7925425
  56.2240171  46.2267780   0.9211805  57.0894384  46.6343498   0.9553091
  56.3885260  45.3423357   0.5941894  27.6705503  68.7146187  47.1711540
  27.6967549  69.1769600  46.3334274  27.9004049  69.3803215  47.8194141
  49.8566580  75.2220774  56.4971161  49.0902662  74.6812773  56.6879225
  50.0280046  75.0749969  55.5669355  68.9402962   3.6437598   5.1628047
  69.6683407   3.1311134   5.5140460  68.5583973   4.0731156   5.9283376
  64.1543102   9.9925452  13.8255835  64.5726490  10.7930863  14.1423798
  64.0106487  10.1504827  12.8924978  44.5091915  65.0087261  35.1706839
  43.6864662  65.1870632  35.6262589  44.5537806  64.0538168  35.1217747
  28.2630777  11.0385132  30.4020882  27.7250719  11.3319540  29.6667814
  29.1403103  10.9388804  30.0322676  48.0232000  79.2198420  58.1494141
  48.8550186  78.7714386  58.3018732  47.4612427  78.5539341  57.7531767
  57.7112961  11.3261545  27.2260141  58.0321646  11.1554635  26.3404965
  58.3503389  11.9331062  27.5994754  24.3884659  83.7504482  31.8325233
  24.6648598  84.1209888  32.6706982  24.6349835  84.4113922  31.1855173
  18.8112295  23.4950638  40.4300213  18.2827711  22.6976109  40.3978729
  19.1828763  23.5007095  41.3121128  30.3753567  74.1930866  33.4129691
  31.0411692  74.8430157  33.6377358  29.7280478  74.6798944  32.9028296
  26.3863921  79.1456795  18.9142096  26.7621469  78.9064646  18.0669701
  25.8736777  78.3801174  19.1735709  26.1527681  22.8790784  63.1222010
  27.0047188  23.0054259  63.5398722  25.6983876  23.7120914  63.2481384
  63.5867548  50.4201317  55.6805325  63.0939674  51.0894346  55.2057362
  64.2667341  50.9078979  56.1452341  83.2806492  20.4931784  15.0168371
  83.8913155  20.8158636  14.3541217  82.5558662  20.1216054  14.5139945
  49.9553251  39.2170763  26.0943127  49.7256231  38.6705780  25.3427744
  49.7981167  38.6571527  26.8545771  45.6730604  26.1416149  11.6833091
  44.8217678  26.0590506  12.1130979  45.6734133  27.0275021  11.3207650
  66.7419481  39.0083623  30.3119445  67.1664190  38.3462071  29.7664142
  65.8308315  39.0122557  30.0185442  65.0492954  21.7931414  40.4276323
  64.1412544  21.7980504  40.1248693  65.3030062  22.7160382  40.4389048
   6.7537582  61.8244696  24.8569083   7.2264004  61.0178280  25.0622630
   7.2822750  62.2458172  24.1791391  59.3096209   1.5116400  64.6537924
  59.9251938   1.7249398  65.3550816  58.6594391   0.9455490  65.0697660
  57.1226120  34.0534902  16.1950815  56.5485048  34.8153377  16.1162257
  57.0407486  33.6038232  15.3540528  82.8586292  55.1136160  35.4559398
  82.3600960  55.8078384  35.8869290  83.0625057  54.4945621  36.1569667
  78.8855743  40.9878778  62.4027967  79.7863483  41.3021851  62.4805927
  78.4916878  41.1764717  63.2545710  83.1775093  72.9242134  69.8562765
  83.1022072  73.8784456  69.8551702  84.0898418  72.7556801  69.6207142
  67.4088430  40.8919525  34.8573375  67.5170374  40.0959730  34.3368173
  66.4633226  40.9673786  34.9859190  49.9498415  41.4264393  22.7235460
  49.6829414  40.5087614  22.7770901  49.1590118  41.9190741  22.9429340
  72.7582550   1.3646831  36.9902515  72.7976418   0.4324441  37.2038198
  71.9875860   1.4494441  36.4288974   5.4815346  10.5204618  42.4087429
   6.3345653  10.7221818  42.0241928   5.6699181   9.8618871  43.0773401
  77.9708385  81.9547462  48.2576132  78.0052185  82.7455425  47.7193928
  78.0460835  81.2350845  47.6309872  43.9965296  31.9083905  18.2537746
  44.5354843  32.2024870  18.9881229  44.0109682  32.6408029  17.6376617
  79.2721415  50.1784039  41.1589718  78.6990452  50.7848549  41.6280222
  79.6630955  49.6385098  41.8459177  64.4329071  82.9118443  21.7945671
  63.7686729  82.6881886  21.1426449  64.2398405  83.8188744  22.0317721
  75.6258392   4.7039905  41.4473200  76.4069557   4.2678609  41.1069012
  75.4481363   4.2629543  42.2780657  62.1320057  22.4361205  39.9660301
  62.3638105  23.3274150  39.7050858  61.3361120  22.5386548  40.4878235
  40.8381367  79.5236063  19.4815528  41.6425610  79.8317003  19.8989356
  40.2878332  79.2317295  20.2083278  42.1346951  77.2011042  24.1724515
  41.8916988  77.8086519  23.4738302  41.5234518  77.3961020  24.8827958
  74.6256828  43.1049061  30.0547194  74.1559076  42.5556564  29.4271326
  75.5268049  42.7832794  30.0269747  58.9325714  38.2368541  55.0864410
  59.4582653  37.6415324  54.5521498  58.1235790  38.3544612  54.5885134
  77.6160955  23.7663054  28.5369015  76.8951607  23.1647730  28.3507800
  77.2325993  24.4294739  29.1108108  21.2214494  18.1743944  62.6315022
  22.0412135  18.6332643  62.8149652  21.4027405  17.2615039  62.8551006
  44.4291162  26.3966823  54.5482349  43.9571142  26.6342640  55.3463602
  45.2609301  26.0394835  54.8592472  65.9049225  11.4193046   3.4507602
  65.2206278  10.9794867   2.9462472  66.7236280  11.0659337   3.1027904
  69.6336126  27.7288699  11.0801363  70.2411079  27.4670935  10.3882873
  68.8283300  27.9597497  10.6170535   3.0160031  16.4747083  63.8406467
   2.7851200  17.3669374  64.0992069   3.3957803  16.5691733  62.9671049
  55.3219223  71.5330458  34.9542451  54.4467926  71.9049931  34.8445654
  55.2386951  70.6302834  34.6471119  67.6261282  20.1112938  19.6410298
  67.9247379  20.9099817  20.0759602  66.7130232  20.2886367  19.4151556
  83.3815479  53.1926155  37.2783852  83.2038975  52.3329878  36.8966651
  83.8882065  53.0038643  38.0682588  50.5044985  20.0478244  52.2828341
  51.4610767  20.0739074  52.2601080  50.2537918  20.8506966  52.7397490
  62.0010948  62.4500179  51.0169554  62.7596235  62.8015995  51.4830637
  62.3729515  62.0061493  50.2547598  55.6105328  37.6407838  19.7151136
  55.4105282  38.4097815  20.2488470  54.7600651  37.2307086  19.5577157
  85.9034920  68.4713078  60.0034189  86.0497761  67.5253820  60.0104332
  86.5585041  68.8104486  59.3933630  27.5378442   4.6126387  27.6919508
  27.0956326   4.1238332  28.3860326  26.9896674   4.4795135  26.9186378
  60.0354719  32.0155597  38.7974739  59.9116182  32.5034118  39.6116567
  59.1564226  31.9429564  38.4256744  86.1345387  41.4882088  26.1071444
  86.3154888  41.4051485  25.1708817  85.8977509  40.6032801  26.3847518
  70.8326721  27.3717546  19.7487462  71.2022448  28.2547212  19.7532654
  69.9600220  27.4792957  19.3704021  78.9219618  57.9614925  67.3763275
  79.1316843  58.6822510  67.9702568  78.5095453  58.3841705  66.6230106
  46.9353247  39.7011948  26.2870240  46.7383957  40.5152082  25.8235192
  47.8805542  39.5900846  26.1849260  78.3097887  26.6013861  39.0017056
  79.0125656  26.9087744  39.5742869  77.7980423  27.3867226  38.8078094
  70.6387329   5.0759965  52.3779249  70.2979708   5.1774633  53.2666445
  71.3684845   4.4634026  52.4697065  63.0855656  14.7324300  11.0627306
  63.6321592  14.1207421  10.5694699  63.6748028  15.4524970  11.2875199
  52.2059059  34.1816998  20.5967855  52.7342606  33.4850669  20.9863639
  51.6887426  34.5258212  21.3250399  67.2695732  17.1337843  38.3905339
  67.7268744  17.4019480  37.5935435  66.8896770  16.2823665  38.1737375
  73.2749557  47.3509359  29.5673418  72.3529720  47.0981836  29.6152115
  73.4722424  47.3609495  28.6307478  23.5386825  78.3367252  40.5589914
  24.2759848  78.5233307  41.1401939  23.0951691  79.1788006  40.4568005
  44.8313189  16.0792851  17.3664701  45.2849436  15.3139412  17.7196050
  45.5231762  16.6016543  16.9606400  57.8251839  18.9144802  32.1685410
  56.9742012  18.7435472  32.5720716  58.2883596  19.4568610  32.8069186
  77.9374838  11.7552495  70.6483889  78.2772112  10.8613586  70.6905365
  76.9884109  11.6480422  70.5851746  49.5687008  11.6925979  24.4835377
  49.7788763  12.4419749  23.9263177  49.8413658  10.9303784  23.9727449
  57.9721928  20.5647492  30.0298953  58.8505316  20.1888132  29.9714375
  57.6122856  20.2074647  30.8417106  80.1236343  23.8099170  69.8641253
  79.2950726  23.4578395  69.5389032  80.7202530  23.7459254  69.1183472
  70.9175158  39.7836733  24.5614624  70.9335423  40.6619215  24.9417901
  71.7965317  39.4387174  24.7181940  68.1540680  47.9671574  44.5041943
  67.2898960  47.7912474  44.1320515  68.3329058  48.8788939  44.2739916
  79.4664288  39.4272757  70.4047394  79.9919605  38.9877391  71.0732079
  78.5858202  39.0699530  70.5191326  70.3949833  28.0596042  57.2686434
  69.6364689  27.8636551  56.7186499  70.4092884  29.0150142  57.3253632
  63.3826208  43.7650585  20.6603003  62.9923773  42.8923321  20.7081938
  62.8434277  44.3007851  21.2421083  43.3368397   6.6162962  36.4655972
  42.6969194   7.2879195  36.7015195  42.8611565   5.7904434  36.5546203
  51.7186880  26.9230843  49.1113758  52.6333237  26.7313838  48.9041758
  51.2166786  26.3923120  48.4929085  57.7920580  30.0625467   0.9137025
  58.2876873  30.8328867   0.6359264  57.0955229  30.4132295   1.4687663
  64.8437595  23.4895992  37.6892424  65.3813124  24.1672039  37.2792220
  65.1397324  22.6730299  37.2869372  57.5330353  31.3153839  37.8145647
  57.0379114  31.5685725  37.0354748  57.1646118  30.4690385  38.0679250
  15.6280947   0.1371018  32.6873016  14.9101567   0.6777919  33.0166221
  16.4186192   0.5539251  33.0301738  69.4167328  29.1576457   7.4029809
  68.6450148  28.7987757   6.9649225  70.1575708  28.8060427   6.9092578
  22.6468062  85.9306526  10.4084754  22.6047325  84.9980927  10.6201506
  22.0652628  86.3471127  11.0445559  69.3801069  51.0846424  71.4468050
  69.6574068  51.8783760  71.9043207  70.1298141  50.8488417  70.9003878
  49.0643120  64.3971348  12.8228617  48.7872505  64.5598888  13.7245166
  48.6559629  65.0992441  12.3163819  87.8529167  63.2314396  36.0147929
  88.5283089  63.7106895  35.5348039  88.1172943  63.2993412  36.9322467
  59.7693777  13.6495614  27.6478457  60.4650402  13.6245251  28.3048534
  60.2042198  13.9503837  26.8499398  82.6285267  72.0369339  11.3804567
  83.3528614  71.4651060  11.6345799  81.8453026  71.5857267  11.6954231
  75.2725363  20.7771468  52.0032930  74.9623156  21.0507798  51.1400938
  75.5817986  19.8806238  51.8735456  70.8859539  50.4491186  64.5222616
  70.8729553  49.6530151  65.0535631  71.2167358  50.1633739  63.6706924
  10.7214534  42.4916458  66.8397474  11.4340985  42.1153641  67.3562574
  11.1542237  43.1042624  66.2450695  78.6995935  53.2003450  63.2097006
  78.9052868  52.2811794  63.3801556  77.9393625  53.3821011  63.7621880
  19.9635913  45.7057359  74.4407742  20.1647403  46.3323488  73.7457016
  20.7965400  45.5751788  74.8939663  62.5121403  42.1676826  32.4192166
  62.0224667  41.7798090  33.1444788  63.2476711  41.5710115  32.2806168
   5.6644648  19.6413970  66.7927361   4.7435787  19.9025249  66.7963886
   5.6974274  18.8879263  66.2033033  60.3381252   8.9882171  48.4322405
  60.1735115   9.7825551  47.9241467  59.4672108   8.6339617  48.6117935
  51.7882633   7.0155293  15.5981696  51.0990095   7.0713305  16.2600255
  52.4718332   7.6065749  15.9138119   7.7715653  68.0178070  63.4510851
   8.4318274  68.1910849  62.7800751   7.1950626  67.3634481  63.0565071
  64.6970081  26.1961079  35.9646416  64.3011141  25.5329227  35.3992343
  63.9869165  26.8122315  36.1446428  52.7152586  21.4911318  15.8006012
  53.3322191  21.6626143  15.0891316  53.1934214  20.9172702  16.3991630
  48.1222963  40.5127287  67.5331974  48.4508324  40.9512615  66.7483473
  48.8639688  40.5172348  68.1382847  44.8028708  56.6977310  29.3599916
  45.4274178  57.3810577  29.6033788  45.2007008  55.8862686  29.6754241
   7.1781546  81.0419369  35.4989958   7.8877783  81.5186214  35.0683665
   7.6081800  80.5573750  36.2036324  17.2376633  74.2177725  33.8289857
  18.0983269  74.5003271  34.1382647  17.4176276  73.7522221  33.0122209
   8.4060067  82.4857235  73.5939598   7.9238927  82.2408772  72.8041172
   7.7424413  82.8606892  74.1730213  74.6767712  75.9265184  73.0751181
  74.0626097  75.3300190  73.5031652  74.2623901  76.1370420  72.2383404
  56.3038969  22.3284817  45.0592756  55.3858519  22.0709944  45.1437330
  56.7734957  21.5037251  44.9348354  64.1987896  14.9297631  60.3693008
  63.8137770  15.6748259  60.8306885  64.7477007  15.3250885  59.6920681
  74.5416927  53.5345459  41.0939026  74.3770170  52.6141977  41.2990332
  74.4337368  53.9891624  41.9293022  90.8422470  31.3271642  43.5242987
  91.2477207  31.5647411  44.3581915  89.9460888  31.0822821  43.7548780
  54.4791460  35.2421260  27.8246641  55.1914120  35.5670571  28.3754182
  53.9769983  36.0243821  27.5962925  78.7345123   9.0913945   2.2435768
  78.5880136  10.0369620   2.2176416  78.5564804   8.8462567   3.1515655
  79.4133043  71.6609049  72.5210762  80.1081276  72.3134851  72.4339914
  79.8764753  70.8355093  72.6640081  51.3702774  46.0557985  61.6159534
  52.2091818  46.1053228  62.0742273  50.8286285  46.7246151  62.0349264
  87.2359657  16.7367506  59.2970562  86.7170334  17.0009029  60.0567722
  88.1129932  17.0756423  59.4765091  46.0994482  33.0598426  16.4634776
  46.0615206  33.8015962  15.8596599  45.4142666  32.4659991  16.1567008
  66.8256950  17.6950502  11.4158797  67.0413303  17.3783815  12.2930646
  67.6741600  17.8159738  10.9895980  39.6753478  45.8020306  14.3637908
  39.9188495  45.4237604  13.5188937  38.7399340  45.6173658  14.4482267
  75.4348803  45.7311058  30.2235532  74.6336174  46.2444401  30.1201177
  75.1286077  44.8479939  30.4297996  75.0317621  58.0186462  58.1357050
  75.7864761  57.4417686  58.0180311  74.4717932  57.5562668  58.7593031
  54.8270130  43.3497667  34.9147010  54.4181156  44.2100096  35.0096869
  54.2553711  42.8784657  34.3086243   7.5658309  41.1832380  16.3124120
   7.0733243  41.9128513  15.9364712   7.9523641  40.7406139  15.5568266
  74.3120003  35.9351659  45.8696413  75.1062632  35.4025722  45.8281517
  74.3707418  36.5125346  45.1084423  58.0924320  31.3377213   7.0339864
  57.9360008  30.3939247   7.0022017  57.5798750  31.6900945   6.3064253
  65.5017185  13.4959805  43.6368227  66.4130688  13.7189400  43.8264465
  65.2807617  12.8231621  44.2808151  36.7525744  41.3614511  22.2760963
  36.1662984  40.6063080  22.2284603  37.5548315  41.0695076  21.8432212
  47.6536274  70.6872654   0.3883111  47.3062801  70.2586842   1.1705514
  48.5146093  71.0100031   0.6543632  78.1125069  50.8705997  27.1907282
  77.8013229  51.7420864  27.4354935  77.7441931  50.2891779  27.8559542
  86.0351276  18.0047023  29.2826796  85.9019279  18.7944758  28.7585163
  86.4678669  18.3152461  30.0780010  23.0934858  44.4536734  72.1141672
  23.6146498  44.9905920  72.7111053  22.6302719  43.8410997  72.6854992
  46.0901594  74.1908026  32.2198868  46.2967920  74.6374035  31.3988614
  46.0352087  73.2652998  31.9818640  36.0434723  75.1223660  31.8598247
  36.8664670  75.5650759  32.0669889  35.5621266  75.1121902  32.6871300
   0.2489338  19.9148524  37.1395969   0.5238055  20.8312058  37.1708298
  -0.4281642  19.8908150  36.4634371  79.6627760  30.9277415  11.4987564
  79.9716854  31.6055393  12.0999181  79.0949392  31.3930631  10.8845365
  76.0175371  42.7909470  33.7423635  76.2974405  42.0869255  33.1573534
  75.0855970  42.6265574  33.8861990  23.0216765  77.6788759  73.0044222
  23.3420062  77.8296900  73.8937330  23.5496783  78.2607698  72.4577570
  81.4741135  40.9731197  69.1600037  80.8055782  40.4140949  69.5559740
  82.1398926  40.3626776  68.8432598  57.7012682  26.2965536  21.2990141
  57.0859718  27.0281434  21.3481617  58.5647154  26.7096758  21.2944770
  70.9800434  29.3665648  54.3885946  71.8930006  29.5083094  54.1382885
  70.8854675  28.4145808  54.4204617  88.3925819   0.3565546  53.0631781
  88.3366680  -0.3114419  53.7464666  88.8820362   1.0727305  53.4678507
   5.0736684   6.7601275   6.7486936   5.5882663   7.3095936   7.3398858
   5.1169020   5.8858013   7.1358836  66.8608665  34.8497653  41.4247656
  67.5357151  35.1080918  42.0525169  66.5764380  35.6725168  41.0267544
  62.5469780  37.6553965  41.3530254  61.5922546  37.6325631  41.2881422
  62.7285194  38.3696818  41.9638205  13.3948994  31.8381000  18.9716446
  12.5381887  31.6174793  18.6061239  14.0157843  31.3280058  18.4515131
  60.7852602  57.4757099   1.1635630  60.4031038  57.9259300   1.9168830
  61.5026712  58.0441236   0.8834551  87.5887871  15.2775705  30.3849578
  87.9422379  14.4032025  30.5486250  87.9053211  15.5040312  29.5104551
  57.6620245  20.7589674  25.0469065  57.6277494  20.0885153  25.7292199
  58.4673452  20.5696964  24.5653772  75.3100395  15.8228266  58.3160925
  75.1605797  16.1775601  57.4396992  75.6223822  14.9309909  58.1634331
  38.9260745  79.4052649  38.7391043  39.7791004  79.2023563  38.3551717
  38.9240623  80.3583145  38.8280869  22.4788690  81.1248302  43.4930134
  22.3725843  80.7459545  42.6204395  21.7763281  80.7327271  44.0115881
   0.4070773  16.0491002  55.1381302   0.5200080  15.1082087  55.2730417
   0.0698982  16.1242938  54.2454481  66.9186115  48.7954473  35.1954651
  66.9678926  48.3446169  34.3525219  66.2845659  48.2877636  35.7018971
  84.0768909  21.6122842  24.8069215  84.5230770  22.3570347  25.2100372
  83.2376480  21.5597105  25.2642345  66.0260010  40.3003120  22.6674271
  65.7125950  41.1944914  22.8032517  65.9123755  40.1465607  21.7295146
  62.4245358  68.8981915  23.8451123  62.1275473  69.2872429  23.0225134
  61.7195559  68.3013010  24.0960360  43.2134867  60.9906626   4.7546309
  43.0459595  60.0482416   4.7576851  43.3462620  61.2073374   3.8317794
  60.7078838  29.4646978  19.3156648  61.1279011  30.1520038  19.8327959
  61.1759424  29.4732857  18.4807527  83.7186813  37.5251007  47.5007343
  83.9509964  36.6527915  47.1823978  84.1696358  38.1248832  46.9064903
  79.7077608  31.3092279  39.0195107  79.7760391  30.7530236  39.7955298
  80.3634262  30.9598446  38.4159684  36.9881916  64.7029066  61.2373352
  37.7033329  65.0151825  60.6829977  36.9915581  65.2954626  61.9890642
  67.7029324  38.6331201  33.0601835  67.7897072  37.7695274  33.4638047
  67.5053310  38.4494996  32.1417785  50.3661823  48.2067585  22.6749682
  51.0011530  47.5908184  23.0405641  49.5432997  47.9911613  23.1138444
  12.6815724  17.1583879   0.0595589  12.5058854  16.3384104   0.5210812
  12.2693408  17.8312552   0.6013573  79.1656399  37.6480293  53.7318516
  79.5672560  36.8318248  54.0297556  79.8500013  38.3074188  53.8462734
  80.2106857  34.9629998  14.2080617  80.2840614  34.6024990  15.0917399
  79.8874235  35.8543801  14.3391085  90.9109316  40.3018665  22.0742416
  91.1898089  39.9590540  21.2251616  91.7068890  40.6714439  22.4564672
  61.0997343  38.6881351   2.5118867  60.5714226  39.4833541   2.5807694
  61.9553614  38.9943242   2.2112440   1.7178909  20.1546407  22.5419998
   2.1335550  19.3535554  22.8609300   1.5065557  19.9670732  21.6274571
   4.8534781  51.0503435  48.6495924   4.6014774  51.6555309  47.9521132
   4.0225685  50.7490349  49.0170574  39.3400478  43.4741449  26.4534283
  38.7680745  44.2408371  26.4890170  38.7682319  42.7618074  26.1673641
  25.1102090  30.9613562  25.7091880  24.4493222  31.1424637  25.0408602
  25.4469204  30.0940323  25.4842329  77.3211765  38.0871964  40.5911398
  76.6295385  37.4291730  40.6609344  76.9569063  38.7571168  40.0125647
  80.8801066  52.4165755   0.2421070  80.6101881  53.0241995   0.9307075
  80.8650004  52.9403483  -0.5589318  41.4769125  58.0464602  41.6534472
  41.2940264  58.8813019  42.0845175  41.4624739  58.2514095  40.7185555
  46.8112993   1.9575106  44.6560383  46.0225964   2.3781279  44.9984741
  47.5008821   2.2035010  45.2726412  71.8498373  26.1705780  49.7625351
  71.0288239  26.4588857  49.3637276  72.5278139  26.6563678  49.2928648
  64.0017557  35.5346918  60.3139925  64.8888302  35.1810098  60.3791380
  63.6282635  35.1044631  59.5448112  61.4471674  76.8522167  44.4358206
  61.2343788  76.4602804  45.2827787  60.6055737  76.9193745  43.9847708
   7.4691743  44.0149736  26.0792327   8.2689703  44.4225407  25.7468987
   7.5716865  43.0853081  25.8756590  62.7745581  16.1562788  63.2138681
  62.3313999  15.3327811  63.0096769  63.4139252  15.9236586  63.8871622
  39.4894838  40.6540394  24.0709424  39.6659565  39.8122931  24.4911242
  38.6791945  40.9599543  24.4784713  85.0599957  43.3715773  29.2848802
  84.4865799  44.0241575  29.6868372  84.7816753  43.3394718  28.3696008
  67.7677298  53.3563757  74.3850422  68.3766413  53.0636120  73.7069988
  67.8102207  52.6746845  75.0556564  65.0770998  26.1527801  27.5087142
  64.7581148  25.2504778  27.5268865  65.3629971  26.3238668  28.4060550
  79.5627737  28.8125753  47.4473476  80.0685406  28.9377809  48.2503128
  78.6984253  28.5338283  47.7497292  57.3641920  40.7032728  33.8520598
  56.6554451  40.1554728  34.1894460  58.1581211  40.1930046  34.0118575
  85.9057617  77.2942686  45.5157137  86.3375092  77.4889278  44.6838903
  85.9256268  78.1223536  45.9954166  56.1886358  14.6812701   3.8873264
  56.4838314  13.9156759   4.3802339  56.3298321  14.4449377   2.9705700
  14.4156921  29.6590972  20.8099651  13.6945570  29.0465188  20.6652451
  14.0858078  30.4978490  20.4876208  80.5062962  38.0241680  27.3347735
  79.7540569  38.1205821  26.7507553  80.1555824  38.1994343  28.2079959
   8.7221730  40.5971956  41.8181467   8.4804165  40.2721453  42.6853991
   9.0328759  39.8222733  41.3499641  74.6152973  36.5110087   9.5242327
  75.5089521  36.7848444   9.7306907  74.5849228  36.4941120   8.5676640
  69.0017319   8.2240194  22.8511477  69.4762516   7.8130597  23.5737634
  69.6819401   8.6497623  22.3293352  55.3293467  64.7546339  21.7879462
  55.0829744  65.3374767  21.0697317  55.5034065  65.3415823  22.5237632
   2.0125350  64.8952484   4.9995351   1.6328283  64.7680426   5.8689451
   1.2682514  64.8298359   4.4012082  39.4967580  27.0721030   2.4674524
  39.6196866  26.2365413   2.0169440  40.2790689  27.5789165   2.2498170
  77.7837515  37.5587058  44.5822668  76.8334150  37.6068163  44.4784403
  77.9153633  36.9359732  45.2971840  58.1280851  56.4521790  22.9434705
  58.6919737  57.0498800  22.4525332  57.3237562  56.4031029  22.4268699
  69.2680407  18.1932974  60.9770727  69.6059608  17.4237955  60.5189180
  70.0470591  18.7084019  61.1869001  84.6237755  12.2126496  62.5258350
  85.3576756  12.0286393  63.1121492  83.9609528  12.6114392  63.0896330
  75.4246855  51.7799044  36.6606617  75.0900793  51.6178703  35.7786107
  74.7599602  52.3329592  37.0711517  82.2511482  27.1404409  32.6808023
  81.7010498  26.4831614  33.1069589  81.8602276  27.9779172  32.9298878
  62.9697800  48.9671421  44.1819668  62.8138494  48.8549519  45.1196957
  62.5283861  48.2216930  43.7748957  87.3464203  33.5180211  45.7699394
  87.5738239  34.3653870  46.1526823  87.5010777  33.6296439  44.8319340
   4.3085945  12.5507212  69.7638226   3.7889653  11.9326878  69.2497683
   3.7645137  13.3365917  69.8149586  50.1330471  48.3552361  62.7942181
  49.6794939  48.9228678  63.4173679  49.4594479  48.1090879  62.1602583
  84.3889046  28.6817050  30.1845026  84.4831371  28.3509922  31.0777998
  84.3114185  27.8949857  29.6447778  70.2751827  56.1050940  46.1693573
  70.7371521  55.2673340  46.1381435  70.6171751  56.5382004  46.9514656
  75.5753851  48.3524466  31.6510272  75.3148651  48.6645174  32.5176144
  75.7668972  47.4233246  31.7786360   6.1479342   4.5078099  45.0695515
   6.6906631   3.7934232  44.7358942   6.7633504   5.0853413  45.5211639
  73.4117937  39.7092247  45.1685238  73.8740349  40.2906370  44.5647669
  72.4853802  39.8446631  44.9694061  73.1010342  41.4416456  28.3822727
  72.9567957  40.7795715  27.7061939  72.9713106  42.2761917  27.9317904
  83.4682655  18.0273473  26.5922594  83.4821415  18.0674946  25.6360030
  83.1947041  18.9031971  26.8648100   2.4146131  44.0684795  27.8147864
   3.2504988  43.6233664  27.6755047   1.8198015  43.3762550  28.1033206
  13.7117863   4.0449762  66.4490080  13.8856697   4.9714324  66.6153669
  13.4570897   3.6922231  67.3016071  59.0631056  53.0635929  31.0138845
  58.3391619  53.5389185  30.6062031  59.4636345  52.5747061  30.2949977
  88.9813805  40.7355213  30.8797479  88.6098576  41.4311647  30.3372717
  88.8364506  39.9351025  30.3752089  83.8575459  44.0085268  19.3562865
  83.4390926  43.6543465  20.1409435  84.7721577  43.7356567  19.4287014
   6.3226390  65.4335737  46.4671993   6.1664850  64.8226833  45.7470179
   5.7503784  66.1773586  46.2787104  46.9411516  38.4449363  19.6962917
  46.8997812  37.7982521  18.9917934  46.3184977  38.1270266  20.3501010
  55.5084705  46.3880253   8.9672887  55.1458788  47.2703695   8.8883805
  56.4387274  46.4926100   8.7674862  82.1560955  21.8216658  19.9606037
  82.9837132  21.6286373  20.4010701  81.7936230  20.9624743  19.7446454
  73.5070181   3.8355529  19.4668961  73.8465118   4.2282712  18.6626887
  73.4002161   2.9084277  19.2541432  64.7120047  22.9678679  25.1761079
  64.5067692  23.7800813  24.7130561  64.7017860  23.2108283  26.1019039
  86.4392090  49.5879030  46.7366838  86.2027645  49.1459894  45.9211826
  85.9874058  49.0904808  47.4183559  62.9736567  47.9438162  49.7815943
  62.1164417  47.5893259  50.0177145  63.1289530  48.6401033  50.4197931
  58.0553865  19.3963492  17.3325467  58.1527758  19.0348756  18.2135022
  58.5084009  20.2388215  17.3679066  66.0105991  38.6174321  42.8163242
  65.7204437  39.3866992  42.3261547  65.2231264  38.0811334  42.9085255
  61.2904024  21.1376262  61.5014410  61.9119263  20.7950640  60.8591127
  60.9161568  21.9128180  61.0828209  77.2350216  21.2920737  38.6929631
  77.7717686  20.5002809  38.6583662  77.3815632  21.7178679  37.8482985
  76.7832422  44.9316120  16.6469038  77.0725965  45.5018759  17.3591554
  76.0702753  44.4177055  17.0261288  84.7318268  38.3730841  14.2003667
  85.5841064  38.2438660  13.7842548  84.3323517  37.5032330  14.2032337
  82.6001930  81.4582825  54.7510862  81.9844055  81.8351364  54.1225863
  82.3009014  80.5566883  54.8684835  73.1330633  26.3741088  32.5332808
  73.0439520  26.9563818  31.7787957  74.0107346  26.0021162  32.4463987
  11.4745712   3.9561886  24.2245436  11.1971200   3.0423468  24.1601491
  12.3659956   3.9609888  23.8758731  69.0385294  47.2667789  30.9860826
  68.7653971  46.5541697  30.4083085  69.1550779  46.8511438  31.8404198
  77.7733850  47.6180792  47.6099682  77.9460955  48.5222483  47.8724194
  77.8368807  47.6295948  46.6549492  50.8524561  19.9460721  58.4947205
  50.1964474  20.6028891  58.7281179  51.4920950  20.4235935  57.9664516
  74.8199129  49.7679615  29.2684031  74.7091103  48.9918470  29.8175836
  75.0124311  49.4198227  28.3977890  81.7436218  43.5340357  16.7584360
  82.4248600  44.0086937  17.2347069  80.9305859  43.9802456  16.9953072
  86.9656181  21.2969708  31.0566568  86.9191742  20.3847337  31.3428354
  87.8810978  21.5431762  31.1889386  80.3897858  75.8750868  27.1773863
  79.4978857  75.7036877  27.4796677  80.4494953  76.8295431  27.1363187
  76.3416862  58.7393284  31.7757869  76.1714315  58.8549042  32.7106071
  76.9626284  58.0120850  31.7335463  60.9367609  27.0739055  10.7216728
  60.6603813  27.9900479  10.6987143  61.2803602  26.9494867  11.6063726
  28.7023163  28.3884358  26.7485905  28.7189102  27.5151491  27.1401572
  29.0417528  28.2602477  25.8628225  70.5282402  56.6215849  34.8673892
  70.3246069  57.4531126  34.4392276  70.6421232  56.0024691  34.1463065
  50.7093239  85.2595520  35.9764123  50.1546192  84.7110748  36.5311289
  50.6346226  84.8713970  35.1046395  72.9525089  19.3605673  26.3595104
  72.3369551  18.6571550  26.5657663  73.4329891  19.0419745  25.5953979
  69.6863890  41.0944414  36.3759279  68.7777376  41.2577343  36.1231041
  70.0802517  40.6874037  35.6042862  44.0111828  17.2283363   4.6624097
  43.1966591  17.7305996   4.6397936  44.6902752  17.8628612   4.4334048
  90.8447456  29.5627379  67.0261908  90.4571533  30.1162267  66.3482141
  90.8804321  30.1230931  67.8014088  89.8651791   7.3869270  55.2533197
  89.7032070   6.7222655  54.5838261  90.4444122   8.0191928  54.8279190
  66.6093540   6.9261223  22.9081321  67.4587297   7.3645931  22.9585266
  66.6152906   6.3077843  23.6387849  84.2259693  59.9788713  21.4722919
  84.1350651  60.8677673  21.8155479  84.6005726  60.0963688  20.5993128
  20.5305314  83.9206791  53.2798195  21.3583541  83.9123058  52.7993298
  20.7444668  84.3296242  54.1184092  43.7702036  47.0052433  20.3073144
  44.1530228  46.1341381  20.4115033  42.9063702  46.9374561  20.7140470
  51.2358999  60.4740763  66.4623833  50.9796381  61.3189220  66.8322420
  52.1225166  60.3273630  66.7919636  77.5194263  53.1670618  34.7221661
  78.0380726  52.4097586  34.9936867  77.8699064  53.8942480  35.2365541
  90.0547218  12.6671326  62.5874901  89.5365715  12.4273980  61.8191957
  89.6738434  12.1566665  63.3020449  81.6435242  30.4361129  29.2209029
  80.8667469  29.9805641  29.5454478  81.9396687  29.9068379  28.4803629
  67.6295614  38.1343269  54.4406939  67.8527689  37.2042346  54.4041252
  67.8464174  38.4671021  53.5697937  43.1563139  79.8453236  35.0017285
  42.5157213  80.5565262  34.9938107  43.0520964  79.4386721  35.8619618
  87.7690697   0.4140390  29.9741244  87.3165894   1.0082592  29.3754649
  87.2491455   0.4415369  30.7773423   4.9009624  27.9862833  22.6386762
   4.2050758  27.6208782  23.1849861   5.1102734  28.8261461  23.0473971
  72.5193024  32.3967695  24.5409632  71.7006731  32.8512359  24.7398186
  73.1426096  33.0980301  24.3513560  62.0363617  65.7931089  58.3573055
  62.4679184  65.4014015  59.1166210  61.7572165  65.0456905  57.8284597
  63.2006073  61.9851732  61.9927931  62.9179430  62.7457047  61.4849281
  63.2986593  61.2874794  61.3448429  61.3186789  30.7356620  36.3745522
  60.6194544  30.3721189  35.8312774  60.8629465  31.2659621  37.0282483
   0.6720088  40.9309864  62.4822187  -0.1347383  40.6801128  62.0322704
   1.2441930  41.2535810  61.7859650  78.6037207  11.5455115  24.9862909
  78.2108021  12.4023521  25.1526308  78.1034756  11.1912727  24.2511010
  -0.1131096  32.3823047   1.2914461   0.0358674  31.9431710   0.4540692
   0.0796730  31.7146182   1.9496727  78.8485813  25.8952498  21.7077446
  78.5427094  25.8058619  22.6103425  79.7304344  25.5230784  21.7157269
  66.6324806  59.7939157  29.0389633  65.9548712  60.4670525  28.9759898
  66.3572693  59.1183186  28.4192419  71.6625547  47.2454119  11.7613912
  72.0360184  47.4792004  12.6111567  72.0067358  46.3706398  11.5810001
  18.8929951  31.3480997  55.2776241  17.9529798  31.1683178  55.2943659
  18.9665842  32.1981311  54.8437262  52.5507402  39.0014458  24.9870324
  52.4281645  38.2226110  24.4442391  51.7194128  39.1037416  25.4503536
  60.3833246  21.4204526  70.3623056  61.2289190  21.4035416  69.9140692
  60.1760626  20.4989457  70.5175447  78.7735415  20.7487941  47.3457050
  78.9722633  20.5868220  48.2679319  79.2368603  21.5607023  47.1398735
  91.0332298  17.7691567  43.6019468  90.4307270  18.4377754  43.9277983
  91.2603855  18.0612004  42.7191448  79.1799164  42.0833969  47.7408934
  79.4008589  41.3613081  47.1526766  78.2566643  41.9457865  47.9527903
   0.1155613  53.1866693  17.1355140  -0.1496175  54.0735960  16.8920684
   1.0042633  53.0992794  16.7908359  56.7273235   2.3873061  33.5386467
  57.0103168   3.2065958  33.9447379  57.1730518   1.7048134  34.0404058
  77.2696209  31.9928265  23.5343432  76.4816189  32.3797822  23.9158583
  77.9273415  32.6861358  23.5887146  76.0961771  45.2560568  43.4942913
  75.8684063  45.5178785  42.6022148  75.3449726  45.5262756  44.0224028
  70.0778532  19.2713487  23.2185698  69.7231436  19.4548237  24.0884829
  69.8197412  18.3669662  23.0405235  64.1263533  28.0174804  33.3734584
  63.4032679  27.5022340  33.0158257  63.8796520  28.1762338  34.2845917
  53.7556410  84.1038036  29.0231371  52.9082775  84.5037746  29.2186809
  53.5533953  83.4077930  28.3979249  34.8070788  76.6749859  23.7594008
  34.6195889  76.9962406  24.6413732  35.4589677  75.9861517  23.8889408
  68.3359003  70.6499434  38.7343884  68.7473822  69.7948122  38.8595366
  67.5841045  70.6429863  39.3268347   1.0962497  41.3774014  49.4588423
   1.7304289  40.9642792  48.8728619   0.2437882  41.1524820  49.0860796
   5.0201380  53.3344221  26.9227052   5.9366816  53.0811214  27.0323324
   4.8638430  53.2663298  25.9808111  70.0489902  17.9045928  55.7436514
  70.7405281  17.5656664  56.3120985  69.4303370  18.3229387  56.3423872
   1.4399521  30.5931258   4.7750700   1.7830764  29.7660518   5.1133698
   0.5932477  30.3626513   4.3927023  70.6526136  37.2381377  30.6754613
  70.5519438  38.1612754  30.9076524  69.7647810  36.9443011  30.4713774
  86.9567013   9.3008214  52.6141644  86.6272545   8.6946738  51.9506311
  87.9085732   9.2649305  52.5198507  82.8942871  36.8556595  71.0409117
  82.2977257  37.4427104  71.5053701  82.3848248  36.0572886  70.9020424
  87.7503395  47.5846100  28.9410448  88.4332848  48.0682039  29.4057608
  88.1463718  47.3604727  28.0989385  56.5298605  24.1993403  13.9241529
  56.4843798  23.5526395  14.6283841  55.6953239  24.1111350  13.4637129
  68.6241436  52.2557259  46.4482546  68.2772446  53.0280304  46.0016775
  69.1448069  52.6096678  47.1692753  58.9999914  43.2605076  21.1722660
  59.5412970  43.9815712  20.8508778  58.1298876  43.6442947  21.2811756
  79.4154787  35.8749819  63.4898996  79.3841887  36.6103029  62.8778887
  80.2177906  35.4061818  63.2602215  81.9265842  80.0572681  19.6673870
  82.7637386  79.6130466  19.5329678  81.9477654  80.3362751  20.5827761
  32.2538877  36.7547154  26.6504598  32.6743746  36.4354944  25.8520103
  31.3838148  37.0356107  26.3670826  63.8979816  30.9644127  46.3511324
  64.7521591  30.5324244  46.3535118  63.5682821  30.8383036  45.4613972
  80.4334450  15.2917230  30.5115414  81.0496998  14.8802066  29.9056435
  80.6700611  16.2191522  30.5006933  68.3852530  20.3668356  40.4380226
  67.8343201  21.0472035  40.8250666  68.3485460  20.5357242  39.4965577
  90.6287575  43.0209398  29.3884540  89.7462749  43.2259369  29.0795565
  90.4927349  42.5831223  30.2287173   2.7819782  48.9407349  41.7448997
   1.9653635  48.6164570  41.3651419   2.6513603  49.8858070  41.8224764
  85.0135994  35.6341577  61.7903662  85.6247425  35.3085399  61.1295319
  84.2155457  35.8336878  61.3009357  77.8731918   0.4456692  15.7348943
  77.5482702   0.8932637  16.5161228  78.6147499   0.9771632  15.4453421
  46.3585234  85.5913544  30.7723165  46.9168854  86.3637638  30.8608770
  46.1668110  85.3298664  31.6729283  39.2171144  54.6294022  16.9754326
  39.0776730  55.2686930  17.6740706  38.8708329  53.8097239  17.3282099
   0.6116544  67.8752184  61.3629723   0.2883250  67.9632902  62.2595978
   0.1676830  67.0981169  61.0235119  58.7958527  56.3000059  30.4823875
  58.0725050  56.0925674  29.8908019  59.5772886  55.9948587  30.0214386
  67.3346424  57.6671600  34.5017910  68.1662083  58.0975437  34.3030477
  66.9651937  57.4527407  33.6451912   3.2062668  16.1654699  35.4262853
   2.5553215  16.2804091  34.7339749   4.0072444  15.9195340  34.9634862
   5.6717688  10.6200707  22.4050355   6.0143423  11.3710189  22.8897524
   6.2644207   9.9016744  22.6261759  13.7889767  13.2410967  39.8750401
  12.9936182  13.3230960  40.4012632  14.0901983  14.1416109  39.7543240
  31.6183162  24.3266535   6.9983679  31.3336325  25.0379372   7.5721824
  31.3007092  23.5317111   7.4266464  73.1298971  39.9603462  56.8392277
  73.1097603  39.3341208  56.1155748  73.5388994  39.4808054  57.5596333
   8.1271040  33.5054374  58.5745335   8.7309176  33.5389018  59.3165016
   8.5504395  34.0329766  57.8972435   5.6377882  15.3875995  39.2054844
   5.3224623  16.2889552  39.2715001   5.7050592  15.0903249  40.1128626
  81.4533424  24.2278862  23.8112283  81.2184715  25.1523066  23.7305140
  81.4443207  24.0598655  24.7535253  63.2870340  35.1232505  40.3781796
  62.8032923  34.9712944  39.5663095  62.9876423  35.9814525  40.6783247
  60.6338358  75.4905319  30.4227948  60.0589561  75.2271700  31.1413956
  61.5141582  75.4620171  30.7975602  73.2257557  68.2030678  11.8232608
  73.1218481  67.2618151  11.9628155  73.2763529  68.5718060  12.7051365
  30.1962471  82.4971485  65.2754116  30.6151295  83.2272243  65.7312155
  30.2032709  81.7819405  65.9115410  54.4980860  49.4593477  23.5273099
  54.8982048  50.2460337  23.8977957  53.8237190  49.7902966  22.9340672
  70.3015089  44.6624279  20.0177956  70.0515890  43.9911795  20.6527781
  70.0271893  45.4865742  20.4199910  82.3657322  37.3720455  39.3312693
  81.4271641  37.2683024  39.1745329  82.4193382  37.8276396  40.1713848
  11.0511684  14.8109603  18.8646746  10.8037436  14.5003033  19.7355974
  10.2305591  14.8213315  18.3720040  74.6201420  22.8819704  27.6025772
  73.8142824  22.4545264  27.3125577  75.2863932  22.5816822  26.9843793
  56.7571497  21.7681432  60.3710794  55.9021187  22.1522427  60.1771116
  57.0695972  22.2526574  61.1351824   4.7751993  57.7021503  35.1159239
   4.7701281  56.8010235  35.4386997   5.5075973  57.7319479  34.5003462
  74.8651457  35.1103163  30.3848529  74.7056961  35.0956368  31.3285637
  74.1451979  35.6307268  30.0283694  64.7368956  37.6408124  27.8621268
  65.6689548  37.5534058  27.6624799  64.4767427  36.7744780  28.1752038
  80.2052593  23.7072682  39.0398693  80.9811783  24.2020011  39.3033671
  80.0068855  24.0242863  38.1587458  17.9923165  48.1053305   9.4167572
  18.1627572  48.1529808   8.4760594  18.2545936  48.9629078   9.7514319
  83.8981915  34.8626947  30.3495097  83.2464790  34.4725633  30.9319997
  83.9757729  34.2406726  29.6261144  30.5541706  28.5467911   3.1666461
  31.4355350  28.5590744   3.5398442  30.6674528  28.1622005   2.2974575
  62.0983934  80.6157112  24.7162247  61.8512487  80.1160145  25.4943347
  62.8686953  81.1152267  24.9870443  81.2256336  69.5247173  39.4046998
  80.4142857  69.0293503  39.5167518  81.3107395  70.0308943  40.2126455
  78.2242870  55.4959631  25.4409623  79.1661215  55.6598806  25.3928208
  77.8246737  56.2875795  25.0805569  88.5704994  38.7929702  33.8089776
  88.6347389  39.3019819  34.6170688  88.1832218  39.3971014  33.1755185
  65.1528549  52.7669287  49.8226070  65.3448868  52.0864534  49.1773891
  64.7206926  52.3023415  50.5392838  71.9482756  47.8357840   1.7800184
  72.2595930  47.5039673   2.6221636  71.1411572  48.3050919   1.9910675
  79.6315622  41.1121178  39.2036366  79.2154837  41.5035057  39.9717045
  79.2105436  40.2573061  39.1126633  13.0922854  70.4266024  11.9651890
  12.8665924  69.7920132  11.2850487  13.1306505  69.9109173  12.7706861
  69.4483042  62.4189472  40.7586384  68.8386011  63.1326914  40.5713892
  69.1103888  62.0193434  41.5601110  12.8944314  63.5088539  61.6871929
  13.0798066  62.6388025  62.0405769  13.1429505  63.4505987  60.7646561
   0.0400452  57.7634811  11.7029548   0.8658569  57.4437809  12.0663548
  -0.0055766  58.6783838  11.9806278  61.6389370   4.4208756  15.1119220
  62.2829103   3.7189186  15.0181746  62.1105528   5.2140868  14.8577082
  57.6538229  37.3302579  26.8661594  57.4709225  36.7501259  27.6052308
  58.4265995  37.8262091  27.1364975  73.2145119  62.9932690  37.0336485
  73.3898449  62.1012211  37.3332119  72.8390169  62.8831196  36.1600924
  70.4679251  55.0638008  50.1999760  71.2295198  55.4431629  50.6384850
  69.7225571  55.5526829  50.5487585  66.6081810  57.4418116  11.2891686
  67.4760818  57.7437973  11.0212386  66.1967754  57.1448755  10.4775012
  45.3714991  47.0709467  60.2967834  44.7145939  46.4687347  60.6461430
  45.2311039  47.0555735  59.3500614  63.1851101  23.0158138  53.7244606
  63.2962990  22.0827818  53.9069986  63.2834673  23.4400177  54.5768738
  50.5942726  32.2309375  25.5911064  51.4251423  31.7613029  25.6640816
  50.2075863  31.9084883  24.7770214  76.9514370  68.6575460  13.6880744
  77.3810863  67.8047085  13.7536573  77.4082184  69.2055655  14.3262422
  69.3659401  42.3750019  14.2103195  69.5552444  41.5745878  13.7206948
  70.1543617  42.5296211  14.7306216   1.7871287  47.4402285  69.8654699
   2.1455678  47.9653883  70.5809832   2.4106678  47.5551128  69.1483688
  87.2275352  80.4090691  36.4574552  87.3982048  80.8809280  35.6423163
  87.6666451  79.5662928  36.3427854  17.3339844  32.8897214  46.8319035
  16.8524432  32.3301148  47.4411583  16.7752373  32.9355240  46.0560560
  11.0890651  65.6253672  54.8325348  11.0163808  66.4063644  54.2839050
  11.8368173  65.1484632  54.4724512   8.7117743  59.7816753  56.1312103
   8.6761522  59.0442085  56.7403984   7.7946192  59.9982738  55.9634495
  13.8445330  77.4244165  31.7766213  12.9496825  77.1451950  31.5829444
  14.0859389  77.9838753  31.0384083  49.5333290  70.0301790  16.9238520
  49.2499924  70.9443474  16.9082487  50.4843807  70.0724554  16.8241036
  91.0461426  62.9445601  13.2193232  91.3071728  63.6957979  12.6866519
  91.4301491  63.1156969  14.0792561  55.9904814  38.4055972  24.8786068
  56.6816998  37.9509020  25.3599644  55.3629923  38.6686563  25.5518746
  82.0798969  16.6587675  47.5774574  82.3893738  15.9071219  47.0720053
  81.9306755  16.3110805  48.4567070  84.4612885  64.1110802  50.6943703
  84.6401119  63.6914921  49.8528242  84.2797184  63.3844995  51.2904787
  71.5333128  29.4128132  35.3467321  72.1559954  29.3108368  34.6269441
  71.9028664  28.8908195  36.0588980   6.3400578  58.7307072  43.5813570
   6.1951220  59.6727085  43.6700058   6.3051325  58.3975744  44.4780350
   6.7621833  38.4982204  17.6137614   6.7357028  38.0920625  16.7474079
   6.8767262  39.4319844  17.4371278  32.6266479  30.6437421  21.5048695
  32.0602131  29.8727703  21.5362239  32.0264792  31.3764167  21.3662362
  77.0502043  63.6891699  46.4401340  76.7479610  64.5269632  46.7908192
  76.3846636  63.0594587  46.7171812   0.2479843  45.6810379  29.4086933
   0.7744284  45.1441479  28.8163781  -0.6064254  45.2499056  29.4271517
  85.2460289   2.5001720  19.7569489  84.2958450   2.4884242  19.8719823
  85.5416584   1.6655746  20.1206565  87.0547771  29.5985770  27.2887397
  86.3002586  30.0430036  27.6753020  87.0881462  28.7519741  27.7341437
  67.4831390  57.7513170  21.9542170  66.7191172  58.3084393  21.8054938
  68.1110430  58.0220938  21.2844062  20.2243280   0.5767605  17.9062569
  20.5966902   0.7902479  17.0506859  19.2834342   0.7166900  17.7996397
  78.6017656  36.4312625  33.7005401  79.4328499  36.5610957  34.1573548
  78.1146812  35.8239341  34.2574334  81.4312267  52.7110720  16.0414553
  80.7911587  52.7186823  15.3297782  82.2356987  52.3867941  15.6366038
  80.3215885  70.2047062  56.2059402  80.6765366  70.0964737  57.0882845
  81.0025501  69.8577499  55.6296158  17.8450632  56.1732340   1.9274729
  17.4980509  55.9969854   2.8019732  18.6263001  55.6237411   1.8645705
  73.5915136  39.2736411  51.9884920  73.1124830  40.0059223  52.3764706
  72.9160166  38.7413192  51.5682793  74.9860811  82.5296879  32.6660609
  74.1814613  82.4570274  33.1794238  74.6904898  82.7859592  31.7924571
  40.8978891   2.3445052  32.0311356  40.0095749   2.1681605  32.3410368
  40.9073496   3.2850647  31.8536830   9.2011875  63.3848810  37.0111513
   9.8904473  63.9720488  36.7006850   8.9865309  63.7089252  37.8858805
   9.7364384  47.2861290  55.3108358  10.3515625  46.7787457  54.7812939
   9.3021804  46.6356134  55.8626366   7.0528704   4.0575919  32.7992797
   7.5898379   3.3386654  32.4660492   7.1244115   3.9886436  33.7513089
  66.5305471  27.7358294  44.0246964  67.2739172  28.3355021  44.0881443
  66.9102716  26.8681526  44.1631699  55.7801676  50.3753090  32.7837467
  56.0344315  49.6275949  32.2429061  55.9338903  50.0840902  33.6825204
  63.1275606   9.1797668  68.6569881  62.1725321   9.1260707  68.6213255
  63.3740234   8.5916948  69.3708944  42.1941423  20.1797056  59.7946930
  42.7108383  19.4541049  59.4443178  42.6011705  20.3783059  60.6379747
  46.2798357  73.4263134  39.0701413  46.8542147  72.7158356  39.3557000
  46.8363285  74.2049789  39.0852904  44.5619917  45.0776434   0.8826923
  45.2271557  45.7123661   1.1489925  43.9620829  45.0327539   1.6272232
  82.4059200  47.0703220  53.3553219  83.2087040  46.6662264  53.6846781
  81.7554474  46.3686848  53.3838701  76.0028505  45.7320023  40.8904409
  76.6017294  46.0283947  40.2050734  75.7424164  44.8524332  40.6170034
   4.6390212  50.5333853  23.4267044   4.2633447  50.1433468  24.2159867
   4.9337798  51.4004993  23.7050343  73.9178514  66.1123276  26.3423657
  72.9871368  65.8901834  26.3678360  74.0373373  66.5469456  25.4979348
  20.1512742   1.4716877  51.9393873  19.9885166   2.3096976  51.5063953
  20.0166225   1.6526100  52.8696394  57.8929806  79.8695326  11.9897771
  58.6488628  79.3684721  12.2960603  57.1441078  79.2952919  12.1499979
  88.6656570  35.1751447  57.7750063  89.4082355  34.6370363  58.0493116
  88.5950375  35.8486032  58.4515429  14.7227919  23.1956005  72.1693325
  15.4624081  22.6238608  71.9636250  14.4106197  23.4994173  71.3169956
  42.7757454  22.2729039  11.3863873  43.0169916  23.1078744  10.9853184
  43.0638409  21.6124344  10.7562971   2.6840028  38.4811354  41.6333723
   2.7734691  38.5563135  40.6833315   2.0119378  37.8111124  41.7583799
   6.9031411  53.3432627  72.2227573   6.1318582  53.7105274  72.6545811
   6.7962962  52.3957682  72.3068523  82.0548820  74.4884396   9.7470713
  82.0628452  74.1639280   8.8465929  82.0979214  73.6989355  10.2865708
  83.0009651  79.1842747  24.8246217  82.6379681  79.2611742  23.9422679
  82.9291153  78.2527590  25.0328255  69.8111963  62.0803690  45.2281237
  69.5313644  61.1676884  45.2983809  68.9963055  62.5745392  45.1388168
  59.8452139  23.4234500  41.4579487  59.4311285  24.1758060  41.0351849
  59.4284058  23.3726788  42.3181391  68.8338232  55.9604836  28.5090661
  69.1195774  55.0829124  28.7629247  68.4169960  55.8392191  27.6559663
  64.4517374  34.0079451  65.9266949  64.1233063  33.5200620  66.6819000
  63.6670685  34.3729424  65.5176735  10.2146649  19.7885895  18.7789905
  10.9688962  19.5891929  19.3336153  10.5808592  20.2819681  18.0450213
  30.1919961  63.9451504  40.8227825  29.6635342  63.3346415  40.3087425
  29.6551371  64.7353935  40.8821535   0.8929478  36.3624048  28.8398504
   0.4389967  37.2051048  28.8441229   0.9364754  36.1091232  29.7619057
  85.2836990  58.8892412  31.5501237  85.0066376  59.7799063  31.7650485
  84.9513245  58.7421274  30.6646204  64.2354250  29.3391705  26.4635038
  63.6316395  29.2821932  25.7229447  64.4716930  28.4306002  26.6503525
  76.0501719   2.8427973  15.9264505  76.7119169   2.2456408  16.2753546
  75.5400467   2.3066935  15.3193295  88.6648846  44.4124985  19.3316555
  89.2393780  44.1228008  20.0403666  89.0862083  45.2006435  18.9888072
   7.8608686  58.7169170  60.6669474   6.9595200  58.7529945  60.9871054
   8.3358550  58.2330990  61.3426256  90.8060074  13.5791218  68.8193226
  89.9011230  13.6206162  68.5099792  91.2430382  12.9912233  68.2031965
  57.7204084  73.0896330  39.4924879  58.5629702  73.1538057  39.0428114
  57.1523380  72.6321316  38.8726354  70.2290630  61.7849016  11.1652815
  71.1535645  62.0329380  11.1678696  70.1120424  61.2883186  11.9751859
  55.6350470  66.1594057  24.0066862  56.2211895  65.9880972  24.7437906
  54.8813438  66.6013050  24.3976951  82.6990509  77.6460648  72.9628801
  82.3395252  77.0607996  73.6295366  83.6426926  77.6408768  73.1233358
  62.4645090  29.0970993  64.6361923  61.8336391  28.3789659  64.6863699
  63.1653214  28.8426280  65.2364731  87.6305676  62.3955870  22.3193097
  87.9900646  61.8231678  21.6415691  88.2661629  62.3496008  23.0335522
  43.7126684  46.8610144   8.2112855  43.0239058  46.3736916   7.7592295
  44.0884209  47.4263811   7.5364518  70.8402300  62.9450607  23.3195305
  69.9250555  63.1636763  23.4952950  70.8569813  61.9883966  23.2922745
  30.7634544  46.9316244  11.6525257  31.1882758  47.7366447  11.3563764
  30.8962035  46.9255018  12.6004553  81.7068291  52.9333162  18.7156522
  81.6994762  52.7965593  17.7683008  81.1293793  52.2522211  19.0604579
  67.1390867  43.4848976  41.5527296  67.7007675  44.0831852  42.0454693
  66.5214586  43.1472921  42.2014141  72.5005579  52.7174807   4.3341798
  72.0916510  51.8571138   4.2403877  73.0240488  52.8217649   3.5396251
  69.1578770  79.4170523  42.2490025  69.5246363  78.6602831  42.7061939
  69.8792362  79.7453165  41.7122364  63.7412882  27.0925570  54.8023129
  64.4494486  27.3772955  54.2246771  63.0229187  26.8715715  54.2095709
  89.8079109  61.0939598  36.8287277  89.6885204  61.0622025  35.8795333
  89.3318176  61.8774319  37.1039295  78.8432837  18.3459198  31.2333488
  79.2221355  18.8374949  30.5046129  78.4015656  17.6049662  30.8184958
  10.0993741  52.9721165   9.5468533   9.8985463  52.2064686   9.0086275
  10.6981730  52.6431894  10.2172863  11.8589342  22.5266767  24.5640612
  11.2168503  21.8219781  24.6498585  11.5478837  23.2079911  25.1601243
  83.2519150   2.6047051   1.8933494  83.6472988   1.9268423   2.4414405
  83.5714531   3.4279364   2.2626960  58.7231159  72.5448179  26.7083144
  59.2217493  71.7393494  26.8454909  59.1840982  73.2033348  27.2280145
  43.9090906  38.3916549   0.8506752  43.7010132  37.6403789   0.2952219
  43.9379917  39.1345672   0.2477766  82.4015236  34.3163943  26.8110633
  82.4861813  34.8700714  27.5872755  82.1439552  34.9193621  26.1136937
  61.2016392  59.7878599   8.4815818  61.8707275  59.4211149   9.0595531
  60.3730583  59.4794846   8.8484466  66.3829756  52.5532389  23.1512284
  67.3094797  52.4165916  23.3490849  66.2854481  53.5043859  23.1060982
  14.4018579  39.5433545  54.6229649  14.4135141  40.3951645  55.0594473
  13.9326108  38.9700508  55.2290678  63.8383484  24.2192459  65.6814432
  63.3960581  24.9385405  65.2306366  63.1530380  23.5652685  65.8188963
   8.3556157  42.4624634  68.0700207   9.1419637  42.5818491  67.5374460
   8.5556734  41.7103481  68.6272764  68.9391947  32.8916788  34.6040726
  69.1082811  32.6693201  33.6885405  69.8086643  33.0124593  34.9857330
   9.3066961  46.5474129  41.8681955   9.0775496  45.7925272  42.4102926
   9.9822503  46.2197113  41.2745047  79.8091602  52.7467489  28.9652658
  79.3745708  52.0205975  29.4125557  79.1249847  53.1368303  28.4212375
   8.3189189  65.9123421  25.3583574   7.7036464  65.2240229  25.6111169
   9.1505426  65.6460094  25.7504058  56.6789341  60.1086378  40.9712553
  55.7769537  59.8125792  41.0937643  57.1637154  59.3138981  40.7485342
  34.8951459  51.9557095  68.9294386  34.8322034  52.5550413  69.6731234
  34.3624496  51.2020779  69.1834211  67.8186226  34.4168639  23.3651567
  68.0337429  35.0835991  24.0173984  67.9431152  34.8559451  22.5237632
  80.8602047  35.6516695  54.2787457  81.3372231  35.5324030  55.0999975
  81.5031052  36.0343981  53.6817360  18.5775971  51.7234373  36.5786028
  17.9320228  51.6159439  37.2771096  18.2169497  51.2309694  35.8412838
   3.7124678  21.3454652  40.7761669   4.4835076  20.8751297  40.4591227
   3.9318636  22.2700644  40.6612062  41.2277508  17.1514797   2.0512512
  40.5766678  17.8455889   1.9486061  40.8231211  16.3823187   1.6501300
  25.4785490  57.3585510  32.9746222  26.3840652  57.2740412  33.2731676
  25.3465867  56.6085815  32.3946524  13.0977952  73.9673090  26.1312151
  13.4923172  74.7371435  25.7214189  13.5728765  73.8650179  26.9558764
  85.5530834  72.8112602   8.3440000  86.3988113  72.5201988   8.6849552
  84.9286270  72.5960064   9.0367854  82.1171856  70.9939146  28.7956810
  82.7677059  71.6947842  28.8384652  82.6334095  70.1934433  28.7008810
  29.5351791  14.7332036  48.1460857  28.7762666  14.1589653  48.0434561
  30.0498080  14.5944107  47.3510218   4.0641755  28.2149887  -0.1300378
   3.8063601  28.1510329   0.7895667   3.4908023  27.5967479  -0.5830866
  73.4564543  59.8474741  14.3308699  72.7309179  59.4437647  14.8071539
  73.4256744  60.7699394  14.5845306  90.6770706  57.5406599  42.4710608
  91.3482761  56.9035196  42.2265911  91.0621738  58.0262947  43.2005024
   2.0546257  38.1789279  38.5063601   1.3950306  38.3779025  37.8418469
   2.1600881  37.2285843  38.4621239  74.5829391  51.8230867  26.5184927
  73.7006617  51.4531708  26.5497947  74.9978781  51.3900757  25.7724643
  63.1534100  38.4858489  20.0993991  63.1171608  39.4176626  20.3153634
  62.3091173  38.3024645  19.6873665  14.8250806  28.4710932  32.6203346
  15.7107008  28.1967711  32.3823142  14.2753363  28.1536412  31.9039297
  91.2168789  47.3954582  54.1451216  91.4027119  47.7848196  54.9995756
  90.8617973  46.5301037  54.3483639  58.5540724  31.8908525  19.2688346
  58.9396286  32.1067262  18.4197307  59.3022299  31.8280458  19.8625898
  73.2395625  86.3515562  30.7667398  72.5688267  85.6691396  30.7411957
  74.0676344  85.8761210  30.6997275  40.0447655   7.4037331  71.9329023
  39.6734405   7.5683749  72.7996445  39.3800044   7.7234042  71.3228750
   1.8727534  47.5455523  30.9845543   1.2351870  46.8503428  30.8219886
   2.3078875  47.6733780  30.1416111  50.0588608  77.8699732  47.3280382
  50.6581259  78.3969164  46.7994165  50.5842113  77.1216631  47.6113605
  82.8814507  69.4955921  55.0009727  83.3855534  69.3770885  55.8060026
  83.3689022  69.0055227  54.3388128  15.9397852  60.1281118  41.5872383
  15.9938800  61.0629797  41.3889170  15.0059235  59.9252987  41.5324688
  89.2822742  54.5321321  19.4242740  88.9667797  54.4577217  18.5236311
  88.5749054  54.9784517  19.8897421  11.8043077  59.4063663  50.4688120
  11.4410400  59.3423223  51.3520813  11.7717743  60.3407526  50.2636194
  62.9015160  83.7498474  15.9689617  63.0267906  82.8009033  15.9625459
  63.7749052  84.1056347  16.1327887  82.3292732  12.8128397  52.4103403
  83.0098152  12.2414839  52.7662277  81.8934059  12.2804463  51.7449045
  53.6648846  51.3349915  10.4130769  53.3813334  50.9269094  11.2311828
  54.6190453  51.3697815  10.4809034  68.8250732  43.6195469  39.3906403
  68.2681227  43.5407066  40.1651239  69.6043730  44.0800190  39.7019100
  82.6822853  48.5018206  33.4409475  83.2498455  49.1207361  33.9003563
  82.4947643  48.9251995  32.6032019  82.1775627  42.4977303  21.3234043
  81.2405014  42.6916170  21.2998438  82.2560406  41.6430426  20.8996296
  75.0483322  55.8190393  23.6779404  75.6476021  55.3301477  23.1139421
  74.9878073  55.2935028  24.4756746  79.0087461  63.5966492  33.9163065
  79.9428606  63.3923674  33.9602017  78.8095284  63.6068106  32.9801202
  60.3172827  16.5248430  28.4144044  59.4767952  16.4669478  27.9600215
  60.0891733  16.7796087  29.3084359  74.9354362  17.6832521  30.0283623
  75.0389814  18.5804093  29.7111559  74.4723368  17.2316849  29.3227720
  11.0521662  32.0812654  39.8720670  11.1203945  31.1937404  39.5201111
  10.7927322  31.9575691  40.7850981  37.0930791  43.6157131  35.0234485
  36.7326641  43.1386852  35.7709599  37.8763175  44.0446377  35.3681111
  22.5286984  12.3646867  67.4066496  23.3069849  12.9215395  67.4270010
  22.1214247  12.5531077  66.5611553  56.9302464  25.6318784  31.2944937
  56.3704729  25.4405904  32.0470166  57.3079205  24.7853994  31.0556030
   1.7623165  34.3053484   1.8086207   1.8475753  34.4429326   0.8652049
   1.2578398  33.4957576   1.8879740  67.6026964  48.3531237  19.8028016
  67.4100018  49.2294502  20.1361966  67.7500534  48.4804583  18.8656223
  86.2542725  62.6380396  60.5582809  86.6280746  62.9350996  59.7286654
  85.3366184  62.9072714  60.5175591  76.0538673  55.2650499  46.0694647
  76.9054890  55.5958223  46.3550663  75.5039263  56.0456371  46.0025358
   0.3548453  46.0755157  14.1935217   1.2938876  46.0335684  14.0127695
   0.2594399  45.6772137  15.0586724  75.5090666  33.5231948  43.0570841
  75.0786877  33.2014966  43.8492393  76.4305639  33.6067009  43.3022308
  80.0505352  52.0864201  48.7499189  79.2616463  51.7749739  48.3061981
  80.3485298  52.8247309  48.2185698   5.4949462  39.3344355  47.4459171
   5.3435165  38.8027287  46.6645145   6.4090896  39.6093202  47.3751116
   6.0729182   7.0135748  39.1560578   6.6099674   6.8197602  39.9243331
   5.1781160   6.8173373  39.4336390  71.2995720  57.8861952  47.9521894
  70.5882597  58.4691477  48.2175732  72.0589066  58.1942272  48.4469223
  30.3212714  72.7488613  64.6555853  29.9032998  73.5980701  64.7983217
  30.8118892  72.5849962  65.4609871   2.6260296  60.1552773  37.7352929
   2.9323086  60.3501129  36.8495941   3.2069135  59.4589758  38.0418372
  81.6663742  74.6378040   3.3772498  81.2112713  75.2383089   3.9675927
  82.3982620  75.1494741   3.0326316  38.7378955  19.5758998  44.0872335
  39.4997454  19.0666974  43.8105965  38.7147903  19.4746137  45.0387812
   4.0243471  42.0550632  57.3779726   4.5530751  41.2808514  57.1848965
   3.4221953  42.1247053  56.6371632  83.9093304  50.3101110  42.8622389
  83.3960247  49.5369577  43.0967140  83.5279846  51.0175180  43.3822250
   8.5239863  52.7418327  25.3457761   8.4702128  52.2855043  26.1854839
   8.6192429  52.0427275  24.6989322  34.5905399  35.1047421   0.0634781
  34.8173165  34.9347210   0.9777524  33.7439036  35.5493593   0.1054022
  80.2420807  53.2409954  44.2819643  80.7049465  52.4035740  44.2552757
  80.8514786  53.8642025  43.8863945  89.8514271  49.5621920  51.8710375
  88.9178181  49.4978380  52.0721769  90.0836468  48.6975145  51.5324545
  83.1179142  29.6215177  24.3145514  83.5244846  29.8011136  23.4668016
  82.4709702  30.3186989  24.4224191   4.0095365  28.2560754  42.1941710
   3.7158874  29.0437341  42.6519871   4.1472811  28.5413671  41.2909174
  71.2587118  23.9102817  52.2937584  72.1189737  24.1795111  51.9717455
  71.4297199  23.5560560  53.1664085  60.4889774  51.9934082  28.8817620
  59.9710131  52.5285625  28.2804656  61.3039684  51.8231821  28.4094906
  55.9586525  13.8632607  74.2822504  56.6939783  13.3561599  73.9381933
  56.3082600  14.7474778  74.3925524  50.9183264  23.6607766  67.1973085
  50.7701015  22.7321243  67.3758316  50.7042646  23.7635589  66.2700319
  55.0365829  40.3128386  21.3508606  55.2756643  40.9488249  20.6766248
  54.0973902  40.4437351  21.4813185  76.9856071  64.8968029  22.8447509
  76.8587351  65.3093624  21.9903922  77.9278135  64.9571800  23.0023289
  16.5935457  68.8891411   7.0392209  16.2764156  68.0494928   7.3718667
  17.1459389  68.6577320   6.2925327  80.5572319  54.1513443  34.4704223
  79.7686148  54.3283844  34.9832225  81.2763119  54.4555092  35.0241780
  28.2608438  75.2343512  31.7965078  27.9084134  75.1506424  30.9104943
  27.6830816  74.6946335  32.3360705  85.2844906  25.3649759  36.7203116
  85.1458359  25.4867697  35.7810712  85.0521946  24.4502354  36.8800783
  11.9002235  33.9227104  44.2014551  12.6744688  33.8798738  43.6402559
  11.3001668  33.2751513  43.8315487  12.1607709  41.7453384  15.6650221
  11.7421317  40.8849430  15.6913781  12.6898921  41.7787600  16.4619827
  82.6181126  81.9706059  35.4155469  81.8922138  81.3770580  35.6078959
  83.3442307  81.6402817  35.9445763  87.8978539  44.6492910  11.4376330
  87.2865105  45.3676033  11.2748003  87.3402405  43.8771391  11.5329087
  28.0548334  30.3329992  35.6055975  28.0650425  31.1031437  36.1739349
  27.8838134  30.6828570  34.7311926  77.6499176  17.9087150  49.5697260
  77.0815468  17.7219450  50.3169250  78.2796907  18.5484838  49.9018669
  89.8717308  59.6199226  55.9279203  89.6103287  58.6991167  55.9237432
  89.2241001  60.0552654  55.3735876  90.2438259  24.4143176  11.7784679
  90.1073742  25.1558256  12.3681939  89.9179077  23.6576295  12.2657382
  65.6982565  57.8266191  45.0238752  65.9462547  57.4393368  44.1843891
  66.2864685  57.4183083  45.6591082  61.0634422  77.8852034   0.8596894
  60.5643988  77.9086256   1.6761665  61.8158627  77.3266077   1.0548144
  33.6042881  60.0382710  37.2171974  34.2612004  59.7493839  37.8506351
  34.0918517  60.5800486  36.5967202  57.3948145  57.2356892  60.7142305
  57.8502321  56.7517138  60.0253248  57.5200319  56.7062235  61.5017700
  27.4135661   6.9634616  66.6384315  27.3798919   6.0115325  66.5439415
  26.9737458   7.1372497  67.4706507  60.7890177  57.5213480  24.3905663
  60.4148149  56.8045139  23.8783622  60.1254988  58.2105017  24.3584371
  80.1096535  73.4405947  12.8971756  80.4088974  73.8065767  12.0648623
  80.0554943  72.4981499  12.7387428  72.1980286  75.8313942  49.2135954
  72.4482155  76.7416477  49.3719578  72.2305632  75.7361984  48.2616949
  79.4200802  65.3368139  15.8562255  79.0104628  66.0957003  16.2715995
  79.9339914  64.9302101  16.5539384  78.9250946  28.6826611  36.0816979
  79.6963835  28.2961607  36.4963889  79.2663002  29.1193461  35.3012395
  24.0373349  27.4160695  55.8176041  23.1323242  27.6543856  55.6166267
  24.5242620  27.6326275  55.0224686  60.2927542  44.9915743   0.0747055
  59.5388031  44.4755554  -0.2107931  60.8822107  44.3527937   0.4756205
  70.2180958  50.7468987  15.9406793  69.7195864  49.9767637  16.2138391
  69.9030209  51.4499998  16.5086699  56.3604927  65.3965473  30.6019664
  56.7427778  66.2712431  30.6726336  56.9677019  64.8305559  31.0786009
  66.2544394  28.0320358  68.2022381  66.6261339  28.9123750  68.1467676
  66.9653225  27.4540091  67.9251766  77.3683405  34.1168976  34.8789024
  77.7813864  33.7730289  35.6709766  77.3537636  33.3745623  34.2747855
  65.7053137  50.4083490  30.2036738  65.8282709  51.3267374  29.9635220
  66.5936041  50.0618982  30.2882123  18.4118092  84.6495056  14.8618042
  17.9506314  83.9767838  14.3608105  19.0981257  84.9597359  14.2710769
  69.2099428  69.5114946  28.3220768  68.7327051  69.5071220  27.4923420
  70.0383806  69.0747309  28.1241941  83.9910126  84.5622349  29.9161601
  83.2704544  84.7366047  30.5216503  83.7802792  83.7112999  29.5317912
  41.1772060  11.8397546  30.8241534  40.3312445  12.1611226  30.5122089
  41.0713530  10.8893943  30.8670878  73.2729387  24.2113948  47.0342493
  74.1433191  23.8519835  47.2059679  73.4079695  25.1582718  46.9965601
  74.7005033  58.1281233  37.9938793  75.3925133  57.6184702  38.4153152
  74.5658922  57.6972198  37.1498203  26.5401602  21.0292268  22.1571326
  26.1623240  20.3332829  21.6194177  27.4513030  20.7652020  22.2849751
  89.7453213  56.6779900   9.9024689  89.5608425  57.4594402   9.3813801
  90.2398968  57.0030355  10.6547856  34.9582100   9.1482335  23.2184982
  34.9356747   9.9747288  23.7008142  34.5316148   8.5194790  23.8006639
  30.8732724  19.4310069  59.9574852  30.4667544  18.5968256  59.7227192
  31.7649865  19.3675733  59.6153498  14.9761569  78.0263615  27.1734834
  15.5268133  78.7808132  26.9641685  14.2087877  78.4022474  27.6048589
  38.8795328   6.1904788  37.2543216  39.2875528   6.7553824  37.9105496
  39.3125510   6.4252865  36.4335942  90.8513165  41.6250324  33.0838680
  90.3427315  41.0042524  32.5621343  90.4979515  42.4826050  32.8473783
  72.5753403  80.2385712  46.8709087  73.5008860  80.0256252  46.9903231
  72.3205662  80.6663036  47.6884460   3.4100509  42.1469927  30.8243179
   2.8831100  42.6441145  31.4499640   2.8448865  41.4217567  30.5581355
  12.9366171  48.6995125  14.4214952  13.0728877  47.9033804  13.9078486
  13.3696556  48.5227823  15.2566457   0.5893936  73.0325842  46.6820049
   0.7896973  72.3071814  47.2735262   1.0906798  73.7703276  47.0293951
   9.5094055   9.7472268   2.1511422   9.2855877  10.6445277   1.9041851
  10.4645610   9.7471869   2.2136781  23.0937457  42.2993994  30.8136392
  22.3664761  41.7701864  31.1411214  22.8563738  43.1987190  31.0397148
  63.3776140  46.0733223  34.8367548  62.7180767  45.4994917  35.2265716
  63.5068130  45.7250643  33.9545679  70.5462933  53.6096191  69.9214745
  71.4317369  53.9658260  69.8484039  70.6764269  52.6901197  70.1534748
  74.9117184  84.5915794  39.7871709  74.1614056  84.9576092  39.3188930
  75.5540276  84.4056416  39.1022611  14.3070161  54.4997263  40.2968407
  14.6954525  55.3647804  40.1663446  13.6188090  54.4437218  39.6339178
  87.2692966  68.5007524  12.2662699  87.1371460  68.6936474  13.1944728
  87.0265675  69.3101025  11.8165255  46.8345499  82.8077412  17.3627520
  46.6440296  81.8751335  17.2618377  46.8378162  83.1496429  16.4687026
  46.9989204   6.8176877  21.0526896  46.3279057   7.4022168  21.4052486
  47.8271389   7.2474658  21.2661767  45.5223942  29.8994088  16.8591475
  44.9706554  30.6127644  17.1799827  44.9043608  29.2130017  16.6079223
  73.9978981  77.0068121  23.0192733  74.1725206  76.1716366  23.4531260
  74.0424442  77.6555300  23.7217069  76.3018370  79.4059801  22.5751734
  76.0035086  80.2088547  23.0025196  77.2425365  79.5346451  22.4536657
  90.9568787  77.0211506  38.9031363  91.6864967  77.5100708  39.2837167
  91.3184166  76.6328812  38.1064129  61.4056826   2.5604242  26.4844584
  61.5118694   1.9485909  27.2128916  62.2823191   2.9172939  26.3416815
  14.5598590  42.4757051  55.5201006  14.6763372  42.5995636  54.5781183
  13.7014580  42.8556204  55.7072926  29.8890281  14.5120096  11.7600107
  29.5917773  14.3339956  12.6523030  30.6870532  15.0285840  11.8719804
  46.9557285  13.9948189  22.6346278  47.4095631  13.2613075  23.0496287
  46.1118364  13.6325490  22.3647428  63.7039614  76.5953875  59.7261667
  63.7609816  77.5214481  59.4908047  62.7677965  76.3979912  59.6967602
  88.8917065  77.5701046  13.7286556  88.2231998  77.3187351  13.0913615
  89.1610241  78.4483194  13.4594953  14.4075978   4.4841388  35.8719254
  15.2276647   4.8827928  35.5807281  14.3492603   4.7075903  36.8008494
  76.9277573  66.4000702  45.5236673  77.1876574  65.7368088  44.8843193
  77.3318529  67.2083426  45.2080250  38.9791250   6.0478449  26.2304544
  39.0760803   6.2766808  27.1548295  39.8766756   5.9505534  25.9123826
  68.2596397  78.0675173  11.9125736  67.7204037  78.0337811  11.1224353
  67.6457739  78.2912111  12.6121151  36.8278909   3.4156063  46.7672110
  37.5782418   3.9457738  47.0357800  36.8519759   3.4337324  45.8104897
  62.8749466  20.2725101  59.2849970  63.5163355  19.5625138  59.2575645
  62.0939159  19.9058700  58.8705063   2.5344443  64.3322611  45.1905394
   2.8387883  63.4740019  44.8955822   3.2250041  64.9373007  44.9198198
  14.3434036  84.4722843  49.5392323  14.5031464  84.0598583  50.3881264
  14.8453665  85.2867126  49.5703888  79.9148130  60.7047892  31.4851117
  79.1107082  60.4591513  31.0276103  80.5911732  60.1513863  31.0945845
  69.4690847  10.2251017  30.2288604  70.3597403  10.3268945  30.5644226
  68.9102840  10.3190935  31.0003138   0.4111311   6.0998112  42.3440695
  -0.0447432   6.5415919  43.0604792   1.3394739   6.1899167  42.5592279
  66.0192776  29.3110847   2.0205630  66.5762424  30.0505257   1.7771463
  65.1583052  29.7001219   2.1742038  83.2283306  76.7500114   5.3064483
  83.5176373  77.0815849   4.4563955  83.7959480  75.9981680   5.4760712
  69.3016243  60.9876013  38.4408808  69.4365692  61.6454363  39.1229916
  68.3859921  61.0942602  38.1830549  65.7760715  53.1673384  59.6264315
  66.1577177  52.3085451  59.4446230  64.8889399  52.9756737  59.9305534
   7.6425242  58.7830544   5.1987332   6.6976476  58.9334249   5.1699370
   7.9054797  58.7347269   4.2796302  76.5057182  29.7175217  58.8268280
  75.6440592  30.1343513  58.8315105  76.6123915  29.3780398  59.7154236
  33.1567168   2.0022617  24.7817922  32.2165775   1.8754619  24.9094296
  33.5639238   1.5054891  25.4914618  28.8766837  16.5205479  18.5355008
  28.4726167  15.8420658  19.0764475  28.2627916  17.2540021  18.5730672
  34.1906714   5.9725398  32.6017284  33.4910417   6.4678741  32.1758246
  33.8383675   5.0867814  32.6885962  66.9453907  21.0178280  54.3593884
  66.7980576  21.1388040  53.4213638  67.7648878  21.4803290  54.5347261
   5.9894323  35.2264237  36.9173574   5.5250186  34.3900776  36.8845367
   5.4832268  35.8040524  36.3461018  86.4085674  71.8919754   1.0986137
  85.5461502  72.2651911   1.2807779  86.5356255  72.0294762   0.1599015
  22.7298617   4.9748281  30.1866364  23.3193612   5.4757547  30.7503676
  21.9657874   5.5406964  30.0761271  34.1188788  77.6990557  26.0902357
  33.3954549  78.1148291  26.5593028  34.7792792  77.5367498  26.7638516
  70.4804993  35.2302194   4.4869688  69.8523664  34.5328069   4.2990857
  71.3296366  34.7888446   4.5067278  77.4098349  25.1589370  67.8266525
  76.5772152  25.3959703  68.2350540  77.4571180  24.2069244  67.9142284
  13.2125378  62.5727129  23.8620543  13.1829476  62.3412752  24.7903824
  14.1053832  62.8881454  23.7221909  42.6736832   9.0897238  33.9905310
  43.0182076   8.9183766  33.1140757  41.7229557   9.0835488  33.8795972
  17.8854954  62.2222996  55.6558847  18.5488343  62.8174543  55.3065968
  18.0992723  61.3726139  55.2704477   6.4956331   5.0411886  48.1773996
   7.1495801   4.7391832  48.8077784   6.1844265   4.2414325  47.7534008
  79.7568321  65.7295084  55.3192186  79.9853516  66.5604734  54.9026775
  78.8242769  65.6175756  55.1346970  61.9463062  46.2356091  64.4561815
  61.7988873  45.8154058  65.3034878  61.9878149  45.5101871  63.8330698
  82.2071266  59.0685558  18.6795831  83.0750179  58.8034105  18.3751464
  81.9615269  58.3977604  19.3167245  85.5625820  75.3200054  17.9697025
  86.4182663  75.1342058  17.5830317  85.1588726  75.9459257  17.3684716
  13.2201564  62.5504780  39.2721152  12.4793530  61.9551325  39.1580677
  12.8188682  63.3986902  39.4611573  26.7689943   0.6959735  34.4106412
  26.2392473   0.3701811  35.1382804  27.6643682   0.4411197  34.6333218
  73.4975433  81.0111046  61.4931583  72.7587700  80.9773827  60.8854532
  74.2335367  80.6549835  60.9954453  22.8672552  56.2405109  13.1977522
  22.1964288  56.3525867  12.5242090  23.0290508  57.1256304  13.5242701
  58.5007572  25.7207513  65.9626722  58.2773352  25.4093838  66.8398046
  57.9664278  25.1861095  65.3754044  86.6881657  47.1223783  40.6229687
  86.8324947  47.6708651  41.3940430  87.1383286  46.3021183  40.8248568
  15.3039002  54.4377804  28.5681939  15.2102149  55.2207041  29.1108584
  15.2842045  54.7657490  27.6691484  89.7709179  59.1278934  52.8727818
  89.0112877  58.6031580  53.1254435  89.5054054  59.5577049  52.0597649
  27.5401616  78.1675863  55.3363943  26.8661880  78.7349367  55.7107019
  28.0255175  78.7351179  54.7375917  21.9022822  49.1434431  72.3817539
  22.7432203  49.2256069  71.9319725  21.7064381  48.2068968  72.3542261
  62.3365450  18.0840087   8.4762412  61.9065523  17.3509717   8.0357951
  63.1857634  17.7355587   8.7476182  64.9270296   0.7934470   7.2085410
  64.7195292  -0.1320156   7.3377478  65.8630848   0.8033949   7.0086849
  28.3508348  79.9207401   3.9943051  27.4196696  79.8021269   4.1816330
  28.3702397  80.5086327   3.2391652   7.0428395  79.7626972  13.6044061
   7.4475914  79.3161821  14.3480670   7.5242800  80.5865479  13.5287464
  88.9194393  49.5209599  64.1030931  89.4261837  50.3227663  63.9744329
  89.5788288  48.8344002  64.2034769  71.5832806  37.4919605  43.2649660
  71.6170263  37.4522495  44.2207479  71.0279942  38.2484174  43.0761337
  58.8932133   8.7399340  57.8643465  59.7398567   8.4051597  57.5687981
  58.5956955   8.1007653  58.5117865  18.7812531  57.9472971  14.0664661
  18.4484947  57.0818853  13.8286293  19.5569837  58.0646420  13.5181022
  55.2603483  78.6180401   4.3580958  54.3944311  79.0245152   4.3926358
  55.8559322  79.2956018   4.6781400  34.7031689  66.4111996  12.7229047
  34.3581748  66.5680122  11.8439174  35.5090404  66.9264412  12.7593529
  29.5739293  85.1245022   4.5907751  30.0904751  85.2075958   5.3923398
  29.0550303  85.9280872   4.5558390  16.0844326  73.8790035  19.0555215
  15.6545711  73.2665539  19.6524787  15.7641530  73.6324120  18.1878543
  29.0912557  82.0806026  54.9743700  28.7212968  82.7984619  54.4605303
  29.1212130  81.3416767  54.3666458  25.3065872  37.9533768  38.9549398
  26.1612701  38.3833265  38.9250827  24.7766972  38.4290838  38.3152914
  60.4809618   8.2341415  16.5006375  60.4239607   7.8368032  15.6316698
  60.1319647   7.5674528  17.0922089  10.7618105  69.7896814   5.9594655
  11.5465653  69.5535755   6.4540833  11.0701442  70.4183960   5.3068721
   0.9200232  60.1014185  20.3995085   1.2868105  59.6091795  21.1339474
   0.8594287  61.0011148  20.7206106  65.4649305  37.4929929  12.5151777
  66.3972616  37.2771001  12.5347209  65.0974607  36.9080043  11.8526185
   8.4148413  36.2710667  54.8473740   8.2614589  37.0072246  55.4396391
   7.5808430  35.8017159  54.8276806  32.3682952  72.5958014  71.4678335
  32.8386974  71.9100952  70.9937525  31.6706419  72.1316576  71.9305229
  43.2723713  26.7013383  57.1827316  42.7235937  25.9905028  57.5140667
  42.6560259  27.4048853  56.9793367  72.0859861  19.6036553  60.4426670
  72.7586555  18.9855194  60.1569033  71.7772818  20.0124240  59.6340656
  58.2423019  78.7559080  18.3327842  57.8359747  78.0614042  17.8143334
  59.1559267  78.4847450  18.4221971  13.7798762  74.8698759  22.6562428
  13.3260763  75.5710268  22.1886086  13.9361179  75.2270746  23.5304451
  26.9007993  30.1445460   7.5603986  27.5677609  30.1945281   8.2451594
  26.0709834  30.1107001   8.0363101  15.9660351  78.7236500  42.2814131
  16.0003793  78.9502907  43.2107592  15.0391078  78.7915087  42.0524311
   7.0160180  17.4787903  37.4064088   6.2729007  16.8792057  37.4735379
   6.6178524  18.3448136  37.3186684   5.7320189  34.4417715  33.4354401
   5.0470024  35.0639892  33.1908417   5.5688512  34.2572904  34.3604136
  85.8579350  78.5660267  29.1690564  85.3158569  78.9216423  28.4648371
  86.7471027  78.8457394  28.9514160  85.6819534   8.8789654   1.2862690
  84.7390938   9.0427113   1.2651907  85.9884644   9.1316873   0.4154004
  49.7946501  75.7067680  31.1946607  49.8645210  75.1689053  31.9833660
  50.2406454  76.5228987  31.4210367  58.3406973  59.3301773  16.6177332
  58.8393831  58.7173891  17.1581376  57.8150225  58.7715626  16.0451531
  22.8857327  31.7006803   0.5825888  23.4453869  31.6936278  -0.1939218
  22.8087711  30.7794118   0.8307321  69.0302610  51.0422802  67.1185064
  68.3153200  51.4235783  66.6088963  69.7283506  50.8965874  66.4800072
  89.0634823   1.9169271   5.2058280  90.0189877   1.9382371   5.1529443
  88.8098049   2.8319964   5.3263646  21.5606427  74.8402452  13.6171389
  21.8039823  74.3948555  14.4287086  22.0969868  75.6330252  13.6089098
  17.5563025  14.6077681  65.5557299  16.6202629  14.4144464  65.6075764
  17.7055264  15.2557969  66.2442255   1.8438934  60.5729294  33.4619188
   2.6145452  60.5649424  34.0296030   1.3160037  59.8339224  33.7643003
  19.9170113  70.3336096  42.6643467  20.1200509  71.2029028  42.3189020
  20.0640678  70.4101562  43.6070776  56.6508245  84.6478748  16.2969458
  56.1241341  85.3854179  16.6049325  57.4223280  84.6513844  16.8635154
   2.8229433   9.2604029  16.9621611   2.5671136   9.1064048  17.8715932
   2.1910971   8.7584555  16.4473295  27.2988009   8.2054275  43.6317301
  26.6192102   8.8066149  43.3268356  28.0643249   8.4188569  43.0981970
  49.7780371  18.0263102  73.3853245  49.0529490  17.4259651  73.2119465
  49.6813774  18.2581937  74.3089676  67.2510338  60.5312395  55.1595211
  67.5232649  61.4192009  54.9279022  68.0367613  60.1286221  55.5293322
  40.4511833   5.2152121   1.0717489  40.5475760   5.6183398   0.2089459
  41.1371899   5.6194657   1.6029830  63.3169127  15.3249729  16.7856443
  63.6917925  15.5439007  15.9325504  62.4108696  15.6294262  16.7343700
  87.4691296  17.4706626  69.1334486  87.3003674  16.5714478  69.4148111
  87.3904514  17.9906380  69.9332428  83.9304733  13.3546722  34.3738079
  83.0192089  13.0740964  34.4580698  84.3875599  12.5852478  34.0342689
  84.5443535  80.6253624  31.1152983  83.8708591  79.9821949  31.3365936
  84.0661526  81.3349915  30.6863666  90.1884365   2.3629038  32.2938609
  89.9514008   1.4384648  32.2199750  89.3637562   2.8323832  32.1684170
  13.5397553  68.6826420  24.4576550  13.1070232  69.5019102  24.2173004
  14.0952063  68.4756947  23.7060690  66.1542654  22.2989821  16.3149774
  65.7131243  22.3269033  15.4659510  66.9425821  21.7791271  16.1583114
  23.8097811   6.4611077  16.1542249  23.1544518   7.1063912  15.8889258
  24.5467019   6.9840443  16.4700067  60.6141710  19.0931356  52.7250147
  61.2627363  18.5236382  52.3111725  60.6808519  18.8931441  53.6587095
   4.5018077  81.2394714  16.8122411   3.8382214  80.9469604  17.4370003
   5.1805907  80.5656719  16.8507850  39.2865467  82.4578762  28.8871336
  40.0245190  82.8870010  29.3201208  39.6337008  82.1828175  28.0385709
  50.8846664  21.0969830   0.1366041  50.6233931  22.0038652  -0.0231881
  51.8408298  21.1256552   0.1706852  43.9966345  80.0657940  65.6068039
  44.9031925  80.3497028  65.7241917  43.6752510  79.9168301  66.4960480
  13.8575041  19.8966706  55.9481049  13.5888743  18.9791763  55.9004259
  14.1203928  20.0221920  56.8598986  16.6935253  86.1902714  10.0244927
  17.5688136  85.8029652  10.0145888  16.4121735  86.1230373  10.9369349
   9.2152685  80.8053970  57.9707384  10.0654387  80.8114529  58.4105158
   8.5814589  80.9531212  58.6726570  26.8425083  23.2119131   2.6648110
  26.8375707  22.8890562   3.5659054  26.5649390  24.1252089   2.7360937
  53.5038185  12.9732919  20.1193404  53.8117123  13.0960143  19.2213583
  54.1771269  12.4320138  20.5315328  47.5078249   5.5604380  23.7045288
  46.7738628   5.7683909  23.1263542  48.1524754   6.2459600  23.5292673
  72.2523022  13.9818227  35.7201004  71.5851593  14.5311427  36.1316776
  72.5285053  13.3812332  36.4123702  44.0911674  70.0408459  21.0929155
  44.1940546  70.4843712  21.9348955  44.8406458  70.3339529  20.5746460
   5.6097531  43.2733631  64.9393415   4.9248451  43.5471344  64.3292761
   5.5168486  42.3221731  64.9925900  17.4684286  53.1604481  62.1338654
  16.8674803  53.9054918  62.1312761  17.8933144  53.1984234  62.9907560
  43.2035589  15.6877220  21.9004989  42.7886200  15.3567719  21.1039281
  44.0862799  15.3179920  21.8821001  91.3557720  60.1956987  65.3778601
  91.7178631  61.0181332  65.7075834  90.6436729  60.4633617  64.7969103
  45.9615183  12.2006130  24.5514083  46.3598204  11.3779128  24.2672396
  45.4155636  12.4700844  23.8127947  39.2267251  77.6403952  11.7175007
  38.7433147  77.5344849  10.8981550  39.6428490  78.4989977  11.6408145
  41.5072966   4.6251473  20.5007958  40.7013226   4.2778996  20.8829713
  41.2187243   5.0921357  19.7166514  70.6910372   4.1684982   9.3456918
  70.8602142   4.9985802   9.7913098  69.7391653   4.1378751   9.2496294
  37.5148535  71.3240051  18.9600086  37.7786064  70.4370785  18.7150097
  38.2963705  71.7040539  19.3612921  61.7090321  19.5439589  29.6148658
  61.6088104  19.7754574  28.6915040  62.3840427  18.8653088  29.6197438
  70.3224850  37.5707603  63.7055111  71.1479378  37.2019529  64.0198994
  69.8777103  37.8721929  64.4976902  14.3250215  59.1401577  72.8577042
  14.3929076  58.4986210  72.1505594  14.6105921  58.6665678  73.6389780
  91.1682892  26.2903476   5.2690452  90.8834839  26.4767599   6.1636788
  90.4720688  25.7434964   4.9050888  68.8161612   2.6515889  24.1614532
  68.3363724   2.4249880  23.3647776  69.3877602   3.3733800  23.8996840
  83.8311195  18.5342360  39.2464471  83.9119720  18.1565440  40.1222563
  84.0884686  19.4496942  39.3557096  29.2685747  49.4692850  71.6409445
  28.4961581  49.9238777  71.3048601  29.2561173  48.6189699  71.2015772
  32.9069519  83.4460449  69.0807772  32.0409417  83.4676552  68.6736012
  33.1995416  84.3573666  69.0699005  14.7830331  37.4356008  71.2094021
  13.8802242  37.5487542  71.5066671  15.2126527  36.9634700  71.9226742
  71.7543173  35.9973383  20.7858253  71.4429617  35.9650326  21.6903949
  70.9581709  35.9491324  20.2566195  21.7315745  50.9971142  35.7558084
  21.6167355  51.9472933  35.7700133  22.6491976  50.8703423  35.5147123
  39.9193501  77.8428936  33.5117054  39.1792178  78.2680750  33.9448953
  40.0170612  78.3158064  32.6852441  58.9849854  78.3815193  22.0543480
  58.3149576  78.9220476  21.6358733  59.6197796  79.0102100  22.3978758
  77.0703745  14.8082793  53.1418943  76.4973402  14.5263946  52.4288702
  77.7409220  14.1271758  53.1937933  71.7991829  11.0004652   8.7385577
  70.9073973  10.7902741   9.0156335  71.7891359  11.9470704   8.5968906
  61.6759920  84.7893524  44.9783611  62.2504950  84.9610043  45.7244968
  62.1760654  84.1904736  44.4238329   0.5399743  70.3198099  66.4872694
   0.3038505  69.7614288  67.2280025   1.2351699  69.8396397  66.0374117
  44.1681290  85.3587341  24.6417284  44.7064114  84.8012638  25.2036071
  43.7069893  85.9370708  25.2492762  80.7312584  32.8989673  29.5889640
  81.2329006  32.1074128  29.3939567  81.1132050  33.2304382  30.4016614
  68.5710144   7.4984848  54.9711609  69.0664387   6.6884583  55.0921774
  68.1219816   7.3817962  54.1339111  22.2170424  38.2198763  73.1592607
  22.7523160  38.1116009  73.9453888  21.3218522  38.0528355  73.4541559
  10.1136005  55.6995583  27.8062153  10.4082739  55.1340008  27.0923924
  10.7454944  55.5472803  28.5088921  69.6058130  25.4475594  35.3406572
  69.3790293  25.7670522  36.2139988  70.0829649  24.6332026  35.4999661
  72.4152565  22.3846459  16.2586093  72.8225899  21.8548536  16.9439077
  72.5569057  23.2888579  16.5389061  21.4780927  42.5557995  73.4657288
  20.8033729  42.3963022  74.1256905  22.1294594  41.8713284  73.6188555
  66.2738037  78.2939720  60.6108665  66.0128212  78.1728172  61.5237999
  65.5414724  78.7646055  60.2128410  84.7005081  26.9955993  33.9509749
  83.8000584  27.2266388  33.7228513  84.8345375  26.1345720  33.5548711
   9.1080481  12.0282161   0.2600181   9.2223281  12.9380286  -0.0145963
   9.8696941  11.5724146  -0.0982729  69.5147657  84.2090607  27.8252316
  69.3938160  84.2523479  28.7737727  68.6280489  84.2589664  27.4681902
  64.4424295  81.7402077   8.4753466  65.3787470  81.7791367   8.6703402
  64.0340853  81.5025902   9.3078274  53.9765692   0.0976493  38.8408923
  53.4156609  -0.6726942  38.9313483  53.5254574   0.6486139  38.2012296
  20.6339002  85.1059532  39.9284196  20.0385237  85.8137798  40.1748943
  20.6129408  84.5050716  40.6732225  90.4983616  72.5529861  32.8867912
  91.2646294  72.6943731  33.4427381  90.0477982  71.8081522  33.2848525
  74.6991205  66.4391422  72.0112562  73.9165068  66.1266327  72.4652243
  74.7279549  65.9267759  71.2032461  77.6325226  63.0892897   2.0387125
  77.8146839  63.4608459   2.9018432  76.6861773  63.1850910   1.9315784
  89.0296841  20.6941843  42.7533817  88.4768486  20.6925440  41.9719648
  88.4145355  20.6121325  43.4821463   8.5934210  68.1337500  56.0078096
   9.1190684  68.5630655  56.6828012   7.8768986  67.7201366  56.4892197
  74.5657015  56.0453176  60.0353909  74.6805429  56.2827587  60.9555340
  75.0366545  55.2173424  59.9411154  87.3678398  25.6885433  18.9339077
  87.2318172  26.5185523  18.4769475  88.3010578  25.5054307  18.8252199
  69.1986084  84.1715240  47.5840425  69.1043663  83.2268047  47.4621773
  70.1444292  84.3169022  47.6068974  80.7406139  19.5507407  18.9270747
  80.2801418  19.6226299  18.0909920  81.4649677  18.9503729  18.7507272
  74.3405437  10.0424540  17.2893381  75.0752449  10.6027222  17.0392466
  73.5838032  10.6285703  17.2960007  56.4803934  10.2968991  38.3245611
  56.1473799  10.4382038  37.4383521  57.0063686  11.0749197  38.5096645
  55.7163239  11.7521369  41.2750864  55.5312586  10.8143687  41.2243509
  56.4298201  11.8895185  40.6519604  84.2382908  32.7372098  57.2376490
  84.2676163  32.4829674  58.1600046  84.1503239  31.9101310  56.7639065
  60.1563835  26.2179160  26.5768790  59.7778511  26.0098839  27.4310851
  59.5177460  25.8875608  25.9450293  18.0676854  77.0767593  68.2712221
  18.6930883  76.6755867  67.6677656  18.1731236  78.0182600  68.1345081
  45.8528328  41.7284775  24.3713379  44.9334335  41.9754124  24.4711494
  46.2868166  42.5319099  24.0842962  79.6872759  35.7950950  36.7597628
  79.6058226  36.2503791  37.5978041  79.9845123  36.4693332  36.1487913
  60.3547955  20.1900244  27.2110391  60.4143620  20.0223041  26.2705302
  59.6214199  19.6495366  27.5047374  42.2377443  70.3526974  71.6193962
  42.2574186  71.2844992  71.8375397  42.2097492  69.9088192  72.4669981
  49.7336912   6.9919723  21.8896484  50.0937700   7.3946583  21.0994482
  50.1343632   6.1231822  21.9196224  21.9838786  56.2561750  73.7848520
  22.7780414  55.7667208  73.5704470  21.3332009  55.5824232  73.9821005
  63.9288902  32.4692750  20.7020092  63.9206123  33.1849360  21.3376141
  64.7762823  32.5478697  20.2638555  81.7121029  54.8090935  68.0271578
  82.5623512  54.9729729  67.6191807  81.0783768  55.1989746  67.4249840
  45.8421564  76.8521929  20.0652981  45.9171486  77.4342775  20.8214641
  44.9207592  76.9064951  19.8116946  22.8974128  73.2733393   5.6996650
  22.8759742  72.6765060   6.4477044  22.0068550  73.2505655   5.3494924
   4.4033143  63.9510393  38.4636283   3.4613854  63.9960194  38.2993770
   4.8031518  64.0953207  37.6059890  66.0751438   9.9375206   5.7607466
  65.9183741  10.3686571   4.9206412  66.5024137   9.1124976   5.5305147
  47.1299076  75.3826141  30.0073409  47.1069574  75.7740259  29.1341281
  48.0568361  75.2033949  30.1651931  72.2473001  17.9461753  13.9261281
  72.4241066  17.0389569  14.1749799  71.7591572  18.3067894  14.6663332
  69.6714544  20.3526855  13.1925189  70.2229643  19.8923719  13.8251173
  70.2810431  20.6573653  12.5203574  75.4203653  27.4740767  25.0536203
  75.3600740  28.4290504  25.0785160  75.0089598  27.2296429  24.2246294
   9.0625721   0.7441937   7.1344608   8.2812732   1.0434911   6.6694611
   9.7933865   1.0645583   6.6057748  52.7446604  68.0981827   6.0150570
  51.8444157  68.0203962   5.6992495  53.1865311  67.3211098   5.6728029
  75.3492069  41.7893171  64.3730307  75.2945185  41.3471079  65.2201986
  76.2794876  41.9877052  64.2660189  62.5231791  22.3296070  35.8966732
  62.9871845  22.5825834  36.6947532  63.0017281  22.7670670  35.1925063
  60.8611870  30.6939006   6.2327963  60.1060438  31.2751722   6.3228869
  60.5949259  29.8856568   6.6710651  48.7672043  84.5625210  18.8036001
  49.3107796  85.2564335  18.4304440  48.2038021  84.2850113  18.0812418
  47.0873642  26.1493468  15.3428638  47.0932817  25.3044605  15.7927155
  46.1709213  26.2865686  15.1030040  43.6936665  69.0614748  12.1606195
  44.1572475  69.4469595  12.9040742  43.9597321  68.1419992  12.1630919
  57.8855133  34.9772763  24.7252393  57.7521276  35.3564978  23.8565445
  57.8349495  35.7234502  25.3226519  87.7745152   7.0905799  30.0156522
  87.1822071   6.5169573  30.5018258  87.2608471   7.8813887  29.8513436
  39.4685912  15.1870954   7.8470427  39.4134450  14.5104170   7.1722853
  38.5635519  15.4706275   7.9764390  84.2899799  57.5817204  65.2384615
  83.7865448  56.7920780  65.4365778  84.2197418  58.1154108  66.0299635
  21.5787816  54.8678970  37.4840021  22.3789120  55.3873825  37.4055552
  21.3222623  54.6851730  36.5800977  15.3312349  32.5519562  72.5875854
  14.3795764  32.6469231  72.6270533  15.5532742  32.0397544  73.3651352
   3.6493021  20.4021835  70.1748610   2.9506737  20.1017213  69.5935917
   3.2708371  21.1496449  70.6377840  67.6090479  25.2789307  18.5859811
  67.9281235  26.1254072  18.8988721  67.7761173  25.2934623  17.6435852
  44.0074396  83.2957745  39.0655756  44.9070168  83.3622551  38.7453008
  43.9633560  82.4333763  39.4785714  50.9764767   4.9424559  18.8293707
  51.1619997   4.9540770  19.7683477  50.6808758   4.0489608  18.6546731
  27.6758003  59.8966742  72.9003906  28.6260056  59.9423742  72.7943087
  27.4812937  60.5293322  73.5918713  79.7191429  30.0805712   6.0232389
  78.8190985  30.4025698   5.9735227  80.1700401  30.7149482   6.5804553
  76.1045074  82.5393009  16.4817262  75.4993391  83.1898689  16.1256862
  76.9511795  82.7629948  16.0952818  72.8770399  44.9082518  11.3845992
  73.7117290  45.3442192  11.2129748  72.7951145  44.2628431  10.6824815
  26.3723493  75.2750587  37.0493698  25.5212688  75.6756258  37.2266841
  26.6057253  75.5857944  36.1746049  77.0644855  28.8156295  38.2078719
  76.1380482  28.8377595  37.9681659  77.5257826  28.7301040  37.3735332
  73.0603838  31.2701249  13.3924758  73.8890028  31.4044857  13.8524449
  72.8792906  30.3356314  13.4932590  72.2322559  81.1632156  11.4384961
  72.7353001  81.2578869  10.6296599  72.3099232  80.2356434  11.6616774
  54.5035553   1.4898235  66.1590815  54.5424509   1.7205958  65.2309322
  55.3927612   1.6390301  66.4804506  62.8931999  48.5034513   3.6818948
  63.4531689  47.8203201   4.0506786  62.8474426  48.2975149   2.7482310
  68.4160376  24.8692322  15.4187143  68.5745430  25.3652883  14.6155715
  69.2618513  24.4716740  15.6255460  56.1787271   8.6323512  31.5637064
  55.3470945   8.4262979  31.9905090  56.7462492   7.8909004  31.7744207
  82.3935890  44.3553495  66.2028170  82.2872734  44.2186117  67.1442175
  83.2293701  44.8146057  66.1203814  82.7814293  46.0724926  28.0146551
  82.6014233  45.9152269  28.9415336  83.7043285  46.3251781  27.9894090
  76.7248917  10.1440156  45.3857613  77.1509504  10.4314578  44.5782471
  77.3309326  10.4006886  46.0807943  81.3683891  35.9175515  30.6796026
  80.4124641  35.9633803  30.6978512  81.5807819  35.1398563  31.1956573
   8.4540516  74.7891617  72.9492331   9.3320882  75.1596260  72.8595543
   8.4842688  73.9764786  72.4443913  90.1825428  75.3816271  70.3528309
  90.6890678  76.1878967  70.2548504  90.0405788  75.0775290  69.4563913
  33.3131695  34.0418386  28.6427474  33.1095958  34.6224618  27.9094911
  33.5925674  33.2243729  28.2305360   6.4679533  12.4011135  67.8709602
   5.6111526  12.5150645  68.2822227   6.8505180  11.6469800  68.3194637
  86.6492462  65.6257057  71.7125940  85.7192898  65.7459164  71.9048357
  86.9604206  65.0324488  72.3962975  34.1483879  73.7045527  15.6743371
  34.7620821  73.6942530  16.4088476  33.9560723  74.6319580  15.5358970
  12.4322569  17.0986640  25.8835053  12.9616189  16.3016748  25.8549237
  13.0472291  17.8022277  25.6760454  41.4216328  17.5556743  48.0745983
  41.9655991  18.2488453  47.7006340  41.9424438  16.7594802  47.9694128
  57.6085711  28.2981062  49.6360731  56.7848444  28.7706423  49.5159912
  57.6121283  27.6420236  48.9390945  82.4413776  47.2326899  39.4812655
  82.0267868  46.7578745  38.7609243  82.1566200  48.1392384  39.3658686
  70.8995581  22.1856022   4.9506786  70.0103474  22.1306205   4.6006703
  70.9474516  21.4793301   5.5949742   1.6265181  18.2274997  45.4288292
   0.9503701  17.7300036  44.9688816   1.9557758  18.8448000  44.7755623
   2.8174192  55.7543945  37.5376821   2.7824092  55.3516865  36.6700244
   1.9128087  56.0082912  37.7205706  85.0761604  47.7010202  71.4616251
  84.8786736  46.8399763  71.8301821  84.2551041  48.1874132  71.5359545
  62.5844955  45.8268404  57.7926922  62.7568054  46.0078812  58.7166834
  63.1867886  45.1165533  57.5714207  57.1171045   2.2576249   2.9090568
  56.4922619   2.5440317   2.2428899  57.9413366   2.6756769   2.6598430
  10.6188989  65.4005241  23.0911112  10.5951595  64.5735598  23.5725713
   9.7664922  65.4503584  22.6585031  74.8260832  16.7535102  55.8244610
  74.5538092  17.6243448  56.1138535  74.0466404  16.3846087  55.4089928
  43.7751865  31.9229698  15.4114151  43.6165619  31.0214376  15.1315749
  43.5492849  32.4540567  14.6477747   9.2230517  65.0669432  20.5936861
   9.6001333  64.2031431  20.4266739   9.7035033  65.6547976  20.0107408
  49.7706318   7.0691025  49.2184401  48.8526583   7.2901815  49.3755436
  49.7778034   6.1148357  49.1439056  53.4776306  11.2328720  29.1148949
  53.8540268  10.3965020  28.8409567  54.2212772  11.7301154  29.4554377
  85.4245186  71.2813807  64.7049189  85.8729076  71.3911343  63.8663864
  84.6488667  70.7610655  64.4954586  19.1841114  15.1500201  19.5251977
  19.3791568  16.0865700  19.4926202  19.9736106  14.7536242  19.8936999
   8.0599511  76.5838051  32.1987271   8.3548528  75.9009457  32.8011918
   8.0758822  76.1665201  31.3374209  68.8932562  79.9261856  66.5026712
  68.2225180  79.4400215  66.9822359  68.6698008  79.7968388  65.5809498
  62.9560471  21.1914206  27.1137619  62.0652342  21.3209939  27.4391842
  62.8542614  20.6049180  26.3641715  87.3801613   0.6326132   3.4569272
  87.2505760  -0.2048766   3.9019555  87.7386379   1.2093644   4.1315264
  78.9842463  39.7430944   5.0436217  79.3079662  39.4952440   4.1775912
  78.1830359  40.2363873   4.8676816  54.3223000  15.9743762  67.2035265
  55.1908922  15.7199752  66.8919754  53.7453604  15.8223855  66.4550161
  59.7885370  71.9108820  72.0757866  59.4147348  72.7844715  71.9602633
  60.6875086  71.9909430  71.7569304  44.7996569  70.7737732  34.3560314
  45.6597614  71.0267210  34.0206623  44.1835213  71.0804844  33.6908007
  50.9878302  84.6671295   3.8101044  50.2873611  84.0605354   4.0501460
  51.1850214  85.1378250   4.6199131  54.8398638  29.7671461  18.7187922
  55.0053692  29.0705132  18.0835438  54.9836063  30.5769420  18.2290971
  37.5053120  83.8305950   6.0827142  38.3579946  83.6682224   5.6792271
  37.6110315  84.6657848   6.5382379  82.8117180  11.9287634  20.5996442
  82.9888153  12.8196228  20.9016991  83.1473160  11.3676560  21.2987566
  66.1185551  16.8142557  24.9007535  66.8142796  16.2842882  24.5117426
  66.3943911  16.9428015  25.8082914  21.8148398  25.0015092   4.9894586
  21.8231010  24.2460871   5.5772525  22.5642657  25.5286741   5.2663928
   6.0054100  49.6524954  26.1783338   6.2150532  48.9372063  25.5777931
   6.8534452  50.0405455  26.3939404  73.8102818  45.2956343  14.7964597
  73.3774185  45.7692146  15.5068004  73.1929779  44.6037626  14.5588028
  66.8536425  14.4561231   9.6680695  67.3127556  13.7753272   9.1761684
  67.5496578  15.0265396   9.9942952  26.1638021  37.7969432  73.0659389
  26.4624429  36.8875289  73.0696344  26.1027861  38.0252337  72.1383667
  48.0844688  14.2194486  68.3701658  47.3334312  13.6668706  68.1537724
  48.8290024  13.7856185  67.9533958  11.9544387  12.4324703  71.3834763
  11.2762642  12.5579393  70.7197237  12.7337098  12.8446949  71.0105991
  63.9310837  11.2432086  35.7022119  63.4566069  10.4400325  35.4877090
  64.7152042  10.9427261  36.1616635  30.5733228  79.2546892  72.2977400
  30.0992107  79.4926405  73.0945015  31.0266876  80.0573635  72.0400524
  86.9544983  29.1280484  49.3161678  87.6968288  29.7300935  49.2640400
  86.3448238  29.4411206  48.6479425  86.9986916   9.0055525  25.7766032
  86.2974167   8.4888440  26.1734128  87.7539825   8.4175968  25.7680464
  72.3796606  17.1954012  21.3306904  73.2719660  17.1225452  21.6693830
  72.2694683  18.1278634  21.1446738  86.8373394  47.5648451  49.7694397
  86.4785290  48.3611584  50.1610613  87.6624680  47.4208784  50.2327728
  15.8376682  31.1371708   8.1987584  16.3522446  31.8697929   7.8600705
  16.0069394  30.4218912   7.5856084  43.8198233  13.7684834  64.6637154
  42.8791285  13.8477039  64.5054436  43.9724541  14.2775035  65.4598522
  60.9926748   8.8063556  41.8440771  60.9973574   7.9687512  41.3807964
  61.8808842   8.8936818  42.1900415  14.8514950  37.4977350  67.0846987
  15.4585230  37.6319075  66.3568592  14.1563416  36.9506478  66.7190647
  72.4248886  19.3254900  18.6287105  73.3723211  19.2915261  18.4966111
  72.3198605  19.5766807  19.5463729  36.7632675  76.2473917  16.4218950
  35.8534431  76.4288902  16.6574991  37.1292424  77.1041203  16.2021029
  76.9830322   9.8302960  37.2233367  76.0959291   9.5006561  37.0797396
  77.1583748   9.6514708  38.1471920  33.2377172  78.9936399  64.7290564
  32.8171754  78.6368370  65.5114031  33.5304308  78.2233334  64.2420483
  54.8113346  23.4504962   5.5531001  54.3832254  24.2623758   5.8247656
  54.4352722  23.2571578   4.6943635  23.9697981  24.5829606  63.5734367
  23.4997463  25.1846671  62.9961777  23.3181381  23.9248657  63.8152599
  67.3911619  75.6154680  21.0681844  66.8310642  75.6620789  21.8430066
  68.1112003  75.0404978  21.3273811  58.1249094  44.3393135   6.8855256
  57.6758480  45.1004791   6.5178329  57.4288321  43.8249254   7.2943175
  79.4767237  41.2345266  43.2204199  79.3392515  40.3858185  42.7996731
  78.5984373  41.6061020  43.3027506  10.4541028  63.5010052  29.3795967
  10.1254570  63.0430079  30.1531982  11.2548912  63.9318466  29.6785069
  55.3784657  13.5035539  18.2646036  55.8892679  14.3097782  18.1916749
  55.7830381  12.9059827  17.6357436  52.6980925   6.1970794  38.4216619
  52.2482967   7.0277095  38.2668519  52.1050596   5.5340552  38.0681920
  45.0015163  77.4811268  48.3611965  45.7543802  77.8483295  47.8979635
  45.3852558  76.9177151  49.0331650  43.6877060  25.2708101   2.9436070
  44.5043755  24.7718906   2.9245147  43.2035398  24.9671888   2.1757331
  65.2649117   1.5424913  32.2717452  65.0763273   0.6638390  31.9421434
  64.7131062   2.1197979  31.7440534   4.6069631  42.1322250  27.6490259
   5.4779303  42.4540377  27.8815866   4.6942088  41.1790323  27.6554823
  54.4600582  38.9806032  63.0831289  53.9174843  39.3955207  62.4125385
  54.2758799  39.4765162  63.8808632  84.5076466  20.7307887  41.0168028
  85.3379059  20.2914143  41.2007761  84.7405434  21.4435625  40.4218721
  43.9967394  67.6567984   8.0744314  44.8352861  67.7496290   8.5266024
  43.5041475  68.4398746   8.3201504  18.5882795  20.3309226  33.7997556
  18.0092466  20.0660157  34.5144415  19.0043759  21.1337614  34.1136694
   7.6319373  81.0535717  60.2267313   6.8527174  80.4979038  60.2436686
   7.7865934  81.2772560  61.1444855  69.1818654  -0.1495583  24.4349146
  69.0290867  -0.4259617  23.5313129  69.2962872   0.7991378  24.3790913
  65.6081963  73.3596992  56.4470148  65.2947760  74.1077185  56.9554090
  66.1911869  72.8913784  57.0445347  15.0945175  76.3342857   8.5664546
  15.2650094  77.2751999   8.6093867  15.9626317  75.9362888   8.5015738
  87.8506947  82.1142483   9.0082240  87.3669147  82.3269367   9.8063153
  87.2812462  82.4085331   8.2973468  72.6845074  26.7200303   2.9908609
  73.0654764  27.5904989   3.1065419  73.3894968  26.1992359   2.6061606
  50.4130125   0.1844475  67.2629166  50.6159687  -0.5265983  66.6550875
  50.2337646   0.9372750  66.6995764  67.9012203  51.8325663   8.2276344
  67.3038054  51.1464643   7.9299927  67.5544930  52.6364851   7.8406894
  90.6873703  65.6355572  54.3563747  91.6253853  65.8238935  54.3263721
  90.3709698  66.1159945  55.1214266  81.2716007  67.8085232  13.2968569
  82.0284176  67.3371983  12.9485559  80.6149673  67.7536535  12.6025534
  85.0634670  48.1065130  21.2977362  84.7344875  48.4622192  22.1232557
  84.7001362  48.6840200  20.6263900  47.7688551   5.6377161  16.6541696
  47.3263836   5.6796938  17.5019240  47.9321480   4.7048476  16.5151572
   6.4224035  43.2271004  33.5050511   6.3196260  42.9321814  32.6002359
   5.6743824  43.8052177  33.6549616  88.6111641  44.3653536  28.3754802
  88.4638691  45.1390314  28.9195037  88.3590126  44.6407652  27.4941182
   8.8023233  78.7575483  48.0798626   9.5797002  78.4339476  48.5350561
   9.0612602  79.6157026  47.7440691  79.7509050  38.8147163   2.5508147
  78.9797401  38.5751629   2.0368585  80.4375267  38.9585638   1.8995948
   9.9377495   4.7457567  16.3326025  10.5685008   5.4333895  16.1191869
  10.2340364   3.9853305  15.8324051   3.0482838  27.3521328   9.6724480
   2.2954485  27.0370555  10.1726460   3.5987237  27.7925396  10.3199732
  72.8010702   1.4949837  12.1026421  72.6818895   1.1760399  11.2080455
  73.1970692   0.7586285  12.5686872  53.9572906  37.6675200   2.9326484
  53.9933157  38.6086798   2.7618986  54.4801140  37.5477505   3.7254578
   0.9712137  45.0951052  23.7526083   1.0481275  45.1132011  24.7065401
   0.2513326  45.6955194  23.5589266  85.1460266  10.5068600  34.4088149
  85.0670433   9.6655351  33.9591861  84.9372292  10.3108394  35.3221679
  80.4595470  30.6231642  18.9176464  80.9767246  30.0762272  18.3263671
  80.9528065  30.6219435  19.7379637  62.1064663   9.9631268  10.4861939
  61.9007826   9.4727159   9.6903145  61.4499760  10.6591284  10.5150461
  51.2667227  68.8537216  11.4469790  51.1396408  68.6305332  10.5248785
  50.9777641  68.0756426  11.9237626  82.8785133  38.7233686  54.7533703
  83.7694454  38.3914804  54.6423721  82.5268078  38.7673807  53.8642168
   7.7490091  56.7187643  42.1403170   7.8771150  56.1656618  42.9109621
   7.6224774  57.5986338  42.4953508  67.9546356  40.8692741   0.9811635
  67.7315187  40.1535416   1.5762903  67.5465536  41.6418552   1.3720854
  67.9859734   6.5989971  40.7496834  67.0758629   6.3153857  40.8362627
  68.1810379   7.0346814  41.5793562  23.3305764  10.6708753  40.8347797
  23.1868601   9.7941947  40.4783964  22.4525380  10.9944129  41.0362816
  18.0756402  75.2691936   8.0572683  17.9295027  74.3470240   8.2681733
  17.9529905  75.3204441   7.1093434  87.8600121  34.1762280  13.2040644
  88.5230255  33.8392639  12.6014817  87.7817917  33.4997535  13.8767409
  69.3286800   7.2855395  38.0869794  68.8239098   7.1643788  38.8911915
  69.0017653   8.1071496  37.7204919  67.6147223  51.1392164  19.9161208
  67.7969885  51.6207266  19.1091764  68.2742786  51.4515114  20.5355501
  70.7509661  30.2233720  23.7170267  69.8098421  30.3038216  23.8721108
  71.1459541  30.8727765  24.2988253  89.9872684  11.4360559  25.1349592
  89.3242359  11.8066359  25.7174492  89.5170784  10.7751751  24.6266317
  87.8866005  82.2563171  69.7796679  87.6259232  81.6565132  69.0807295
  88.7274170  82.6104927  69.4901419  83.5657120  22.4305654  31.2430525
  83.2579231  23.3277082  31.1140919  84.5090961  22.5182581  31.3792896
  73.6486006  42.8753614   5.5003917  74.5815086  43.0659151   5.4024047
  73.6054325  42.2599077   6.2322307  86.2703705  69.7150278  41.2166119
  85.6016064  70.3668547  41.0066032  87.0696640  70.0533295  40.8129740
  62.2585106  14.6242762  47.2835064  61.5119648  15.2222419  47.3201036
  61.9038820  13.8215232  46.9013262   5.9274215  43.1334734  30.8413887
   5.0611854  42.7657461  30.6663394   6.3735229  43.1090450  29.9948478
  67.7016211  47.9549026   2.3707868  67.9986572  47.3863649   1.6603170
  67.8765154  48.8420296   2.0566984   6.2878156  33.4590197  28.6555052
   6.6267049  33.9372277  29.4122767   5.5535305  33.9894700  28.3461833
  79.9636889  48.3222151  43.0516958  80.7724285  47.9721546  43.4253693
  79.2722464  47.7712011  43.4184599  22.4214458  33.2535052   6.7955273
  23.2923269  33.5175228   7.0923269  21.9289494  34.0723872   6.7397511
  38.9837241  72.4008226  28.8772082  38.4022832  71.8395948  28.3641958
  39.8190117  72.3703527  28.4107304  52.1431589  14.2715847  74.1967154
  52.6980019  13.5348701  73.9405251  51.6258192  14.4650161  73.4149361
  63.8693190  33.9958668  15.6564081  64.2166901  34.3554354  16.4726651
  63.3288622  33.2553697  15.9317350  76.5343189  71.3879204   6.1914861
  75.8502436  70.8260918   5.8273184  76.9323635  70.8617973   6.8850178
  78.7233400  81.6967964  19.9307919  78.0304193  82.3390007  20.0846338
  79.4674921  82.0212269  20.4379511  14.7721100  54.7024536  69.0061808
  15.1971483  54.7776079  69.8605394  14.2733967  55.5143166  68.9145327
   2.2497453  43.8362265  36.6051149   1.4200643  43.3643532  36.5330243
   2.2139411  44.2535400  37.4658108  84.2856121  17.1995711  13.8069963
  84.7283745  17.9979730  13.5193253  83.3919811  17.2886515  13.4757781
  71.5126610  47.2335720   8.7449980  72.0045042  47.4319983   9.5418346
  71.9609547  47.7265644   8.0578136  87.4027061  43.7750006  31.5783334
  86.7916489  43.5562944  32.2818971  86.8639469  43.7835121  30.7871962
   5.1303911  30.6784415  70.7345390   4.7842377  29.9638486  71.2691069
   5.3800726  30.2614427  69.9099159  84.2485619  53.1094885  44.5342207
  84.5357323  53.4358454  43.6814260  84.3841839  53.8458729  45.1305246
  78.1902695   3.4060636  29.6114159  77.4892187   3.1763288  29.0015173
  77.7455521   3.5384521  30.4486322  75.0267982  20.6906700   1.6178837
  74.2820978  21.0471535   2.1022069  74.7104263  20.6089950   0.7181785
  90.2614117  20.8126998  55.0143290  90.1419640  21.2502360  54.1714048
  89.3717957  20.6490350  55.3274298  85.2735233  15.9432292  26.9691825
  84.8573208  16.7737925  26.7385840  85.2764893  15.9344339  27.9263377
  89.3748856  21.8110132  12.9218316  88.5430527  21.4593887  13.2390606
  89.7864628  21.0773396  12.4651408   8.6823523  31.6420054  18.5913742
   7.8654063  31.3742399  18.1705022   8.4288549  32.3600984  19.1712987
  76.7721128  41.5966415  26.8663883  77.5000238  41.5438080  26.2470436
  76.5002775  40.6878519  26.9945955  15.0326347  36.1803031  50.1842213
  14.7626936  35.2621102  50.2011395  14.3757904  36.6130471  49.6387720
  89.1292667  30.2525926  16.8102455  89.5286179  31.0750031  17.0937860
  89.7714806  29.5818925  17.0425284   2.1039215  22.6360846  23.0188298
   1.6159943  22.8129292  23.8231206   2.1024606  21.6819191  22.9426932
  45.4993820  11.6875207  41.0213232  46.4077997  11.5273833  40.7656717
  45.0172567  11.7040670  40.1945782  64.9810791  24.1916442  44.1777134
  64.2540264  23.5942411  44.0023899  65.3259897  24.4097495  43.3118629
  78.0732775  34.2824507  43.4632206  78.6578798  34.8105454  44.0069008
  78.6385775  33.6054564  43.0912685  83.0306435  33.0578923  41.6576385
  83.4200287  33.6606097  42.2911596  82.9970360  33.5570073  40.8415604
  72.7385616  42.9314756   9.5508802  72.4887323  42.2741222  10.2002680
  72.0977449  42.8287268   8.8472956  77.6047134  28.5925698   9.0152586
  77.0667791  28.5632086   9.8064601  77.5445223  29.5005393   8.7182689
  63.2102156  83.1395435  12.9833877  62.7532578  83.5220146  13.7324822
  63.8847780  83.7812710  12.7611768   0.8733305  55.5465078  23.6187387
   1.5248848  54.8488283  23.5483813   0.5671427  55.4978418  24.5243406
  84.4272349  25.5837421   0.1315332  83.8402889  24.9034290   0.4615331
  83.9777634  26.4050750   0.3305889  54.0089560  25.8247757   6.5416694
  53.7194490  26.6693330   6.1964971  54.4101334  26.0354376   7.3848259
  61.8292809  49.6146107  27.2315860  61.0616207  49.5935202  27.8029728
  62.5178814  49.1857529  27.7396607  75.7943916  19.9300444   9.7391820
  75.8407927  20.7222319   9.2039084  75.4682016  20.2324462  10.5867577
   6.6255254  41.5766764  37.9874659   6.9104820  41.7922592  38.8754749
   5.8099216  41.0906267  38.1090117  27.9488635  83.8854885  64.3516159
  28.0836415  84.2863655  63.4929180  28.7458372  83.3786392  64.5070696
  90.9222984  38.1181312  51.5567207  91.7497826  38.5317850  51.3109732
  90.6451607  38.5862112  52.3443270  33.2549119  23.4101796  61.4574575
  34.0852475  23.6001420  61.0207748  33.3042955  22.4784207  61.6710377
  64.7640610  45.9240961  50.6058264  64.2540407  46.6314888  50.2112389
  65.4348183  46.3714170  51.1217880  76.6523552  11.0836256  16.3144934
  76.4807940  11.1411035  15.3745496  77.3028517  11.7657018  16.4813840
  14.1870213  66.5644455  45.9294224  13.7908220  67.4312258  46.0185432
  13.4581232  65.9548855  46.0450697  83.3927536  44.7164392  11.8401158
  84.0592957  44.0303707  11.8757212  82.7225018  44.4316769  12.4613273
  89.3291283  21.1930442  51.8717766  88.7624931  21.9580936  51.9711065
  88.7260246  20.4678893  51.7085361  77.5032616  56.2738991  32.4424958
  77.9453230  55.6918478  31.8244123  76.5723705  56.0831261  32.3272848
  56.8595219  62.6821899  18.9236546  56.9211912  62.1433735  18.1349158
  57.5737524  63.3137655  18.8387144  79.4681931  64.4605207  23.6174607
  79.9868822  63.8276291  23.1208301  79.9661589  65.2759695  23.5599899
  24.7852039  31.3996124  73.3316278  25.5340862  31.0633087  72.8393793
  25.1259112  32.1668386  73.7915325  80.3240681  53.9153004  10.8393979
  79.7586107  54.6143627  10.5110657  80.4655361  53.3463812  10.0827265
  53.5656977  62.8703594  14.5364523  53.3414078  62.0672512  15.0065005
  52.9962492  63.5383272  14.9182630   5.3375924  54.0762806  42.9465246
   6.2645370  53.9929628  42.7227783   5.2781743  53.7528133  43.8454533
  76.0601568  53.4018564  11.2537539  75.4387617  52.8111887  10.8280635
  76.3828468  53.9602661  10.5464482  89.0836048   2.0228495   9.3723696
  89.4985294   1.9905531  10.2343583  88.8254261   2.9382968   9.2649770
   4.3690762  32.8251648  42.3556519   3.8873950  32.1423292  41.8887997
   4.3243539  33.5872602  41.7782068  83.5414791  16.7927587  41.6787338
  84.3821144  16.7938161  42.1365023  83.6004257  16.0552943  41.0713625
  79.6333504  26.7498875  10.4042649  79.0278101  26.2580895  10.9589565
  79.0673399  27.2782421   9.8414987  76.5223360  43.9657974  21.6286135
  76.0299873  44.4525576  22.2895908  77.0963144  44.6189070  21.2283349
  75.3979492   4.7561082   9.7691453  74.7332048   4.7240755  10.4571283
  75.4760456   5.6856906   9.5546460   1.9704419  27.9188824   5.1698190
   2.1311685  27.9638886   6.1123544   1.2545857  27.2900128   5.0786823
   1.3506517  49.2152786  14.2724228   0.8255498  48.4163809  14.3200314
   0.8248490  49.8164082  13.7447810  34.4453454  78.6223316  71.0467386
  35.0067210  78.8631058  71.7837048  34.0875459  79.4541550  70.7364368
   4.0186229   3.1233445  44.1241932   4.7929698   3.4122983  44.6070242
   4.2353070   3.2838997  43.2057714  64.7817373  17.6253188  33.4188199
  64.5065737  18.0546105  34.2288971  64.1358042  16.9319344  33.2838511
  76.8581247  72.6671171   1.8629694  76.3167000  73.3150530   1.4121188
  77.4344301  72.3207903   1.1816726  70.9997034  26.2852812   9.1515166
  71.0065413  25.7480073   8.3593547  71.7912340  26.8194604   9.0854621
  91.0579205  13.9649975   7.5921929  90.9024334  13.0798447   7.2627079
  90.3801918  14.0962338   8.2552791  62.9897451  63.4878206  10.9237635
  63.5066843  64.2890692  10.8400464  62.7135277  63.2864809  10.0296724
  80.2599907  19.2964387   7.7693975  79.5386171  18.9654326   8.3044499
  79.8913956  20.0516939   7.3111892  90.1290155   2.4039639  74.0555164
  90.9882498   1.9847096  74.1021248  89.5527530   1.8252934  74.5548113
  88.9084911  15.8407795  43.7363720  89.4873810  15.0998056  43.5572910
  89.4738770  16.6096568  43.6628866  70.9748173  31.8430996  58.7850809
  70.2948952  31.5578055  58.1747150  71.3928795  32.5850987  58.3481693
  31.4967442  81.9927692  62.5392199  31.8732119  82.7921486  62.1711254
  31.1491323  82.2612953  63.3896875  38.2596135  81.6767502  24.8607802
  38.2071376  82.2889805  25.5947089  37.5058436  81.8948269  24.3125963
  12.5191665  68.5132599   7.4604458  11.9301021  67.7790880   7.6342964
  13.3968329  68.1370783   7.5269264  75.7188177  22.9292464  20.8336115
  75.2464676  22.7074146  20.0311732  76.6009665  23.1541562  20.5378675
  65.5448961  37.1784925  45.7681751  64.8561716  37.5381732  45.2091455
  65.2274227  37.3194742  46.6601229  20.8362246  13.3363807  73.6169672
  21.0394311  12.6107585  74.2072296  19.9398732  13.5849857  73.8427544
   1.6755524  51.4726496  43.2540989   1.2268868  52.2395372  43.6102152
   1.7834370  50.8883381  44.0045500  23.7223530   6.2230986  58.1582117
  24.3588352   6.5439951  58.7970734  22.8824925   6.5656549  58.4640169
  87.6646423  24.4524097  31.9915462  87.9426098  23.9213228  32.7378130
  88.4805679  24.6996713  31.5563917  65.2065849  35.0577211  24.9244905
  65.8873749  35.5774403  24.4971204  64.3892908  35.3640127  24.5314860
  25.8348322  36.5369320  28.8163781  25.1264215  36.4306951  28.1814790
  26.1891413  35.6549740  28.9297223  25.8642673  80.8769321  13.5584247
  25.9958220  80.1341820  12.9691482  26.1286736  81.6400528  13.0446398
  83.0689812  20.2270937  34.6392322  82.7291298  20.9464431  35.1714659
  83.0683899  19.4724393  35.2280712  35.1802039  12.1941197  12.7718365
  36.0340524  12.0395648  13.1759250  34.9255061  11.3424230  12.4169087
  71.5848875  50.7179594  36.8816113  72.5216389  50.8248091  37.0468760
  71.5311861  49.9773407  36.2776017  64.5638704  42.3583269  43.0782747
  65.1007557  43.0500269  43.4649754  64.3048716  41.8127441  43.8208961
  47.8004122  43.8102388  23.2123828  47.4786425  44.6804762  23.4477210
  47.8592682  43.8268805  22.2571397  13.0457222  53.9479780  18.9411259
  13.2779634  54.6550655  18.3391941  12.7183688  53.2491589  18.3747995
   2.1091287  53.1017017  23.5423589   1.9682077  53.2104874  22.6018620
   1.3653782  52.5759649  23.8367534  62.3529816  37.1443415  53.3814335
  61.7980385  37.8999496  53.1882429  62.1448231  36.5121603  52.6935005
  53.1446409  68.6699724   2.1288614  52.7173138  68.5208130   1.2854329
  54.0665293  68.4676838   1.9693740  88.0464602  86.1240973  65.0457907
  87.8185535  85.5929177  65.8087683  87.8390336  85.5670367  64.2955303
  20.7876897  29.5134425   6.5723908  21.1747479  28.8531303   5.9975797
  20.4281402  30.1695919   5.9753793  73.0246449  28.2371306  37.2297931
  72.9111052  27.7361012  38.0374503  73.4915733  29.0272355  37.5017142
  22.7625608  42.2354746  18.3675265  22.2880387  41.6143751  18.9200592
  22.1423054  42.4620104  17.6745641  78.2645416  39.4904399  20.4164219
  77.3420572  39.5366549  20.6676698  78.6696339  40.2394962  20.8535051
  73.1098938  76.6673851  70.8065701  72.4804354  75.9467173  70.8321285
  73.5214281  76.5955162  69.9453449  22.6029277  72.0745087  57.3875809
  23.2976651  72.7328491  57.3750734  21.7957044  72.5759315  57.2727060
  14.6375811  39.9217582  30.4419112  13.7390149  39.6396708  30.6129003
  15.1698208  39.1459560  30.6182194  82.6103592  29.9079823  20.7164645
  82.5188541  30.8231354  20.9817028  83.5482216  29.7304654  20.7881427
  76.7637682  54.0916872  22.3121190  76.6883850  53.7124443  21.4364910
  77.4873066  53.6144924  22.7183294  90.6938076  55.2683401  29.6234751
  90.6638813  55.3279161  30.5783510  89.7789478  55.3369904  29.3504310
  51.7410898  54.7435236  30.6830597  51.4240217  54.6987724  29.7810078
  52.5858974  55.1888561  30.6181741  53.6024380  80.9624767  31.4558291
  53.3053780  81.8189240  31.7631984  54.2323828  80.6759548  32.1171236
  78.6832809  32.7065182  56.7087555  78.9463758  32.3143005  55.8761835
  79.0208340  32.1062541  57.3735666  78.0285645  37.7883768  24.5076632
  77.7360868  38.6941981  24.4067812  78.5464811  37.6149583  23.7215853
  68.7947512  59.3507719  46.0304165  68.0425024  59.8994732  46.2523890
  68.4542608  58.4564924  46.0542870  72.5906515  44.6961594  31.1053658
  72.9443741  43.8468647  30.8411384  71.6561556  44.5359755  31.2368870
  70.6817198  30.7220483   9.6509451  70.1637030  30.0841618   9.1600311
  70.0365543  31.2159634  10.1569498   9.1593361  65.4370832  73.0324078
   9.7298580  65.7271338  72.3206472   9.7540545  65.0432730  73.6707354
  15.9050167  36.3944221  26.0151505  15.6080949  35.5648565  26.3891697
  16.7798126  36.5229821  26.3818073   4.0301418  31.7277074  17.9061270
   3.4507266  31.8546033  17.1548569   3.6597610  32.2844911  18.5909927
  42.1875095  71.0115671  52.5726986  41.4690065  71.3047886  52.0123339
  42.4705744  70.1832342  52.1854401  73.8966227   4.1848829   0.6535884
  73.5087633   4.9865872   0.3027798  74.7433376   4.4617867   1.0037793
  34.7860813   6.2139028  73.6179590  34.8520136   6.9062483  74.2756367
  34.9435234   5.4050791  74.1050386  82.5314426  19.6962166  31.8166304
  82.7985477  20.5613232  31.5060210  82.7064610  19.7149837  32.7575064
  51.5417624  23.9719677  -0.1171691  50.7840967  24.0724826   0.4590883
  52.2878838  23.9014554   0.4782854  91.0125923  35.2645278  33.1229615
  90.1629543  35.2528405  33.5636568  91.0114384  34.4764900  32.5796127
  87.0349598  56.5033054  19.8086095  86.1188412  56.3041830  20.0017858
  87.1916008  56.1038780  18.9529502  38.1704021  11.2940967  70.3840303
  37.4419475  10.7542038  70.6907892  38.6531234  11.5192950  71.1793280
  87.0896435  35.4694271  25.9856987  87.3244953  35.3796935  26.9092894
  86.2372398  35.9047794  25.9965229  86.7590904  30.9578919   1.8032035
  85.8179665  30.7861400   1.8351293  87.1576691  30.1819444   2.1972498
  81.5082359  43.1842804  42.2775936  80.6684875  43.4348583  41.8925524
  81.2736511  42.6640129  43.0460501  90.4488754  26.5294671  47.7972412
  90.5457973  27.1109319  47.0430946  91.3325024  26.4554262  48.1577206
   1.1110026  33.6686850   8.8891363   1.5604465  33.8985181   9.7024065
   0.2518532  34.0838766   8.9647001  21.5767741  40.2433538  44.2539930
  21.4240170  39.9079442  43.3705902  22.4508119  40.6316376  44.2149496
  66.8726635  14.6562016  30.5744648  66.9673443  14.8037338  31.5154767
  67.3670244  13.8538587  30.4068828  19.4685924  42.4219942  34.3481135
  20.3540421  42.0625830  34.2930365  19.3990970  43.0045700  33.5918021
  72.7113819  15.7369792  43.7836075  73.0238438  16.4823866  43.2708025
  73.4211159  15.5558181  44.3997955  43.2019234  44.9283123  17.7427197
  43.5301685  44.6662712  16.8825901  42.3058605  45.2217960  17.5778925
  71.6293812  21.8602848  46.0165977  71.0972595  22.2035813  45.2988100
  71.9112062  22.6376200  46.4988470  70.1696730  72.2185040  15.8595514
  70.8255053  71.6526175  16.2668455  69.3318939  71.8114042  16.0800636
  83.7310696  18.8424873  23.8036966  84.6129608  19.2140687  23.8242531
  83.2134151  19.4811881  23.3134627  76.9179535  48.1746387  22.3623586
  77.1417665  48.0790806  21.4366126  77.7208185  47.9409742  22.8282332
  61.0142565  56.1832190   9.5628947  60.6107140  56.9832754   9.2263043
  61.9123888  56.4383984   9.7737908  41.4142990  51.1547327  34.4179463
  40.9814930  51.8191767  33.8818336  41.4502382  51.5396357  35.2936125
  81.6985893  39.9910331  35.9733248  81.7086887  40.3580379  36.8573141
  81.9599819  40.7186031  35.4089260  19.5786321  64.6400213  13.7442231
  19.1498280  65.4312325  13.4181237  18.9637673  63.9343643  13.5436571
  50.5100822  83.9107609  27.8730130  50.0549746  83.2305145  28.3693695
  49.9143505  84.1218090  27.1541286  87.3443604  44.1023159  59.2916727
  87.3395348  44.9015427  58.7649441  86.4330196  43.9874172  59.5609331
  78.7345314  82.3798370  38.6713171  79.6244860  82.2697163  38.3365178
  78.6367798  81.6867256  39.3242097  74.9623680  32.7064943  36.2524796
  75.5822945  33.3187437  36.6488099  74.2999935  33.2655859  35.8463979
  59.1295242  64.2965031  10.0466704  59.2652607  63.7779617   9.2536241
  59.0945578  65.2018309   9.7378170  72.6488829  34.3677235  13.1654286
  72.4859285  33.4297085  13.2644427  73.5937405  34.4333792  13.0270100
  14.9857974  21.0547566  21.2761998  15.6853020  20.6822276  21.8129945
  15.1246333  20.6784987  20.4070711  21.9654608   8.9952481  35.9806371
  21.7533374   8.8568187  35.0575590  21.1536312   8.7933713  36.4458370
  18.9088631  73.7156725  18.7368488  18.1241298  74.2245245  18.9405537
  19.5146418  74.3516588  18.3563447   8.8736063  27.8203416  27.6871276
   9.1374481  28.7354016  27.5907731   9.6326005  27.3194909  27.3882842
  12.6798236  49.8672771  45.2783775  13.6146557  49.7210073  45.1337242
  12.4435127  50.5477524  44.6480274  61.2409782  37.5738144  22.2794080
  60.8545923  37.7048516  21.4135170  61.4655018  38.4553099  22.5773859
  11.7351329  35.7199049  29.2110062  11.9684064  34.7920823  29.2419744
  11.7884052  36.0107803  30.1213813  83.3183861  71.9221687  17.9785466
  82.7814865  71.4611292  17.3340249  84.1872978  71.5303659  17.8906906
  77.8969669  58.1742907  37.1751833  78.4656572  58.9255238  37.3439240
  77.9520607  58.0399179  36.2290645  68.4906244  -0.2841780  36.3569164
  67.8224897   0.3365662  36.6476107  69.1911602   0.2651950  36.0052490
  78.7387562   6.4949590   0.4778107  78.6900425   7.4507511   0.4599190
  79.6721840   6.3010639   0.3921150  58.9176464  44.6431923  36.5200138
  58.0726957  44.2090321  36.4025664  58.7735701  45.5362749  36.2071538
  18.3690047  71.7950153  36.0957074  17.9291427  71.1819410  36.6846848
  17.7612627  72.5304461  36.0180998  15.2862430  51.9238329   7.9318875
  14.6362782  52.6264906   7.9245621  14.7702253  51.1196423   7.8750414
  72.0904732  68.4720755  24.8276567  71.3337946  69.0360498  24.6676469
  71.7125177  67.6184893  25.0392437  36.6462564  75.5806780  67.1978807
  36.5611291  75.5904818  68.1512356  36.7919660  76.4965868  66.9609976
  33.7138987  73.5458040  25.6063414  34.4876981  73.5927391  25.0448608
  33.1646705  74.2750788  25.3187037  21.5246224  31.2127399  12.2317123
  21.6579151  31.6249156  11.3781452  21.2655020  31.9323063  12.8073084
   2.9352736  54.1115046   5.0554788   3.4757018  54.7763062   4.6286213
   3.5541236  53.4271240   5.3101927  10.1424837  60.0440121  24.4652629
   9.3511277  59.8762798  24.9769783  10.6116927  59.2097092  24.4693899
  47.1341372  66.1318111  24.2902684  46.9342899  66.0385084  23.3588243
  47.2155571  67.0760679  24.4243479  72.0740509  20.7094049  57.8882408
  71.2758541  21.0498953  58.2921982  72.0794296  21.0904408  57.0101643
  43.0560780  67.2997475  57.4184561  43.1471729  66.3468981  57.4205875
  43.6911535  67.6025200  58.0674839  54.8353338  18.8929677  62.0599079
  54.7437906  18.0007303  61.7255974  55.6422949  19.2170191  61.6598654
  20.3916001  57.4747944  34.1872430  19.8184609  57.0871735  34.8486757
  20.2996349  58.4190559  34.3143082  88.6474323  23.8222194   5.3691101
  88.9454746  23.2359838   6.0646212  88.0221367  24.4055820   5.7991356
  15.8264172  32.7399945  57.7755499  15.2727103  33.4420848  57.4339199
  15.6274045  32.7118826  58.7114143   5.7343084  30.3682423  32.3942447
   5.4103285  29.6030784  32.8694201   5.2420926  30.3664613  31.5732980
  54.7261667  22.7676606  25.8779097  53.9055204  22.5251245  25.4490185
  55.0029755  23.5673523  25.4305816  21.9994903  43.7668991  13.9399624
  22.5639796  43.9333344  13.1850576  22.4023271  43.0182457  14.3798256
  19.2391884  46.4353466  31.4582276  19.7166657  47.1548319  31.8712497
  18.3462524  46.5169716  31.7932415  83.4039402  49.5253086  26.1045909
  83.0016518  49.9867964  26.8404055  84.3398285  49.7066879  26.1909294
  90.9034061  70.6217194  10.9210920  91.2401199  69.8631954  11.3980603
  91.4053822  70.6343603  10.1061702  71.4062214  59.5227814  24.7016335
  72.3317146  59.2966032  24.6092033  71.3185120  59.8055124  25.6119084
  78.4589291  28.8362074  68.3680773  78.6679745  29.1010237  67.4723053
  79.2846680  28.5013509  68.7177229  76.4645290  48.9026737  42.4691105
  76.8494797  48.0437613  42.2950125  76.6294146  49.4052076  41.6712952
  12.1183455  84.9641991  71.6420126  11.3258123  84.6122551  72.0473051
  12.4219835  85.6355190  72.2530413   7.3310536  69.3156815  44.9280834
   6.5864003  68.7254906  45.0438452   7.0524412  69.9208546  44.2407894
  53.3389950  85.6003761  42.8643036  53.9233398  85.9006119  43.5604572
  53.6914921  84.7486115  42.6064539  45.8867311  43.5853910  26.7857409
  46.0429716  44.1792202  27.5200367  45.1809692  43.9993191  26.2889504
  17.0511818  79.5583153  65.2074671  16.4435184  79.3600702  65.9199810
  17.2069585  80.4999256  65.2805424  71.4063311  32.6282978  35.6507421
  71.6873264  31.7213655  35.5293059  71.6389179  32.8318453  36.5566683
  26.1043763  53.4401560  15.3308940  26.1052585  53.5177135  16.2849462
  25.1894546  53.2723570  15.1050794  12.0807970  34.1577530  15.3891981
  12.4034095  33.3096027  15.6938159  12.0195544  34.0633655  14.4386339
  80.3031349  32.3604012  42.4475527  80.0930119  31.5577555  41.9702244
  81.2318420  32.5088024  42.2694921  61.1556768  83.4237957  69.3411970
  60.2491760  83.1229782  69.4044638  61.1993742  84.1778946  69.9291134
   6.5277660  55.9430361  37.1530747   6.1826265  55.2135754  36.6382909
   6.6628110  55.5766773  38.0270195   4.8081830  17.1665359  17.6698828
   3.9335865  16.9226062  17.3668802   4.8579958  16.8207920  18.5610688
  88.9774323  60.8670092   4.5230731  88.2734013  61.4960766   4.6806848
  88.6751938  60.0599432   4.9396366  89.4711208  78.3891535   4.0646100
  89.5811462  77.4399614   4.0084332  89.6358967  78.7024212   3.1752589
  79.1138697  21.4641476  11.2973273  79.7251701  22.1849132  11.1455393
  79.5944500  20.6816101  11.0273170  29.2637420  82.3616409  59.0140104
  28.3413792  82.4468136  58.7727118  29.4533896  83.1527424  59.5184135
  34.9492025  68.4480667  30.7474756  34.8192763  68.6252499  29.8158312
  34.8305178  67.5018597  30.8301544  40.1093149  76.4794779  63.7554073
  39.4359756  77.0403337  64.1404915  40.6539726  77.0766735  63.2426357
  89.4694805  49.6611929  34.5428586  90.1349735  49.8418188  35.2067304
  88.7761497  50.2970362  34.7195458  44.2240286  18.7318468  69.1922951
  43.4590101  19.0603769  68.7200212  44.2795134  17.8086364  68.9456463
  19.2442179  38.9701819  37.1699071  19.6981323  38.6331081  36.3975263
  19.7064912  39.7803283  37.3848438  43.7765169  75.9619617  35.6635976
  43.8132572  76.4858007  34.8633027  42.8413248  75.8597565  35.8402371
  33.9214754  47.8246307  35.0441861  33.7997293  47.3164034  34.2422414
  33.9138222  48.7365341  34.7533154  11.3219118  64.3433332  11.8521750
  11.1858654  63.9427662  12.7108192  10.4493380  64.6266651  11.5790963
  88.0616283  53.9674091  13.2573402  88.6918354  54.6728039  13.1107390
  88.5508537  53.3074141  13.7485611  71.8880367  39.0441298  48.2925701
  72.3517942  39.8221350  48.6022043  71.0740852  39.3829632  47.9198742
  84.7502995  57.7968073  27.0685172  84.1327953  57.2288036  27.5292730
  84.2591381  58.6020231  26.9053435  11.6631043  47.3047495  26.8780136
  12.2289014  47.8606749  26.3422418  10.9939289  47.8996181  27.2164917
  51.9143438  12.7414358  30.7706547  52.1343851  11.9666016  30.2535057
  52.6693249  12.8682196  31.3452506  76.3727617  59.3919992   8.2088214
  76.9700575  59.3632460   8.9562446  76.9356394  59.5879030   7.4598056
  70.2921581  10.8801174   3.3096588  69.9081182  11.7567098   3.2914948
  71.1076784  10.9656322   2.8158498  87.7976608  52.2617435  30.3477144
  87.1522808  52.5652266  29.7092652  87.3610973  52.3584032  31.1940575
  51.4036131  54.4548082   1.0372546  51.4388180  53.5013199   1.1137183
  50.6695127  54.7128534   1.5946954   8.3441812  36.2175512  67.2132540
   7.8501683  35.7583570  66.5340471   7.9095489  37.0666623  67.2928572
  37.3298693  21.0556173  62.1475458  38.1278372  21.0527873  61.6189003
  37.6284075  21.2728214  63.0306816  90.2466202  53.4511709  55.3942490
  90.3759766  53.8904905  54.5537138  90.3328896  52.5193024  55.1932240
   4.4883808  57.9858351  38.2078671   4.1222882  57.1134710  38.0623150
   5.1306915  58.0960655  37.5067830  15.6499875   5.6709415  55.7792854
  15.0630236   5.4493004  55.0563860  16.1738265   4.8810840  55.9132624
  27.2236753  17.9806423  55.3332949  26.7236590  17.3508286  55.8524799
  26.7495465  18.8057923  55.4360723  34.1803193  85.6039238  22.2028661
  33.3499217  86.0563469  22.0546007  34.7465539  85.9033680  21.4915705
   6.8365335  61.9183540  15.2174222   7.2096473  61.8430138  16.0956824
   7.3293769  62.6294947  14.8080111   6.5406942  51.4811087  54.4249201
   5.8200568  52.1100712  54.4612360   6.1638725  50.7092476  54.0024662
  24.9816847  62.6204538  16.6653097  25.5554533  61.9058037  16.3890922
  24.5211768  62.8799629  15.8673000  85.0283241  60.3028107  50.1764822
  85.1535225  60.5283356  51.0982704  85.3800297  61.0526085  49.6965504
  86.9511795  16.0080445  39.8420548  86.9343185  15.1842606  40.3292179
  86.8905354  16.6857386  40.5153179  61.9820023  20.3178573   4.9632591
  61.5764380  20.8307290   5.6623375  61.3356113  19.6432066   4.7552639
  68.9326620  27.2343755  40.9533930  69.6124744  26.7983747  40.4395866
  69.2183018  27.1352959  41.8615913  10.8380997  42.8044605  13.5623193
  10.3293407  43.4439039  14.0608287  11.5095937  42.5030994  14.1742885
  27.5442410  23.6423182  15.0395977  27.8284001  23.7805939  15.9431267
  27.9514980  24.3559408  14.5485640  82.4079227  13.9288843   6.0000813
  82.5327110  13.8345385   5.0557506  82.6958084  14.8214233   6.1917269
  65.2122784  18.2790339  68.3443260  66.1541462  18.2043982  68.4977818
  65.0738192  19.2062569  68.1511497  74.4180489  64.5760822  12.5923216
  75.0718212  64.0087938  13.0009758  74.2422628  65.2503729  13.2485712
  57.7652264  17.2272992   0.9375438  56.9326735  16.8918848   1.2700900
  58.1728935  16.4744639   0.5094321  37.1009946  44.4243479  24.6362996
  37.2023773  44.9569225  25.4251695  36.8652964  45.0514412  23.9526129
  18.3609760  35.7480001  63.4956551  18.4045029  36.6979504  63.6048889
  18.2142282  35.4117250  64.3797445   6.8396109  57.0146704  48.8905525
   6.9437057  56.0763454  49.0484905   7.4331212  57.4301386  49.5161390
  84.7583485  58.1702280  70.1491880  85.0222969  57.7623129  69.3244648
  85.3285599  57.7718163  70.8067274  83.2573414  40.2002382  62.6298428
  83.9329052  39.6940351  62.1786213  82.6902580  39.5404744  63.0290556
  20.3554511  67.4741602  71.1813211  20.6857538  66.8953514  71.8684244
  20.5139804  68.3571100  71.5152359  64.8340940  21.5976048  18.6255896
  64.1024399  21.0731292  18.3002615  65.2400112  21.9576097  17.8370094
  58.3752537  15.6785345  10.8436298  57.9967070  15.7234693   9.9656123
  59.2552900  15.3275394  10.7073593   3.3142307  78.6195421  42.3231792
   2.9832146  78.2899809  43.1586742   4.1290081  78.1375790  42.1814775
   7.9907024  62.5005579  46.3187599   8.1157720  61.9540644  47.0946026
   8.6136860  63.2188988  46.4288187  47.7393246  75.5864096  18.2530916
  46.9887304  75.4217386  17.6823688  47.3639917  76.0055447  19.0274835
  45.6665897  76.2803984  11.1725152  44.9686861  76.9250154  11.2892771
  46.3916445  76.7781687  10.7946908  54.7705793  45.9071064   3.6890000
  55.3272533  46.3458490   3.0456901  53.9487600  45.7470512   3.2250732
  18.9234793  33.8202024  72.9141331  19.8339367  33.6001110  73.1112576
  18.4295261  33.0376577  73.1588078  74.1050243  35.5664515  37.1757317
  74.7903156  35.0475883  37.5969028  73.7119532  36.0685945  37.8895807
  51.8322706  42.4610710   3.8978615  52.2072840  43.1335926   4.4664654
  50.8895445  42.5126028   4.0554762  11.4413559  76.2622213  32.4247861
  11.9012499  75.9855080  33.2173514  11.3117170  75.4540110  31.9285727
  30.8577180  20.8370447  52.2886324  31.3058591  20.8722711  51.4435530
  29.9790263  20.5193949  52.0807171   8.0630213  57.1080637  66.5306711
   7.1189779  57.2023535  66.6576433   8.3049786  57.8484154  65.9742785
   3.2688600  63.4148312  61.7255163   3.0568969  64.3276310  61.9207191
   3.8248649  63.1371021  62.4534988  61.0713124   6.1283950   0.0939298
  60.6933863   5.4332618  -0.4447627  61.8326883   5.7228212   0.5087209
  53.3113050  70.6570244   4.5746580  53.2567549  70.0377035   3.8468572
  52.8910589  70.2046728   5.3060943  26.5019870  66.9794559   9.1798055
  27.1149397  66.6531849   9.8386431  26.3194823  67.8801155   9.4476533
  32.2507954  62.5987482  61.3495111  32.3506975  63.4701777  60.9662819
  32.9161406  62.5615740  62.0366526  19.9034321  73.2071972  10.0060117
  19.4934785  72.9004717   9.1972536  20.4978323  73.9026356   9.7244376
  47.4021482  72.0269299   8.9253163  47.9485512  72.6883888   8.5008740
  47.5927210  72.1217442   9.8585504  23.7664557  83.1965065   4.8230582
  23.3443141  82.3851490   4.5406985  24.5653081  82.9094887   5.2654225
   3.3904928  45.7341480  66.5047550   3.8483393  46.0403156  67.2876167
   3.1227565  44.8402596  66.7180777   6.7284447  33.1090283  63.1443644
   6.9396770  32.6258683  62.3455095   5.8541393  32.8028464  63.3853531
  51.5572786  52.0122528  61.0388088  51.2819242  52.7125359  61.6304302
  50.7556391  51.5206718  60.8600616  13.3246934  56.6004276  17.2997570
  14.2178619  56.5089417  17.6315868  13.2383204  57.5321817  17.0982385
  72.7912140  55.4239607  47.7015686  73.3173561  56.0986948  47.2724485
  72.2424269  55.9056950  48.3204317  36.1500430  58.2534027  19.0313554
  36.4760780  58.9288568  18.4366322  36.2901354  58.6163902  19.9059093
  78.9016151  84.1227436  72.4668121  79.6396923  84.3893719  73.0148792
  78.4401226  84.9386501  72.2730494  67.3071623  30.5623436  68.0214500
  67.9603672  30.5571270  67.3217869  67.6572800  31.1715603  68.6714506
  40.3740501  72.0379162  11.5849948  41.0295773  72.3603201  12.2035229
  39.7487068  72.7578211  11.5018451   3.6261100  15.3811383  73.2767534
   4.3746772  15.9714019  73.1903362   3.7020791  15.0260508  74.1624022
  89.5013046  60.4902792  72.8431606  89.5949268  60.8522987  73.7243032
  90.3862953  60.5139446  72.4792194   4.6961573  75.7438374  67.1639347
   5.6067193  75.5328321  67.3702908   4.7120959  75.9962845  66.2407589
  66.1103487  70.6844282  40.5395794  65.4040289  71.3247395  40.4538441
  66.3331461  70.6967878  41.4704037   0.0691212  17.6237620  74.0260417
   0.2589120  17.1188200  74.8167666   0.5179657  18.4583128  74.1613002
  86.7001629  78.7850761   3.5753742  87.6573467  78.7803936   3.5770190
  86.4589405  78.7612629   4.5013741  26.6466475  67.6124620   4.3226507
  26.9921064  67.3211813   5.1664793  26.9977689  66.9851303   3.6906666
  73.3243990  71.2246990   1.4988062  73.8710976  70.7439137   2.1202567
  73.4624958  70.7785702   0.6632635  49.8423481  66.6381407   9.2740506
  50.5971527  67.1630716   9.0076828  49.7913408  65.9422445   8.6188000
  31.3887954   3.2347399  19.0615988  30.8599210   2.4578093  19.2429948
  31.6009116   3.5872248  19.9258864  60.5264568  66.2128639  61.1962080
  60.1160479  65.5485916  60.6425571  60.6852198  65.7666254  62.0280123
   5.7314003  57.6426029  62.2221994   4.8048356  57.5911903  62.4568653
   6.1515784  56.9687843  62.7566671  26.0535169  49.4268751  37.9083705
  25.5229783  50.2212715  37.8475761  26.3437867  49.2634630  37.0110011
   3.4421286  36.9653821  73.6256123   4.2988682  37.3900175  73.6693573
   3.3235297  36.5755367  74.4917440  88.2332802  26.2849021  58.8633823
  88.9288807  25.6601334  59.0684080  88.6747837  27.1336842  58.8337517
  27.1633744  58.7881470  13.9351046  27.4573684  58.0174875  14.4207871
  26.8984056  58.4463787  13.0811620  72.7837467  24.1672444  63.3210707
  72.6555920  23.2421017  63.1114960  72.4100256  24.2685246  64.1964579
   8.0680877  41.4459801  51.2609768   8.3200377  40.6668711  50.7652569
   7.7163851  41.1036301  52.0827675  14.7377038  64.3432856  67.4680185
  15.6411350  64.6264982  67.6088476  14.6818006  63.4941626  67.9063129
  68.7865114  38.9061832  42.8829098  67.8321695  38.8927746  42.9555798
  68.9695454  38.4692073  42.0511770  42.5125265  68.6819267  51.3590860
  42.0047140  67.8786421  51.4735031  42.4189234  68.8942337  50.4304361
  57.2690535  12.5628901   5.4171902  58.1057310  12.4107373   5.8565706
  56.6701746  11.9325733   5.8175343  55.8243132  10.7005191  16.8898928
  56.3764048  10.6435037  17.6697469  56.4116192  11.0164118  16.2032247
  28.0229163  72.9730749   0.8062071  28.1062460  73.8459969   1.1899923
  28.6602378  72.4404287   1.2819636  21.2807798  24.2015719  69.2985439
  20.4943419  24.7112823  69.4933367  21.2275600  23.4460115  69.8838043
  89.0315056  81.2504768  18.5948992  89.1924191  80.6076145  19.2855978
  89.6113300  80.9852123  17.8809905  26.0293341  56.9168091  17.5361836
  25.1713419  56.5625954  17.3024833  26.3755417  56.2999678  18.1810713
  75.9274864  67.0250416  11.3371003  75.8839703  67.9291248  11.6485119
  75.2657938  66.5624857  11.8513322  61.2082767  39.6476173  52.4408007
  62.0916843  39.9723315  52.6151228  60.6745243  40.4379034  52.3584366
   2.7539906  79.4521713  67.4048615   2.7563262  80.3050613  67.8393841
   3.6026463  79.4053411  66.9646120   1.6370042  74.4552279  40.0506639
   1.5380226  75.3256226  39.6648598   2.4478984  74.5082569  40.5564976
  81.0260105  51.1310577  62.3554039  80.5303860  50.9340763  61.5605545
  81.4419365  50.3014946  62.5900698  68.8886595  61.2449265  66.5902948
  68.0400991  61.4014482  67.0046329  68.7861967  61.5813589  65.7000446
  21.4914036  46.4669323  71.9451904  22.0926499  45.7258558  72.0196104
  20.9093404  46.2315035  71.2226868  70.7943153  16.8667233   1.0329908
  70.1038980  17.5224340   0.9349967  71.0641289  16.6672099   0.1365390
  55.5326891  27.2024941   3.2087213  54.7071600  27.5675678   2.8902131
  55.7345963  26.4959335   2.5953391  30.4386711  51.7153692  72.2925234
  29.6356416  52.2020674  72.1067667  30.1821542  50.7956028  72.2257900
  31.6676664  35.0538707   6.6141599  31.8302417  35.3990674   5.7362980
  31.0371900  35.6631970   6.9981581  18.2013285  53.4694910  64.7958660
  18.3252537  54.2193794  65.3777075  18.5635090  52.7278090  65.2805901
  11.1328948  67.0039654  59.3466330  11.0410297  67.8294039  58.8707781
  10.5061233  67.0717001  60.0669146  88.8704109  74.6947718  54.6071768
  89.5731735  74.4292164  54.0140200  88.9567661  74.1081715  55.3586245
  89.9675274  35.2055335   9.5173836  89.7995377  36.0628581   9.9085426
  89.1935253  35.0307083   8.9820474  86.9068432  43.2312250  71.5275621
  86.9970703  42.7105236  72.3256588  87.6939011  43.7755871  71.5064859
  57.5001812  13.9176500  13.6046898  58.4271526  14.0785575  13.4284234
  57.0563936  14.7054911  13.2906997  69.0956068  32.4955320  15.5798566
  69.1524506  31.8377423  14.8868120  69.7840691  33.1261134  15.3686213
  43.2435560  10.9989524   5.6739545  43.9982986  11.5847588   5.7324576
  42.7247143  11.1982334   6.4532638  80.1975155  49.5452595  69.4325113
  79.8559999  49.9182081  70.2452278  80.6342602  50.2777386  68.9978123
  69.8162699   6.2808168  11.0880303  69.7473335   5.4989457  11.6358972
  69.1984224   6.9004238  11.4760828  90.7871628  66.7782164  68.0743742
  91.6345119  67.1854544  67.8944111  90.9560013  66.1887932  68.8094330
   3.9216295  60.3108025  35.4401588   4.3338960  61.0530281  34.9981523
   4.4720393  59.5612049  35.2134800  13.0344570  45.6736898  43.1572056
  13.7318635  46.2706947  42.8862047  13.4694052  45.0411177  43.7289572
  33.4119940  80.6579971   4.9019894  34.1245389  80.7677078   5.5316538
  33.6009669  81.2950802   4.2130426  56.1438179  18.5737896   7.2590965
  56.4549351  17.7242029   7.5715697  56.2672949  18.5399663   6.3104969
  58.9874363   7.1409005  61.6935492  58.1239843   7.3171055  61.3198757
  59.2596340   6.3169253  61.2895679  69.4974041  23.9078546  60.8747482
  69.2931795  24.6353531  60.2871513  68.6459589  23.6187792  61.2029409
  14.2283130  20.3891039  45.8205271  15.0692606  20.8429933  45.7655239
  14.2451870  19.9561727  46.6740608  77.7845144  65.3377771  53.0295515
  78.5692644  65.5210304  52.5130081  77.3188114  66.1734056  53.0623388
  81.8409729  64.6451521  39.1132712  81.4475536  63.8863897  39.5442295
  82.3223972  64.2768955  38.3724236  89.8759747   8.3364022  48.5872364
  89.7798252   8.5899991  47.6692629  89.0543270   7.8942639  48.8008928
  51.1883402   5.4821986   8.6356157  51.5773535   5.4504579   9.5096242
  51.1013079   4.5642361   8.3787060  70.5841017  67.3093891  58.3464622
  69.6422625  67.3337507  58.1774044  70.7320881  68.0120659  58.9793730
   9.0240258  69.3975163   7.9297578   9.7439122  69.4205093   7.2993076
   9.3085986  69.9734735   8.6393511  56.0910177  65.2007437   1.6710399
  57.0089912  65.0964117   1.9213834  55.6021976  65.0279093   2.4756597
  49.7824192  67.1767807  17.2208524  49.5074415  68.0562067  16.9615686
  50.6968355  67.2797251  17.4844432  10.3981769   2.7378100  14.5438695
  10.7093978   3.1186673  13.7226987  10.3848732   1.7947283  14.3806159
  14.4248152  55.4941511  54.5414066  14.0123975  56.3066864  54.2482805
  15.1449025  55.3555441  53.9261866  87.3389816  41.2337923  38.7232137
  88.2744980  41.3472128  38.8910675  86.9717216  42.1134806  38.8098288
  22.5127196  69.3891859  57.8962088  22.6702189  70.3169870  57.7212477
  22.7619886  69.2726564  58.8130045  82.0777893  72.3283052  47.9617596
  81.1724663  72.4540806  47.6774979  82.1074867  71.4237642  48.2734585
  67.2709131  84.9988556  42.4859095  66.6118431  85.1149273  41.8015242
  66.9970417  84.2080498  42.9505157  20.3091955  53.0816078  47.5381708
  19.9546242  53.7792301  46.9869566  21.1551380  53.4172630  47.8347397
  10.6473958  46.4689779  44.8725557  11.2608349  46.2124538  44.1839933
   9.8404545  45.9993362  44.6615744  52.0784950   3.6152980  72.9576969
  52.7378798   3.9657617  73.5565519  52.0064688   4.2751366  72.2680187
  68.7121439  26.6457391  23.1984329  68.1048489  26.2527132  23.8252974
  69.3191528  25.9392667  22.9778266  38.5468960  31.5960503  73.3314419
  39.2188525  31.2138152  72.7669907  38.8012052  31.3356042  74.2167234
  15.6709349  47.0169830  42.8450680  15.8803952  47.5817776  42.1011782
  15.6028926  47.6157808  43.5887337  65.2072239  50.2498817  48.4167862
  64.4565392  49.7756052  48.0593491  65.8621836  50.2222586  47.7192926
   3.7547243  34.3141651  53.3407211   2.8383228  34.0377069  53.3372498
   3.8445368  34.8555875  52.5564861  52.2421694   4.8350921  33.4851718
  52.0350599   4.1695276  32.8291535  52.9377365   5.3571790  33.0853677
  15.4313469  38.8720536  46.2369680  15.4378045  38.4699345  45.3683519
  15.6224382  39.7958374  46.0746670   9.4752717  70.2738047  73.0045366
   8.5538572  70.0700665  73.1649017   9.6495938  71.0404539  73.5505152
  19.4961321  31.6167951  70.5128336  18.6268222  31.9737363  70.6948280
  19.7198868  31.9604445  69.6479225   9.4233179  75.6307745  60.3456306
   9.2070639  75.1801014  59.5293236  10.3283691  75.9191513  60.2275133
  30.6650972  12.4908769  34.6295166  30.7332277  11.6293597  35.0410700
  30.3650689  12.3079300  33.7391543  44.4059420  18.8207650  17.8464723
  43.9309788  18.8740861  17.0171368  44.6706820  17.9032624  17.9123020
  15.7289720  55.3216124  71.5027905  14.9968898  55.9363604  71.5514612
  16.5087461  55.8709288  71.5830135  59.5711470   1.7566721   4.7255349
  58.8816166   2.3551418   5.0129580  59.6108103   1.8750697   3.7765139
  46.4504147  81.6601181  71.6014767  46.4070559  81.4845848  72.5414467
  45.7950592  81.0769939  71.2184525  24.1916227  61.4404488   6.7896843
  23.6368489  61.9864893   7.3467302  23.9417958  61.6777897   5.8966625
  27.3386288   2.6178285  69.2776537  26.6416764   2.5877351  69.9330759
  28.0954361   2.9666123  69.7486353   2.9200277  52.0340204  74.6238899
   2.9202563  52.0910120  73.6683893   3.5204905  51.3151407  74.8210955
  90.7560730  54.0254831  35.9802365  90.2748966  54.1331053  35.1598001
  91.4160728  53.3601713  35.7853198  14.0256584  59.2574692  30.6728125
  14.2157757  58.5464478  31.2848043  13.0725861  59.3436146  30.6943583
  64.2381763  25.3428864   8.0118376  63.7621450  25.1440620   8.8181210
  63.5541964  25.5459976   7.3737556  51.7738008   7.3321605  29.6298909
  51.1873674   6.7767096  30.1435089  51.4841986   7.2141272  28.7252212
  17.5504947  55.0653124  20.2789640  18.3250570  55.4922438  19.9128866
  17.8749764  54.6014881  21.0508513  10.4043269  61.7924690  39.4631600
   9.7379518  61.5837479  38.8084769  10.0912678  61.3743639  40.2652931
   3.5910394  74.8072429  74.1938868   2.9524495  74.4597383  74.8165258
   4.4389035  74.6597310  74.6129324  71.2080002  29.3459535   0.0586823
  70.9842587  30.0590467   0.6567374  72.1649075  29.3445492   0.0350053
  52.6778269  79.7857761   4.2090592  52.5808096  79.8663044   3.2601997
  52.3030472  80.5946445   4.5576444  29.8302054  81.6931534  16.2297821
  30.2284145  82.0156860  15.4213047  29.3608332  82.4486446  16.5835595
  54.8687029  57.6253748   1.2461603  54.1930532  58.2274580   0.9343475
  55.6753826  58.1403160   1.2277524   8.6075634  20.3689504  21.3172698
   7.6741707  20.5789995  21.2874532   8.8136822  20.3259683  22.2510266
   8.6944592  53.3787823  51.4582586   9.0829027  52.7954483  52.1102285
   8.0746746  52.8264904  50.9817362  52.5681400  82.8727055  32.7121282
  53.1883049  83.3397961  33.2719922  51.7298889  83.3076477  32.8682947
   8.9907819  30.4845238  62.9861069   9.7715074  29.9538827  63.1446028
   8.6696517  30.7052302  63.8604069  81.0580635  34.9538732  70.1609898
  80.2738571  35.3937054  69.8326635  81.0929585  34.1308928  69.6734285
  16.1411977  81.4158726  24.3195534  15.4018629  80.9587574  24.7203803
  16.1484408  81.1102962  23.4124660  74.3489027  13.3027756  18.2499671
  74.5457411  12.8488445  17.4305570  73.5652590  12.8658926  18.5835302
  64.4910240  21.5077567   4.8441416  63.6051512  21.1639619   4.7289401
  64.7388697  21.2394953   5.7289243  89.1099739  84.9364471  46.4387655
  89.4603634  85.7190323  46.0132885  88.9239502  84.3348408  45.7178688
  61.9066668  72.6780748  36.8735862  61.0313749  72.6198816  36.4905596
  62.3383951  73.3751202  36.3796473  21.4412284  85.6247139  55.3165817
  21.3985348  86.3922405  54.7462273  21.0461974  85.9149742  56.1387300
   7.4921316  19.2432511  69.5299911   7.2324169  19.5373499  68.6569023
   6.6733474  19.2090547  70.0246191  71.1970901  71.0432386  62.0225620
  71.9291210  70.5760527  62.4251795  70.4322052  70.7736349  62.5309896
  16.7165327  84.7332478  19.5515990  17.0998669  83.9962673  19.0760493
  17.4294817  85.3676987  19.6251631  84.2617226  63.7075806  64.7345638
  84.6751881  63.3383417  65.5149126  83.7660503  62.9798746  64.3590736
  63.0665922  42.9249573  12.4335563  62.4795532  43.5627556  12.8395486
  62.8989840  43.0087519  11.4948773   5.3434491  47.6707268  19.6439540
   4.9559507  47.2047758  20.3848791   5.3781974  48.5843754  19.9272716
  15.7169819  75.4952049  40.6812000  16.4593232  76.0963345  40.7428741
  15.5165148  75.4573298  39.7459960  12.2619569  13.3952200  11.8591964
  12.6675248  14.1917729  11.5167773  11.3351321  13.6174107  11.9478476
  84.1931820   5.1126528  29.2858434  83.5269547   5.6428665  28.8485217
  84.0124512   4.2172450  28.9998174  43.1685972  72.1634245  68.8771343
  43.1951857  71.5023899  68.1853580  43.3151484  71.6709661  69.6847486
  37.0326805  81.2328529  11.1550474  36.4451671  81.8062687  11.6472328
  37.0870161  80.4359531  11.6825318  87.8521442  56.7167187  45.4592371
  88.4348106  56.0290289  45.1370478  88.2999706  57.0692444  46.2282658
  79.4174719  14.9644375   1.5658686  78.4799099  15.1479542   1.6253144
  79.7016573  14.8724687   2.4752700  64.3635178   5.0764960  57.0387363
  63.6667776   5.5114704  56.5472221  64.2922401   4.1547883  56.7905331
  79.4661379  30.7032585  71.5831375  80.1741600  30.7620192  72.2246075
  79.6338749  29.8850536  71.1155510  87.2521210  36.2340617   4.0914959
  87.6917362  36.1177921   4.9337879  87.9270172  36.0417414   3.4405214
  74.0599537  71.9553709  48.5049009  73.9547682  72.6097059  47.8142357
  73.1690311  71.7837048  48.8098907  36.4738083  84.0494919  51.5940952
  35.5214381  84.1212273  51.5302324  36.6198063  83.4226036  52.3025608
   4.4262713  63.5984707  67.9579878   4.3786147  63.4072781  68.8946867
   5.3619194  63.6949062  67.7805185  71.2219715  19.5829356  16.1992788
  71.0805702  20.5251122  16.1068511  71.3346577  19.4488335  17.1403158
  87.6839828  52.5230408  60.4779005  87.0069599  53.1506634  60.7308149
  88.5077858  52.9568434  60.7001305  16.4465022  77.3630714  55.6908083
  15.8402884  76.9405317  55.0823736  16.0275400  77.2740936  56.5468407
  60.0923920   7.2205371   2.2590946  59.4983530   6.4700484   2.2482112
  60.6252193   7.1156973   1.4708480  88.9097214  21.1410832   0.9704231
  89.7439957  20.6872058   1.0896413  88.6479855  21.3973761   1.8547523
  87.7511406  82.4666405  60.4718065  87.6927853  81.6937256  61.0334396
  88.6655998  82.7417850  60.5372667  62.7578259  12.1443295  17.8297734
  62.4761152  11.7276990  17.0153487  63.6684465  12.3920083  17.6695836
   3.5094029  43.6242151  63.1185818   3.5771725  43.9483643  62.2204924
   3.2917041  42.6970339  63.0227757  81.5932369  38.6834025  31.7381930
  82.2729015  38.9962745  32.3351836  81.7184925  37.7348924  31.7086601
  20.5135322  55.8917713  65.4503918  21.3608003  55.7040358  65.8542728
  19.8788989  55.7667446  66.1559725  17.6193094  23.6446691  74.0698051
  18.1849897  23.1464195  74.6597052  16.7321813  23.3649182  74.2955780
  24.9036360  64.3532896  45.4229403  24.0082836  64.0159655  45.4509497
  24.8021507  65.3046703  45.4514027  84.0448284  20.5850220   7.2391897
  83.2805347  21.1591482   7.1895587  84.4806480  20.8362746   8.0535388
   1.6399361  28.7883496  69.5472765   1.8351680  29.0450501  70.4485083
   1.5297495  29.6168780  69.0807676  84.9803066  85.2223969   3.0732453
  85.4704952  84.7208214   3.7246832  84.6825314  84.5678902   2.4414402
  18.2212615  51.7121887  19.2457032  18.4831357  50.9687185  18.7026536
  18.4353626  52.4814844  18.7179029  84.9909782  72.1634102  73.6598921
  84.0412140  72.0683908  73.5881329  85.3183365  71.2653923  73.7111664
  79.8463774  73.3823156  38.1570220  79.5946503  74.1890574  38.6065078
  79.1245604  73.2097149  37.5525188  75.3736401  19.6143425  12.5532520
  74.6673727  20.0399709  13.0393159  75.6624365  18.9026117  13.1244504
  38.9336658   3.3088616  37.2089314  38.7646818   4.2141294  37.4700165
  38.8803005   2.8104627  38.0243969  79.9324608  44.6484327   2.0733815
  80.8477211  44.7298145   2.3415494  79.9673986  44.5831251   1.1190514
   9.9902993  43.4083223  73.4347963   9.8962861  44.3594265  73.3818865
   9.6940887  43.1871128  74.3177176  69.7170067  37.6579690   5.6441879
  69.3098831  37.2598457   6.4135903  70.1856470  36.9381523   5.2217293
   5.0087696  70.9268808  71.2830114   5.0083345  71.8009472  71.6731882
   4.7067302  71.0651731  70.3853035  80.7303715  57.2316885  45.5974007
  80.8116817  56.5771437  46.2910795  80.5237770  58.0447674  46.0583305
  33.9286518  77.7758312  59.8264551  33.6278868  76.8948555  59.6036339
  33.4009051  78.3552361  59.2769098   6.2195170  21.9762111  73.1039619
   6.5129960  22.4802375  72.3449755   6.8854916  22.1393394  73.7718678
  69.0427446  47.5448084  11.9451141  69.9651194  47.2902966  11.9189823
  68.8684607  47.9033327  11.0748744  59.4998074  32.9737306  16.7381430
  58.6783981  33.3065701  16.3765717  59.9174356  32.5201869  16.0059440
  73.7110949  27.6152015  11.8274593  72.9887915  28.2197332  11.9979048
  74.1982841  27.5859022  12.6508820  24.4878387   5.1457512  74.3663216
  24.6132421   4.2342702  74.6303463  25.3751254   5.4941964  74.2794800
  15.2646112  34.0600944  65.1046038  14.7709131  34.8780656  65.1630688
  15.6981802  33.9807701  65.9542847  90.8237839  38.6476660  29.2904282
  89.9581528  38.3646965  29.5851254  91.3090992  38.8146734  30.0983930
  54.8710632   5.6583804   3.6750832  55.4704285   5.9914029   3.0071819
  54.6320152   6.4300174   4.1885647  68.1504213  -0.2253468  73.6261129
  67.4716174  -0.1256401  74.2935801  68.6521326   0.5885761  73.6712742
   7.2568917  46.0931444  59.6859407   7.8209853  45.3921127  60.0124073
   6.4558160  45.6473732  59.4106293   4.6265972  66.7494726  48.9822721
   4.9406403  67.5908804  48.6511564   5.0409687  66.6600704  49.8404884
   5.9591407  20.0428295   7.8825712   6.8234193  19.6326280   7.8511304
   5.9974033  20.7330894   7.2205210  71.0409832  18.6824131   9.0610814
  71.4811897  18.0030715   8.5502535  71.5891647  18.7907088   9.8382574
  54.8119736  12.1120584  57.2998047  54.1568136  11.4725220  57.0205307
  55.4321432  11.6060019  57.8247118  71.8411827  14.7484195  61.2934923
  71.5628576  15.1840103  60.4878712  71.1008167  14.1906869  61.5322876
  36.0543251  72.9116058   7.4611610  35.3973651  72.2540522   7.6897532
  36.3960910  72.6244497   6.6144216   7.1694183  49.8304844  69.9558973
   6.3021696  49.6406555  69.5980215   7.7641076  49.7199202  69.2140388
  40.8303976  62.8009176  70.4542446  40.5321026  62.1915674  69.7790051
  40.9652805  62.2537422  71.2279606  78.2322979   6.9193763  18.9622498
  78.5226107   6.2444818  18.3486795  78.7911034   6.8011332  19.7303581
   7.1694088  43.4207392  12.1675467   7.5100619  43.3707857  11.2744105
   6.8596458  44.3221331  12.2556770  56.1131191  83.5789013   8.8228917
  56.6090345  84.3843555   8.9696759  55.5984926  83.4654999   9.6219754
  84.4876957  41.9428635  70.7653904  84.4354630  41.1783123  71.3389492
  85.2956867  42.3841143  71.0274553  34.2849088  72.5880194   4.7135979
  34.8748779  71.9542885   5.1217055  33.9435315  73.1028509   5.4447907
  69.3525267  62.3673916  54.6768475  69.6462011  61.9233370  53.8813591
  70.0972986  62.9092264  54.9375391  89.3157005  41.0033941  44.3151236
  88.4947491  40.5298042  44.1810513  89.0499592  41.8402672  44.6962452
  61.2484646  23.5013533  14.4578421  60.4258966  23.0306339  14.3235230
  61.0813141  24.3787193  14.1135752  75.1615763  36.9278669  23.1893206
  75.3036213  37.7866530  22.7911472  75.2328873  37.0855975  24.1307378
  31.4517856   2.3619139  43.6122417  32.1143365   2.7423263  43.0355740
  31.3169265   3.0231589  44.2910624   3.4859833  18.5108745   6.8299794
   4.1191369  19.1867805   7.0718479   3.7295622  18.2626319   5.9381968
  14.3909049  39.4909978  48.8965034  15.0014126  39.4065022  48.1641293
  13.9023685  38.6678553  48.8972616  25.3696704  64.4482803  34.7453046
  24.6380043  63.8727093  34.5225596  25.2336860  65.2278614  34.2067957
  12.4648380  53.9990759  37.5700307  11.7606664  53.7666464  38.1752992
  12.2634554  53.5130882  36.7703462   3.1361789  43.5926580  48.3688021
   2.4387807  43.1056547  47.9298306   3.8429877  43.6319971  47.7245140
  48.6927557  77.7795267  34.1627765  48.3855724  76.8759871  34.2368484
  49.0422440  77.9855251  35.0297570  63.4607267   5.2104598  19.4591594
  64.2678499   4.6964663  19.4348729  62.8447771   4.7147658  18.9195991
  18.1973290  39.9936247  47.9636383  17.4881446  40.5896854  47.7228022
  18.9972067  40.4816055  47.7679300  14.1463268  20.3852439  73.2350922
  13.5657871  20.1261020  72.5195122  14.5280683  21.2139416  72.9456711
   6.0713053  71.8261385  64.9531031   6.5008062  72.5438213  65.4186010
   5.1437932  72.0626783  64.9516964  28.5989237  49.4215202  17.1095097
  29.2455912  50.0229025  17.4788165  27.9622626  49.2931032  17.8126478
  85.9986019  53.1844139  15.8305395  85.9245491  52.8689194  16.7312121
  86.9172192  53.4378386  15.7402873   2.8133008  64.4041395   1.3456210
   2.0930806  64.5289469   1.9636324   3.3467782  63.7119532   1.7361474
  79.7275114  40.7128143   7.6555306  80.5997658  41.1026859   7.5971377
  79.4836235  40.5343819   6.7472833  77.8874683   7.7963740  59.8689175
  77.2147322   8.4098208  59.5733833  78.2280827   7.4079716  59.0630865
  28.5152411  65.0038528  69.7076130  28.4646177  65.7727480  70.2754784
  27.7912760  64.4467974  69.9936104  26.4304161  74.6339321  29.5612645
  25.7595158  75.1744366  29.9783802  26.1832404  73.7351322  29.7787380
   4.4083440  59.1933489  18.5419035   5.1178640  58.5514021  18.5150898
   4.3770167  59.4777012  19.4553554  28.9674091  63.2576466  72.8073025
  29.3214059  62.3784733  72.6732397  29.0809703  63.4213734  73.7435341
  52.4618816  19.3744874  13.3859372  52.9555845  18.7667108  12.8353965
  52.3065662  20.1340604  12.8245473   8.5791081  72.8169870  63.3130503
   7.9324061  72.4858046  63.9362097   8.1316394  73.5322142  62.8608847
   5.1112521  43.8602877   0.4071930   4.1567561  43.8556385   0.3354490
   5.3659379  44.7483540   0.1567785   6.6081673  62.3644257  64.9902678
   7.1606553  62.0241165  65.6939554   7.0372254  63.1763601  64.7202587
  34.1033459  74.4515800  55.3923512  34.2011714  73.6460638  55.9000969
  34.1379428  74.1651058  54.4796801   1.2558681  79.0804291  13.3659923
   1.6431919  79.7278261  13.9551342   1.9461307  78.8919115  12.7302003
  24.0626526  79.7368002  53.0032682  23.1101871  79.6456909  52.9760838
  24.3753338  78.8896370  53.3207130   5.0091761  75.9176826  36.7372203
   5.2307194  75.4914808  37.5651693   5.4845864  76.7481470  36.7606044
  41.9799757  74.3997717  37.4087954  41.6154242  75.0296736  36.7870569
  41.3712406  74.4125175  38.1473804  76.5498877  12.4619615  29.0676713
  77.3365641  12.1662712  29.5258594  75.9309769  12.6736093  29.7665191
  85.2900028  29.5539689  22.2857070  85.8263493  29.9959946  22.9438734
  85.7911587  28.7720084  22.0541525  79.8762274  76.3756275  64.6602154
  80.1720142  77.2821379  64.5766449  80.2249813  75.9373665  63.8839865
  36.0954237  16.2812257  39.5421886  35.3321481  16.2633801  38.9648461
  36.6207051  17.0146394  39.2221665  59.3863153   6.2492067  14.8413861
  60.0732708   5.6123060  14.6447098  58.7119532   5.7421929  15.2934921
  76.5096855  35.0984216   3.3675322  76.0308170  34.2701530   3.3376703
  76.8055153  35.2366209   2.4677454  18.2757032  55.2385902  67.2491407
  18.2477677  54.7166204  68.0510139  18.5252655  56.1149263  67.5423670
  49.0628004  76.5780354  40.8837652  48.1291103  76.3711309  40.9242916
  49.2823172  76.8688583  41.7689037  25.4545307  73.9907980  54.0092754
  24.7222614  74.5465374  53.7425089  25.1579142  73.5763693  54.8195219
  57.0525455  10.8559406  58.5766459  57.1602058   9.9070972  58.5107851
  57.9244804  11.1809194  58.8010406  89.9284172  70.8925486  36.7071176
  89.1467190  71.2184143  36.2610340  89.6561813  70.7832289  37.6182532
   1.3139270  67.2942162  33.8502765   2.1940291  67.2126007  33.4828639
   1.1713806  68.2379341  33.9231658  14.7702503  75.4685736  71.7894077
  15.4909086  75.8748436  71.3079214  14.8457825  75.8211422  72.6761007
   8.6609715  42.6295280   1.9316654   9.0578264  43.1031942   1.2006559
   9.4024849  42.2424698   2.3970459   1.8035099  83.7565804  66.6958094
   1.2208283  84.4474506  66.3805103   2.2561088  83.4481812  65.9107780
  38.1555915   8.3230305  49.4608593  38.2255244   9.0832913  50.0382233
  38.7389278   7.6718378  49.8506021  14.4910491  71.1951208  33.9691806
  15.3908920  71.1892223  33.6428666  14.1130066  71.9999027  33.6147237
  70.8688641   1.7784066  42.0793390  71.3479137   2.2782563  41.4183617
  69.9614716   2.0693189  41.9885397  48.0047703  63.4961700  70.5105543
  47.2283840  63.7939119  70.9846926  48.6332703  64.2116737  70.6068611
  50.0863409  18.4304333  66.7265654  50.8046484  17.9857278  67.1765804
  49.4863415  17.7267551  66.4794493  66.8506098   5.7063746  57.6408052
  65.9256840   5.5226660  57.4764872  67.3159885   5.2198249  56.9604206
  55.4701519   5.5271715  63.3895397  56.2255239   5.8769727  63.8620663
  55.2748632   6.1892581  62.7264118  73.6471415  84.7415733  18.9007699
  72.8877687  84.6084595  18.3334398  73.3905172  84.3565559  19.7387064
  61.5114784  43.9301491   7.5344634  61.6791725  44.8590946   7.3758167
  60.7686281  43.7207603   6.9682783  88.2406139  16.3567734   8.1751215
  88.8325214  15.7207501   8.5768145  88.7784672  16.8059433   7.5230509
  50.7911444   1.1578804  51.9398737  50.4787445   2.0510599  52.0843363
  50.0570822   0.7129670  51.5162754  80.5925465  11.7299449  19.1413939
  81.3995934  11.8395400  19.6442890  80.2670383  10.8665621  19.3960416
  79.0154743   1.9961524  57.2753143  78.9579964   1.8163814  58.2137251
  79.4379902   2.8533393  57.2210979  78.6534405  32.1528172  28.0306363
  78.2100391  32.9802036  27.8433895  79.5046520  32.4117851  28.3836269
  52.7924967  54.7945499   7.2223043  53.1923914  53.9263678   7.2731161
  52.9449606  55.0760508   6.3202262  16.1955047  54.9223280  74.6501493
  16.3092589  54.3464327  73.8940859  15.5207443  54.4947720  75.1775265
  51.6165686  50.8037710  26.8197656  52.4395466  51.2427378  26.6047049
  51.0932922  51.4762259  27.2559071   4.0138885  67.3202276  38.9946413
   4.7888333  66.7593193  39.0274000   3.2823443  66.7285490  39.1706800
  14.0608323  52.5634909  56.0475540  13.7190509  53.4560013  55.9942961
  13.9558792  52.3213291  56.9676495  86.0474396   9.5234120  18.5936069
  86.4952183   8.8834649  19.1469550  86.3570595   9.3326962  17.7081740
  30.8599687  56.8776560  42.4582243  30.0163221  57.1275282  42.8351259
  30.9391117  55.9426022  42.6470137  90.5156231  21.4146280  69.2530870
  90.3237629  21.8746233  70.0702906  90.2920246  20.5016518  69.4339514
   1.2997034  53.0140924  20.4436707   0.6711886  52.4898911  19.9472690
   1.7279136  53.5613918  19.7853935  43.0051899  76.9725275  27.4430561
  42.4347448  77.5522232  26.9383025  42.5561666  76.1272287  27.4339223
  79.7626162   9.8878986  58.7907553  79.2506170  10.0182319  57.9925680
  79.2400217  10.2976739  59.4801092   7.5375527  51.8187761  63.2055855
   8.1888205  52.3504305  62.7479553   7.1484393  51.2747908  62.5208187
  14.7478831  67.7742147  52.1759176  15.2077496  67.7875185  51.3365269
  15.2303314  67.1375275  52.7032709  25.0702024  64.0137529  66.8251371
  24.4772840  64.4370270  66.2042379  24.5173788  63.8004637  67.5768900
   2.0728225  44.4393206  21.4767075   1.6819121  44.6183491  22.3319101
   2.3404667  43.5214710  21.5231133  62.1425962  16.5152180   0.0806935
  62.6984882  17.1852398  -0.3171564  61.9026947  16.8783164   0.9332424
   7.5239438  75.8563614  54.9766588   7.1951175  75.6467438  54.1024923
   7.8756648  76.7427588  54.8940706  48.8604450  23.0867481  55.7168484
  49.4373894  23.7157035  56.1501884  48.5280275  22.5378346  56.4270782
  82.3817444  30.6686378  10.4062390  81.7245102  31.1966991  10.8594835
  81.9246674  29.8580599  10.1820087  12.1293247  62.1733379  55.9673882
  11.7970240  62.4365902  56.8255901  12.7864146  61.5044403  56.1598587
   3.6249933  51.7043924  37.0452952   2.9162064  52.2908068  37.3098111
   3.5385135  50.9474993  37.6248336  83.9696503   7.1180701  11.2596154
  83.1020451   7.0135534  11.6502225  84.4326591   6.3112444  11.4852047
  34.1623306  45.4790449  25.9317994  33.6975718  44.7057104  26.2514663
  34.2132354  45.3532362  24.9842691   3.5680357  15.0907624   5.9747028
   3.2605562  15.1425827   5.0697148   4.4947067  15.3257143   5.9266400
  45.9110022  85.2602482  33.3785439  44.9917746  85.4800510  33.2270718
  46.2890577  86.0560703  33.7526679  65.0481272  22.7066731  47.8456116
  65.6400537  22.3176599  47.2017813  65.4463291  22.5017881  48.6915970
  77.7895641  22.3244166  36.3844538  76.9765806  22.4761295  35.9025121
  78.0285311  23.1852722  36.7280412  44.7520447   5.9197181  66.0397387
  44.1189623   6.5708601  65.7373285  44.2568302   5.1012194  66.0721922
  29.9191189  84.8791599  59.9314165  30.6049562  84.8628712  59.2638922
  29.2241526  85.4140282  59.5477867  65.7048130  28.3178115  46.6808796
  66.2322140  27.5428796  46.8746853  66.3383579  28.9700246  46.3817596
  77.9905510   9.7590369  52.7929926  77.8558207  10.6791472  53.0198765
  77.1552277   9.4800228  52.4180031  62.3259449  17.4042130  40.8357811
  62.0037460  18.0784595  40.2376080  62.6149225  17.8884637  41.6092300
   8.1688309  53.9410830  58.9838409   7.4007398  53.7413979  59.5189953
   8.2265836  53.2120228  58.3662891  27.7202654  72.2457838  47.5530338
  27.6438904  72.1123648  48.4978056  27.0846868  72.9339075  47.3561668
  80.8490944  39.3848038   0.0532148  81.5476227  39.9866772   0.3101975
  80.1429272  39.9540401  -0.2526047  30.8037019  70.5276251  72.0657301
  29.8803234  70.2916050  72.1545839  31.0844111  70.0968218  71.2583637
   5.9272331  23.2636309  10.2563405   5.9153759  24.0287256   9.6812564
   5.5303442  23.5705566  11.0715139  59.9651337   8.8442063   4.2890894
  59.0633869   8.9378685   4.5961949  59.8993731   8.2733113   3.5235918
  14.3938470  18.1738102  59.7449350  13.9692366  17.9435408  60.5713177
  13.9970660  17.5878680  59.1003656  78.7206888  71.4515209  60.4890203
  77.8831100  71.5737724  60.0420952  78.4831905  71.2814760  61.4005661
  88.9621830  78.9516640  44.8775434  88.9389515  79.6852160  45.4920340
  88.1502342  79.0326166  44.3771219  17.6609147  60.4726982  52.6899719
  18.3417976  60.6786013  52.0494795  18.1391478  60.1389837  53.4490252
  77.9047155  26.6905928  26.4083815  77.9305983  25.8683014  25.9190965
  76.9881058  26.9636345  26.3695788  58.0397224  74.2880630  15.1514018
  58.4239912  73.5711479  15.6559825  57.2138786  73.9334202  14.8220932
  77.3230028  22.3097420   1.9232042  76.4954424  21.8450165   1.7990971
  77.9187012  21.9118094   1.2883621  83.3128452  31.2659574   4.4832519
  83.9350891  31.9633317   4.6899241  82.9735851  30.9877968   5.3339928
   6.5214670  42.5368500  44.7236586   6.7602408  41.7614031  44.2158175
   6.8127960  43.2738113  44.1867733  84.3765450  55.1882172  16.6494811
  84.8888206  55.9188175  16.9959378  85.0296211  54.5328045  16.4042163
  38.2831693  52.1880150  17.7058649  38.2812452  51.3468456  17.2490656
  37.8795695  52.0011902  18.5534728  13.9356720  15.0640690  28.0987239
  14.3342483  14.1938519  28.0891967  13.0103111  14.9057329  27.9119968
   8.1038034  47.2341299  15.4312456   7.8689075  46.6577816  16.1584890
   7.2695887  47.4390697  15.0089693  77.2856665  37.3482180   0.9479535
  76.9785547  37.5304818   0.0598679  77.5987577  36.4443707   0.9123369
   7.2307907  36.9103269   0.1942850   7.0922624  37.8554992   0.2550865
   7.2866355  36.6174392   1.1038614   0.8240892  66.9603109  57.7429342
  -0.0890512  67.1570015  57.5338411   0.9556716  66.0672235  57.4246407
  76.6697693  13.9674652  31.7371130  76.1777306  14.3820119  32.4458289
  77.0754290  14.6969450  31.2685728  70.2818727  39.1938972  27.6812673
  71.1751986  38.9851165  27.4081111  69.8225832  38.3543491  27.6602006
  17.4014628  70.6090975  67.5711918  18.2297111  70.1293421  67.5795555
  17.3816967  71.0674810  68.4112644  40.3262997  78.8213110  69.0553045
  39.4011354  78.5758066  69.0495205  40.4790258  79.1588116  69.9379110
  82.3542595  25.6105399  19.7261095  81.7480087  25.0179076  20.1705050
  83.0560589  25.7553434  20.3607225  82.9397488  32.5573969  21.5177679
  83.4858799  32.6081085  22.3022413  82.5627041  33.4329629  21.4314103
  84.5922089  23.6580777   5.8621305  85.0543785  22.9093575   5.4852355
  85.2257824  24.0542293   6.4603609  14.8181200  69.3463469  67.6206303
  14.7176659  69.7995377  68.4577465  15.4738247  69.8590040  67.1479082
   0.0177998  20.0758195   0.7376020   0.7165289  20.4873419   1.2461869
   0.4167507  19.2822182   0.3808591  64.2507744  39.6714783  29.7113061
  63.6182213  40.3659439  29.5273852  64.2471838  39.1291881  28.9225483
  79.0359497  47.5230265   9.3394440  78.5289431  47.1691990  10.0701869
  79.9262285  47.6026154   9.6819365   5.1265544  72.6478863  68.9593601
   4.4827566  72.0071650  68.6573124   4.6062848  73.3234024  69.3943739
  74.0468216  59.8921442   1.7547090  74.9897146  59.7520590   1.8416478
  73.9144421  60.8022881   2.0199358   5.1719189  58.1368113  15.8683586
   4.9003541  58.8237667  16.4771056   5.1718116  58.5626793  15.0111151
   6.1808437  15.8171296  11.7045760   6.8567801  16.4662969  11.8993139
   5.3859919  16.3326252  11.5678036  32.4750662  16.1067486  74.2680693
  31.9028997  15.6408012  73.6583567  31.9866252  16.8970382  74.4985008
  19.7436786  80.8400154  70.1345682  19.4936860  80.2579308  70.8521461
  20.4522967  81.3733768  70.4945946  23.0887580  55.9457541   1.6902266
  23.7371707  56.5806770   1.3858207  22.9733205  56.1477184   2.6187286
  87.0514202  53.8249350  73.6356115  86.4373589  54.1062546  72.9573584
  86.5727520  53.9432049  74.4560480  76.0743141  68.1206512  64.7177076
  75.5501699  68.6667728  64.1318274  75.4670954  67.4473858  65.0246716
  85.6476688  71.8861103  69.3680954  86.1388016  72.2793293  68.6467075
  85.5581474  70.9651709  69.1229630  20.7365727  64.4220543  65.4236984
  21.0699844  63.8230276  66.0917091  19.9865294  63.9641476  65.0442410
  26.0622811  22.8405809  49.1391420  26.6956353  23.0702162  49.8191166
  26.5428829  22.2579622  48.5510874   1.5554072   5.3231424  73.8940954
   1.8734010   4.5621634  73.4082747   0.9852757   5.7806724  73.2761574
  61.7561340  37.1352959  26.9949150  61.0139990  37.3994684  27.5386786
  62.4226284  37.8024960  27.1588016  34.9893260   9.8439729  29.8074389
  35.3184056   8.9787740  30.0510955  35.5298662  10.1045263  29.0616775
  86.9990158  39.3723702  16.4602280  86.5115261  38.6072779  16.7655516
  87.1799469  39.8739648  17.2551477  42.1124029  73.9255714  52.3261261
  42.5964403  73.2224989  52.7592850  42.7867079  74.5476151  52.0529890
  85.8481789  42.5339079  51.3685608  85.1571465  43.0984020  51.0220623
  85.9880352  42.8474474  52.2620726  55.9695911  22.5927353  16.2910044
  56.6902924  22.9097819  16.8353450  55.9775305  21.6432881  16.4123249
   8.1686473  78.2940197  57.2865677   8.4985757  79.1721582  57.4769640
   8.8280648  77.9105616  56.7083263  64.4703102  82.1141434  69.0657473
  65.2208757  81.7161751  68.6247158  64.5271826  81.7981529  69.9674940
  78.5573387  28.6344075  12.9452038  77.7544832  28.3947134  12.4823821
  79.0593433  29.1414547  12.3071396  40.8593750  49.5724821  29.0570974
  41.1119461  50.4075813  28.6633348  40.9231472  49.7233438  30.0001812
  47.3212290  68.0292082  41.1710358  46.8002939  68.3279133  41.9164419
  46.8776178  68.3962440  40.4063654  39.2884541  13.3758473  46.6485882
  39.5121026  14.0686059  46.0270596  40.0515175  12.7979529  46.6479063
   0.6071126  23.5882282  18.1838381   1.4861664  23.9217710  18.0042684
   0.7279994  22.6461267  18.3024311  61.5788078  17.4661207   2.5235313
  61.0272408  17.6078987   3.2928860  62.3104048  16.9403636   2.8469223
  74.3591928  38.6934805  11.2563825  73.4214687  38.6719251  11.0654831
  74.7209644  37.9570508  10.7634079   7.4956977  32.7860260  39.6622777
   7.2035551  32.2734427  40.4160309   8.4418154  32.6447201  39.6287251
  38.0274081   4.3484244  49.9444103  38.6464810   5.0759661  49.8838615
  37.4891281   4.5549220  50.7085037  90.8807755  73.6236620  30.2559900
  90.7831955  73.1722212  31.0943866  90.0780392  74.1371584  30.1656032
  63.9463377  81.9324207  53.3884478  63.6806345  81.1296272  52.9399395
  64.1781187  82.5357437  52.6823950  33.5875106  40.2760744  10.9782648
  33.7716603  39.3434000  11.0897970  32.6366878  40.3221703  10.8780432
   2.7183378  31.0083652  41.1324120   1.8793049  31.3819408  40.8627892
   3.0878627  30.6440759  40.3280640  77.0905542  37.6612043  10.9476149
  76.8781471  37.8610539  11.8593025  77.4257565  38.4849739  10.5936670
   5.3514433  10.4638672  28.4881639   4.7058654   9.7573435  28.5050607
   4.8343402  11.2632298  28.5874343  16.2039292  67.0678329  67.6173544
  15.5887187  67.7886629  67.4826288  16.3903356  67.0843267  68.5560846
  19.6243715  70.1023436  27.7509975  20.3781843  70.2021694  27.1695900
  19.9803901  69.6845579  28.5351753  17.1172714   9.4659138  64.2471409
  17.0829391   8.5218364  64.4013166  16.3989985   9.8204571  64.7711754
  56.6560555  21.4328504   2.4270420  57.2589445  22.1747518   2.4753791
  56.3953352  21.3956571   1.5067843  57.0228910   4.4927561  57.8062201
  56.7958832   3.5628727  57.8100681  57.8128624   4.5486757  58.3438540
  79.8465776  69.9286938   7.3488420  79.0182066  69.7726107   6.8953276
  79.5971012  70.3825045   8.1538582  21.0970592  61.0908651  26.1964154
  21.3664341  61.1261511  25.2785802  21.0164523  60.1562214  26.3866138
  39.4581437  78.9370775  44.2786503  39.9655795  78.2475471  44.7067738
  39.6318603  78.8176775  43.3449507  81.4473057  27.0821333  37.7211809
  81.9250965  27.9012918  37.5910783  81.3118649  27.0315409  38.6673975
  29.6895719   0.4314459  44.1538429  30.0653362  -0.3931544  43.8455105
  30.3954577   1.0696743  44.0507841  15.6218088  66.7284393  35.8779931
  15.5287886  67.6051950  36.2506580  16.4198315  66.7754030  35.3515077
  75.5984640  75.8440304  58.7839317  75.5894232  76.7667007  58.5293245
  76.4081335  75.4995155  58.4071398  16.9029820  69.9081230  58.0444145
  17.8124499  69.8188210  58.3292437  16.4788640  70.3996086  58.7478352
  33.7311125  79.5344973  43.4995937  34.3555856  78.8119459  43.5643387
  33.4022331  79.4871140  42.6019192   3.5837275  57.0265579  64.0540695
   3.0853420  57.0080328  63.2370615   3.8199139  57.9469252  64.1697311
  17.4482775  70.1239061  55.4030514  18.1142700  69.4872189  55.1435995
  17.2545874  69.9095154  56.3156033  10.9209979  74.2884111  56.2085533
  10.2595413  74.2623138  56.8999481  11.7525220  74.3702459  56.6755676
  67.9811144  45.6050444  28.9446211  67.0872068  45.9153605  29.0890479
  67.8959465  44.9378872  28.2635355  30.7390714  66.5332365  64.7066307
  30.7774091  65.5774260  64.7411919  29.8757696  66.7511702  65.0579786
  69.6901941  23.6472702  63.9731121  69.6907377  23.0457473  63.2285309
  69.4212675  24.4875956  63.6019468  70.3110600  40.0116301  33.7260485
  70.5234909  39.0783167  33.7204337  69.5035839  40.0765514  33.2161474
  66.7867565  17.5091100  46.1498165  67.6430941  17.8318310  46.4304829
  66.6859150  16.6720891  46.6030931  86.7437077  52.9407740  19.2748761
  85.8370781  53.1562996  19.4935298  87.2128201  53.0065823  20.1066422
  45.8480167  75.7723618  62.4150896  45.6299686  76.7019176  62.4830151
  46.3731909  75.7072067  61.6174793  62.9109859  10.0452101  56.4840746
  62.2670126  10.5141878  55.9534216  63.4961319   9.6374720  55.8456516
  32.2349548  67.4163437  48.5335398  32.6112962  66.5867996  48.2395172
  31.2910748  67.2582102  48.5513020  21.8060994  67.8018951  22.7730632
  22.5037909  67.1579218  22.8945470  21.5471673  67.7045059  21.8567109
  23.3852696  68.1659508  50.3121948  23.8602853  67.3731613  50.0630379
  23.4966969  68.2236671  51.2611341  20.2374983  51.5171528  66.5150690
  21.0961056  51.9025469  66.3404369  19.9803257  51.8794107  67.3629284
   6.7465484  52.4433374   6.8272507   7.0616734  52.7649117   7.6719499
   7.0255113  53.1088829   6.1983955  46.1807919  39.9690557  14.0242755
  46.3603020  40.4695559  14.8202062  46.8928671  40.2026176  13.4287655
  29.5073843  58.3292675  28.0187464  30.3843403  58.1691265  27.6701283
  29.6589804  58.6840439  28.8947487  53.1660223   3.4349620  67.7482128
  53.1430769   4.2283118  67.2131395  53.5043144   2.7593929  67.1605062
  14.9765265  66.8589783   8.6013967  15.6079650  66.8258190   9.3200177
  14.2723846  66.2706423   8.8739347  34.6427870  72.3736525  57.2635269
  34.4751191  72.4757957  58.2003784  34.1639137  71.5816021  57.0194674
  68.9372301  32.4920011  24.8535538  68.1858635  32.2376990  25.3892899
  68.5681868  33.0611777  24.1782165  42.3935032  10.5132699  64.6760941
  41.6156387   9.9920952  64.8749256  42.3575068  11.2428725  65.2946520
  28.1360006  23.9374757  24.9236178  28.2370281  23.5429502  25.7898593
  28.8455009  23.5594726  24.4040489  63.1094694  25.0416756  39.2965293
  63.4502935  24.7370720  38.4555268  63.3011198  25.9794331  39.3071556
  75.7136059   9.1671628  73.7452221  76.2861681   9.5586383  74.4048834
  74.9608231   9.7567505  73.7011814  34.2044473   4.4725400  69.2114687
  33.5228372   5.0898248  69.4771719  34.2492914   4.5604742  68.2593727
  31.3614249  84.1462040  49.6679306  32.3030376  84.0976524  49.8329830
  31.1189079  83.2593727  49.4015789  57.2134924  85.2740765  50.6817293
  56.6858578  84.5976639  51.1063337  57.4017859  85.9032536  51.3780832
  87.7021503  35.7193208  39.5904493  86.9142056  35.4255605  40.0477028
  87.4770546  36.5889645  39.2598701  84.9966145  35.3277922  22.6565027
  85.8568668  35.6096601  22.3454714  84.8696327  35.8060932  23.4758544
   2.1280307  72.1994162   4.9494511   2.2843145  71.2918949   5.2106208
   1.4457485  72.1420431   4.2805478  20.4040027  63.0564260  58.2849932
  21.1169386  63.6945391  58.3127594  20.8395815  62.2072792  58.3588219
  35.4104519  62.0206690  67.7652788  35.5780363  62.4230957  66.9131041
  34.5360303  61.6401529  67.6826572  63.8855076   7.5133711  52.7226067
  64.2413139   7.9279351  51.9366264  63.0394411   7.9405141  52.8565788
  57.6275969   9.3042642  54.9847937  57.7585840   9.1805261  55.9248781
  57.9122210  10.2031112  54.8195744  90.8743226  74.3353748  52.4926186
  91.0240184  75.1901436  52.0886374  90.6603595  73.7581921  51.7596006
  10.0262260  83.1101513  53.5872984  10.5499589  82.4154758  53.1880856
  10.0308371  82.9062080  54.5225048  14.1971636  65.5885887   5.4921234
  14.6988356  66.3791132   5.2930611  13.3742714  65.9129286   5.8580267
  62.9116249  54.9915791  26.3944340  63.0768347  54.2492723  26.9757390
  63.7630415  55.4196930  26.3047576  53.4198999   7.4941808  59.4496489
  52.9984856   6.7401516  59.0372419  54.3453789   7.4055547  59.2218971
  28.1276536  13.4289181  67.2343206  27.6634026  14.0292239  67.8177023
  28.2299542  13.9189768  66.4184713  44.5104074  16.7832398  63.5339069
  44.8630285  17.0725310  62.6923609  45.2467537  16.3505638  63.9661360
   0.7886899  52.1805048  34.7684932   1.2467068  51.3507843  34.9027300
   0.5829145  52.1919966  33.8337445  69.2217493  63.1500912  68.7128353
  69.3612766  62.4848032  68.0389261  69.7936630  63.8737679  68.4570217
  13.0531764  66.4047766  73.1720400  13.2815301  65.5812931  72.7408123
  13.3095837  67.0820570  72.5461197  25.7809877  49.9131107  18.2651854
  25.7663393  49.5576048  19.1537988  25.2112365  49.3294096  17.7642775
   4.1280156  60.6493473  25.6917238   5.0218230  60.9178925  25.4790640
   4.0994194  59.7178411  25.4732966  65.0383854  85.1220417  40.9936619
  64.4474411  85.7351589  40.5565071  64.5486355  84.3003273  41.0276699
  22.6213670   4.0082982  51.4115763  23.0518079   4.3399021  50.6235456
  21.8001080   3.6317030  51.0954380  88.3568764  44.9724293  16.0164011
  88.1470203  44.0392256  16.0527778  89.1749382  45.0532484  16.5067792
   9.3814206  58.2738495   7.4421340   8.8631749  58.4075356   6.6485459
  10.2865911  58.2347059   7.1333188  90.4972553  51.4206839  19.0279210
  90.2986145  52.3099518  18.7346971  90.9699821  51.0267162  18.2947469
  77.3082590  53.6511135  27.9560637  77.3510695  54.6063185  28.0005360
  76.6030121  53.4146595  28.5585165  38.8197947  75.8203554  69.0557909
  39.3114686  75.7753277  69.8758316  39.4717312  76.0642385  68.3987284
   7.1586573  48.8109493   4.3457592   6.9059813  49.0359879   5.2411610
   6.8669313  49.5558596   3.8201782  25.5560827  43.2726622  12.8395355
  24.6349549  43.3877945  12.6060843  25.5963564  43.4913778  13.7705421
  42.0744324  50.5560493  15.5901062  41.6261148  50.9391165  14.8361182
  41.4928007  49.8548269  15.8837509  10.8990860  84.2662239  68.7916136
  11.3329566  84.6330357  69.5619631  11.4201963  83.4951782  68.5676575
  23.5849881  14.8490214  42.6661396  22.6753402  15.1399779  42.6019764
  23.5985494  14.2718172  43.4296036   3.0436715  42.1822262  66.3485909
   2.7490300  42.2745657  65.4425573   2.2356516  42.1264553  66.8587112
  64.9778795  32.7562332  40.8688593  65.2752686  33.6533165  41.0206270
  64.0700006  32.7503419  41.1720991  75.0512266   2.0188589  57.9896259
  75.7239819   1.3956767  57.7152538  74.2883921   1.7986096  57.4550152
  82.9335295  62.3701321   0.1680065  83.0659901  61.4707827   0.4677701
  83.4999262  62.4527573  -0.5991959  22.3996282  69.7563219  34.7847724
  22.7986622  70.2757931  34.0868068  23.0138540  69.0364122  34.9285960
  83.3805370  73.8379574  20.1087976  83.8201523  73.1684160  20.6329083
  83.0379868  73.3628273  19.3517363  39.6629095  58.1879663   4.4398591
  39.9227953  57.2670031   4.4626158  39.3391633  58.3235407   3.5493314
   3.2115972  59.7670364   8.3704555   3.1370643  60.3564262   7.6199234
   2.8363490  60.2598715   9.1002047  62.9809475  42.7695704   9.5151556
  62.6413202  43.0838394   8.6772299  63.6803055  42.1609449   9.2770284
  62.7833939   0.4212855  56.2100220  62.0829058   1.0536637  56.3701487
  62.3362780  -0.3461710  55.8531904  91.5421295  83.8045597  12.9086268
  91.2312984  84.6452427  12.5726736  90.8222485  83.4824753  13.4510911
  82.8914452   9.2851591   0.5310649  82.4407959  10.0912023   0.7829392
  82.9053020   9.3074721  -0.4257746  65.3120756  46.6716766  19.3259525
  66.1894369  46.9660091  19.5705628  64.9901342  46.2093115  20.0997758
   1.3656740  77.6726151  10.0966370   1.5802434  78.4665775   9.6069300
   1.8362533  77.7674627  10.9247625  44.1882610  55.3037786  72.8174496
  44.6131802  54.4498825  72.7365685  43.2911301  55.1540852  72.5191641
  46.5585041  61.4197874  57.9626894  47.1802139  60.7381916  57.7074718
  45.7040787  61.0728741  57.7060986  87.6187513  18.7250880   0.2058292
  86.7346070  19.0819101   0.1209665  88.1406782  19.4550590   0.5389429
  64.8124313  47.1537399   0.5907531  65.1845503  46.6862726   1.3385738
  63.8656282  47.0645571   0.6995621  70.6060266  65.8916378  13.9560008
  71.2904644  66.0010052  14.6161616  71.0573864  65.5074263  13.2044113
  74.2451620   5.2872545  59.7502279  75.0233221   5.1758200  60.2963781
  73.5977221   4.6945429  60.1319981  30.1731372  65.3761339  52.0887995
  29.3739247  64.9052620  51.8526506  29.9913645  65.7361889  52.9568720
  20.3954411  28.6227107  24.8289490  19.9548459  27.8418303  25.1641178
  19.9037123  28.8557482  24.0414691  66.6347122  36.9314718  51.2484789
  65.9101915  37.1781898  50.6736422  66.7884827  36.0064220  51.0564661
  33.0427909  70.1636410  44.7393894  33.6946177  70.8199883  44.9854803
  33.1606793  69.4585896  45.3759718  69.7126722  84.0021420  68.0471754
  69.1924286  84.6179771  67.5311041  70.5675602  83.9913464  67.6167297
  77.5990391  46.7905617  39.2264724  77.9704094  47.6605320  39.0799594
  78.0277920  46.2344599  38.5759711   9.1117114  29.4911861  20.1445508
   8.7911236  28.9258409  19.4418144   9.1876155  30.3556871  19.7406816
  18.2080579  71.8548346  49.8451328  18.1906664  70.8977938  49.8470879
  18.5513067  72.0899105  50.7071924  47.3560143  83.3028889  51.6613531
  47.3160553  82.7590561  50.8746672  48.1281424  83.8538074  51.5327120
  82.2682571  22.7849674   4.6851903  82.9310989  23.2555723   5.1905674
  81.5239048  23.3856511   4.6484649  18.3796930  57.5767374  28.3131242
  18.5458481  56.7897749  28.8320827  17.6106727  57.9747295  28.7210941
  85.4486179  12.0774305  49.2797184  86.4018059  12.1288264  49.2088270
  85.2012920  12.8671765  49.7607183  60.6602240  52.4714041  61.9658661
  59.9798489  51.9890118  62.4355698  61.2402678  51.7926168  61.6208506
  33.7508059  81.7298985   8.2761204  34.6867013  81.7216492   8.0754620
  33.3439398  82.1245003   7.5047702  56.4363766  75.1694679  19.8053205
  55.5038452  75.0620174  19.9925852  56.8441582  75.2642632  20.6661105
  82.8495407  14.3698704  46.2325430  82.8048229  13.5362864  46.7009115
  82.7068043  14.1370833  45.3151226   8.8883978  32.7645683  35.2221894
   9.6257466  32.6247740  35.8163333   8.1214279  32.4861002  35.7226348
  84.3272400  26.2507796  42.3697329  84.0374184  25.7973528  43.1613350
  83.8079548  27.0546460  42.3504448  51.2180233  60.4164791  27.2350430
  50.6100178  60.2820587  26.5080667  51.9739389  59.8703861  27.0191741
  85.7963276  48.3989048  53.0315161  84.9499035  48.6551952  53.3977318
  85.8344460  47.4507523  53.1571579  29.8496246  22.0905399  59.4772100
  30.1674652  21.2615681  59.8350048  29.8049784  21.9422841  58.5326147
  63.7426233  18.6048245  24.4730568  64.5846033  18.1539500  24.4097471
  63.9238691  19.4943798  24.1696215  31.1854315  10.6483865  43.6620092
  31.1001182  10.7572865  42.7148581  32.0769453  10.3228426  43.7863302
  56.6884184  80.5550575   5.4029793  57.2065210  80.1600075   6.1042178
  55.9454918  80.9582806   5.8521020  77.4708843  76.7883492  10.9715164
  77.0657921  77.2434425  11.7097723  76.7341280  76.4210987  10.4830945
  71.7462778  45.0409269  43.5287857  72.3772097  45.7428074  43.6885309
  71.9286108  44.3950462  44.2113018  66.6623926  61.4416122  37.9886365
  65.8493233  61.1793709  37.5569105  66.3783455  61.9780397  38.7287712
   7.3034924  35.7173634  64.6793413   6.6576040  35.5404210  63.9954185
   7.9711282  36.2493968  64.2464066  38.7839270  10.4406750  51.1551714
  38.7055373  10.6681001  52.0816517  38.9298820  11.2778151  50.7145739
  63.3222675  77.6043701  69.9236679  63.5349941  78.3748865  69.3970966
  63.7498713  77.7637959  70.7650805  14.8478985  15.1964688  45.7123137
  15.6509709  15.7163012  45.6794548  14.2938757  15.6514275  46.3465881
  11.6966462  33.9084744  63.6046600  11.3893175  34.0469480  64.5005417
  10.9362340  34.1050363  63.0575180  21.5254235   5.2438146  43.4451866
  22.0058322   4.7659460  44.1212654  21.8579602   6.1395371  43.5029078
  16.8603384   3.9753103  67.4825764  17.5885570   4.5965114  67.4888086
  16.4781284   4.0455317  68.3573437  72.3118019  61.1003828  56.3876486
  72.8245687  61.6247892  55.7725811  72.1099043  60.2973604  55.9074163
  25.5684614   7.8563339  54.7735262  25.0934172   8.2469124  55.5070210
  25.4635143   6.9127482  54.8954487  47.4549675  43.8818216  30.5770636
  47.5594759  44.6556997  31.1306190  46.9897127  44.2013836  29.8039865
  24.0696168  46.5582180  12.3512411  23.9135385  47.1503782  11.6155684
  24.6897602  47.0276499  12.9091692   0.9154518   5.0984657  35.0394797
   1.0138022   4.8942730  34.1094995   1.3731129   4.3888092  35.4902196
  71.5708685  48.6237097  44.5139074  71.6500854  47.8381157  43.9728022
  70.7366991  49.0125799  44.2508984  13.4169102  44.4426250  74.4588947
  13.4103286  44.6406364  73.5224199  13.3343351  45.2959108  74.8847103
  14.3241882  26.8567848  26.7685986  13.4643888  26.5668583  26.4637733
  14.2650867  27.8121042  26.7787766  36.0124969   9.8269391  71.2271833
  35.7552004   9.3298650  70.4506874  35.9745407   9.1913390  71.9418907
   0.4647443  39.6391535  44.9987841   0.6346553  40.5374956  44.7153378
  -0.2151342  39.3245435  44.4029474  43.2836962  79.0640259  29.4079494
  43.1710386  78.6660433  28.5447288  43.7300396  78.3931351  29.9245930
  46.9926119  83.3787537  60.5934811  46.3090658  84.0464973  60.5376720
  47.8122234  83.8691425  60.5303717   7.5563687   7.6442790  72.5763321
   7.5367278   8.5621864  72.3056078   7.8304458   7.1690345  71.7919493
  36.1092067  18.4822571  73.8608789  36.6804767  19.1934574  73.5709190
  36.7096066  17.7830398  74.1194248  64.6393585  75.1231575  66.8341827
  64.5137262  75.4972076  65.9620953  63.7521267  74.9715471  67.1598577
  86.3623428  13.4141552  60.5253983  85.4168224  13.2672596  60.5509996
  86.5634632  13.8267028  61.3653898  78.3359671  44.2114305  44.3195343
  77.6678944  44.8206282  44.0052271  79.1655636  44.6064949  44.0513372
  10.5714273  84.7284126   7.8087425  11.2326026  84.3051243   7.2611034
  10.3879404  85.5567741   7.3655862  23.7768197  22.0001483  42.5454807
  23.0555463  21.4102840  42.7646923  23.3500552  22.7739096  42.1775150
  36.3020849  23.0205584  67.0527029  35.4051518  23.2355571  66.7967463
  36.7121911  23.8684249  67.2234917  68.3234406  83.4898376  59.9124765
  67.6235437  84.1156006  59.7259378  67.9170704  82.6320648  59.7887421
  89.7261524  43.4328556   9.6544266  88.7878704  43.2454062   9.6273977
  89.8044491  44.1780949  10.2500093  48.6306524  81.5701580   2.0301405
  48.6608648  81.8880272   1.1277667  49.5443964  81.5715218   2.3152766
  64.3897867  84.2976475  67.0361757  63.8031244  83.6578274  67.4395275
  65.2137852  84.2014599  67.5136757  16.0529697  63.3810854   3.4861767
  15.5942559  62.8788424   4.1596493  15.3732359  63.9252663   3.0886057
  19.9638939  30.3771615  50.7644367  20.6484461  29.9357581  51.2672091
  20.4387546  30.9728765  50.1848984  74.8179865   1.2316671  14.2120028
  74.7388744   0.3011671  14.0019023  74.8580599   1.6669236  13.3604288
  72.6687431  53.7814236   7.0977485  72.8640556  53.3101845   6.2877995
  71.9853401  54.4053507   6.8529940  49.0359783  24.4144249  49.5125484
  48.9439535  24.5286369  50.4584408  48.9364862  23.4725118  49.3742228
  10.8943546  17.2713053  72.3882484  10.4004776  16.8341255  73.0819273
  11.8115139  17.1048260  72.6058149  17.9951167  33.4469199  43.2721806
  18.7657630  33.0965209  42.8254652  17.7799678  32.7873111  43.9316177
  76.1404276  29.8447418  -0.0713145  76.0581160  28.9783549   0.3272211
  76.2410879  30.4410863   0.6706243  68.3227539  22.5080490  66.0279417
  68.8116550  22.8919172  65.3000307  67.5153685  23.0204225  66.0708237
  81.6024780  43.4458590  72.5649977  80.9288406  42.9854965  72.0644808
  81.9710064  44.0768290  71.9466972  69.0113544  46.5418100  21.5710735
  68.1959629  46.0770798  21.7592096  68.7344694  47.3357916  21.1137271
  48.6497641  35.0466609   9.8976755  47.7713394  34.6696424   9.8481327
  48.8774300  35.2437043   8.9890641  72.9002905   9.5590413  53.3574724
  72.2599459  10.0287414  52.8230858  72.4236345   9.3282789  54.1548300
   1.3735271   3.3802623  56.0770559   2.2641051   3.3861798  56.4278650
   1.0805143   2.4751525  56.1826563  44.7683048  45.5479908  10.3242469
  44.4556332  46.0814142   9.5935428  44.0215492  44.9949026  10.5537772
  64.7317600  60.2235270  66.4708185  65.4553270  59.6637011  66.1892509
  64.4361115  59.8364687  67.2948408   5.0673455  13.2298410  61.1706543
   5.3735018  12.3395228  61.3433838   4.9042466  13.2483065  60.2276325
  73.7366819  33.7988877   6.4498848  73.4404278  33.7649870   5.5403155
  73.1305265  34.4043159   6.8768054  42.1528196   5.1101410  54.0148401
  42.0115280   6.0133272  53.7310743  41.4150047   4.6248627  53.6455631
  11.4179778  11.0315323  57.3895931  12.1028399  10.7722366  58.0060005
  11.8639827  11.0842037  56.5442896  15.8436275  40.9775496  65.0489283
  15.7732713  40.0229836  65.0580978  16.3019443  41.1917496  65.8615112
  58.8133430  82.0208359  61.1293936  58.3454132  82.4716854  60.4265356
  58.8945198  82.6764488  61.8220758  73.8831615  30.3559613  58.8287926
  73.8206053  29.8785043  59.6560526  73.0433273  30.8082557  58.7491989
  41.8700409  62.8658867   0.9574708  42.0115757  63.5212612   0.2743286
  41.2102413  63.2561064   1.5307306  47.0847654  85.1496124   7.6161122
  47.0888996  85.0640583   6.6627532  48.0068684  85.0900459   7.8659326
  19.7465229  23.4623241  53.8433170  20.0031257  22.7559638  54.4361401
  18.8809574  23.7309527  54.1513205  12.4977720  10.3660262  36.1408687
  11.8169856  10.0854027  36.7524338  12.8230333   9.5527309  35.7548785
  37.1842623  49.0612459  26.4835811  36.4041066  49.4839001  26.1244822
  37.8674817  49.7289610  26.4235902  40.9843397   4.2565835  73.5859728
  40.4659986   4.6891212  72.9073954  40.9208870   4.8385707  74.3432665
  27.4888706  76.4416361  10.3194296  28.3432126  76.0574150  10.1226890
  26.9271779  76.1588860   9.5977724  25.0023150  23.4553432  66.9722319
  24.0918612  23.6586571  66.7578220  25.2022457  24.0146327  67.7228642
   6.7337859  32.0368171  37.1315885   6.8285304  32.1999168  38.0700207
   6.9556391  31.1117268  37.0256686   0.6442018  64.0830517  35.1696897
   1.0992959  63.7351418  35.9365535   1.2300536  63.8931799  34.4369149
  68.6861229  38.3890462  49.8759508  68.1526089  37.9216981  50.5187416
  68.6144924  37.8645182  49.0784693  22.3020697  30.6752729  64.4693661
  22.8940845  29.9582767  64.6966696  21.5427685  30.5484176  65.0382233
  69.5766258  16.7755270  44.6032000  70.4903555  16.4906991  44.6172762
  69.6066093  17.6584005  44.2345953  17.2943830  71.7947197  12.6439047
  16.8649089  72.2497272  11.9195080  16.7327261  71.0396910  12.8191304
  40.5030394  77.7922440  26.2536740  39.7935057  78.3997345  26.0445285
  40.0779486  76.9361782  26.3054419  28.6696911  25.8564997  44.2560101
  29.5819020  25.8299661  44.5448017  28.2417130  26.4543176  44.8689413
  10.0621676  30.9930134  37.1181917  10.1268601  30.0916004  36.8027520
   9.4078684  30.9562397  37.8158832  53.6522388  14.3943322  23.4798074
  53.1349182  15.1072693  23.1051993  53.0064964  13.8216829  23.8937163
  77.4962997  14.8642492  56.3650560  78.1964397  15.0352859  56.9949627
  77.5125790  15.6199634  55.7778025  87.2690105  24.4268727  61.8181753
  86.5076733  23.9294004  62.1167135  87.4404144  24.0962410  60.9363985
  22.8582406  75.6828642   9.1017604  22.2385001  75.1594305   8.5936528
  22.7335572  76.5770817   8.7838554  74.5971298  40.1204205  69.6579647
  74.4160128  39.4427013  69.0067148  73.9945316  39.9291253  70.3766537
  59.0909672  51.6334486   8.4936488  59.5173597  52.4126101   8.8504875
  59.6055031  50.9016657   8.8342041  14.2911601   5.3335667  50.6153870
  14.6919918   4.6743616  50.0488043  14.5789540   6.1702418  50.2501726
   1.3082537  40.9146833  73.8416767   1.3953011  40.4467344  74.6721458
   0.6523198  41.5899515  74.0148640  54.6779919   8.9467287  19.8583901
  54.0297937   9.1357732  20.5368710  54.2548370   9.2128271  19.0420783
  28.6838698   7.6884270  39.5574999  29.3208003   7.5242025  38.8621020
  27.8786325   7.2740227  39.2475128  47.6221132   2.3817265   0.5483996
  47.1820211   2.9977328  -0.0373366  47.4445391   2.7179590   1.4268342
  78.1705952  45.7191181  67.9564381  79.0030479  45.6846237  68.4276724
  78.0553341  44.8347569  67.6087999   1.0637282  29.7594953  35.6699586
   1.9824506  30.0162721  35.5909252   0.6875870  30.3987002  36.2750745
  39.0291739  23.4501100  55.5689144  39.9730301  23.3685017  55.7056904
  38.9409852  23.6960888  54.6480751  33.6208630  37.3154998  70.7404137
  32.9094863  36.8251848  70.3283882  34.2803645  36.6530633  70.9464931
  12.8493476  24.0183187  69.6992445  12.8549683  24.4096327  68.8257074
  12.2835851  23.2509041  69.6142817  28.7616229  26.2111092  64.3139362
  28.6807442  26.6911244  65.1381207  27.8759432  26.2075973  63.9509010
  82.6548958  30.3494811  41.4432049  82.6562691  30.1711655  40.5027628
  82.9719162  31.2496543  41.5167665  66.3194180   7.3661602  66.4736557
  67.0412636   7.6470506  65.9112787  65.8113050   8.1627417  66.6269970
  78.7972069  50.5755997  24.6374488  78.4425116  50.5241632  25.5250168
  78.8679028  49.6638966  24.3545604  49.7686005  80.7759666  19.0434027
  50.1858377  79.9145460  19.0529215  50.4767704  81.3827324  18.8275993
  91.0586166  82.7871037  24.6433091  90.5038357  82.5453568  23.9016843
  91.7932701  83.2576656  24.2494869  89.1321945  51.3683033  45.2961206
  89.1033077  51.7806864  44.4327927  88.3445740  51.6842222  45.7389307
  19.6352029  44.2510366  39.6018958  19.0736544  44.5616674  40.3121090
  19.3940902  43.3314037  39.4906735   9.2861682  43.1076097  38.3408380
   8.8583928  42.9771471  37.4945402   8.6600065  43.6235809  38.8486981
  34.2892146  56.9020033   5.9721678  34.4672608  57.5304651   6.6718614
  33.3372736  56.9171619   5.8731323  47.6480722  57.3103666   6.8724328
  46.7615700  57.1486425   6.5496475  48.2098961  57.1691751   6.1104286
  64.8443031  57.0152998  29.1990566  65.2041101  56.4370871  28.5264206
  63.9578533  57.2123098  28.8963604  12.2013938  38.1159878  72.3459911
  11.8588316  38.8120103  72.9067373  12.0013034  37.3077369  72.8181458
  18.4573662  52.4793816  68.8458872  18.6524069  51.9344187  69.6082592
  17.6785922  52.0796347  68.4586573  60.6620026  13.4357989  19.2938244
  61.4019823  13.0309081  18.8413584  60.8577824  14.3726933  19.2823148
  54.5257998   6.9622523  70.5093098  55.1799107   6.9382238  71.2077332
  53.9145756   7.6484847  70.7771111  75.6386709  59.8409128  55.4504347
  75.6693411  58.8989878  55.6179714  75.2436256  59.9169588  54.5818758
  59.6693516  57.3915911  17.6696455  59.8981237  56.9261026  18.4741390
  59.8413706  56.7606497  16.9706798  22.0193768  28.2390499  72.0943117
  22.9171371  28.0121613  72.3367596  22.0755863  29.1439795  71.7874289
   3.5783568  48.7121153  32.8705931   3.0201027  48.3196783  32.1993423
   4.3250713  49.0635395  32.3856688   8.0054271  71.2452793  61.1921406
   7.0705688  71.2182140  60.9883308   8.0445915  71.5586424  62.0957470
   4.7944289   7.7409768  30.4386830   5.6357825   8.0809116  30.7433128
   4.7970799   6.8215156  30.7047939  12.0292270  30.9407473  66.0747194
  11.6331446  30.3648829  65.4207087  12.8016794  31.3016725  65.6396532
  50.9796619  67.3608160  26.5718603  50.4761696  68.0789804  26.1885047
  51.8361712  67.7435446  26.7619610  70.2485847  84.2683601  54.3197107
  69.5727253  84.9453449  54.3533182  71.0031748  84.6612644  54.7584009
   7.7240306  19.7918284  51.9591093   8.2667428  20.3272414  52.5379229
   7.8433269  18.8974130  52.2785139  17.8259170  27.4033451  16.0576141
  17.3120558  28.0963874  15.6430435  18.6752188  27.8079462  16.2342906
  78.9503193  54.1325760  56.1945105  79.4303942  54.7835112  56.7064095
  79.1013241  54.3852663  55.2837038  89.1756344  36.7880774  59.9988842
  90.0864124  37.0017934  59.7963142  89.0588951  37.0721602  60.9054661
  11.6077280  34.1150999  54.5976114  12.5283790  34.3313074  54.7455549
  11.6179502  33.1974936  54.3253469  25.6738353  71.6884136  67.9021549
  25.9167862  72.1244907  68.7188816  25.1661325  72.3432016  67.4228621
  30.8350587  23.3291030  35.3873825  30.6183267  22.6677132  34.7302508
  30.0046682  23.5104680  35.8276010  80.8005047  29.8287559  62.9499531
  80.0293636  29.3473053  63.2495785  81.5417767  29.2910671  63.2286024
  32.0698524  39.7169113  37.7781749  31.2152100  39.7190094  37.3471189
  32.4979830  38.9231896  37.4573278  74.3047333  20.4011703  66.1931849
  73.4045506  20.6956315  66.0546303  74.4052839  19.6530354  65.6046152
  34.3341708  60.0444365  47.3039007  33.6595297  60.2960825  46.6732168
  35.1603961  60.2301645  46.8577099  51.2921476  20.9129477  70.6115341
  51.6678047  21.7907381  70.6793404  51.1617708  20.7800889  69.6726084
   0.4130813  72.8569460  49.7508287  -0.0196981  72.5098038  50.5308485
  -0.1736704  73.5453701  49.4377375  50.5748510  59.3903255  61.7974186
  51.4744759  59.1782951  61.5485287  50.5434608  59.2310810  62.7407551
  79.0756655  54.1823864  31.2960148  78.9380932  53.3749104  31.7912817
  79.7101736  53.9437151  30.6202412   4.7453201  35.0015354  57.4927473
   4.6599445  34.5554805  58.3353519   5.3039628  35.7566500  57.6770067
  53.0004787  71.6941881  63.3537102  53.0028486  71.6188097  64.3079329
  52.3985910  71.0099220  63.0608892  87.8395176  56.7893171  52.7612305
  87.5753307  56.9022179  51.8481588  88.2336998  55.9175396  52.7904701
  78.1083107  49.6226549  16.4349842  77.5437880  50.3609705  16.2059903
  78.8123131  50.0114298  16.9540834  29.7575688  35.0242782  71.7651463
  30.2363920  35.4771638  71.0709858  28.8578439  34.9744368  71.4422798
  42.3423576   2.4861614   7.5045872  42.2891855   2.9465151   8.3421308
  42.4769878   1.5690798   7.7434754  79.2585802  24.3082738  49.4915390
  79.5603657  23.9177418  48.6713886  78.4118652  23.8936186  49.6569586
  53.1553030  14.5226490   3.3671257  53.6751842  14.2049205   4.1053712
  52.3446178  14.8407793   3.7643859  16.9729817  50.1366997  65.4235363
  16.3368344  49.4634199  65.1821899  17.4659622  50.2996778  64.6193981
  88.7264061  35.0717950  36.4147735  88.0635166  35.5614829  36.9016171
  88.6276054  35.3690934  35.5102944  22.9695415  30.1206112  61.7522001
  22.4161768  30.3056169  62.5110102  22.4015760  30.2769876  60.9977531
  88.6603260  49.9884129  40.8129025  89.5345402  50.2644587  41.0882044
  88.7517071  49.8000240  39.8788834  36.0358930  69.5360947   2.5907996
  36.7269802  69.0069151   2.1925510  35.2876258  69.4348574   2.0025150
  58.3109320  46.4349439  74.2711054  58.9966477  46.4602300  73.6037337
  58.7355698  46.0470354  75.0362465  14.4769049  60.2656460  47.7607441
  13.5242927  60.3531361  47.7274895  14.7432697  60.1969910  46.8439198
   1.9918607  40.1800823  56.4924669   2.1734798  39.7070575  57.3045588
   2.2883396  39.5895839  55.7999039  87.6490498  44.8888683  41.9788361
  87.8514290  43.9729452  42.1695137  87.5415039  45.2945137  42.8391409
  11.3375950   0.0868708  62.7691317  10.9942687   0.9573183  62.5674391
  11.8392158  -0.1587795  61.9917870  78.5097265   8.1124735  11.3174582
  78.9918137   8.7651265  11.8252683  77.8889894   8.6236882  10.7982516
   4.9596807  41.8139648  54.0495157   5.1444173  42.7517271  54.1015053
   4.2679337  41.7422199  53.3918142  11.0617161  48.7683916  68.8736773
  11.8187904  48.8338852  68.2916260  10.8305216  47.8395987  68.8623333
  21.7328668   4.4284326  69.8874378  21.4913797   3.6326641  70.3614283
  21.1051250   5.0857830  70.1875401  35.7682920  66.4768648  44.7942686
  34.9590063  66.0955858  45.1347303  36.4407730  65.8238411  44.9880743
   5.2591264  50.5329561  20.6877136   6.1424631  50.8783531  20.5586863
   5.0707960  50.6960869  21.6119170  84.2406940   8.1167281   7.8174210
  83.2885075   8.0523527   7.8911811  84.4022560   9.0336579   7.5952345
  17.1232212   0.6811213  66.0310459  16.2211049   0.6657758  66.3507032
  17.0394921   0.7730718  65.0819588  22.7114844  28.8988781  44.6920729
  22.2751641  28.4109473  45.3904819  23.5806823  29.0933180  45.0426722
  52.3927307  73.2198906   3.8624665  52.6084661  72.2904062   3.7866825
  52.7842712  73.4896898   4.6932125  26.4375997  33.0150080  61.5659523
  26.0021138  32.2522187  61.1855078  27.1713686  33.1904602  60.9768629
  59.4860506  11.7243290   6.6593593  60.3885365  11.7272091   6.3403898
  59.5484591  12.0490670   7.5576258  29.9814892  71.5548944  40.9812117
  30.1190758  71.5200233  41.9278288  30.1474404  72.4684381  40.7485580
   0.6583016  19.6740079  33.5172653   1.5030989  19.3051624  33.7751484
   0.1053626  18.9111173  33.3484769   9.0448397  75.9581614   0.5529799
   8.9398700  76.8555164   0.2367987   8.1628352  75.5877686   0.5196804
   9.1966462  19.8455298  44.2838097   9.7415161  20.4534769  44.7835588
   9.2093617  20.1908231  43.3911467   4.8329642  52.7686596  69.4103146
   4.7230259  52.1295977  68.7062263   5.7810342  52.8646040  69.5008087
  67.1539927  39.3094158   8.6372823  67.9023075  39.7230601   9.0675771
  67.2251511  39.5789909   7.7215874  10.8723962  53.9021254  35.0226974
   9.9556518  53.9096165  35.2979350  11.1620796  54.8081112  35.1299334
  85.1297951  13.9599919   6.9784707  84.1784191  14.0175772   7.0668286
  85.4695511  14.3770552   7.7702141  63.8174343  68.2726765   2.2667062
  63.6864424  68.7222147   1.4318465  62.9492617  68.2578564   2.6695538
  12.2180068  53.5983896  14.2467237  13.1117523  53.7228441  14.5660388
  12.0351744  54.3855381  13.7336934  42.1031713  85.6728268  10.0787127
  42.4584198  84.8571777  10.4319239  41.3353109  85.4016209   9.5756567
  84.7295952  22.3545098  50.8372021  84.1626358  21.5981913  50.9880733
  85.3678513  22.0504475  50.1919079   4.6771908  19.9035919  53.1669140
   4.3874788  19.8947477  52.2546530   4.2001414  20.6330061  53.5626507
   2.6571804  76.7020130  68.7668705   2.5831974  77.4744511  68.2064295
   3.3824211  76.2024879  68.3917284  72.3775816  17.4811196  49.0682650
  73.1848764  17.1924686  48.6426115  72.1541023  18.3007324  48.6272192
   7.5432980  35.7159805  52.2336245   6.9976419  35.1398921  52.7689886
   8.3248907  35.8674788  52.7650309  14.8609686  50.1416922  73.3170605
  14.7885990  49.8724842  72.4013519  15.0788677  51.0728788  73.2764435
   4.7844976  54.6162367  73.4066153   4.1976428  53.8943338  73.1814718
   4.3977836  55.0032234  74.1920614  39.8817539  11.1963487  72.8882837
  40.0765324  10.4939079  73.5086632  40.6687927  11.2634790  72.3476410
   0.4694723  60.2644920  12.7723026   0.5312353  61.2170410  12.8435051
   1.1988087  59.9371672  13.2987630   6.9621056  28.7415600  54.2413998
   7.5413632  29.4414830  54.5427322   7.3720294  27.9374886  54.5602465
  77.2816324  18.3802903  16.8012714  77.9211378  17.6922452  16.9852841
  77.8086185  19.1690111  16.6730559  83.8404369  69.2957115  22.5498581
  83.8994026  68.5808420  23.1836724  84.0341854  68.8852215  21.7071319
   2.5151220  36.1961889  56.0838175   2.8864777  37.0522213  55.8704233
   3.2094851  35.7473946  56.5661812  87.3306561  19.0055907  71.3515329
  88.0983639  18.5464180  71.6921377  86.7356014  19.0644193  72.0989799
   8.7694561  10.6842899  72.1770716   9.3183231  11.4182138  72.4533558
   8.0119658  11.0952353  71.7604637  89.3777180  52.7109766  42.5227404
  89.8757076  52.1840906  41.8977356  88.4634686  52.4848032  42.3517656
  81.2599373  74.2136240  66.4057207  80.9703922  74.9125242  65.8192635
  80.9878063  74.5034885  67.2764444  14.9735641  21.3848305  39.6287513
  15.7418656  21.5213013  39.0743876  14.2286682  21.5458989  39.0495992
  16.0028994  56.3258505  47.4055481  16.0992372  55.4215717  47.7042580
  15.2570438  56.3018990  46.8060827  89.2028141  24.3152881  74.2849779
  88.8355350  24.9902320  73.7141991  90.0698280  24.6460032  74.5198154
  74.9552774  74.0991306  35.5141687  75.2370262  74.6878433  36.2143612
  73.9990950  74.1307926  35.5448794  22.9548788  16.6957021  54.0102911
  23.9087629  16.7731428  53.9918709  22.6928449  17.1529567  54.8093462
   5.3717709  61.3201141  58.1820297   5.7583696  62.0780230  58.6206007
   5.6362009  61.4123964  57.2667170  88.0816936  14.1300309  51.6978693
  87.2598267  14.4750845  52.0467472  88.3157253  14.7348630  50.9938526
  55.4697895   3.3421016   0.8268760  54.8868608   2.8052878   0.2899795
  55.1694775   4.2394668   0.6827178  60.8486223  65.1318645   4.6621585
  60.6223011  64.8681879   5.5540586  61.5868950  64.5700932   4.4263664
   9.4586939  60.4611397  43.8943243   9.4844043  59.8728037  44.6489334
   8.5358816  60.4859257  43.6412764  61.3709545  12.9303563  45.0484228
  60.4837036  13.1649089  44.7763872  61.9297171  13.5900867  44.6376038
  21.0678530  28.2204509  52.5377655  21.3850617  27.4790835  53.0535030
  21.0136271  27.8841901  51.6432190  46.6960478  30.0948906  55.8165026
  47.0044374  30.6567812  56.5274239  45.7433701  30.1858902  55.8353567
  65.8123636  10.8663380  28.8673186  65.4343605  10.3443122  29.5750141
  65.0684452  11.0814643  28.3046985  28.9787531  18.4915566  25.5424690
  29.1716266  19.4089973  25.7356906  29.8099899  18.0376768  25.6812882
   1.8769185  37.5923562  46.3511133   2.3569494  37.2004604  45.6215763
   1.3411653  38.2745528  45.9463787  17.8117514  19.9227560  73.3751631
  17.2166574  19.9787211  74.1228008  18.6469817  19.6485078  73.7538624
   6.5641594   7.0343548  52.4368477   7.3158205   6.9325763  51.8529987
   6.8776995   7.6123774  53.1324148  24.5238400  82.3050308  25.7644820
  24.7375917  83.2312107  25.6516600  24.1364336  82.2533417  26.6382527
   0.9612393  18.4289575  52.5466681   1.6300842  17.8823578  52.1342278
   0.2101128  17.8459859  52.6570511   1.4620055  38.9428711  64.9234343
   2.1531329  38.6581779  65.5213642   1.7222999  39.8253202  64.6593094
   2.1412914  37.9014373  67.4429369   1.9735104  38.5924315  68.0837250
   1.2992328  37.4572325  67.3436880  78.0626488   7.9011518  72.8149748
  77.2476864   8.3760846  72.9777861  78.3387518   8.1903487  71.9452810
  66.8651342   6.8513924  63.2037544  66.0643291   6.8815607  62.6802778
  67.0014858   5.9203905  63.3794689  11.5377676  26.1455250  64.2692280
  12.3305500  25.7974696  63.8610792  10.8624458  25.4961872  64.0729380
   2.0893984  51.7083740  46.8736029   2.2834675  52.6253080  47.0680332
   1.1558493  51.6156340  47.0636463  22.4846125  39.5461226  40.9996796
  22.9138994  38.8954616  41.5551805  22.6460767  39.2423868  40.1064253
  60.2184725  81.3546944   5.9377974  59.7684383  80.6314945   6.3744611
  61.1241484  81.2912273   6.2410504  61.2438488  10.6465995  28.4598374
  61.4504766   9.9975234  29.1323233  61.5173912  11.4812028  28.8404250
  48.9099264   5.8603078   3.1486455  49.7975111   6.1913455   3.2859218
  48.4113598   6.1955118   3.8938287  28.4919214  46.4161682  39.0772891
  27.5410128  46.4905977  39.1576815  28.8059497  47.3200178  39.1031218
  13.7063229  47.9088497  47.7628088  13.3796680  48.2043982  46.9129992
  13.4282601  48.5891581  48.3760738  14.9855733  37.1726084  62.8206873
  15.1992714  37.6752305  62.0345974  15.0313747  36.2585330  62.5403261
  13.2138765  24.9683619  51.6424847  12.8938663  25.8642268  51.7485476
  12.6855290  24.6080422  50.9302664  11.5831316  44.5558310  58.5413599
  12.2926998  45.0466061  58.9559460  11.8300283  44.5120955  57.6175833
  54.2599344  62.0222664  22.1955490  54.7542191  62.8404713  22.2451711
  53.6661482  62.0552921  22.9455876  23.0770922  20.0281024  54.5718861
  23.6509347  20.7256746  54.8886347  23.6589122  19.4388032  54.0918398
  88.6129665  32.9692626  43.2114029  88.7270069  32.8849101  42.2647715
  89.4166279  33.3930707  43.5126448   6.1260110  20.9873629  21.0112381
   5.3349078  20.7533789  21.4966655   5.8797306  21.7668962  20.5133343
  87.0606518  29.0718675  73.5264826  87.4843121  28.4295988  72.9570675
  87.7290154  29.2954683  74.1741896  81.4835548  64.3824005  29.6465063
  82.2533989  64.9369431  29.5197773  81.7761230  63.7011862  30.2519655
  25.7323384  38.7064528  43.8865709  26.5531683  38.9926720  43.4858847
  25.8693171  37.7783108  44.0763569   3.9880887  60.9430885  68.6605310
   4.0676418  61.6217327  67.9901981   3.8007873  61.4236784  69.4668674
  67.6086330  24.2535639  45.9916067  68.1135750  24.5164061  45.2220774
  66.9262266  23.6785316  45.6453514  70.6375313  24.6400380  22.4087691
  71.2911320  25.2637100  22.0924282  71.1292505  24.0433383  22.9730344
  11.3714421  63.7018728  70.3857613  12.0588183  64.0165043  70.9729195
  10.7140779  64.3976212  70.3920507   5.9608668  34.1703272   8.1984723
   5.5591422  33.4097409   7.7785230   6.8462509  34.2040968   7.8362757
  19.8274124  47.7394485  63.6387777  19.0572238  48.1627846  64.0180254
  19.7827673  46.8360519  63.9520073  29.1346908  80.8343887  30.0294328
  29.7399902  80.1471710  29.7508955  28.2661390  80.4470730  29.9206281
  41.2290764  82.4692154   3.2897618  40.6496191  83.1848049   3.5513040
  41.3551378  81.9586086   4.0895212   1.4194416  54.8282766  46.8816805
   0.7653499  55.5271149  46.8862677   1.9374603  54.9798775  47.6721907
  49.8997068  14.3563426  64.0419436  49.0943480  14.1230035  64.5036650
  49.6261501  14.4862342  63.1339073  88.8690662  71.7114115  48.9068651
  89.5034599  71.1176443  49.3083763  88.0254173  71.4414549  49.2696428
  12.8877831  39.3364453  59.4817400  12.5453091  39.6968794  60.2996826
  12.8363431  40.0624180  58.8600063  40.8586454   7.2524041  68.3466291
  40.1804352   7.4177432  69.0015554  40.4928827   6.5635496  67.7917147
  76.7119360  53.6456013  65.2894735  76.8408108  53.0545521  66.0312843
  76.9747925  54.5048475  65.6193733  16.2398899  59.4406557  65.4181671
  15.3718030  59.7828197  65.2046776  16.2635756  59.4277143  66.3749886
  22.9856515  79.0061283  62.5507689  23.4260559  78.2573318  62.9527378
  22.1172619  79.0176201  62.9532623  86.1313820  51.1997890  58.5999393
  86.7929649  51.1935854  57.9082060  86.6263676  51.3602972  59.4033432
   7.5388366  68.2444334  11.7707956   6.6286510  68.3129501  11.4825261
   7.9803306  68.9804792  11.3470614  13.1444013  41.8127155  61.3277197
  12.7222836  41.7756987  62.1860170  14.0782356  41.7189121  61.5158319
  80.8158016  25.4077888   2.8547350  80.4367638  25.0924397   3.6751691
  80.0749207  25.7790804   2.3757143  79.9628258  37.1816158   9.0993297
  79.4664860  36.4070940   9.3638980  79.3626833  37.6695991   8.5354698
  74.7693729  23.6264062   5.6479520  74.1771793  23.3487058   6.3468230
  74.6873856  24.5799065   5.6293124   2.5842738  53.8340187  41.4989138
   1.7378575  54.1902256  41.7689657   2.7995503  53.1902790  42.1738100
  29.6158338  14.0958619  70.7210016  28.9928031  14.6726227  70.2789497
  29.4214463  13.2242608  70.3763914  36.1644030  41.0608912  68.6022425
  35.9433413  40.1809216  68.9072227  36.4088798  40.9419203  67.6844645
   8.2114327  58.7060928  34.8585701   8.4551930  57.7811193  34.8233843
   8.8985741  59.1538095  34.3649936  76.1667252   5.4267675   1.1073044
  77.1108580   5.4246467   1.2649146  76.0507107   6.0077488   0.3554845
  89.2356110  60.2055073  58.6808395  88.3791161  59.7821808  58.7393808
  89.5768833  59.9385691  57.8273106  32.0786667  15.6912470  69.2436695
  31.7210460  14.8179972  69.0831280  32.8785586  15.5339754  69.7453403
  73.6673450  29.3639088   4.1061828  74.2357159  30.0653028   4.4243589
  73.5412693  29.5603228   3.1778735  39.5343304  56.9079828  34.1204381
  39.7391820  56.3321733  34.8571301  38.9420009  57.5644636  34.4870567
  66.8557358  63.1931973  53.4620714  66.4049196  63.8223171  54.0252781
  67.7760792  63.2606649  53.7163258  64.7896957  40.1445723   9.5723623
  65.5566216  39.8653865   9.0722507  64.5123005  39.3591094  10.0438797
  84.3838310  74.0381002  26.6515303  84.7705269  73.6613464  25.8611155
  83.4430218  73.8938379  26.5500689  70.3675413  38.3102965  38.6887240
  69.8446035  38.1685805  37.8996205  69.7790956  38.0857944  39.4095349
  16.1574507  46.5638781  64.0054798  16.4498115  46.3744307  64.8970318
  15.2111053  46.6841316  64.0842104  50.1849794  52.4724245   2.2927670
  50.6232023  52.8025770   3.0771095  50.2601719  51.5204906   2.3591547
  20.8149576   3.1954134  16.1030865  19.9741125   3.6525002  16.1199260
  21.3112545   3.5802025  16.8254840  54.8922348  81.6310120   6.8911743
  54.1346741  81.3168430   7.3847646  55.4819727  81.9847584   7.5569844
  70.1135540  26.6072321  43.4748602  70.1506615  27.0383906  44.3286514
  71.0004234  26.6921926  43.1248903   7.0048797  45.6809568  31.5453625
   6.7560524  45.9553337  32.4279904   6.6261423  44.8070049  31.4505243
  45.2557182   7.2172123  27.8847218  44.5789957   7.4434203  28.5227728
  45.6577635   8.0549133  27.6548266  75.9066200  61.6337013  32.7097344
  75.9315729  62.5166178  33.0786133  75.8689690  61.0564709  33.4723759
  18.3768082  43.7792158  47.9497290  17.8919494  43.8700628  48.7700272
  18.2174838  42.8759003  47.6761103  63.1532526  79.6306038  72.4715281
  63.3698750  80.5515099  72.3258066  62.2895336  79.6500349  72.8836489
  42.2417164  24.0706658   0.7917364  42.4942875  23.3584380   0.2042225
  41.7822456  24.6938658   0.2289428   7.2327197  48.5023355  64.3894529
   6.3697779  48.2605934  64.0531158   7.5757325  49.1220474  63.7456083
  26.4240432  10.9054101  58.5127687  27.3009181  11.2887037  58.5329866
  25.8370018  11.6553342  58.4167051  11.4462078  19.5036888  62.8101683
  11.2265742  20.3293395  62.3785496  10.5998242  19.1255021  63.0485821
  44.9233580  74.2064905  54.8897409  44.3268776  73.5931635  55.3190184
  44.4000101  74.9970531  54.7580004  33.3493400  65.2251720  72.0389080
  34.1538978  64.9688959  72.4897242  32.8939247  64.3996000  71.8738127
  23.9806008  68.2583141  55.5592442  24.6679020  68.2927656  56.2245750
  23.1646180  68.2319975  56.0589600  54.1326284  76.2576008  72.3471832
  54.4048500  76.3886690  71.4389181  54.6503925  75.5104113  72.6469564
  34.1397166   1.1022136  51.1516571  33.9053655   1.9527015  51.5231180
  34.8685765   1.2915601  50.5607748  90.0105286  74.6833038  13.6775041
  90.0498867  74.4417477  12.7521217  89.5405674  75.5171299  13.6876035
  83.2355690  68.9555454  60.7007170  82.7882290  68.3169222  61.2559414
  84.0613270  68.5321093  60.4660654  55.6259298   9.2089200  43.8104486
  55.4089880  10.0950170  44.1002750  55.8885860   9.3136054  42.8959608
  45.9097433  13.7633753  63.1683731  45.5740547  13.4008634  62.3485374
  45.1329517  13.8762188  63.7161779  45.7547712  75.0959778  22.7763677
  46.4023829  75.7139683  22.4373746  45.5012608  75.4567099  23.6259794
  36.6738892  52.2563553  73.9191437  36.2118626  51.4746141  73.6164141
  36.7683172  52.1282959  74.8630285  36.4815521  59.3509865  29.4316363
  36.8847585  60.1271534  29.0427542  36.5314651  58.6857557  28.7451935
  22.0345998  22.3785734   6.9202811  21.3556194  21.9226718   7.4176437
  22.0944786  23.2408690   7.3314869  46.1504507  57.8772783  59.9524927
  45.2349234  57.6012659  59.9955702  46.4007664  58.0200577  60.8652878
  46.7167568  66.3001013  58.8123894  47.2666311  66.1575222  59.5828009
  45.9663820  66.7946577  59.1419077  10.0859249  78.8720989  73.3518887
  10.6394124  79.6222115  73.1345940   9.4229662  78.8556910  72.6616335
  32.7468824  68.4862137  41.5545130  32.0694542  68.8319826  40.9733343
  32.2618198  68.0460310  42.2524977  81.4159584  69.7724771  42.2024965
  81.7839622  70.6007910  42.5102234  82.1189213  69.1356421  42.3310137
   5.3649950  61.5350151  33.3413148   5.6388658  60.6824064  33.0032516
   6.0145658  62.1486282  32.9981422  62.0922279   2.5984272   8.9868218
  62.0070171   3.1826240   9.7402710  61.3469934   2.0022500   9.0605122
   8.9308167  32.4171185  53.9335775   9.8028445  32.1852827  53.6141253
   8.3425146  32.1817899  53.2161140  60.3539991  11.9439757  10.4880655
  59.4778633  11.7419517  10.8163977  60.2925730  12.8491247  10.1828384
  72.0913792  25.7996941  56.2113476  72.6011324  25.6439734  57.0064211
  71.3588142  26.3443398  56.4993429  49.3920517  67.6042557  46.3678408
  50.2844143  67.2580338  46.3753176  48.8395071  66.8388700  46.2093925
  40.9874153  45.5327845  53.3654594  40.6064653  45.0956249  54.1270399
  40.2399874  45.7180262  52.7968884  66.5631342  68.1888437  36.5328526
  67.1347237  68.8856602  36.2104177  66.1728096  68.5485888  37.3293853
  41.5624571  46.6383123  46.9008684  41.1871958  47.3953104  47.3507214
  41.6011143  46.9011116  45.9812641  39.1151428  60.6452751  51.5376043
  39.4353199  60.7393122  52.4347496  39.6148729  61.2895441  51.0361814
  20.2973032  67.4349356  39.8434615  20.2518845  66.4919424  39.6855712
  19.6942770  67.5852060  40.5714798  28.0521536  66.3681459  20.8477497
  28.7629890  65.8696318  21.2507677  28.4427261  67.2169781  20.6399703
  47.3884106  49.6736765  58.3505297  46.4835215  49.9172354  58.5456944
  47.4211073  48.7296724  58.5054922  75.8273363   3.4106240  55.3921413
  75.6557751   2.9003912  56.1836338  76.1337185   2.7665898  54.7537231
  71.4312744  28.6554909   5.7523543  72.3495483  28.5586834   5.5001014
  70.9402561  28.3166671   5.0037986  37.3891091  50.3730297  36.8490005
  36.5667629  50.1116419  37.2633171  37.9147124  49.5731831  36.8342733
  36.5818596  20.2677798  12.1634042  37.0416403  20.3200507  13.0013192
  36.1670446  19.4051683  12.1712244  24.9493265  77.3552227  20.4919624
  25.2807903  76.8320084  21.2217641  24.1005421  76.9649124  20.2835011
  18.6945093  61.4776850  34.2991257  19.5259869  61.0767555  34.0458822
  18.8129318  61.7140055  35.2191043  13.2538819  60.8529758  61.6585922
  12.4040043  60.5715275  61.3198853  13.8920510  60.3532124  61.1494684
  51.5229130  41.6864252   6.7721957  51.6647720  42.0720720   5.9076822
  51.9649363  42.2831821   7.3761237  60.0413227  68.8327169  56.3211775
  60.8244085  68.2933283  56.2113285  59.6137619  68.4782505  57.1007824
  69.1341543  36.7049718   8.0553192  68.4797001  36.0354924   7.8560203
  68.6633253  37.3509097   8.5819286  55.3327847  16.4721739   1.6647673
  55.3984404  16.1835361   2.5750464  54.3981457  16.4218700   1.4643735
  41.5548706  54.2837334  72.8648996  40.6826258  54.5537567  72.5776434
  41.5140057  53.3276939  72.8884029  21.6938066  71.6710663  39.9054646
  22.0449376  70.8515072  39.5572352  21.0270882  71.9346380  39.2712331
  70.4287910   8.0975109  48.6412048  70.4106283   8.1439066  49.5971060
  71.2131977   7.5867444  48.4410620   5.2361894  33.5112429  24.0907311
   5.3922147  34.4074655  24.3885136   5.9999955  33.3009624  23.5535026
  27.2171402  84.4966507  49.3374586  27.5184321  83.8777447  48.6723137
  26.2733436  84.5634365  49.1924810  13.8115561  60.0824022  64.5157528
  12.9239500  60.4236269  64.4064236  14.2270803  60.2185822  63.6642694
  76.7441177  16.7515802   4.0936813  77.6798582  16.5588140   4.0348560
  76.3577938  15.9547091   4.4569743  17.9397786  82.4089432  65.5231094
  18.5160589  82.7452183  66.2094402  18.4784615  82.4188042  64.7319365
   4.6398300  13.5978329   0.8658428   5.1978242  14.3750691   0.8937424
   5.1733595  12.9356015   0.4264935  33.3601975  81.7502213  34.9707770
  33.5629916  81.4553070  35.8585453  32.5027442  82.1687031  35.0474191
  36.7604160  15.5002213  54.6594286  36.1901116  16.0355473  54.1076946
  36.1602259  15.0234270  55.2327299  67.1201134   1.0077984  57.4074078
  67.1805143   0.1067153  57.0901823  67.7573729   1.0540248  58.1201410
  15.9020674  58.5374498  58.1434107  15.9875071  58.3180332  57.2156239
  14.9692619  58.7162399  58.2623339  28.6676264  66.5015316  43.8835478
  28.2931709  67.3821974  43.9047098  28.2548642  66.0480404  44.6185350
  36.1856771  85.0269604  71.6512823  36.7167091  85.4639244  72.3170853
  35.3437066  84.8727512  72.0796919  81.7166233  60.6202126   3.1303823
  81.0553837  61.0186243   2.5644580  81.6212559  59.6790409   2.9843307
  63.1680489  55.1294231  60.6233883  63.6485291  55.8455276  61.0387945
  63.7197638  54.3593836  60.7608032  32.5685406  53.4842396  50.2901554
  32.0027637  53.5586452  49.5216560  33.4479380  53.3695650  49.9299574
  24.6726584  70.0217295  46.1284876  24.2506981  69.6605539  45.3489113
  24.6831870  70.9671068  45.9788799  11.5729809  55.4798698  48.7397528
  11.3222110  55.6146574  47.8258705  12.3264217  56.0559750  48.8688421
  41.1195707  48.0949879  54.9253798  41.1680508  47.1685553  55.1611853
  40.7847214  48.0966902  54.0286589  61.2256575  65.2313137  63.9164448
  61.5125179  64.3288612  64.0561533  60.8219910  65.4855156  64.7463036
  40.0044060  67.2034359  47.6428509  40.7300520  66.8105030  48.1279087
  40.0237513  66.7696047  46.7898273  37.3256302  52.8110027  50.6717825
  36.5202355  53.0094576  51.1494684  37.7937913  52.1961641  51.2366056
  35.1860356  77.3791504  47.2676134  35.8610749  77.6397562  46.6410017
  35.6732249  77.1094036  48.0461454   2.9319966  70.2993488  61.1406326
   2.5330952  70.4122829  62.0033932   2.1897835  70.1921797  60.5457640
  32.1580029  67.1151257  70.1203203  31.8006229  66.3748837  70.6107807
  32.7991724  66.7226791  69.5277643   0.6714474  28.6219386   0.8342147
   0.4456388  29.1964463   0.1026512   0.6592165  27.7411441   0.4596735
  46.1509514  81.6187477  42.7438927  45.3851175  82.1882343  42.8175354
  46.5741587  81.8906116  41.9295073  17.8239703  61.9870615  58.1546068
  17.7563989  62.2090435  57.2259569  18.7293673  62.1950531  58.3853197
  44.6654320  49.5079708  40.9774780  44.3739223  49.2605352  41.8549919
  43.8698339  49.8045158  40.5355358  21.1922288  75.9180069  56.8248987
  21.6589642  75.5954075  57.5958204  20.5698276  75.2222824  56.6132021
  65.2084780  16.7538512   9.2557502  65.6870461  17.1019363  10.0081074
  65.5829144  15.8842111   9.1151983  33.9554048   0.7402424  28.1902838
  33.3119321   0.1352447  28.5592723  34.7071195   0.1882322  27.9747820
  18.0099726  18.0577326  12.2846329  18.1887007  17.7302480  13.1661320
  18.6889839  17.6605022  11.7393053  34.2259979   1.0264962  56.5956688
  34.4121313   0.6686354  57.4637222  33.2816553   1.1828209  56.5984964
  42.0800591  77.7912760  58.8103437  41.8401623  77.1866608  59.5125628
  42.1381044  78.6451960  59.2389250  57.8027630  67.7499485  54.5878506
  57.1026993  68.1287098  55.1195335  58.5918283  68.2166624  54.8631334
   0.9939548  80.2514458  70.1848173   0.4377491  80.9883404  69.9321079
   1.8655029  80.6335449  70.2879572  75.9727716  79.1630650  58.6753654
  76.2865210  80.0314331  58.9278078  76.0923052  79.1318035  57.7261734
  37.6339841  74.3290663  39.2054939  36.9569588  74.3239737  38.5288548
  37.1995115  74.6942186  39.9762917  78.1511259  81.3803864  35.4536510
  77.7313423  82.1616936  35.0936794  78.6513329  81.0186577  34.7220969
   4.1820043  36.2679982   8.3816898   4.7145548  36.6292763   7.6731002
   4.6572188  35.4865003   8.6639380   5.6297922  79.0484381  66.9121408
   5.8619815  79.3480635  66.0331964   6.2076604  78.3021212  67.0712185
  36.1036086  51.0553074  54.0725183  35.9796762  51.4196825  54.9489355
  35.9153891  50.1221132  54.1722965  15.4529321  39.9719501  57.7918482
  15.0959551  40.5927610  58.4269810  15.9760487  40.5107164  57.1982861
  72.4205351  11.9626343  45.6050682  71.6759825  11.5134418  46.0051918
  73.0100822  11.2575638  45.3375912  42.7698469   1.0930129  39.7276831
  43.5748625   0.5960046  39.8731613  42.0706511   0.4435145  39.8019052
  46.1389399  65.9435940  43.7867546  45.8822823  66.8187666  44.0773296
  45.3960991  65.6363010  43.2671452  32.9609418   2.4072282  60.1996326
  33.5087132   3.1787288  60.0548458  32.6277757   2.1835274  59.3306160
  26.9296432  59.9632359  55.0998831  26.5485168  59.9793386  55.9777880
  27.2468209  60.8554745  54.9600697  90.6627655  52.0787048   6.6096359
  90.0383091  52.3068428   7.2982824  90.2981663  51.2904263   6.2072504
  25.8330345  55.5567408  11.9817424  26.2512541  55.5114985  12.8415549
  25.9776211  56.4575577  11.6921747  68.1746435  28.0192208  18.9472044
  68.3302355  28.7806726  18.3884418  67.5329828  28.3210635  19.5901608
  19.8311496  53.2429790   9.4653612  19.1110063  53.6862326   9.0168613
  20.5730367  53.3246899   8.8660622  10.7820427  47.4792910  10.9941685
  10.0142384  47.0430803  10.6248057  10.4828119  47.8166199  11.8385041
  30.4121757  44.2914629   7.2167003  30.3793478  44.8039579   8.0244768
  31.0605979  44.7404957   6.6743445  24.1662693  63.8331652  55.9931993
  24.4401526  63.5660839  55.1157665  24.5577693  63.1816530  56.5749979
  75.3244257  11.3991523  70.0964689  75.2403545  11.7450213  70.9850264
  74.4413233  11.1092436  69.8677444  67.0983458  45.6277275  16.4023495
  66.1629725  45.5724144  16.5979207  67.5290394  45.3619337  17.2148085
  57.5675631  49.7757483  68.7072659  56.6443539  49.6103716  68.8985014
  58.0335093  49.0592194  69.1382027  27.0381546  61.0548735  51.5328169
  26.9339442  61.2827444  50.6089926  27.0514274  60.0978231  51.5434170
  72.1418285  60.1981115   5.5729538  71.9988394  59.2590094   5.6907237
  72.2873974  60.3021526   4.6326253  20.2182961  48.9330387  15.4811704
  20.8538270  48.2808399  15.1862681  20.5566430  49.7645044  15.1488841
  15.4312623  18.0972326   1.7636587  15.8787310  17.6034200   1.0765247
  14.9070907  17.4432147   2.2259745  57.7570677  22.1012831  10.1931179
  57.7195454  23.0169320  10.4695427  56.8609762  21.7820406  10.2995813
  59.1891766  14.1911733  70.9988022  59.6824312  14.3978608  70.2049446
  58.4295177  14.7726691  70.9669876  56.6655588  46.2437487   5.6393105
  56.1936331  47.0537329   5.8328110  56.0622072  45.7395887   5.0933945
  87.8189373  77.0996666  26.2384367  87.8172302  78.0504608  26.3489699
  87.5730801  76.9644880  25.3232789  14.7987342  65.1253939  40.6448555
  14.6770251  65.3642654  41.5637445  13.9551187  65.3151083  40.2343035
  48.3854246  14.1190326  61.7687178  47.7292347  13.4649944  62.0093060
  48.3960819  14.1068149  60.8116579  87.3138332  62.8732061  64.7805309
  87.0190716  62.7263689  65.6793022  86.5058804  62.9512644  64.2732239
  27.3304057  38.6381769  28.0768585  26.9340134  37.8250670  28.3898401
  26.6024828  39.1274071  27.6934338  24.8081303  72.4160576  29.7808647
  24.3026829  72.5406790  30.5841231  25.0891566  71.5016460  29.8141503
   9.8298371  62.5072908  20.2171326  10.2334309  62.1482992  21.0073638
   9.2076004  61.8350410  19.9394083  14.4723344  75.0859451  64.3943501
  14.5756936  74.5662975  65.1915407  15.2758837  74.9271297  63.8990545
  21.0282779  71.1189461  48.1688404  21.8369055  71.1342525  48.6808157
  20.5216908  70.3979588  48.5427141  13.2416105  68.2716990  71.2465382
  13.6643696  69.0179968  70.8216333  13.6017823  67.5058556  70.7993317
   7.7142847  70.1396465  49.7273350   8.3368522  70.7084322  50.1802397
   8.0856156  69.2616177  49.8133850  37.9887581  82.9608440  72.4121666
  37.4661112  83.7428761  72.2346687  38.6341739  83.2458591  73.0590343
  12.8239977  54.1049385  60.5032349  13.5243535  54.6071625  60.0866938
  12.0177412  54.5287228  60.2089787  37.5591969   4.8765898  64.0447378
  37.5990701   4.1982195  64.7188711  37.8689671   4.4427171  63.2497311
  11.4630294  19.0737343   2.0853601  10.7733417  18.9718854   2.7412486
  12.1886504  19.4774389   2.5615203  60.7120132   2.4321973  69.4166136
  61.5328217   2.8379560  69.6956682  60.2405357   2.2603562  70.2317286
  45.8475351  74.1203070  36.0922623  45.1890850  74.7859669  35.8933330
  45.8702517  74.0841341  37.0485091  22.5502205  70.4324865  30.0364137
  22.8691435  70.7139730  30.8939028  22.4588919  69.4828749  30.1147461
  81.0414696  42.8136539  31.8154597  80.3090382  43.1486845  32.3326993
  80.7733154  41.9295168  31.5651941  28.5265112  56.0910368  54.6744013
  28.4342456  55.9723377  53.7290812  29.4596386  55.9595156  54.8423624
   3.4813470  69.0433121  36.7060590   3.1085852  69.7288942  36.1517549
   2.8542227  68.9474487  37.4228263  38.4469891  47.8536940  36.7014527
  38.4642482  47.3548412  37.5182033  37.8346133  47.3760176  36.1419415
  28.2183480  69.7963285  58.8439703  28.5043621  68.9247227  59.1173363
  29.0306354  70.2686310  58.6613369  85.1582527  20.1623654   0.8466830
  85.6614780  20.9588742   0.6776800  84.3430424  20.4731369   1.2405002
  55.3351068  54.1961145  67.8882599  56.2516451  54.4571495  67.9779911
  54.8654366  55.0172377  67.7419662  29.1341138  35.2828479  14.1089833
  29.0437007  35.1553249  15.0533319  28.6868095  36.1110735  13.9352274
  20.1314473  79.9250650  42.1255302  19.5828068  79.2111588  41.8006229
  20.3635025  80.4242516  41.3424635  47.7681065  82.3001575  46.8317890
  48.0775213  82.1872997  45.9330320  47.1109724  81.6137314  46.9468355
  27.3824930  57.1377182  56.9478750  27.9329324  56.6089058  56.3702917
  26.6218543  56.5846872  57.1262503  55.6959963  65.9702301  70.6888008
  55.0400829  66.3119125  71.2964678  56.5081644  66.4094448  70.9412050
  14.1189158  13.4807742   8.5833156  13.4453154  14.1500282   8.4625107
  14.8856187  13.9651656   8.8895214   0.6217986   0.9050745  42.8425550
   0.9425649   0.5575956  43.6747789  -0.3316274   0.8707304  42.9202175
  55.4345560  52.7223492  58.6147881  55.5509329  52.8045893  59.5613194
  55.6486893  51.8087864  58.4256268  48.8709307  74.9473524  65.3643560
  48.8257599  74.0213346  65.1262808  49.3191576  74.9556351  66.2100840
   5.9224510  66.7179728  59.2381907   5.0004655  66.9751692  59.2431688
   5.9285682  65.8565950  58.8207912  24.7132492  68.5019779  63.5679960
  24.5138121  68.0936575  64.4104528  25.0616884  69.3638372  63.7960768
  44.9083567   3.0615675  62.0872402  44.0197277   2.8004083  61.8456459
  44.8937273   3.1047195  63.0433559  29.8664355  59.5042801  68.5053110
  30.2272582  58.6563158  68.7641430  29.3822241  59.8035097  69.2748737
  57.1644258  30.5170274  22.5486994  57.1750784  31.3295841  22.0428681
  56.5236568  30.6748986  23.2420444  26.7612028  60.3080130  60.9627104
  27.3287868  59.6617842  60.5426264  27.3094320  61.0878420  61.0495520
  78.1180763  12.1381867  50.0117254  78.6390305  11.7916775  49.2873144
  77.5162554  11.4281356  50.2350521   9.7705215  59.3248749  46.4908600
   9.1188455  59.5408583  47.1578693  10.5652905  59.7744036  46.7780781
  27.0400310  70.9865808  61.2315798  27.4978900  70.5357122  60.5221319
  26.1364412  71.0606098  60.9245348  17.5640202  38.2557154  15.6245387
  16.9007611  37.9193163  15.0219154  17.6560986  37.5702524  16.2862754
  49.6719456  46.0750723   7.7015042  49.9960232  45.6855059   6.8894434
  48.7339926  45.8840799   7.7011251  64.3324232  11.0373795  51.6917706
  63.6191034  10.4180086  51.5375566  63.9379454  11.7298269  52.2219944
  74.6945381   9.5560700  67.5086594  74.3641233  10.2500618  66.9381905
  75.3135872   9.9980879  68.0897188  20.4172516  46.9866610  41.3277483
  19.6880841  46.3673925  41.3601732  20.4520369  47.2680426  40.4135036
  63.2478905   0.9421239  66.1697674  62.5322962   1.5778527  66.1697388
  63.9727974   1.3974929  66.5980005  61.1489487  12.2699511  58.8058090
  61.6583061  11.5147495  58.5117722  61.1229897  12.1849418  59.7588730
  16.6731548  44.8711061  69.9758387  15.7174563  44.9246788  69.9748182
  16.8604136  43.9326096  69.9957848  20.0605655  78.8335514  65.5475569
  19.5882225  79.4450426  64.9825764  20.7745481  79.3524170  65.9180117
  75.2374744   5.1281989  36.0721159  76.1008167   4.8098320  35.8084512
  75.3603792   5.4386687  36.9691849  66.0452318  41.6485882  18.3561468
  66.8666649  41.3024807  18.0073094  65.5976534  42.0166206  17.5942683
  65.3462362   4.6518999  69.6689558  66.1811161   4.9726385  70.0100374
  65.4809046   4.5923656  68.7231493   4.3733057   8.5037500  14.0098035
   4.9159756   7.7177644  13.9468098   3.7792370   8.3268136  14.7391927
  56.7841196  53.0248833  71.7085552  57.3534012  52.3151541  72.0059490
  56.9368744  53.7327337  72.3345280  75.0082541   7.8831226  52.8895903
  74.2461634   8.4342200  53.0677652  75.5463028   7.9563063  53.6778641
   3.2758945   3.6014920   3.2669151   2.7627099   4.3902051   3.4424275
   2.8166232   3.1726721   2.5448242  51.7094707  10.6700492  52.0201063
  51.5002346  11.5375483  51.6738415  52.1118307  10.8425844  52.8713226
  23.1913328  55.4875612  61.8075323  22.5493670  55.9324932  62.3608398
  23.6012793  56.1905336  61.3035393  69.7822237  11.8547845  71.4488602
  69.0306616  12.4325490  71.5814257  70.5247641  12.3419392  71.8059921
  49.1822147  39.9522567  29.6244383  49.8528481  39.4262171  29.1888189
  49.6678877  40.6685066  30.0335073   2.6177862  64.1223764  20.1905394
   1.6902140  63.9548016  20.0239253   2.7828467  63.7261534  21.0461068
  47.7937222  52.1302128  57.1068859  47.8005981  51.1950541  57.3110151
  48.7113810  52.3458290  56.9406414  31.0725880  66.6301584  73.0737162
  31.8942332  66.1711788  72.8991652  30.8485508  66.3869810  73.9719915
  86.8421745  44.1166973   6.4684814  85.9521770  44.4259882   6.2996942
  86.7282677  43.3652782   7.0503992  68.9008379  57.6417255  70.7039738
  69.2087221  57.0149565  70.0493002  69.0374851  58.4980297  70.2986288
  26.2952113  79.1153765  65.6456804  26.5727592  78.8340187  66.5174818
  27.0897245  79.0667248  65.1140642  29.0240049  72.3439169  50.0702429
  28.3902121  72.3288155  50.7873964  29.8639584  72.1557093  50.4889154
  35.3431702  66.8403292  15.7122087  34.6257305  66.5874290  15.1312137
  35.2523518  66.2629843  16.4702678  29.8118687  61.8442917  60.5613327
  29.2791748  62.2663546  61.2353754  30.7140851  62.0531178  60.8034658
  58.5676527  73.9719200  65.5660009  58.1919003  73.0915594  65.5678844
  58.3424711  74.3266106  64.7059298  10.3314209  61.1766386  63.7519932
  10.3474641  61.9340467  64.3370628   9.7786915  61.4509201  63.0202198
  25.4465318  62.0766068  57.9181528  26.0090828  61.3022232  57.9280472
  25.5491519  62.4583530  58.7899160  42.5227547  54.7760487  55.9723854
  42.6648998  54.8829412  55.0318575  41.8145943  55.3861952  56.1784601
   6.2275499  72.6678085  50.6631517   5.3789818  72.8899860  50.2800083
   6.4880431  71.8618679  50.2172422  78.5595560  82.7973366  64.8971605
  78.2051849  82.2239399  65.5767727  78.7823725  82.2066593  64.1776514
  76.0003901  46.8631601  63.6541414  76.6928196  46.5403032  64.2308044
  75.1883030  46.5709019  64.0680647  81.7452717   1.5845229   6.5885448
  82.6883030   1.7412083   6.5397239  81.6481590   0.6495446   6.4079446
  64.5902872  59.9664497  54.7879457  64.3219280  59.3032312  55.4238367
  65.4463053  60.2625275  55.0974751  52.9029036   1.1842129  71.2668371
  52.0238018   1.5596960  71.3160992  53.4516335   1.9003201  70.9469700
  41.2101126  67.7882099  59.7122860  40.7640314  68.6070633  59.4961309
  42.0660973  67.8632021  59.2905140  10.8018339  71.6224718  46.4218235
  10.6953406  71.4295959  45.4903269   9.9186939  71.5502262  46.7838669
  80.5047989   7.1281338  58.2422018  81.0676003   7.0963985  57.4685860
  80.1897907   8.0315143  58.2723284  17.0476401  23.7427115  51.2706709
  16.3833094  24.1627407  51.8169975  17.6533163  24.4486594  51.0447836
  66.1027145   7.8715134   8.4380454  65.2055788   7.5427967   8.3803922
  66.2197208   8.3893096   7.6415360  56.6348839  78.1946135  62.8569841
  56.0289431  77.4541235  62.8298235  57.0451403  78.1368637  63.7198782
  84.0683842  33.3920741  13.1419325  84.2834377  32.9954123  13.9861131
  84.7107887  33.0253839  12.5344038   1.2884319  42.7638531  10.3265107
   0.4166210  42.7286291   9.9328899   1.3485453  41.9630814  10.8474588
  79.8261595  24.2761755   5.0800884  80.0018120  24.8710060   5.8091676
  78.8852787  24.1074014   5.1300097  65.7816172   4.7948796  66.9635010
  66.0345840   4.5157382  66.0835457  66.0068083   5.7247186  66.9938087
  36.4218664  55.3791857   7.3274332  36.1815596  55.8471870   8.1270963
  35.6621861  55.4794168   6.7537856  26.7340589  72.0753908  42.7789450
  26.1336279  72.8204346  42.8038883  26.7032051  71.7131662  43.6644268
  66.6217327  17.9889333  31.4161754  66.1063766  17.5712693  30.7261086
  66.2166691  17.6915979  32.2308803  61.7652559  14.2522109  50.2983046
  62.5352144  14.2888558  50.8658028  61.7882919  13.3733225  49.9198151
  43.4609509  85.3457355  64.2250109  42.9176664  86.0374641  64.6026039
  43.0523825  84.5321083  64.5205116  38.6107135  68.2650375  49.7108221
  39.0756464  67.9618835  48.9309692  38.9461255  67.7148390  50.4186440
  70.3418350  10.3614068  46.6345882  70.2377844   9.4907022  47.0183563
  69.4883060  10.5561113  46.2475348  32.1571636  50.6588793   9.2260450
  32.5711727  49.7958469   9.2248893  31.2431002  50.4857349   9.4512993
  76.7897892   5.3672111  15.0459862  76.4918518   4.4593161  15.1024842
  76.9151592   5.5203086  14.1094637  86.0669899  24.0907574  29.5254588
  86.8090248  24.5570230  29.1404843  86.3696766  23.8373184  30.3974557
  62.8714132   1.4687918  52.8662395  63.4397364   0.7431969  53.1246042
  62.3885345   1.1370087  52.1092844  81.5290451  35.4455233  48.5694790
  81.3895130  35.3491545  47.6274157  80.6601048  35.6378341  48.9218712
  65.9669876  76.8789864  45.6009340  66.8431187  76.8054342  45.9793758
  65.3863716  76.9682980  46.3566732  52.8677797  78.3087206  48.8402414
  52.6996469  78.9348459  48.1360149  53.0159426  77.4767399  48.3906984
  36.5883327  66.5279245  39.2901015  36.4680433  66.0794067  40.1271152
  35.7039857  66.6101551  38.9331698  57.6435423  75.8732367  46.1428785
  57.4048996  75.2439213  45.4622555  58.5971689  75.9351158  46.0881376
  24.2472434  15.4175174   7.3618293  24.1435409  14.6381533   7.9077870
  24.8715997  15.9634042   7.8397608  79.7203875  32.6396418  33.7430406
  79.8577976  31.6935015  33.6964512  78.9585400  32.7987480  33.1858134
  76.9905043   0.5068800  23.9305472  76.5005589  -0.2892542  24.1363549
  76.6948175   1.1447344  24.5801187  89.2730141   7.9479146  15.3603530
  89.3524170   8.4710336  14.5626855  88.3377457   7.9615170  15.5635881
  19.7617459  50.7492876  70.6362820  20.2959609  50.1154900  70.1575899
  19.1261613  50.2153254  71.1128855  84.9853420   5.7195890  66.9869661
  84.8395061   6.6652918  67.0116329  85.8581352   5.6019801  67.3619890
  62.3193121  80.5324268  38.6396408  61.5586805  79.9635887  38.5209250
  61.9497538  81.4107895  38.7298393  28.6239290  85.7724667  27.2050428
  27.9919887  85.0928307  26.9705772  28.2793641  86.5692902  26.8018222
  78.2440472  35.1809502  49.0293837  77.4007463  35.0763083  49.4699907
  78.7230396  35.8054709  49.5741510  21.2904572  41.4607430  25.5425978
  20.9647894  41.7466688  24.6891236  21.6778827  40.6015396  25.3755403
   9.4998860  38.6164808  11.1406267   8.6127561  38.2842636  11.2779725
   9.4715250  39.5165086  11.4652407  44.8795462  70.9480906  74.2194796
  45.2991724  71.0796165  75.0696850  44.2750216  70.2195454  74.3608999
  38.8255620  71.3649940  37.5332642  38.3492613  70.6044054  37.8662395
  38.3896112  72.1158457  37.9362512  40.3020287  33.9305592  10.8392406
  40.4854918  33.1613946  11.3786483  39.4117808  34.1858935  11.0810959
  51.8045330  80.9153271  36.2633467  51.9477272  81.1301136  37.1850801
  52.6410437  81.1079025  35.8397913   6.8892425  21.5065908   5.5570644
   7.1280444  22.3065925   6.0252517   7.2606218  21.6210938   4.6823081
  37.2637701  84.2823124  49.0821505  37.0397496  84.2501640  50.0122118
  37.2397590  85.2135468  48.8620472  41.1289549  66.0644627  15.5799055
  41.7733622  66.7075634  15.2842879  41.2046146  66.0707664  16.5340889
  50.5410385  22.8100514  16.7644072  51.2003279  22.3386073  16.2551832
  49.7626257  22.8094721  16.2073553  23.3842468  62.3793745   4.4109851
  23.2172847  63.3054495   4.2356360  22.5322056  61.9573355   4.3008173
  85.4771996  48.2800388  44.7714567  85.4449368  47.3531485  44.5346832
  84.5590496  48.5422850  44.8382330  59.0114498  81.3666534  52.1029520
  59.1762447  82.1485710  52.6299143  58.4206820  80.8370686  52.6384544
  14.9628472  57.3561573  40.6045771  15.5370033  58.0730343  40.3350115
  15.5030656  56.8229818  41.1877728  61.0465336  30.0078011  53.8991308
  61.0959387  29.0565205  53.9932442  60.1120234  30.2061772  53.9588642
  90.5105686  19.8616219  11.6472113  91.4158726  19.8089767  11.3408220
  89.9834728  19.6780229  10.8695889  34.3712234  18.4540701  58.6430693
  34.9851489  18.9502859  58.1016827  33.8408709  17.9632974  58.0152941
  45.3926277  52.0565319  55.6903839  45.4346609  51.1892605  55.2875137
  45.9505558  51.9880247  56.4651442  41.6064167  62.5621176  62.8842688
  41.0209084  62.4306202  62.1385384  42.3817492  62.9798365  62.5092936
  23.1143284  75.1128674  19.8934519  22.9659724  74.1672516  19.8988116
  22.2481394  75.4920530  20.0423360  24.3404245  78.9456797  34.8461485
  23.7901807  79.6083927  35.2636147  24.1221309  79.0044069  33.9160252
  13.8167012  66.3260126  56.0666275  14.1735554  65.9568596  55.2587843
  13.2773745  67.0615053  55.7760906  34.0451837  72.4473333  60.1396704
  33.8765168  72.9601383  60.9301186  34.6715593  71.7787790  60.4170132
  77.3110533  24.6344757  43.9401960  76.6194916  23.9734173  43.9088917
  77.5471544  24.6904421  44.8661327  50.3221273  24.6077967  60.3366375
  50.6185246  25.4087973  60.7688189  49.6099472  24.8937654  59.7645760
  20.7494020  62.7251768  15.4592299  21.5054297  63.0821514  15.9253049
  20.4598951  63.4386063  14.8905158  53.6533022  44.1843557  59.3562889
  54.4731855  43.7247038  59.5372438  53.9023161  45.1071835  59.3052006
  72.9984665  36.6388035  29.1698766  72.6526499  36.3392997  28.3290792
  72.2421885  37.0161605  29.6191812  31.2011933  13.5292625  45.9103632
  31.4072013  14.4532788  45.7689857  32.0535874  13.0942559  45.9309244
  10.4815006  60.1109552  53.1896734   9.9330485  60.8191729  53.5271025
  11.3623035  60.4843521  53.1581736  73.5892630  30.4517579   1.4459495
  74.2758942  30.2017832   0.8276626  73.5969687  31.4088964   1.4383341
  21.9231987  53.2266045   7.5575739  22.6366115  53.8382721   7.3755318
  22.3449492  52.4930906   8.0051398  65.9029055   8.0707258  32.5046039
  66.4830732   7.7629012  31.8082714  66.2892437   7.7242219  33.3089113
  18.3737755  17.5059855   3.8170519  18.9794266  17.0458353   4.3981555
  18.1420565  18.3024573   4.2947239  10.6428361  54.2372847  25.5588579
   9.9310267  53.6128426  25.4187417  10.8373618  54.5785522  24.6859717
  60.7894945  66.5165758  39.9909353  60.6402016  65.7298231  39.4665623
  60.3910637  66.3186884  40.8384752  48.5849476  67.4536276   5.4843432
  48.6179543  68.2428598   4.9437350  48.6576271  67.7755594   6.3828468
   4.6204257  12.3279369  49.9053526   4.4618374  13.0709434  49.3230963
   4.2935112  11.5699112  49.4208384  30.1427245  77.3424816  48.7633371
  29.8900676  76.4244652  48.8615227  31.0958838  77.3392773  48.8511515
  39.1476011  48.3756018  52.8674650  39.0841794  47.5676632  52.3581028
  38.2788444  48.4835148  53.2545662  81.8472576  36.8942237  15.8923566
  81.0826683  37.4147964  15.6461155  82.0172405  36.3423729  15.1289439
  23.7694645  84.4974899  44.9239016  23.2192063  85.2122593  45.2441454
  23.3436441  83.7037849  45.2478456  33.3395815  60.4808283  40.9923458
  32.5229621  60.7066202  41.4377451  33.8763213  60.0698709  41.6700315
  11.8740177  60.9735441  47.1257782  11.7549992  61.6093731  47.8313208
  12.2819698  61.4737034  46.4189196  59.1601658  12.2469103  35.9976363
  58.2414341  12.0143270  35.8632016  59.1346979  12.9730332  36.6207957
  58.3728552   8.3090186  40.4881430  58.2384586   8.7097812  39.6293283
  58.9779234   8.9000785  40.9362173  52.5599003   1.7708302  54.0555573
  52.0318604   2.3156203  53.4719372  53.0020761   1.1538704  53.4723997
  86.2735081  83.5723877  54.6510172  86.5143108  83.5496235  53.7248802
  86.7715836  82.8565598  55.0456619  68.2474041  62.5738382  19.0461898
  67.8114033  61.8893719  18.5386086  69.1129637  62.6545429  18.6455333
  33.4328461  69.7604465  47.6103640  34.2511988  69.3708038  47.9181147
  32.7863812  69.0599346  47.6975346  73.9405298   9.2753279  40.0312853
  73.3612967   9.5494097  40.7423449  74.1526175   8.3639598  40.2329254
  84.3077374  21.2121654  21.2973475  84.9922180  21.8783927  21.3595152
  84.7540951  20.3904128  21.5016198  49.1730642  84.9352837  66.2107420
  48.2865334  85.0673580  66.5466785  49.3738079  84.0223789  66.4169598
  30.1472783   9.3018574  49.2419815  30.8533525   8.9140332  48.7249851
  30.4731965   9.2867708  50.1418591  69.1908455  10.5780602  39.5843840
  69.3438911  10.3165138  40.4923534  68.6197090   9.8957258  39.2316031
   9.2317408  68.9928436  65.9290457   8.3824867  68.8513756  65.5107355
   9.8673326  68.8938904  65.2201986  15.0910139  28.5629773  45.4099274
  15.8431947  28.0301166  45.6678391  14.5922709  28.0018067  44.8161507
   1.7035052  14.2612910  51.8144083   1.4389646  14.8521459  51.1093283
   2.2602837  14.7969115  52.3795128  83.5588932  28.4701157  54.7407436
  83.7155056  27.5877023  55.0769758  82.9432011  28.3454609  54.0185165
  20.4043031  56.1425209  62.8975773  19.8468673  56.9125319  62.7854395
  20.4688716  56.0296345  63.8459015  70.7279825  14.0655243  17.8543973
  70.9427452  14.8081911  18.4188044  69.7964859  13.9086294  18.0090892
  50.8954334  30.1069069  72.4829721  50.3726339  30.5732393  73.1352377
  51.4300346  29.4994545  72.9942751  80.2516651  17.5708103  63.6958885
  80.7129765  18.2959616  63.2744884  79.4661331  17.4450445  63.1635761
  90.6911182  25.6280160  38.8570380  90.6586266  26.2721801  39.5643067
  89.9220943  25.8218122  38.3210564   0.6283938  30.8648109  59.5894051
   0.9522273  30.0411272  59.9539709   0.6453311  30.7304096  58.6418390
  34.3784189  68.4210443  57.5308418  34.0200162  69.0255404  56.8809462
  33.6855698  68.3349943  58.1856585  68.0875731  22.1056676  68.7422085
  68.7812567  21.4470243  68.7071943  68.0499697  22.4613428  67.8543425
  89.3182373  39.4703007  57.2667074  88.8511944  39.1904616  56.4794397
  89.7459412  38.6759400  57.5865412  36.5170121  84.6196842  34.5114231
  37.0918274  84.8953819  35.2254319  36.5618873  83.6636066  34.5233679
   2.7854708  82.7934456  31.6952968   2.5447601  82.1440697  32.3560572
   2.2645646  82.5582790  30.9274530  71.3881302  41.4521837  11.6890419
  71.3495493  40.4987192  11.7641783  70.4984760  41.7095757  11.4471817
  83.3921623   9.3331259  39.1621733  83.0753231   9.7953224  38.3861423
  84.2669773   9.0296239  38.9196730  80.2809143  43.0215359   9.9238390
  80.7126045  42.7160072  10.7216668  79.9387980  42.2256088   9.5167947
  19.5383358   5.1665926  18.4454322  19.9417663   5.5883229  19.2041278
  18.6940837   4.8509216  18.7676489  59.4536209  30.7789731  61.0798073
  59.7233915  31.0554194  60.2040005  59.9421072  31.3503313  61.6723967
   9.0310490  58.6995411   0.3070676   9.2250568  58.6899567   1.2443513
   9.5585173  57.9870558  -0.0540015  35.4994607  77.2867393  40.6742716
  35.0961733  78.1532907  40.6225204  35.4285979  77.0443249  41.5975523
  41.7297411  72.3034334  47.7033472  41.8690681  71.4707041  48.1543255
  41.8621349  72.0995140  46.7775440  37.4198222  78.4859991  72.5284386
  37.5811195  78.8972950  73.3775854  37.6606774  77.5685692  72.6570702
  84.8449421  83.3815956  66.4920282  83.9973545  83.1444454  66.1157322
  84.9121475  84.3264675  66.3544178  23.1679416  83.1408215  39.6068335
  23.2275534  83.4982300  40.4928017  22.3915815  83.5570812  39.2323756
  56.6557932  83.0109501  56.1220884  55.7695961  83.0820084  55.7673502
  56.7722178  83.8091469  56.6374159  19.5567310  23.6215711  43.0456686
  20.3247929  23.7715030  43.5968781  19.3218005  22.7075553  43.2057190
  29.5456004  23.1211543   5.0697345  29.0343118  23.4850526   5.7925028
  30.3966331  23.5541773   5.1365411  23.7185073  81.7199707  45.8106661
  23.2483530  81.7326736  44.9769831  24.2996454  80.9620857  45.7463789
  64.5295763   4.0583262  50.3239822  65.1508713   3.5219413  49.8315239
  64.3768263   4.8210043  49.7661066  73.9685011  81.3556480   1.1057291
  74.2121983  80.4375648   1.2239400  73.5164261  81.3767624   0.2622754
  77.5647783  14.8204923  71.0333109  76.6688967  15.0989819  70.8433914
  77.4916029  13.8826811  71.2104750   1.8453176   7.9028618  35.1331329
   2.0173782   7.9906052  34.1956210   1.3837737   7.0682782  35.2148581
  31.9463563  77.5706720  23.3803988  32.2466230  76.6632986  23.3280659
  31.5329885  77.7354240  22.5329232  85.0714970   3.3896080  52.5520325
  85.9561062   3.7541494  52.5238562  84.5797443   3.9967534  53.1050158
  28.5369587  70.8985853  55.6743670  28.4894276  71.8541956  55.7024384
  27.7127910  70.6062460  56.0636091  42.5357151   4.6604866  31.8538094
  42.2282982   5.3417856  31.2558484  43.0099583   5.1363748  32.5356150
  53.2332516   9.2785746  65.6049061  52.3430204   9.4072026  65.2775240
  53.1566763   8.5579759  66.2302923  68.0516195  65.7887220  55.6951284
  68.1730843  66.5502024  56.2622452  68.8815308  65.3148699  55.7493734
  38.3656263  67.8772831  17.1782565  39.1273665  67.4439192  17.5631928
  38.7158966  68.3530140  16.4251137   1.8295780  36.2261391   7.1084553
   1.8242237  35.2699447   7.0648903   2.6531598  36.4413452   7.5462115
  53.4891939  75.9394741  61.0912943  53.5925150  75.3184414  60.3702736
  53.4382725  75.3911638  61.8742371   2.9164252  30.8115220   0.7893133
   2.4342851  29.9986625   0.9410723   3.7245482  30.7080412   1.2917678
   4.0121382  80.2367115   6.6559333   4.5163471  80.9289551   6.2283689
   3.6894962  79.6954775   5.9353805  33.6385632  74.1339874  62.3171663
  32.8715467  74.6657181  62.5297213  34.2726588  74.3433619  63.0029631
  37.0809960  44.1946173  20.6490731  36.1837363  44.5101261  20.5413079
  37.0803928  43.7570429  21.5004039  33.2965589  65.9006262  67.9201174
  32.4142766  65.6078672  67.6918602  33.7696266  65.9068251  67.0880127
  87.8188801  21.1333442  15.0731659  88.6429596  21.1932611  15.5564225
  87.5079250  22.0368814  15.0169921  75.1102495  37.7467847  43.9554358
  74.5398855  38.3862233  44.3820858  74.7044945  37.5959516  43.1017113
  47.0262432  83.1593323  63.4495926  47.6019907  83.5118008  62.7709818
  46.7774010  83.9216518  63.9722538   6.9624746  26.6028500  73.4647703
   7.3300052  27.0393658  72.6962566   6.0406995  26.4672852  73.2452583
  44.4811153  83.8533115  47.7305412  44.7706699  84.4623947  47.0512772
  44.8561859  84.2009640  48.5396767  10.0973642  76.9093418  55.9042835
  10.0065601  75.9586000  55.8404493  10.7859659  77.1268988  55.2760077
  81.5407276  12.0987022  24.4846749  80.6927586  11.7633665  24.1935968
  82.0079899  12.3037505  23.6748314  37.5417757  73.2978344  51.5208626
  37.4657154  73.2705450  52.4746466  38.4819627  73.3728600  51.3576174
  32.9161525  57.8094864  62.0643044  32.8302765  56.8707180  61.8982553
  32.2122025  58.2085371  61.5529919  66.1007118  67.6122904  60.8446121
  66.6310883  66.8545961  60.5979681  65.8969879  67.4712944  61.7691898
  51.1903000  73.7908888  62.2186136  50.6067896  73.0322456  62.2043037
  52.0369911  73.4367275  62.4904919  48.2722902  83.5528755  31.5082359
  47.4839258  83.0561638  31.7273188  47.9555416  84.4382381  31.3292670
  81.5209198  71.2330341  37.4914765  81.0497570  71.9773388  37.8659701
  81.3121223  70.5009127  38.0716753  49.4332743  73.3089161  49.4398642
  48.7532425  73.3915663  50.1084089  48.9737701  72.9705286  48.6713696
  68.5344458  13.5387039   6.2168407  68.2295465  13.4053147   5.3193581
  68.2018709  14.4036210   6.4567250  28.1166482  71.5927839  73.7411165
  28.2664156  72.5089502  73.9744329  27.5128627  71.2707901  74.4104433
  25.7814598  68.0965710  57.6309538  26.3792515  68.7693691  57.9568624
  25.5066895  67.6203823  58.4145212  73.6472082  18.8815677  56.6848946
  73.2946920  19.1719115  57.5261211  73.0827856  19.2965388  56.0326195
  88.6286068  23.5046673   0.0270031  88.5672188  22.6062918   0.3516351
  89.5096970  23.7879300   0.2713003  88.6513138  12.8560281  31.1838078
  88.4449100  12.6724553  30.2673316  89.5269299  13.2419431  31.1594605
  16.6319275  21.7385888  49.3035412  16.4066768  22.6293325  49.5720005
  17.2163367  21.4214659  49.9921131  76.0963917  30.9570026  11.4425540
  75.1871014  31.0646343  11.1635602  76.2397528  31.6652584  12.0702910
  43.5113668  33.4836721  13.1854260  43.1885433  33.2439351  12.3167825
  43.6006594  34.4361567  13.1532943   7.0063823  25.5962324  26.0521555
   6.3542116  25.4836631  25.3606105   6.7173004  25.0102854  26.7516756
  53.4075260  64.9410582  58.5949373  53.2037210  64.8931265  59.5289564
  53.1394100  64.0904617  58.2473278  60.5289268  12.3829222  72.4513960
  60.8590937  12.8339493  73.2284403  60.0964165  13.0684304  71.9422340
  45.2020359  79.6225882  51.9014788  44.3349171  79.7632980  51.5212965
  45.1015854  79.8629141  52.8225613  30.8048701  59.0294504   8.8923275
  31.6978192  59.3741560   8.8849550  30.7711601  58.4682512   9.6670198
  43.3211422  47.1220350  69.4925308  42.9207993  46.2900066  69.2401791
  43.9027166  47.3387671  68.7638140  66.7736721  26.2083387  50.7074881
  66.7317963  25.6274652  51.4671373  66.2277460  26.9569039  50.9479952
  43.2623529  15.6610429  70.1911688  43.8565636  15.7139182  70.9397316
  42.6632023  14.9476278  70.4109001  15.4971731  77.4536562  58.7541389
  15.2194262  77.7437353  59.6230173  16.1319959  78.1126690  58.4731960
  63.3392715  69.0043402  31.4524198  62.6718521  68.9668274  32.1375299
  63.3214474  69.9123859  31.1501479  12.3252332  62.2300625  10.1560295
  11.5905321  62.0216608   9.5789552  12.1034539  63.0840063  10.5272794
  46.4915466  64.8596478  64.4675064  45.9776545  64.0784740  64.2627668
  46.0043240  65.5789566  64.0657091  40.7807446  55.1056719  61.9383240
  41.5697765  54.7151566  62.3140383  40.2196121  54.3586683  61.7301273
  10.6801736  10.3558362  51.7817259  10.4293191  11.2783313  51.8297386
  10.8365798  10.1983047  50.8506250  22.7695012  39.1139483  19.9282157
  22.7100039  38.3672285  20.5241203  21.8640471  39.2879152  19.6710801
  69.6356869  26.2966466  52.2102976  68.9817905  26.2555408  51.5124702
  70.1931095  25.5328584  52.0614910  42.3372126   5.3837806   8.5005695
  41.7870045   5.9873152   8.0013222  43.1160069   5.2642846   7.9570341
  69.1887712  80.7236862  61.6697693  69.5196533  81.5767956  61.9507456
  69.7482681  80.0900364  62.1188593  61.4747620   6.8500400  47.4475574
  60.8732462   6.9517690  46.7099476  61.2752390   7.5885254  48.0229330
  91.1725140   5.9196472  63.7916899  91.0996056   5.3284031  64.5409203
  90.4122734   6.4963698  63.8668251  42.1151590  85.7254314  50.1542711
  42.2248030  86.5877342  49.7534704  42.2279644  85.8810616  51.0919714
  52.8823090  32.0193124  72.0133543  52.1361303  31.4201164  72.0336008
  53.0040264  32.2811866  72.9259539  51.1601686  74.5263338  16.0937142
  50.6949139  75.3463888  16.2588656  51.9247723  74.5648527  16.6682827
  39.6585512  62.4566460  60.8834505  39.1296506  62.5666332  61.6736412
  39.3897581  63.1768799  60.3131533  44.3465519   2.7373585  45.7317781
  43.9117241   3.5551631  45.4902172  43.8867426   2.0643155  45.2299595
  72.6854897  15.6561661  69.9427223  72.7280378  15.7930839  70.8891201
  73.5974979  15.5401003  69.6762657  50.6449855  85.8813829  57.8536081
  51.4796890  85.5978962  57.4805880  50.8582653  86.6774156  58.3405113
  54.2159891  72.0425320  67.6135349  54.5185995  71.1401939  67.5113583
  53.3255339  71.9593477  67.9547167  84.5791054  45.5893993   5.4720509
  84.6592522  46.2876844   4.8222792  84.0104961  45.9562874   6.1490297
  61.8014860  33.5688472  27.0417976  61.7413378  32.7204394  27.4809122
  61.7936850  34.2082715  27.7540517  34.6383548  78.8364124  56.2240553
  34.2146683  79.2853069  55.4924679  34.1758800  79.1534948  56.9998169
  65.8339119   1.8226120  67.1979618  65.8375263   2.7660912  67.3594093
  66.6117573   1.4988965  67.6522684  30.3638577  66.3283920  54.5454693
  29.8128963  66.9511175  55.0196886  30.2015567  65.4889297  54.9758148
  13.5623610  10.7237077  14.5350945  13.8086641  10.2322483  15.3186989
  12.6052248  10.7128000  14.5365298  16.1912167  73.9065647  47.5433302
  17.1278787  74.0156078  47.3789978  15.7682097  74.4944048  46.9174337
   7.8750592  49.7628260  18.6360025   7.2082806  49.6856213  17.9535961
   7.8232223  50.6756592  18.9193368  31.2507415  66.2586260  10.7241929
  31.3264132  65.5480385  11.3610387  31.8482089  66.9335508  11.0462821
  63.6606216  13.0755293  54.1830397  63.4053373  13.9889336  54.0535975
  64.5067024  13.1240642  54.6280384  28.2179093  22.4266338  54.8144960
  27.6372337  23.1871200  54.7878599  29.0276933  22.7290893  54.4033909
  41.0478258  38.3269310  30.8765173  40.1896286  38.2257295  31.2882090
  41.4513779  39.0601015  31.3411021   5.5273497  15.0015056  34.3616772
   5.4701984  14.6093285  35.2329779   6.4101833  15.3692877  34.3220019
  31.6483593  65.1302719  24.2536044  31.2903690  64.7715425  25.0656319
  31.3878012  66.0512781  24.2632818  64.4412756  40.0499344  71.7363596
  64.1269875  39.1488934  71.6616583  64.4499636  40.2233028  72.6776886
  57.8559208  77.3857594  72.3104143  58.0223560  77.5043297  71.3752842
  58.1121349  78.2185173  72.7067709  34.5165396  80.8616734  63.1454945
  33.5645795  80.9611797  63.1353045  34.6601462  79.9614286  63.4373426
  90.7252979  26.8433380   7.8796160  91.5521717  27.3254085   7.8900224
  90.5855942  26.5877056   8.7914097  55.9617281  31.4856076  70.6590080
  55.5152178  31.5058732  69.8125744  56.8901920  31.4115405  70.4383087
   4.5347527  33.9305711  47.6348305   4.0134689  33.7458944  46.8535566
   4.9020171  33.0823946  47.8837204  11.0386980  46.3115740  67.1623993
  10.3227782  46.2156391  66.5343189  10.7225215  45.8765697  67.9542542
  12.3302102  72.8196621  50.5591631  12.9899883  72.4485159  51.1449718
  12.2054434  72.1516228  49.8850822  31.4710402  47.5238371   5.3676039
  31.6213655  46.5850163   5.2569288  32.3468566  47.8961706   5.4702705
  54.2625475  77.8319693  11.1691082  53.7605572  78.0350351  11.9584119
  55.1630592  77.7306938  11.4774215  44.3113708  56.7112064  67.4119854
  44.5579004  57.0796061  68.2603598  44.5324755  55.7824421  67.4808025
  83.8657093  32.0271754  33.1358671  84.0174484  32.6891923  33.8103604
  84.5946407  31.4144826  33.2333326  46.2122869  63.4681559  44.9106693
  46.0208845  64.3390131  44.5625305  45.8717203  63.4875727  45.8050251
   6.4695454  17.1519470  32.2846746   7.3045588  17.3920035  32.6863670
   6.5576386  17.4206936  31.3702083  61.7494965  58.1426191  48.6337233
  61.6630888  58.1819105  49.5862055  62.6595354  57.8851318  48.4861994
  13.9319146  16.7789006  64.9277925  14.1417730  16.4609754  65.8059216
  14.7780418  16.8306744  64.4832468  31.5748715  56.4761686   5.8438104
  31.3800168  55.8058167   6.4987051  30.7642245  56.9794512   5.7677031
   0.3015235  25.5510640  74.6729612   0.6418642  26.2082863  74.0659523
   1.0456758  24.9733353  74.8423624  25.8571243  50.4393291   8.5955316
  26.2498116  50.1886797   7.7593470  26.2388921  49.8333979   9.2306197
  22.2170448  41.8600988   7.2388643  21.2830281  41.6998816   7.3736912
  22.6436663  41.4253092   7.9772311  43.9988661  85.4591370  45.2583790
  43.1046247  85.1201057  45.2986860  43.9920521  86.2220669  45.8364201
  67.6149416   1.3064569  69.2949247  67.1697474   0.5395038  69.6552277
  68.5265017   1.2048838  69.5687389  70.9070778  40.8207226  42.7505875
  69.9862099  40.6853867  42.5271559  70.8888054  41.4529514  43.4690475
  10.4762995  35.6718230  50.1381159  10.1532304  35.4403830  51.0089207
  11.2803245  36.1640358  50.3039551  74.3713236   5.0277656  26.0328126
  73.4867954   4.7906989  26.3114524  74.3890333   5.9836614  26.0795236
  84.3469429  67.7488232   6.9429344  84.4928646  68.6861801   6.8152547
  83.4403324  67.6081896   6.6699749  57.1762466  84.1799545  47.7940893
  58.0452061  84.1631126  47.3930264  57.3214579  84.5501328  48.6647892
  63.7418556  13.4264159  31.9994473  63.9076471  13.3834982  31.0576916
  62.9036808  13.8825452  32.0745444  31.5177774  34.5502281  67.7491045
  30.8677888  34.6269798  67.0506382  31.8757248  33.6683273  67.6473284
   5.9048992  75.2063751  14.2026055   5.7320416  76.0502148  14.6200895
   5.2857590  74.6039104  14.6148336  21.5251470   6.9633323  11.8809783
  22.3011756   6.6838682  11.3952708  20.9526753   6.1961901  11.8797326
  80.2950287  44.9063063  69.2612839  81.1568069  44.5366049  69.0692091
  79.8606730  44.2383432  69.7917461  75.9121084  12.3281145  62.8360510
  75.8110571  11.4796984  63.2675743  76.8305206  12.5594687  62.9747009
  85.9573460  70.9351492  57.9233742  86.2477207  71.0812759  58.8236904
  86.1720848  71.7489147  57.4673986  29.0676689  35.4265261  23.3626413
  28.9990306  36.2949371  22.9659247  28.4674358  34.8822641  22.8530002
  70.0411129  30.8436656  42.2560549  69.4181919  31.2251520  41.6374493
  70.5070972  30.1796508  41.7479420  62.6933527  12.7579653  24.7948360
  62.5208855  12.4587500  23.9021111  62.9157972  13.6839414  24.6983123
  74.3700171  83.6985302  28.3842278  74.6443748  83.9246750  29.2729473
  73.4171534  83.6258125  28.4389257  75.1841640   4.1219109  69.9818611
  74.6778727   4.8152158  70.4052162  74.7792292   4.0215924  69.1203499
   6.9459945  10.7640076  61.7290497   6.3238692  10.0750411  61.9625378
   7.5804365  10.7667780  62.4457836  15.8293724  10.3340065  27.2935128
  15.8594620   9.5092952  27.7784634  16.7001045  10.4148769  26.9042635
  16.2860715  10.0427043  47.2897863  17.1987748   9.8861223  47.5320387
  15.9717405  10.6747890  47.9362392  15.6311905  43.0864143  57.8414106
  15.0931644  43.1941509  57.0570898  16.2993133  42.4495602  57.5879145
  88.6479950  27.0674920  72.1433926  89.5681190  26.8101215  72.2015095
  88.2033634  26.2916064  71.8020201   0.7174682  50.3612852  49.5399952
   0.0503416  50.0429058  50.1481104   0.2541304  50.4646444  48.7088108
  58.5233116  13.6033368  64.3596411  58.8864851  14.3138063  64.8883820
  58.2960701  14.0166771  63.5267305  58.5434866  17.2492599  66.1865234
  57.9057169  17.3294985  65.4772711  58.7452650  18.1525779  66.4305210
  22.5227308  81.9477749  29.4925928  21.9184732  82.6018333  29.8437428
  21.9555855  81.2836170  29.1008449  53.6907482  84.5905113  17.3270750
  54.1670990  85.2354240  17.8499532  53.5025597  85.0413799  16.5039527
  28.7646866  61.8213654  39.8353481  28.5930562  61.0575485  40.3861284
  27.9257798  62.0052195  39.4126558  69.1398478  42.0096588  10.0552547
  68.4718800  42.6826334   9.9242604  68.7049770  41.3401461  10.5833328
  82.6186275   1.7711234  45.0082874  83.0961037   1.5018915  45.7929897
  83.2006550   2.3964579  44.5765162  16.3418305  42.8803349  19.6153247
  16.6157115  43.4428453  18.8908911  15.8107519  43.4491444  20.1726818
  24.7316575  83.0791664  60.4142809  25.1496124  82.3447514  60.8639288
  23.8468885  83.1106186  60.7781887  76.5201855   1.3522349  53.3548260
  76.2608767   0.4854221  53.0423737  77.3241329   1.1974570  53.8507557
   8.0787069  10.4248965  38.1607103   8.2343286  11.2151527  37.6434994
   7.2699344  10.0594091  37.8021908  89.7934437  18.6666524  68.0121756
  89.0561104  18.1662130  68.3616590  90.5409622  18.0730247  68.0832338
  74.3864107  19.9587989  73.1380224  73.7834311  19.2157149  73.1162214
  74.0833282  20.4916930  73.8731432  29.1941142  68.0860281  13.8098633
  28.3597016  67.7523708  14.1394997  29.8399448  67.7932835  14.4528544
  31.5442681  10.7710731  70.5450630  32.2325993  10.5948186  69.9036837
  31.3595700   9.9183035  70.9386396   7.1867174  28.7307191  15.2433276
   6.5441358  28.7937546  14.5366836   6.6852713  28.4165907  15.9957290
  13.3473325  58.4384012  14.2934132  12.5243270  58.8682508  14.5260549
  13.5941994  58.8309193  13.4560251   4.2184624  30.1288295  30.2511024
   3.7087005  29.3824029  29.9361038   4.7902694  30.3550315  29.5175481
  40.9699821  81.6637230  26.7252064  41.5727663  82.4059010  26.7706752
  40.9672070  81.4136791  25.8012486   0.1923062   1.7480840  53.4995890
   0.6175269   2.5029629  53.0926752  -0.3680852   2.1255325  54.1776180
  70.9507942  23.2737565  36.3089228  71.7413950  23.2675576  35.7693481
  71.2641239  23.4754872  37.1906018  13.5162127  19.3356395  16.9306600
  13.9023817  19.0475845  16.1035383  13.0327117  18.5728145  17.2477639
  73.2172012  12.6706934  33.3425713  72.7443600  13.0748594  34.0701032
  73.4346008  11.7929161  33.6563778  52.3645163  31.2932682  17.9573643
  53.0497169  31.7054534  17.4312162  51.7467403  30.9440589  17.3149967
  73.4461880  34.7675061  17.3934603  72.5066948  34.9414396  17.4511886
  73.5046244  33.8920474  17.0108521  82.3126221  43.5257339   4.0229979
  81.6632175  43.5843325   4.7237635  82.4561119  44.4327736   3.7529618
  49.7760391  80.3419018  51.0427570  48.8362598  80.2470493  51.1978436
  49.8465967  81.0896778  50.4493904  41.4414358  49.4808340  57.3123312
  41.9365072  50.2195740  56.9582033  41.2967396  48.9068651  56.5601015
  48.3181095  30.4843593  48.3391953  48.1796026  31.1364269  49.0261126
  48.6599207  30.9854317  47.5987101  70.5689573  78.4508610  47.3712921
  70.8481264  79.2427921  46.9117928  70.1554537  78.7720633  48.1725883
  71.5864897  22.6731324  43.1129360  72.1020269  23.4337735  42.8448391
  72.2248459  21.9631624  43.1813002  88.4193802  10.2154708  30.3022766
  88.7441730  10.9430468  30.8327222  87.4684143  10.3244913  30.3028226
  64.3472052  81.1802673  36.1195660  63.8063049  80.7117367  36.7552876
  65.0845766  80.5929565  35.9534836   6.4710182  79.1517544  64.2095470
   7.2051537  79.6572113  63.8605690   6.1414617  78.6582804  63.4584761
  84.1166878   1.1266301  47.5067186  83.5850430   0.8076811  48.2360029
  85.0178719   1.0692072  47.8242064  49.6090221  76.6634703  16.6367698
  49.1327953  77.2873402  16.0888422  48.9243174  76.1671209  17.0851469
  66.7900753  41.1739445  65.8982754  67.4167728  40.9491253  66.5859795
  66.2749910  40.3768253  65.7737064  61.8477011  25.6990886   6.7862046
  61.4493656  26.4943600   7.1399087  61.3745928  25.5368161   5.9700775
  63.0963182  22.8690767  42.9952145  62.7371883  22.6142716  42.1453142
  62.4380398  22.5835061  43.6287355  89.3811131  70.9793377  65.3563881
  90.2864170  71.0115290  65.6656170  89.4275856  70.5007410  64.5287323
   1.1171516   7.0326644  67.1045494   1.4407615   7.8822893  67.4039555
   1.8196651   6.6899502  66.5520525  33.5779977  23.0751348  41.6745853
  33.9104629  23.9151406  41.9909525  34.2122483  22.4319315  41.9912004
  37.1493983   4.5897335  68.9390469  36.6487050   3.7845039  68.8081169
  36.5118957   5.2147067  69.2843390  15.3803730  77.9817438   3.6670998
  15.4829967  78.8746023   3.3376956  14.5938063  78.0162239   4.2114866
   3.6535689  74.2319727  41.9020462   3.2907853  74.5822859  42.7156210
   3.9292336  73.3430815  42.1259165  15.6062031  21.4711785   9.0316820
  16.1843503  20.7188940   9.1583550  14.9465156  21.1642194   8.4097320
  27.1151614  23.8297629  51.3147068  26.3447332  24.2725086  51.6705847
  27.8570437  24.2668581  51.7327833  21.5916300  25.5143380  62.3996830
  21.1275887  24.6865797  62.2743416  21.4766455  25.9811044  61.5719509
  27.4171066  80.7800865  37.8214955  26.9910765  80.6158447  36.9802117
  27.9413533  79.9953985  37.9817128  36.0753059  26.5876055  53.9383221
  35.7331610  26.2492633  54.7657871  36.4695311  27.4289918  54.1683054
  84.8795223  43.2226801  13.9329469  84.6668911  42.6614046  14.6785951
  85.4918289  43.8681841  14.2859793  37.3301625  15.6255424  74.1099882
  36.6489124  15.6124735  74.7822666  37.8873444  14.8758161  74.3190098
   2.7699363  60.1002789  51.4687872   1.9646704  59.8935652  51.9431782
   2.5110891  60.7734728  50.8394718  13.9742172  24.3499136  24.0514421
  13.3147669  23.7156892  24.3327212  14.0416205  24.2216825  23.1052685
   7.7074766   0.1677101  61.6877413   7.9903269  -0.6242592  61.2305641
   7.9094982   0.8797424  61.0807562  19.6433389   2.5730082  30.9270716
  19.8511720   3.2964867  31.5183544  18.7866557   2.7985442  30.5644989
  40.4567719  50.9421396   2.1661051  39.6026206  50.9220648   1.7345311
  41.0199499  51.4238691   1.5603045  80.0766182  25.3417754  33.4550714
  80.2376938  24.5205331  32.9904795  79.2275381  25.6392741  33.1282783
  89.0197468  16.1741149  19.3048179  88.9920998  16.3931954  20.2361989
  88.1594658  16.4307916  18.9727509  10.0312018  11.4165688  19.3997610
   9.9713534  11.5740228  18.4574986  10.9145164  11.0712934  19.5292687
  17.2235954  20.9053683  15.7021260  17.2055566  21.0946298  14.7639966
  16.8692458  20.0191259  15.7745266  13.7775409  31.2762165  33.2428479
  14.1809499  31.2006903  34.1075969  13.9242351  30.4228830  32.8347659
  53.5937595  23.7445521   1.7733617  54.4059467  24.2426419   1.8655030
  53.7374020  22.9538536   2.2933541  30.1177859  14.8062754  55.1717472
  29.9365568  14.0740681  54.5824575  30.6274366  14.4200182  55.8839893
  82.8660488  36.4923716  33.2827592  83.0948448  35.8412409  33.9460206
  83.6169052  36.5036726  32.6891899  76.3166952  76.9268751  54.3822384
  76.1114550  75.9988785  54.4959545  75.9236574  77.3541069  55.1433039
  75.7941580  80.5234432  56.0262632  75.0780439  79.9452162  55.7634735
  75.3802443  81.1756420  56.5915537   5.8681679   0.1628401  25.5276728
   5.8768415   0.9751292  26.0339761   6.1825442   0.4178859  24.6602917
  20.1175809  66.2903786   6.0542160  19.2524874  66.5169573   5.7128876
  20.3494453  67.0232058   6.6246897   7.2260058  34.5565295  31.1649013
   8.0890626  34.1464734  31.1081696   6.8888086  34.2876887  32.0194507
  35.1342416   2.6983327  71.0679626  34.9233890   3.2466638  70.3122473
  34.6682024   1.8780483  70.9061813  43.4556913   3.3354840  65.8384895
  43.1451845   2.4780074  65.5477095  43.1770086   3.3938673  66.7523575
  61.0500240   3.5024539  38.1602407  61.2464905   3.0296347  38.9689898
  60.0938511   3.5275590  38.1237221   5.8557308  51.4414358   2.7099040
   5.4124880  51.6389084   3.5349929   5.8733845  52.2761488   2.2417486
  18.6884010   9.6457458  49.0540743  18.9614308  10.5604577  49.1247034
  19.1696405   9.1977501  49.7497320   3.2861620  33.4811759  44.8642731
   2.4029186  33.1851268  45.0844288   3.4760457  33.0641270  44.0238905
  28.4486818  54.9367094  17.5091839  29.2424941  54.5255518  17.1670640
  27.9007673  54.2034769  17.7891755  24.7048712  20.6803322  65.5063772
  24.4115639  20.1671648  66.2592793  24.7075844  21.5848804  65.8194590
  26.7151618  62.8265047  12.6634657  27.1379948  63.3854389  13.3154166
  27.4220991  62.5745249  12.0693457  34.0226626  32.6073599  68.2342529
  33.1351709  32.4387908  67.9177475  34.1579509  31.9584942  68.9248371
  58.3164835  38.1141925  64.8684835  58.6220646  37.3990655  65.4265547
  58.7072182  37.9344177  64.0133572   9.2297709  13.4453595  12.1295774
   9.7710443  12.6559269  12.1223438   8.4078497  13.1685102  12.5345862
   7.9589754  22.4892426  48.8809252   8.6586893  22.3215675  49.5122099
   7.8879815  21.6763473  48.3805323  44.3447113  74.6120024   3.1613061
  44.2027330  75.5535030   3.2595372  45.0965691  74.5432663   2.5729054
  82.7935982  38.3383942  49.9093390  82.9491615  38.1859708  48.9772415
  83.6455727  38.6063790  50.2536631  77.0617437  37.1186495   5.0384945
  76.9995737  36.4380717   4.3682861  76.8208313  37.9255939   4.5834830
  18.9206493  36.1434913  44.1192293  18.8837743  36.4388466  43.2094812
  18.1781244  35.5458879  44.2073154   5.6297511  26.3285303  31.6974521
   5.6813991  25.4118872  31.4266610   6.0987318  26.8070173  31.0138297
  75.3169012  33.1537390  49.8155260  75.0991631  32.9416084  50.7231712
  74.7479296  33.8924193  49.5990801   3.8720426  24.1843510  55.8481359
   3.7305799  23.3975911  56.3746643   4.5747769  24.6516705  56.2998104
  12.0545137  49.9995327  74.4337797  12.7219331  50.1376057  73.7616777
  12.2516930  50.6529236  75.1049232  82.1828270  20.2990890  44.5165300
  82.2415829  19.4051111  44.8535490  81.9845486  20.1918054  43.5862541
  83.0126381  34.5682812   1.6082689  82.1277142  34.6740198   1.9574922
  83.5860443  34.8649955   2.3149478  24.5485878  51.8620729  37.6908207
  24.8294687  52.7769423  37.7095509  24.3312144  51.6969967  36.7733598
  74.3035555  68.0751944   9.1024327  73.9068317  68.0745268   9.9735475
  74.5129824  67.1565104   8.9339262  14.5123911  13.7887228  72.8836346
  15.2762341  13.2981098  72.5801992  14.6767056  13.9357495  73.8150930
  14.6358716  27.5306726  68.9299488  14.0517497  27.7353358  68.1997776
  14.7084486  28.3520293  69.4160938  32.5864458  17.4905658  56.7525196
  31.6342735  17.3925853  56.7536497  32.7373195  18.3599424  56.3815069
  24.8203111  34.4929099  22.8649497  24.8386264  33.5476446  22.7153850
  25.5076528  34.6461868  23.5132527  84.0234947  68.3797646  19.3331695
  83.4819221  67.6146698  19.5269752  83.3974266  69.0591002  19.0826035
  85.9985256  84.7738838  60.4058695  85.4955864  84.6378994  59.6028852
  86.3320065  83.9050102  60.6296539  16.4105403  12.1513319  31.9725633
  16.3400459  11.2121892  31.8014669  15.5054545  12.4438787  32.0796442
  86.1197758  15.8504403  52.8617764  85.2801323  15.9930086  52.4248457
  86.3081264  16.6824234  53.2960081  77.4854136  86.0287094  60.4479313
  77.4028540  86.1064911  61.3983870  78.4040356  85.8006859  60.3051805
  16.0872602  73.5332251  50.2752590  16.8815696  73.0008841  50.3190422
  15.8888662  73.5909939  49.3406248   2.3063536  75.9121418  59.1155624
   2.9870626  75.7147121  58.4722185   1.5266702  75.4670763  58.7835312
  89.0787697  73.1219435  61.4173174  89.0277481  74.0725231  61.5174294
  89.9482632  72.8928661  61.7455435  67.7858162   7.0641029  34.5339894
  68.3310127   6.3439238  34.8507452  68.3477879   7.5383472  33.9211988
  84.4941616   1.8766320  33.5966730  85.1530552   1.1932167  33.7192988
  84.0197754   1.6132407  32.8081203  58.3087540  15.9656906  26.2279034
  59.0811777  15.4018795  26.1865830  57.9895973  16.0011637  25.3261757
  15.1770723  42.6843309  31.5650368  15.0423861  43.3029318  30.8471060
  15.2968538  41.8385506  31.1331344   6.9076294   6.0509712  67.1348476
   6.6137165   5.7961577  66.2602520   6.3521022   5.5478632  67.7302504
  89.6027374  82.8500557  32.6383424  90.4164314  83.2591629  32.3437905
  89.8853588  82.0636272  33.1051373  57.4458408  81.1917782  44.3339825
  57.3169136  80.5557442  45.0375986  58.2798958  81.6129875  44.5417261
  61.4420652  16.7557418  44.9183130  62.3797131  16.7853153  45.1085091
  61.3327312  15.9766555  44.3730593  36.7290998   1.4650409  61.6663313
  36.7490768   2.2645029  61.1403131  35.7987142   1.2556240  61.7485571
   2.2672150  38.6444116  51.1476374   2.3423192  39.3605733  50.5170012
   3.1146276  38.2010198  51.1085749  78.8156891  31.5561032  59.4660091
  79.7410011  31.3139272  59.5030832  78.3473063  30.7247949  59.5420170
  35.4233623  20.4438353  64.2973375  36.0061836  20.5999875  63.5542583
  35.9474754  19.9255884  64.9080372  27.0933557  27.7480912  45.3714943
  26.2921691  28.2714128  45.3931665  27.4973536  27.8930855  46.2270594
   7.1680534  30.5757236  73.9105320   7.0488214  31.3295126  73.3327627
   6.3232011  30.4738736  74.3488026  26.3683128  78.6215448  11.8705356
  26.7880917  77.9117823  11.3844800  26.0128665  79.1977358  11.1938524
  89.9785614  35.3865981  47.1671915  89.1030788  35.2662921  47.5350094
  90.5266380  35.6067491  47.9204369  13.4965777   3.0612004  48.2816648
  14.3432045   3.2894975  48.6655045  12.9344761   2.8764349  49.0340853
  16.7543244  46.4664173  45.8557034  16.8723845  46.3185024  44.9173975
  17.2980678  47.2303438  46.0480261   5.6217182   6.0782629  58.5947847
   5.7463324   6.3426930  59.5062542   6.4848858   6.1835986  58.1946850
  53.9578819  41.0234642  36.1992812  54.2683268  41.8897104  35.9357023
  53.2137203  41.2005758  36.7746806  22.7682233  26.1985159  43.4402895
  23.2578731  26.9982147  43.6325359  21.9026184  26.5064120  43.1716681
  78.6441565  22.4900246  23.4377527  79.2444897  22.7446032  22.7370238
  78.8816929  21.5850115  23.6396384  84.8865509  77.3043013  36.1284137
  84.5086384  77.7127552  35.3495836  84.9098492  76.3700247  35.9214950
  80.5709553   8.6530626  34.1993856  80.8643150   9.5191586  34.4823170
  81.0256577   8.5052311  33.3701539  89.1283131  34.6623135  50.9531879
  89.0472603  33.7149477  50.8429384  89.8102093  34.9182487  50.3320980
  78.2193661  35.0578046  52.8122091  78.4831238  35.8489370  53.2820749
  78.9235497  34.9078703  52.1814394   6.2797743  22.9657006  70.6216145
   6.6164082  23.8266921  70.3734112   6.5327579  22.3920131  69.8983479
   1.2462886  25.1652741  54.8557806   2.1501276  24.8891854  55.0077105
   1.0987769  25.8636832  55.4935074  34.4251609  15.0865984  56.7795515
  34.6206951  15.1767123  57.7122259  33.7967587  15.7854319  56.5979671
   3.9322257  80.7372856  64.5733738   4.5505759  80.0147820  64.4644785
   3.3390370  80.6595421  63.8261700  30.0588894  10.6328535  64.5009279
  29.1628814  10.3166163  64.6166706  30.3930783  10.7370210  65.3918219
  81.8344212  40.8440447  48.4251070  80.9503937  41.1581039  48.6150694
  81.9537640  40.0960207  49.0103006  35.8963227  10.5401051  37.5011134
  35.1829433  11.0015166  37.9420471  35.5100942   9.7084141  37.2266150
  17.1459424  60.1360273   8.7380373  17.6666164  59.5958376   8.1436276
  16.4265084  60.4619980   8.1973058  21.7358780   9.2681742  43.7723017
  21.8789935   9.6712691  44.6286058  22.5107551   8.7242419  43.6311102
  24.6110487  21.6343212  58.3529806  25.1031017  22.4550867  58.3744526
  25.0110841  21.0972834  59.0369368   7.9163754  16.3947105  63.0553436
   7.1991354  15.8003342  63.2756090   8.7030369  15.9460127  63.3652925
  24.4701743  26.9845200  51.9101715  23.6038899  26.5778327  51.9298649
  24.6486306  27.2122979  52.8225899  39.1537309  12.6547122  59.0880775
  39.2388582  11.8437266  59.5893669  39.8011446  12.5725329  58.3878422
  90.5326748  63.3372498  49.7199631  90.6593037  63.6923218  48.8401222
  90.5963421  64.0984058  50.2968693  68.0453587  40.6026459  40.6479788
  67.1504021  40.2797794  40.7530594  67.9450369  41.4489985  40.2122545
  25.7265759  15.6517434  56.1674738  25.3741527  16.2748551  56.8028975
  25.0164747  15.0254393  56.0270023  31.2702036  19.0905261  34.9145246
  31.8893147  18.4881723  34.5020890  30.5787349  18.5249734  35.2584052
  87.0538330  31.9878125  11.6560447  87.2406578  32.9214334  11.5576398
  86.2661552  31.8445659  11.1313736  73.0883026  24.9018216  42.7427626
  73.4118319  25.7979321  42.8352118  73.8773108  24.3599916  42.7537155
  20.0604367  46.2945461  34.5326805  19.7888124  47.2095680  34.4606495
  19.8934114  46.0664034  35.4471660  90.6053829  10.6192434  50.1370668
  90.3981304  10.3179872  51.0216713  90.4278088   9.8624319  49.5785570
  46.8257999  15.9727061  65.3951406  47.1251202  16.3730514  66.2114525
  46.6934061  15.0505733  65.6150818   2.4949481   5.6269401  50.6035471
   3.0561954   6.2953025  50.9966421   1.9427408   6.1094600  49.9883413
  80.6951809  11.0325336  45.3046799  81.6446877  10.9692049  45.4079819
  80.3707218  10.1616275  45.5337524  64.1156816  80.9263039  46.9067621
  63.4616661  80.2538300  46.7162991  64.9374104  80.5609131  46.5789127
  45.9649992   6.3852501  71.4867020  45.9048510   6.5368372  70.5434942
  45.8932447   5.4354823  71.5816975  78.2264137  81.2515640  54.6601057
  77.4829578  80.7502651  54.9950886  77.8371382  81.8796253  54.0516424
  76.2045622  22.9058361  61.2774706  76.0506582  23.7046456  61.7818975
  75.7257795  22.2266150  61.7525005  73.6560392  38.5350776  54.7975731
  74.5443439  38.7889647  55.0479603  73.6986303  38.4191751  53.8483715
  18.2262111  39.5639133  43.6575127  17.5658417  40.2567530  43.6683083
  18.8914168  39.8765993  43.0443573  85.3576565  38.0468202  56.6603184
  85.2359486  37.0974255  56.6685152  85.9822083  38.2021236  55.9517670
   3.4445041   3.5712907   7.7683878   2.7706385   4.0602511   7.2961009
   3.8494119   3.0164883   7.1016973  75.5902338  80.2359867  12.2121346
  76.3036776  79.9828815  12.7979410  75.0847197  80.8761406  12.7130187
  29.7702146  53.9111376  40.0090456  30.5450654  54.4152117  39.7605538
  29.2210340  54.5347357  40.4841852   7.3688132   8.1980526  49.6274185
   6.4133209   8.1421745  49.6154356   7.6630002   7.3289168  49.3548584
  17.1866727  58.5924053  46.4981651  16.9382238  58.5880327  45.5737829
  16.8080318  57.7875185  46.8517542  19.2151976  10.1019025  45.7909203
  18.6264992  10.4468191  45.1195812  19.6228290  10.8786249  46.1740255
  64.9014568  80.1220417  26.3266897  64.4739628  80.1958084  27.1799397
  65.1211882  81.0231590  26.0901809  67.5794983  21.2431002  57.5072813
  67.6825380  20.2915001  57.5157928  68.0433035  21.5271950  56.7196226
  28.7303758  53.4195995  13.8839698  27.8956032  53.5348415  14.3379605
  29.3898940  53.4878588  14.5743370  41.0682917  25.0362206  57.4554348
  40.4155064  24.9120569  58.1444073  40.6038237  25.5148888  56.7688656
  13.7210464  33.8132238  50.1992941  13.4917176  33.4206963  51.0416508
  14.3962109  33.2363296  49.8421144   3.2331511  48.7092733  54.3473005
   4.0781203  48.8031530  53.9074755   2.9076272  49.6051931  54.4344139
  65.6851292   2.0891039  10.1803124  65.5955648   1.2168239  10.5641592
  65.2597952   2.0195012   9.3256301   6.2634063  24.2356443  13.4490454
   6.2800413  24.8103857  14.2143095   6.6863620  23.4297633  13.7455130
  18.4550881  82.5133896  49.0571117  18.5292757  82.7929211  49.9695778
  17.9742181  81.6867638  49.0981865  67.3653793  37.5737357  73.1250334
  67.4579573  38.5257840  73.1606007  67.4268627  37.3617458  72.1936274
  25.3812599  73.5422421  47.2185993  24.6017456  73.8942003  47.6483774
  25.4012966  73.9765501  46.3658333   5.9123945  19.8252881  40.1879263
   6.7691994  20.0107646  39.8035860   6.1101782  19.4772732  41.0574055
  27.2705531  28.2330537  52.0564699  27.0211983  27.5084019  51.4829445
  27.5105500  28.9404988  51.4580107   8.5987371  82.9411697  56.3789415
   8.9880908  82.1026516  56.6269779   7.6725334  82.7434349  56.2400866
  67.5385714  63.2864618  44.2722750  67.4005556  64.0107393  43.6618614
  67.5555182  62.5061464  43.7181568  66.2537622  65.5721855  37.1908998
  66.8784380  66.2734556  37.0058918  66.6822529  64.7788191  36.8696547
   4.2077690  63.6154604  52.3609447   3.9823717  63.3570528  51.4672709
   4.7101900  64.4235563  52.2570992  48.1580925  71.1483479  67.0264912
  48.5675097  70.3312588  66.7419338  47.2335482  70.9268856  67.1378708
  13.1163561   7.1421701  58.6032581  13.3575928   7.9987222  58.9558983
  13.6935079   6.5261692  59.0545559  27.1826863  69.3685484  21.2621808
  26.4275885  69.3465519  21.8500376  26.8568182  69.7949409  20.4695702
  19.3854904  19.6470666  61.5418530  19.9882400  19.0199387  61.9413996
  18.8356733  19.1167271  60.9650755  24.0226531   8.9545858  13.2681906
  23.5950613   9.3949628  12.5337088  23.3019352   8.5851860  13.7784278
  73.2185888  78.9481354  44.7280931  72.9328632  79.5127916  45.4462528
  74.1723871  78.9261246  44.8056412  23.9764285  23.5869670  19.2255735
  24.5104146  23.7096334  20.0104570  23.1936908  24.1148019  19.3835115
  35.9800220  13.4259486  28.5081387  36.1633515  13.7624907  29.3852711
  35.0346065  13.2763410  28.5017681   9.0982568   9.1810292  60.3132582
   9.6908140   9.3009382  61.0553694   8.3949810   9.8126680  60.4638147
  35.2215028  65.7571411  30.1995468  34.8146033  65.0990629  30.7631016
  35.4781699  65.2741289  29.4140220  88.8773823  19.5380783  20.7532120
  88.6488438  18.8356471  21.3619709  88.7965488  20.3392553  21.2707162
   2.8106138   7.1643442  19.3046010   3.3752826   7.6187921  19.9297869
   2.2047617   7.8378713  18.9955127  41.8761921  14.7228026  56.4362907
  41.2561083  15.4510915  56.3998890  41.4370728  14.0608287  56.9703293
  30.0468922   4.9256143  26.3859320  29.3064904   4.7779787  26.9743538
  29.8262215   5.7327873  25.9211659  71.5833807   3.8750696   2.3855737
  72.0446110   3.9161012   1.5478291  72.2769737   3.9233720   3.0434689
  19.0940750  28.6526108  56.2999439  18.7090886  29.0164137  57.0972300
  19.1462791  29.3955135  55.6986094  55.4519272  61.1098003  13.2696867
  54.8729134  61.5385723  13.8998675  55.0193024  60.2787066  13.0738628
  70.0005674   8.0258417  32.7816129  69.7936296   8.9472669  32.9377675
  70.7166243   8.0454451  32.1467042  55.0948858  84.0199661  46.1109447
  55.8641863  83.9550686  46.6768026  54.3513203  83.9173412  46.7049217
  48.5373783  69.3864441   7.9547900  49.4830656  69.5344543   7.9540443
  48.1585121  70.2587366   8.0633980  79.4834995  10.5846846  74.1476202
  78.9102411  10.7137787  73.3920097  78.8964176  10.2991390  74.8476458
  76.4896965  38.7731004  27.4518538  76.2346029  38.4070969  28.2987309
  76.0826254  38.1934547  26.8080115  70.8343077  40.1965046  59.5351934
  70.2673292  39.4257569  59.5083570  71.2117434  40.2468824  58.6569977
  75.7712793  80.6430912  41.3939524  75.3946638  80.3638744  42.2284794
  75.4221964  81.5236759  41.2563229  17.2623944  33.9701533  18.2963228
  16.4177823  33.9048338  18.7419617  17.1741986  34.7343612  17.7267265
  89.3749619  43.1927443  62.8052950  89.7729874  42.3247433  62.7391291
  89.6360588  43.6380434  61.9992161  28.5646415  19.5045459  43.1193924
  28.6365104  18.5926807  42.8373146  27.6465726  19.7300446  42.9692793
  34.0984273  41.5001678  24.6619606  33.2450485  41.1121941  24.4684219
  34.2625856  42.0950270  23.9302325   8.4472287  16.4537621  73.8503313
   7.7131867  16.8426931  74.3258810   8.2712030  16.6556883  72.9313803
  35.7876825  18.9830482  61.4898062  35.7373095  18.6513925  60.5933142
  36.5654993  19.5409024  61.4954567  21.9049048   3.9583933  59.7579861
  21.7838836   3.7076250  60.6737900  22.6376891   4.5740482  59.7730637
  20.0392556  37.1096516  52.0274401  19.2512500  36.9464922  51.5091133
  20.5642819  37.6990891  51.4860106  69.3974686  81.4189148  10.6030834
  70.2041817  81.3242054  11.1095202  69.5328665  80.8684731   9.8317772
  41.6751480  10.7805514  39.8404980  41.3756609  10.4287100  40.6787968
  41.0926485  11.5206158  39.6695256  11.4251375  25.1165199  29.8370337
  11.7032695  24.2655373  30.1757121  10.5151379  24.9829841  29.5718932
   9.8168814  56.1983871  38.1837869   9.0062314  56.2454414  37.6769686
   9.8180205  56.9988680  38.7086296  86.9921875  40.6812382  32.5918603
  87.7801037  40.6994772  32.0486403  86.3263702  40.2782154  32.0346355
  89.3667698  85.4575634  27.9995894  88.5927486  85.3903389  28.5586929
  89.1956902  84.8503590  27.2796822  36.4931464  35.6014967  61.9984102
  35.8121514  36.2234712  61.7422342  36.4943767  35.6283355  62.9552364
  18.8671517  17.6394618  64.9870634  19.0284061  17.4594951  64.0608692
  18.0435538  17.1907806  65.1783848  71.3209724   9.4783902   0.9279905
  70.6225395   8.8336110   1.0406232  70.9488153  10.1340544   0.3382154
  63.1361771  40.0017738  26.2846470  62.8982019  39.8531246  25.3694963
  64.0592194  40.2533770  26.2542701  21.7129612  27.2584271  27.7186799
  22.3591995  26.5968084  27.4719715  22.0203614  28.0617881  27.2987390
   6.7846948   2.7153248  51.4337063   7.2434491   2.6213056  52.2685337
   6.6018301   1.8169929  51.1584044  20.5346513  11.0804582  55.0564814
  20.9142971  11.0719705  55.9351301  19.9627650  11.8480110  55.0500727
   4.2243600  21.2205935   4.8448780   5.1619327  21.3278055   5.0051731
   4.1635975  21.0049629   3.9142638   2.4285541  20.4408431  44.0910530
   2.0887513  21.0805941  44.7167397   1.7549455  20.3877807  43.4130621
  82.5873375  43.4781170  69.1784763  83.2986832  43.2401752  69.7731209
  82.1354866  42.6526833  69.0031719  13.7618959  36.3425040  53.0922699
  14.1951430  35.9101582  52.3563290  13.0901241  36.8904448  52.6864195
  41.1942816  13.7462795  70.6812000  41.0981941  14.0992820  71.5657234
  41.7107964  12.9486811  70.7964277  31.0381436  20.0068045  64.1033936
  31.4506578  20.4907155  63.3879280  30.7647729  19.1796517  63.7067604
  15.1883185  28.5537815  41.0761976  14.7102106  27.7455878  40.8905411
  15.9165919  28.5493112  40.4550457  33.8836026   9.3416727  50.9811258
  33.6935472   9.1659492  50.0595856  33.5187674  10.2124012  51.1391163
  67.0650196  48.4401941  65.1943111  67.3081541  48.8720655  64.3754053
  66.1092949  48.3948898  65.1666212  36.3420725  10.8719516  48.6321735
  35.9426451  10.3706312  49.3430614  35.9276748  11.7332280  48.6842060
  12.9821789  31.7330122  37.1729445  12.8958917  32.4086261  36.5003896
  12.1090519  31.3460135  37.2370863  37.1844983   8.3217192  56.2805414
  37.3440838   7.9228306  57.1359110  37.7321553   9.1067594  56.2764359
  14.4741023  23.2369590  41.8703175  14.5280361  22.4241114  41.3677216
  15.0550878  23.8423634  41.4096975  30.6234574  21.3682604  33.1714916
  30.5919647  20.5874062  33.7242198  31.0870337  21.0852480  32.3833060
  64.1266108  19.3112397  46.0099888  64.9484396  19.6925426  45.7010603
  64.2315102  18.3702087  45.8696747  86.4131737  24.1129279  42.1074057
  85.8765507  24.8857832  42.2833681  86.5025425  24.0952873  41.1545515
  20.9846401  33.9020276  62.1149492  20.6505704  33.0698562  61.7801094
  21.3241410  33.6912513  62.9847479   0.2353060  23.8835883  28.1773329
   0.6160572  24.7170591  28.4540725   0.6336087  23.2341528  28.7568331
  24.5072865  60.7609129  42.1052313  25.0357699  60.8731365  41.3150787
  24.0628648  61.6012239  42.2174788  23.8855195  21.1702728  35.5196166
  24.1348624  20.2633142  35.3421760  23.2793832  21.1119246  36.2581444
  67.2366619  38.6450529   2.2156499  66.4948797  38.0402207   2.2286293
  68.0062723  38.0789709   2.1566164  24.6899724  19.6507835  60.5440569
  24.2634892  19.9149585  61.3592577  24.2721367  18.8211477  60.3130817
   0.5667362  12.2504210  45.9407806   1.3845336  12.0334554  46.3884020
   0.1709576  12.9330945  46.4825821   3.1813881  34.6997118  63.9644384
   3.0014250  35.2362752  63.1924629   3.5097742  35.3195834  64.6157074
  18.0311036  14.1922486  30.9082150  17.6415920  13.4866691  31.4246178
  17.3049438  14.5383692  30.3894448  18.6137569  60.3028250  70.3382063
  19.1699135  60.9783220  69.9501038  18.7710929  60.3747845  71.2796402
  17.7946591  31.1953664  36.3365006  17.5190878  31.4784956  37.2083545
  16.9762456  31.0261416  35.8698177   3.9697880  31.8174100  56.6180325
   4.1456923  31.8589830  55.6780529   4.7824702  32.1147180  57.0271635
  18.6638141   0.8921818  43.5331202  19.0841174   1.6985929  43.2343292
  18.5328352   1.0240649  44.4721031  25.2577782  48.3266020  14.0631938
  26.2114143  48.4050751  14.0376282  25.0649142  48.0396605  14.9557745
  25.0340533  31.3193345  48.1314707  24.7984433  32.2401786  48.2444572
  25.0664091  30.9693980  49.0218210   5.6754965  21.6610622  43.3532619
   5.7024020  22.6129413  43.4504032   4.7439134  21.4541674  43.2785749
  42.1892405  46.3842058  40.9877348  42.3625612  45.4429770  41.0044146
  42.9164410  46.7528057  40.4861927  32.2746491  63.4699392  10.3863835
  31.9788694  62.7427959   9.8386550  33.0783987  63.7752199   9.9656385
  30.1861882   5.6075674  48.8977194  30.4445434   5.8843315  48.0185795
  29.4259477   5.0431442  48.7573957  17.7024305  42.4748564  36.7776299
  17.1687591  41.8182325  36.3301134  18.3566451  42.7344322  36.1288953
  12.7013528  51.7592144  16.1060214  13.6490238  51.6966629  15.9867001
  12.4119425  52.3560953  15.4159415  23.3551598  43.7966013  35.9260440
  22.7070642  44.2103148  35.3559184  23.0273843  43.9501238  36.8121743
  14.6133983  47.4108648  19.5719433  15.1689732  48.1731939  19.7344935
  13.7995160  47.6040554  20.0372434  13.3250773  49.6105528  54.5495415
  13.3287084  50.5164814  54.8585892  14.0841579  49.5523787  53.9693308
  44.4455147  12.8632200  22.3145700  43.5654259  12.6570141  22.6294518
  44.6341896  12.1828377  21.6682601  19.6646881  30.2552176  17.0672047
  19.9856555  29.6332383  17.7201629  19.0164256  30.7810807  17.5356650
  74.8693991  84.4403553  63.8561678  74.5582819  84.2390919  62.9735947
  74.6575260  83.6600971  64.3685532  17.5444627  17.6744068  69.3944168
  17.5319076  16.8158889  68.9713049  16.7861068  18.1316400  69.0310097
  88.5497856  50.7339001   5.0842875  88.8752365  50.3211451   4.2843217
  88.2438755  51.5957642   4.8017296  31.4115453  48.8823938  28.0201674
  30.8528399  49.6460629  28.1647110  31.9471526  48.8242865  28.8113570
  23.7829781  85.2220345  67.7232361  23.3799028  84.6052361  67.1122360
  23.8906336  86.0263157  67.2155237  85.9176636  31.7298388  68.7473440
  86.3587379  32.3439503  69.3343306  85.8189678  30.9315109  69.2661572
  52.5230312   0.1504160  46.0536337  52.3894453   0.5897148  46.8935156
  52.1583605   0.7543973  45.4067516  20.0833988  51.6580248   5.8927268
  19.2785704  51.3617277   6.3178051  20.7623792  51.5406561   6.5571386
  65.5606747  50.1964045  26.3830471  66.0040426  49.3761683  26.1665463
  64.6593666  50.0665808  26.0880613  10.5440295  27.6774120  58.5139370
  10.9918058  27.1713901  57.8359461   9.8725057  28.1693554  58.0414104
  19.0886319  20.6036472  27.9634929  19.7391462  20.0202775  28.3543158
  18.7381363  21.1008954  28.7024999   7.8113747  13.0889595  65.6112957
   7.3468435  13.9045870  65.4236937   7.3087871  12.6842487  66.3182974
   3.6621979  24.4769716  44.9438524   3.0833590  24.2740679  44.2090034
   4.5237997  24.5961237  44.5442581   4.1174093  44.2709780  34.7921348
   3.6852103  44.0901089  35.6268334   3.4373769  44.1267824  34.1341114
   4.5260555  44.3145657  54.6184254   4.6818632  45.1298952  54.1417789
   3.8021377  44.5179701  55.2107096  67.0532751  27.0202732  37.3085523
  66.4263344  26.8884087  36.5973616  67.6925182  27.6376343  36.9529343
  75.2748346   4.9788830  17.1968770  76.0665274   5.3277785  16.7873299
  75.0596046   4.2028469  16.6795015  45.3184748  52.1416187  10.8735883
  44.5960236  52.1634293  10.2460337  44.9112654  52.3481417  11.7148745
  28.1693292  71.9928455  23.7881851  28.0093408  71.2672091  23.1847906
  27.5862622  71.8222523  24.5278883  26.3729334   6.6800839  59.2950630
  26.1603618   5.7736605  59.0727091  26.5550923   6.6598266  60.2345514
  47.2180939   7.6791620  73.4646416  48.1635809   7.6324975  73.3228302
  46.8393755   7.2495657  72.6976681  20.6516266   4.1733274  26.2584519
  20.0905657   4.1018835  25.4862213  21.4415884   3.6850446  26.0265636
  34.1392779  29.9123621  29.9203801  33.6334229  30.7088208  30.0816107
  34.2261219  29.8724699  28.9679623  63.7183237   8.3294666  46.6941881
  63.4598017   9.1783655  46.3353443  62.8907347   7.8894377  46.8883514
  16.3589370  65.2693176  38.1196237  15.8986640  65.6321287  37.3628211
  15.6989956  65.2455902  38.8125491  89.5738888  67.3953724  10.8737755
  88.8838863  67.9294968  11.2672830  89.8504448  67.8911877  10.1031172
  73.0758905  26.4940763  39.7734499  73.5687637  27.0050907  40.4154587
  73.6707258  25.7875228  39.5220876  81.4356041  33.1211162  12.4682212
  82.3464108  32.9664660  12.7186918  81.1019611  33.7202024  13.1360626
  89.5619583  64.0770292  71.5304422  89.0255356  64.8151922  71.2413120
  89.4386673  64.0484810  72.4792385  66.5702820   4.4813034   1.2039416
  66.6685009   3.9124805   1.9675022  67.4215221   4.4456783   0.7676503
  53.9855099  82.8578568   4.7278646  54.4358492  82.5487995   5.5139369
  53.0839539  82.5540066   4.8332444  33.3878422  16.6154361  40.8362770
  33.3208466  16.7175353  39.8868966  34.1604781  17.1260810  41.0781527
   4.6781784  28.4400630  39.6005201   4.1999385  28.7061691  38.8152146
   4.4959819  27.5042868  39.6863198  11.1989582  19.2580128  59.3434095
  10.8045053  19.1757154  60.2116632  12.1128345  19.0031779  59.4703865
  25.9055662   5.5709368  51.5151501  26.4112973   6.3707477  51.6592741
  25.3964138   5.4615134  52.3182821  24.7687006  31.1904001  43.8688803
  25.0411224  30.8808351  43.0050611  24.6256757  32.1296787  43.7525702
  55.4666758  84.3298149  34.9853158  55.9151411  84.7034550  34.2266965
  55.3269100  85.0736809  35.5712795  60.8433199  52.9480362   4.7116786
  60.7684994  52.0315027   4.9773914  60.9046459  52.9163885   3.7569696
  12.4002695  13.2483971  49.9723339  12.5507963  12.3632932  49.6404219
  12.8701341  13.2747567  50.8058596  14.1313636   1.1300289  35.3371882
  13.5315299   1.7680416  35.7236743  13.6941302   0.2870060  35.4570675
  68.9581013  36.8121290  40.7359505  68.9787006  36.2941837  39.9312496
  69.1314936  36.1791348  41.4327192  84.8696995  79.6655560  48.6225367
  85.6220722  79.2086554  48.9985704  85.0446415  79.6809959  47.6815844
   7.9992092  45.1793671  52.3372793   7.5118548  44.5437765  51.8131256
   7.3235869  45.7100344  52.7593708  61.7700100  10.2996612  37.7968788
  62.6384449  10.2521670  38.1966209  61.8984365   9.9747008  36.9057345
   7.4086756  12.5043607  36.8027520   6.4621323  12.4854195  36.6615772
   7.5861561  13.3906209  37.1178317  59.8750401  80.4807377  69.1315031
  59.6814823  79.8299789  69.8062515  60.7251215  80.2158833  68.7801552
  28.7011456  54.0618753  70.2156591  28.8753796  53.6995983  69.3469667
  28.6322784  55.0057459  70.0721359  70.8397865  74.9232054   3.8478950
  71.7067909  75.3245068   3.9070308  70.6430101  74.9150801   2.9111743
  34.9291301  26.7567158  72.7442455  35.4147315  26.2448049  72.0974255
  35.2851462  27.6417518  72.6655245   6.6560221  69.4107342  22.5906825
   6.3110787  68.6610222  23.0756354   7.3167622  69.0358448  22.0083499
  27.3966336  25.9730577  74.5830870  28.0736685  26.6169286  74.7911406
  27.5256777  25.7814574  73.6541796  19.5943403  33.7787461  54.0768576
  19.5987618  34.7359228  54.0719748  20.3798485  33.5331082  53.5881186
  21.1296368  17.6685750  24.9606490  20.3805995  17.7605402  25.5494761
  21.8503785  18.0985105  25.4209948  14.6510994  29.5579028  60.7900429
  15.5377877  29.3869305  61.1075115  14.6673679  30.4749942  60.5163431
   0.5024640  20.1409745  47.8996563   0.9005979  20.2189493  47.0326805
  -0.1753148  20.8167338  47.9136181  32.7555704  24.9633169  47.6939678
  32.5862765  24.2095137  48.2590771  32.8697538  25.6957817  48.2995129
  28.7432957  61.9778061   6.9378132  29.3334985  61.4072704   6.4454901
  27.9741263  61.4348793   7.1105707  12.4833393  32.8729320  29.7099185
  11.6229153  32.5465941  29.9733686  12.8573418  33.2370830  30.5122566
  13.4050500  27.1322560  30.4425073  12.7592301  26.4326215  30.3442168
  13.0629122  27.8505325  29.9102926  13.3364594  27.6094675  62.2921848
  13.7949872  28.2644892  61.7659426  12.8049314  27.1244240  61.6609621
   6.1185855  36.6060066  42.2107315   5.9828103  36.3040233  41.3126230
   6.6010457  37.4273825  42.1168852  33.3614373   6.5066582  39.1877699
  33.2381463   7.0416766  38.4036851  33.3212948   5.6043583  38.8707900
  53.5592890  25.4031444  46.8016195  52.6612091  25.3573370  47.1296215
  53.5617304  24.8364401  46.0302067  32.0606327   7.1656662   3.7360179
  31.5018940   7.1121794   2.9606584  32.5919104   7.9492676   3.5947967
  26.1057711  35.5609608  66.6353226  26.2543273  34.7410703  67.1064329
  25.1599240  35.6986928  66.6866350   2.7918530  18.6020839  37.1032476
   1.8856698  18.8868093  37.2215533   2.7209216  17.7495599  36.6738248
  22.1093106   8.9275718  53.3433008  21.9768167   9.4117445  54.1583157
  22.9708743   9.2085874  53.0351257  82.5844955  15.7568336  63.6226130
  81.6836166  15.9976232  63.8386583  83.1163692  16.4596117  63.9960337
  13.2962620  26.2436008  44.2794800  12.9083729  25.6205630  43.6649847
  12.6637018  26.2989497  44.9957418   4.7543564  79.3395805  30.8729410
   4.6961036  78.6182833  31.4994955   5.4645312  79.8886728  31.2051821
  17.9303384  36.6125035  50.3917265  16.9769478  36.6954374  50.3717136
  18.1508541  36.1835885  49.5649052   2.3096150  52.5766325  65.7014847
   2.8022406  53.0532694  66.3695908   2.5836688  52.9722118  64.8740530
  90.6975365   7.2790849  44.5878410  91.5409946   7.5041628  44.9804497
  90.3896618   6.5283829  45.0956774  25.6509328  26.0857654  65.3890419
  25.2808499  25.4954100  66.0453558  25.3224540  25.7519484  64.5542336
  39.5467281   6.7362976  63.2440996  39.2880893   5.8188057  63.3309698
  40.3809500   6.7066574  62.7756691  43.4822178  64.6096992   3.6545888
  43.7268114  64.4132900   2.7502507  42.6523972  65.0811386   3.5812682
  86.6252708  46.4020634  57.6815367  85.7472610  46.0595179  57.5142097
  86.7973518  46.9896650  56.9457769  12.5197768  23.7776589  45.8223391
  12.6959872  23.2900023  46.6269350  12.1715510  24.6172214  46.1225128
  16.6640699  23.6714816  67.0226669  15.8047044  23.2514143  67.0582438
  16.4760327  24.6076226  67.0898438  31.4108896  14.0943015  38.5140824
  31.2696600  13.8579381  39.4308257  30.5509281  13.9944172  38.1057668
   7.4878430  20.6610441  31.6368127   7.9883218  21.1326480  32.3026514
   6.5907001  20.6558824  31.9704890  22.3232698  30.1983476  42.0289135
  22.1687102  30.9845495  42.5525808  22.3731971  29.4894409  42.6701546
  69.4872046   5.2899712  27.7833438  69.6940804   6.1218774  27.3574734
  68.6372900   5.0401324  27.4207783   1.1432968  85.4631805  33.8112688
   1.7428304  84.7367859  33.9819837   1.1949360  86.0062695  34.5977974
  90.0428677  47.5208044  47.0139408  90.8737183  47.6395655  46.5537071
  89.4060516  48.0035591  46.4870262  71.5696096   2.0207876  52.2730494
  71.9103909   1.1595964  52.5148106  72.2178078   2.6384950  52.6114273
  11.3495684  20.9478831   5.2147639  10.7582259  20.2084565   5.0740719
  11.4031601  21.3775086   4.3610764  15.7817709  47.1719217  37.0134854
  16.1529195  46.8213558  36.2038040  14.8524034  46.9473648  36.9678497
  29.5274282  14.0413785  17.2330201  28.8761377  14.7070837  17.4541223
  29.9454403  13.8288033  18.0674720   2.6052827  55.5291986  49.6987534
   1.8057847  55.5429459  50.2249146   3.2534268  55.9847546  50.2359772
  26.3928103  40.1626253  37.3407602  25.4930115  40.4765844  37.2511911
  26.8644667  40.5782223  36.6189218  90.8878994  14.0401101  47.7277899
  90.1136684  14.3922997  48.1668282  91.3318920  13.5252321  48.4015894
  62.6517200  42.6030493   5.3298676  62.6448965  42.9278326   6.2302572
  61.7650175  42.7677202   5.0091261  82.1390820  83.9309120  43.9383459
  82.6451206  83.1296349  43.8037825  82.1685600  84.3777275  43.0923462
  51.2882614  47.8409243  14.8321640  51.9740105  48.2538891  14.3073428
  51.2263870  48.3856726  15.6167984  29.9700713  40.7658911  40.9367990
  29.0690851  40.8173418  40.6177235  30.4810691  41.2539196  40.2910900
  44.4161558  67.8562117  45.4038668  44.6647692  67.4321604  46.2252140
  43.5267925  68.1746531  45.5583477  27.7151847  39.8046851  42.6806402
  28.3739829  40.3456306  43.1160688  27.1547580  40.4315519  42.2232676
  44.1331530  67.0836449  33.2274532  44.9072170  67.4043274  32.7646136
  44.4180012  66.2638140  33.6311483  27.9210019  65.6462479  41.2570906
  27.1523643  65.1138115  41.0523033  27.7335644  66.0154915  42.1200848
  89.4631863  37.6970601  10.7320487  90.2307415  37.6253366  11.2994468
  89.5752430  38.5345387  10.2822638  36.6151524  73.7578535  36.4859867
  36.8031716  73.5717869  35.5660629  35.7166767  73.4532356  36.6131806
  23.1451225  17.2731948   0.5867378  23.0871367  16.9280040   1.4776435
  22.2499132  17.5361896   0.3730392  88.7823105  37.7614999  44.9178123
  87.9564571  37.3409843  44.6783066  89.2459679  37.8691173  44.0873480
  15.3094089  48.7125349   0.8570655  16.0588408  49.2535925   0.6083903
  15.0767386  49.0146112   1.7350441  10.8693194  41.3996601  31.8197513
  10.1279640  41.9461966  32.0803738  11.0764658  41.6854572  30.9300065
  22.4707913  68.4826660  47.4071980  23.0126190  68.4698009  48.1961775
  23.0882525  68.6506033  46.6953230  24.8806691  42.3211527  33.9961505
  24.8991489  43.0295897  34.6395850  25.7184410  41.8723488  34.1099215
  37.0450234  41.5320444  25.4544854  36.6725779  42.0416689  24.7349048
  36.5776062  41.8380451  26.2317348  12.1908605   8.2844013   6.8861926
  11.5594172   8.0330557   7.5602376  13.0398023   8.0259287   7.2449702
  41.0795021  48.9720058  32.4071813  40.7888174  48.0600929  32.4194574
  41.8777275  48.9760780  32.9354334  54.0857267  12.8879058  70.3575945
  54.0758753  12.7331960  71.3021564  54.4058943  13.7852263  70.2651882
  41.2152958  51.8960762  44.3337536  42.0664406  51.5447140  44.5951366
  41.2850618  52.0127106  43.3862495  79.1466904  39.5453382  32.8563142
  79.9503326  39.2662263  32.4175787  79.0198231  38.9033651  33.5548878
  22.3995686  31.4630985  49.7995806  22.8148580  31.9047403  49.0588236
  22.7046084  30.5577421  49.7403097  15.2742445  23.4989023  44.8147345
  14.5925689  23.7289000  45.4461193  14.8591495  23.6172104  43.9603758
  61.2046003  47.0846605  30.7615709  61.2929916  47.8628874  30.2113199
  60.6980371  47.3819876  31.5173626  14.9577558  56.8796492  29.5150375
  15.4501522  57.0277929  30.3223991  14.4034600  57.6550293  29.4268537
  27.2168016  29.7037864  23.4467268  27.6484466  30.4395819  23.8809133
  27.5942206  28.9271045  23.8597035  40.4805374  44.2307234  44.7308922
  39.8512149  44.6722651  44.1606045  40.7244349  43.4392595  44.2509747
  35.8802581  57.4891090  46.9310713  35.3680229  57.3701096  47.7308750
  36.3374567  58.3199883  47.0608616  14.0358329  76.3861418  25.0161672
  14.4142294  76.8788719  25.7443571  13.3441675  76.9539976  24.6765065
  16.2676382  44.5513296  49.9325180  16.0697484  45.4528570  49.6789026
  16.7039418  44.6314144  50.7807255  20.0172019  28.3136129  30.4423404
  20.4996133  28.1075025  29.6416974  20.1532030  27.5524497  31.0065794
  21.2276101  32.8943586  35.4723763  20.4804683  32.8710103  34.8744893
  21.9038248  32.3805141  35.0308704  33.4089637  61.0402775  21.9018221
  34.1792774  60.8853817  22.4484992  32.8540206  61.6163063  22.4276185
   7.8447360   3.3678555  69.3253040   6.9649565   3.7382644  69.3961382
   7.8154272   2.8307009  68.5335732  27.2297072  54.5314312  28.6940598
  27.6988006  54.6067238  29.5250320  27.3434377  53.6164761  28.4368634
  47.7237558  47.7484369  34.9975133  48.2502699  47.4165010  34.2703032
  48.3445930  48.2340908  35.5405903  31.0913920  41.4167213  29.4273615
  31.4772844  41.8265581  30.2015400  30.6221008  40.6552744  29.7682452
  90.2307987  13.9700198  16.2402773  90.3958130  14.1125882  15.3082490
  91.0902309  14.0594649  16.6521013  40.7466793  59.0574932  47.9011917
  39.8150396  59.1366911  48.1061363  41.1193562  58.5985613  48.6540031
  43.6592865  39.8008299  38.6017084  43.2508087  39.3966722  37.8361797
  43.1187391  39.5176005  39.3391514  40.5549717  54.0636253  53.9099455
  40.0865889  53.7631559  53.1311226  39.8643064  54.2764616  54.5375681
  25.8011580  60.9718037  45.6583405  25.0546670  60.3727436  45.6686306
  26.5307379  60.4511499  45.9942913  47.7982807  42.8190231  62.7739334
  48.1546545  43.5498095  63.2790899  48.4453440  42.6656771  62.0854425
  39.3221354  60.9935093  74.2300224  39.7514296  60.3381968  74.7800303
  39.9455690  61.1579847  73.5225534  10.7823658  51.9607162  29.5190048
  11.0804009  52.8130293  29.2012501   9.8835069  52.1145010  29.8099256
  56.9434118  72.3548126  20.9811878  56.2126637  71.8368101  21.3187075
  56.8026876  73.2304955  21.3411975  88.2283211  64.8151493  28.0118060
  89.1772842  64.7695112  28.1284857  88.0042076  64.0055275  27.5529838
  23.6040354  75.9038067  33.7315536  23.6545229  74.9586439  33.5888958
  22.6670671  76.0852098  33.8051510  35.9729958  55.4157734  66.0889006
  36.3539553  56.2522316  66.3561726  35.1599169  55.6542683  65.6436443
  35.9342098  55.0961685  44.0273333  35.9310770  54.1504383  44.1750622
  35.2047777  55.2470970  43.4261847  55.0000811  52.5813627  24.2430520
  55.0027084  53.2293224  24.9475908  55.0882292  53.0980539  23.4421206
  75.2713346   2.4931423  63.6930037  75.9563541   2.8829348  63.1498289
  74.8333073   1.8687782  63.1146145  42.7709389  68.0283070  35.2343416
  43.3628416  67.9449987  34.4867158  41.9999790  68.4722757  34.8811483
  21.8487525  52.0939159  69.3330431  22.4900818  51.6602468  68.7701464
  21.1238313  51.4717865  69.3937063  38.5717583  66.7888021  65.6637001
  38.5911202  67.4401665  66.3648272  38.5282302  65.9479761  66.1190653
  28.1180668  45.7601786  22.9954624  27.3175859  45.7492495  23.5201931
  28.8265061  45.7419920  23.6389041  86.1176968  36.7171001  17.2038245
  86.6218090  36.4604211  16.4316726  85.3875256  36.0986972  17.2296035
  38.6692047  44.7761154  36.9198966  37.9720163  44.4939041  37.5119424
  39.4546676  44.3394852  37.2494888  24.4116187  23.9164877  51.3320112
  23.4559178  23.9315820  51.2806320  24.6753430  23.2535434  50.6939030
  58.7433672  81.0363579  24.3936014  59.3537617  80.5637169  23.8276792
  57.8793192  80.8373165  24.0330005  69.8889494   7.3022234  44.5806694
  69.6834469   6.5094030  45.0760841  69.0376139   7.6332504  44.2945147
  28.3716726  49.2120743  12.6442504  29.2919636  49.1584158  12.3865283
  28.2396436  50.1326895  12.8706729  28.5124040  67.7990484  50.3139400
  29.0473652  67.7064466  51.1022758  27.6662326  68.1117010  50.6340599
  19.2185044  16.0893786   7.7883208  18.3836079  15.7000244   7.5283569
  19.5123160  15.5553806   8.5263956  67.3182106  50.2411366  37.6134944
  67.3440123  49.8455954  36.7422223  68.0306149  49.8158312  38.0908060
  30.0618482  56.4064693  49.7694397  30.5829787  56.8308783  50.4510069
  30.6331754  56.3980198  49.0014887  50.8197260  60.2801657  50.0159454
  49.8839045  60.4185724  50.1619434  50.8638096  59.7839975  49.1985703
  39.6419907  54.6699810  43.9509821  38.8458681  54.1565228  44.0880108
  40.2988386  54.2452860  44.5027256  46.8735218  74.9689627  45.2135611
  47.3851299  74.2075157  44.9402761  47.5272179  75.6445217  45.3939438
  10.5130923  -0.2499022  34.3209147  10.9725094   0.4201006  33.8146901
   9.6054602   0.0526820  34.3505692  26.1750388  65.5828810  37.8964639
  26.7039371  65.4409266  38.6815405  26.7745805  65.4131651  37.1698451
  10.6160355  64.1821766  34.1632175  11.2631929  64.2477274  34.8654461
  11.0505569  63.6656761  33.4845090  40.0345993  66.8087435  69.9393654
  39.1324449  66.5456820  69.7572994  40.0641489  67.7376080  69.7100830
   8.0271018  57.5672579  15.0012207   7.1675801  57.8458691  15.3171802
   7.8574067  56.7477608  14.5366168  79.2154980   5.2695739  16.7753911
  78.4030437   5.3447193  16.2748933  79.3972397   4.3300426  16.7973721
  42.0579147  48.8786840  42.2544813  42.2618484  49.3514347  41.4475441
  42.0546865  47.9566097  41.9975758  33.6378193  36.4362955  18.8578761
  34.4297433  35.9739137  19.1322613  33.9271617  37.3353553  18.7022984
  37.2541928  72.8224802  67.0533943  37.2955894  73.7595272  67.2443628
  36.3219166  72.6442242  66.9296408  50.3778505  58.4693813  47.9833269
  49.4956875  58.6177206  48.3239412  50.6221485  57.6067638  48.3186388
  38.7122416  64.2137671  19.9827254  38.6721182  63.7220144  19.1624820
  37.7999020  64.2871237  20.2628779  14.4226766  50.1047230  37.4128771
  14.4242287  49.1650915  37.2303414  13.4981346  50.3515863  37.3902130
   8.4714532  50.3713131  27.0205903   8.9267135  49.7222996  27.5570154
   8.8167310  50.2372456  26.1379576  38.1353211  56.4491892  54.4698095
  38.1903529  56.8417072  53.5985279  37.8790236  55.5412912  54.3077374
  36.9150281  60.7141209  53.2532787  36.6036916  59.8409224  53.4916639
  37.5368357  60.5607557  52.5418949  37.6988769  45.6397724  27.1577692
  36.9167304  45.1195383  27.3416996  37.8875375  46.0882568  27.9820871
  13.0762744  66.2809038  22.2215509  13.6403799  66.2803268  22.9948664
  12.2499168  65.9071445  22.5276089  30.3601694  45.0975800  41.5405035
  29.4392037  45.1878452  41.7852545  30.3380513  44.7602367  40.6449890
  11.8540370  70.4981327  48.8634634  11.2985885  70.9366989  48.2189703
  11.4127445  69.6658516  49.0331554  20.9765124  67.5813770  56.6751766
  21.5341091  68.1095409  57.2464561  20.2635026  67.2870302  57.2419310
  32.1184492  55.1022530  36.0326624  32.0703697  55.9923792  36.3813710
  31.2410355  54.9314070  35.6903362  30.8358669  39.2432928  43.0697346
  31.7677641  39.4109941  43.2100010  30.6279492  39.7090507  42.2597551
  73.2237816   0.8039757  55.6325865  72.2924852   0.5857598  55.6686258
  73.6590910   0.0677489  56.0623598  48.4693003  47.1289301  15.6915033
  48.8774061  47.1437788  14.8257911  47.5296545  47.1716261  15.5140960
  53.1826925  54.7346210  59.5007610  52.3796034  54.3422985  59.1581726
  53.6277914  54.0158653  59.9496651   7.3450571  51.1822701  41.4955187
   6.9102931  50.3303146  41.5327644   6.8399829  51.6810417  40.8533669
  33.2600975  45.7299137  41.3645315  33.5618353  46.3967991  41.9813395
  32.3594904  45.5463839  41.6318464  23.7722588   8.8293701   2.7900198
  24.5991063   9.2508954   2.5557777  23.3355832   8.6764050   1.9520764
  18.3183503  70.2223969  52.0847130  18.9340889  70.5609989  52.7346706
  17.8704870  69.5035744  52.5307417  49.0861034  62.1408367  44.9086857
  49.6285343  61.3524294  44.8881340  48.4738302  61.9915915  45.6291580
  51.7227888  41.8593740  26.9571400  51.6072798  40.9154415  27.0661426
  50.8383036  42.1931601  26.8071079  46.1305904  68.8041687  38.8469982
  45.2758884  68.8415718  38.4176755  46.5847254  69.5909691  38.5454464
  85.5974089  85.9651720   0.2114320  85.8924757  85.6218540   1.0548139
  84.6437823  85.8883678   0.2419639  75.3143930   6.5930802  57.6315689
  74.8957396   6.2830436  58.4345913  75.9402037   5.9046400  57.4065351
  31.2909961  45.6287813  18.8959658  31.8823361  45.7204151  18.1488705
  30.4498219  45.3883886  18.5075450  23.0092788  55.8096123  45.1361895
  23.1373310  56.5675640  44.5658064  23.6797619  55.1852417  44.8589659
  69.8711586  47.2902679  63.1223249  69.5732069  48.1480694  62.8196192
  69.1421795  46.7011833  62.9279041  39.6011639  39.7756577  20.9321785
  40.0250196  39.2083693  20.2881575  40.2754164  39.9332929  21.5930605
  64.7162771   1.3284825  39.6004510  64.9896526   1.2437035  38.6870456
  65.5042076   1.6180490  40.0603914  40.0190973  41.9107103  71.3671589
  39.8079801  42.8443241  71.3623905  40.7455397  41.8262625  70.7495928
  15.6818986  63.8680840  16.2899995  14.8708570  64.3271399  16.0715699
  15.8752239  64.1374826  17.1879315  36.9207239  57.5926495  27.3158765
  36.3171935  56.8639374  27.1710873  37.7581906  57.1740723  27.5150800
  86.6815567  17.4595344  56.5079355  86.5699196  16.9855332  57.3320055
  87.5288868  17.8960896  56.5956163  43.9605188  62.2370672  34.4581056
  43.3070517  62.0954132  35.1430440  44.8009920  62.1210623  34.9012542
  62.0503283  79.2785406  45.5090380  61.3580990  79.9238634  45.3654718
  61.7685127  78.5104465  45.0122070  54.4785643  53.0675983  70.3912354
  54.6415424  53.2966900  69.4762564  55.2654600  53.3554268  70.8540297
  35.4196572  63.8371706  74.0298605  35.6037307  63.1407070  73.3995533
  36.1357355  64.4614887  73.9128637   6.3619691  15.8786952   1.5817861
   6.0073715  16.6655338   1.1678088   6.2164694  16.0143673   2.5180846
   6.0740238  13.0602956   4.5082492   6.5124708  12.8145027   5.3228551
   6.6628617  13.6960912   4.1017196   8.5028154  28.0825353  71.2956285
   8.2408571  29.0014482  71.2389851   9.4584298  28.1022954  71.2442303
  33.2279968  31.4040828   2.9102123  32.2824860  31.5526628   2.9231232
  33.3355379  30.5158567   3.2503912  37.6067019  44.3913364  40.2330971
  38.1074238  44.7896385  40.9450436  37.0692348  43.7252712  40.6617260
  28.0595946  83.7991524  35.2276826  27.9370785  84.2282963  34.3808889
  27.1724486  83.5938168  35.5227137  84.5167255  62.6797056  17.7535629
  84.6318245  62.6070595  16.8060899  84.6811676  63.6030960  17.9447091
  72.5088263  33.9853716  72.7310944  72.8440046  33.6254907  71.9098949
  71.5624571  34.0420818  72.5991535  35.9795880  57.7895880  55.6611443
  36.5623236  57.2453070  55.1316071  35.3814077  58.1864166  55.0279474
  42.4237919  62.7121353  43.8947487  43.0086517  62.3450422  44.5576334
  42.5955725  63.6534929  43.9186430  81.0680485  57.4532318  62.3148584
  81.6456890  58.1174517  62.6908493  81.4217758  56.6217184  62.6306009
  32.0727134  64.3394423  36.9700003  33.0042148  64.5181942  37.0987678
  32.0526838  63.5895824  36.3754058  24.5956278  57.2314501  59.9967098
  24.7542405  56.7911768  59.1617060  25.1927996  56.8035555  60.6103230
  41.3728857  79.1885281  31.3802409  40.5523586  79.5187187  31.0142565
  42.0199251  79.3380070  30.6908751   9.2167217  64.5456028  56.4578152
   8.4737372  65.1442289  56.5343189   9.8853350  65.0514889  55.9960079
  30.8437967   4.5575553  66.2895870  30.1119852   4.9063480  65.7806396
  31.3531899   4.0486947  65.6588650  46.5601635  32.9438043  19.2154121
  47.4438190  32.5830960  19.1427910  46.3129282  33.1549692  18.3151269
  20.0907445  61.0562801  31.1510110  19.2943549  61.4667320  31.4879417
  20.2259231  61.4626932  30.2949834  56.5334368  70.0688314  17.1929991
  56.1585426  70.9130335  17.4440038  57.3797464  70.2888489  16.8036604
  40.3227997  55.1826906  36.0569215  39.8204899  55.1534128  36.8712068
  40.1735306  54.3280268  35.6525636  23.4488726  62.9803085  25.2809310
  23.0752993  63.2975483  26.1031437  24.1430879  63.6066055  25.0758648
  75.6608343  12.9384804  65.9454203  75.1389265  12.2054601  65.6190491
  75.0712729  13.6912024  65.9000826  45.6071186  47.2294903  64.0524387
  44.8461246  46.9838190  63.5263538  46.1979485  46.4795303  63.9837933
  45.3201675   5.8776551  43.3914995  45.1288939   4.9397606  43.3903599
  44.4599676   6.2975228  43.3914423  84.1545868  76.0197783  23.5879612
  83.2728004  75.6480837  23.6110830  84.3513680  76.2265635  24.5016074
  50.4072666  67.7994490  70.6738997  49.7484350  68.4915638  70.6177616
  50.1921988  67.3288012  71.4791775  29.6843195  69.8818207  48.6881638
  29.6089554  69.1115761  49.2514372  29.4130993  70.6124306  49.2439318
  80.4892445  61.5400934  49.2346430  80.2455521  62.3425531  49.6960545
  80.7947731  60.9506893  49.9242020  25.4336357  29.0742254   3.3960870
  26.2961173  29.0678096   3.8111985  25.5911851  29.4310713   2.5219750
  50.6162214  50.7747746  57.3524380  50.7821417  49.8541164  57.5551414
  51.1955929  50.9658098  56.6148281  89.9401665  42.5409365  42.0595026
  89.9811649  42.4295664  41.1096859  89.5878124  41.7117786  42.3828888
  45.7141781  72.7533102   5.0873131  45.3411198  72.6180077   5.9583771
  45.0215340  73.1951046   4.5960978  21.2299204  61.4350271  45.9078741
  20.3132081  61.1819553  46.0166121  21.5116262  61.6970968  46.7843390
  32.7321815   4.6567646  27.8193712  32.5540638   5.4770768  28.2793641
  31.9071841   4.4423413  27.3839021  36.9634557  65.9197187  56.2553596
  37.5696397  66.4116287  56.8092537  36.2598467  66.5390444  56.0614586
  47.5969124  53.5793686   2.4736188  48.5182667  53.3214140   2.5019169
  47.1240473  52.7619839   2.3170508  48.3074141  46.3420725  58.4276438
  47.9146910  45.7184696  57.8168154  49.2306280  46.0920048  58.4647036
  24.1800523  26.8106270   5.8533698  23.7165165  27.4868965   5.3593796
  25.0488806  27.1809125   6.0091221  31.4736247  24.5841050  19.3337083
  30.7689929  24.1651797  18.8395143  31.0876775  24.7709918  20.1894832
  23.4175801  59.7382355  45.8021069  22.7836037  60.4539204  45.8479023
  23.0051613  59.0216970  46.2845182  46.3319111  70.3157473   3.3108705
  46.1164474  69.3865204   3.3905604  46.0486555  70.6993246   4.1408512
  56.4416599  51.3145494  64.3897390  57.3124409  51.6993427  64.2902327
  56.3866234  51.0830450  65.3168917  41.2022972  57.3302555  54.0816593
  40.6008196  57.6091385  53.3912373  40.7114887  56.6739035  54.5761728
  50.8393717  66.1479139  39.0559316  51.4002371  66.5765524  39.7024083
  50.6882620  66.8172789  38.3885884  82.7495575  77.4051809  45.8202982
  83.6886501  77.3117638  45.6603050  82.5262356  76.6597414  46.3776875
  28.4099102  75.5020618  71.6181040  27.6532173  76.0788774  71.5135622
  28.2187700  74.9971104  72.4084949  29.9250317  59.7244835  24.0122247
  29.3634319  60.3751707  24.4334674  30.8113360  59.9589825  24.2873716
  47.6139975  73.3832359  62.3905420  47.1269798  74.1731167  62.6253510
  48.2343292  73.2617903  63.1093407  33.8276720  43.7249804  68.9119911
  34.5369697  44.3517208  68.7694359  34.1941381  43.0826855  69.5197630
  24.2559361  48.8010883  42.0670557  25.0175500  49.3367100  42.2890472
  23.6598396  49.4045162  41.6234589  41.3217783  77.7790928  17.1012890
  42.2783852  77.8127718  17.0999193  41.0585356  78.4734583  17.7052689
  34.6725726  42.3670149  13.7336481  35.0876689  41.5058136  13.6860907
  34.6995091  42.6958275  12.8350997  49.0726709  42.6625824  26.7907548
  48.8283682  41.9208479  27.3442698  48.2964993  42.8279066  26.2555385
  41.7724276  58.3952570  59.2622185  41.7624807  58.1175470  58.3462429
  42.2072601  59.2478943  59.2492819  73.8946867  53.4822130  62.9862690
  74.1543436  53.2510948  62.0944214  74.3006849  52.8114700  63.5353613
  12.2872388  47.7104187  21.0163903  12.3025775  47.6713037  21.9726682
  11.5369260  48.2683420  20.8115005   9.4599122  42.0175838  34.3481922
   9.5548844  41.2780809  34.9484825   8.5957533  42.3780298  34.5470357
   3.9909768  82.6246548  52.9770660   3.2815963  83.0831909  53.4273481
   4.1371107  81.8367100  53.5005331  30.9247041  20.2091265  13.6308289
  31.1283350  21.1431122  13.5814321  30.0450182  20.1358771  13.2606721
  11.9376683  60.8155441  42.7654409  11.1523795  60.5084610  43.2184887
  12.3731840  60.0153065  42.4718857  30.9698129  66.9118786  30.4008365
  31.5348625  66.6723585  29.6662760  31.2298632  67.8062963  30.6213403
  54.2854929   7.3317659  40.3701735  53.6981678   6.9522232  39.7165442
  54.0386248   6.9049299  41.1906004  35.2646732  38.5892868  37.2276664
  34.5055437  38.1270623  36.8722773  35.5489373  39.1645408  36.5173769
  20.3837252  63.9949036  36.4080906  19.4720650  63.7111330  36.3404179
  20.8514524  63.2237291  36.7286348  90.2178383  40.0586653   9.8202580
  89.8245049  40.7576084   9.2977613  90.2100754  40.3959322  10.7160389
  14.7112858  80.5663586  30.0667715  14.3335927  80.8392429  30.9029031
  14.7234571  81.3640022  29.5377588  43.7291861  51.9537878  45.3779984
  44.5045233  51.5228558  45.0182962  43.8314152  52.8736258  45.1337147
  47.7734852  62.2433472  74.2463541  47.1775675  61.5402031  73.9880800
  47.7561283  62.2325993  75.2033329  70.3425598  78.5219955  69.4392014
  69.9842978  78.2747459  68.5867071  69.6426010  79.0239763  69.8567009
  14.0479589  75.7729673  54.8515463  13.4072077  76.0328960  54.1896486
  14.4903016  75.0138807  54.4716120   1.4995226  39.9646258  34.1860342
   2.2669727  40.4707670  34.4526291   0.9361564  40.5991840  33.7431049
  56.0591555  73.7187576  32.1280313  56.4145613  74.1138649  31.3319111
  55.4396486  73.0606556  31.8128300  47.2637177  69.6636486  62.9128456
  48.1438923  69.3883944  62.6564074  47.0778847  69.1625214  63.7069321
  32.6806855  67.5182343  62.1978140  32.8564000  66.8068933  62.8137255
  31.7697740  67.7602005  62.3649168  44.8949766  46.9795895  57.4471092
  44.7589540  47.3364019  56.5693808  45.3474998  46.1489487  57.3005104
  47.0448971  65.4305792  36.2882853  46.8797159  65.6661320  37.2012258
  46.1832857  65.4639292  35.8726597  53.5717154  42.8141785  61.7659235
  53.6328030  43.2743168  60.9288025  54.3007755  43.1581402  62.2820568
  42.4928284  50.5722618  47.5798655  43.2530880  50.0701571  47.8733349
  42.6765251  50.7702780  46.6615629   5.4511398  12.9411364  58.0532169
   6.3823569  13.0821669  58.2240295   5.0843734  13.8224792  57.9828644
  69.0534639   2.3152640  33.1160259  69.0916634   1.3932775  32.8616381
  69.9393988   2.6432031  32.9617214  34.1991949  81.0611057  69.3997908
  33.8381481  81.9468403  69.3631744  34.9253035  81.1238956  70.0203180
  25.0740123  75.3415394  44.9972725  25.2049851  75.2816153  44.0509748
  24.7229528  76.2212849  45.1352453  27.7194691  62.7311802  62.2434950
  27.0419621  62.2205734  62.6867723  27.2640657  63.5128069  61.9306040
  21.5964723  64.2654896  29.2801833  20.9849167  63.5530949  29.0938520
  21.9875503  64.0314293  30.1219106  49.4371939  64.8186064   1.2902986
  49.1595840  64.5902252   2.1774328  49.7518921  63.9947271   0.9182487
  71.3046646  67.3347425  47.2546387  70.7392931  67.9572487  46.7973900
  72.1713829  67.7405882  47.2368860  52.7705860  57.5132275   7.4506295
  52.2099781  57.7928543   6.7269194  52.7005482  56.5585947   7.4528134
  87.3556995  83.8102245  29.1935611  86.8314552  83.4512901  28.4776306
  86.8315792  83.6494160  29.9782062  31.7176700  50.1894474  32.9274106
  32.4804497  50.3411674  33.4854245  31.5188551  51.0484266  32.5547767
  17.2226572  11.8363631   1.0963307  17.1113551  12.0734334   2.0170051
  17.7099752  12.5681210   0.7178045  39.4822359  57.9872322  51.8395996
  38.7566876  57.5822306  51.3644314  39.3167090  58.9276743  51.7732620
   8.7762803  61.0189486  48.4286928   8.1155795  60.7169390  49.0519857
   9.5806938  61.0812283  48.9437389  39.7152376  57.9329109  20.5592394
  39.8334956  57.7778625  19.6221137  40.4403734  58.5094976  20.7999921
  24.8461270  51.7021322  31.2550950  24.2542624  51.6863728  32.0072103
  24.2668200  51.6708708  30.4937410  59.4850445  65.2756834  14.2809260
  58.8378334  65.7155514  13.7296844  59.1241026  64.4004726  14.4222200
  45.7044601  71.9710398  46.0206032  45.9376335  71.6534185  46.8929434
  45.1411676  72.7275467  46.1838055  38.1160522   8.7420195  66.3625622
  38.0488753   7.9210317  66.8501043  37.8493285   9.4149941  66.9888163
  57.4315357   0.9855128  36.1220026  58.1124926   0.7349723  36.7463088
  56.8692923   1.5874684  36.6096139  42.0366955  44.0098763  26.4427114
  41.0800600  43.9772081  26.4461660  42.2649336  44.4316959  27.2710872
  31.4134789  60.6334066  63.2257748  31.5683937  61.0597801  62.3828983
  30.7702255  61.1920261  63.6621284  49.0353060   7.0277113  67.4899912
  49.2468548   6.1034352  67.3588753  48.1815863   7.1396750  67.0718241
  88.9350891  86.0592651   5.1078844  88.5479355  86.6651440   4.4760251
  89.5788574  85.5640316   4.6013916  70.6909084  57.8522205  29.4869542
  70.0525713  57.2873831  29.0513897  71.4423466  57.2824192  29.6509624
  46.1495638  37.8135014  24.5142531  46.4387655  38.3899236  25.2215958
  46.0848665  38.3861184  23.7499547  79.4654131  29.5746779  15.4440486
  79.3401289  29.2735815  14.5441175  79.3533945  30.5241227  15.3967369
  48.2692623  61.1770868  53.8405514  48.3031225  61.9127941  54.4519615
  48.1236982  61.5825367  52.9857683  41.7128992  81.3019848  54.3829775
  41.7888784  80.8882904  55.2428150  41.4817095  80.5853748  53.7919998
  85.7497501  56.2995148  32.8829312  86.6468334  56.3011122  32.5490499
  85.6156158  57.1877766  33.2134342  33.2151079  54.8195028  61.9914865
  32.5274992  54.2298079  61.6821575  33.2511520  54.6706200  62.9363489
  86.6858673  63.5582733  57.8549910  86.1639690  62.8318787  57.5140953
  86.2133884  64.3433189  57.5780487  47.2641563  74.0162659  51.0859442
  47.5804424  74.9167538  51.1588669  46.4548016  74.0869379  50.5797958
  51.1037207  53.9454031   4.3900833  50.5990267  53.8628960   5.1992232
  51.8082190  54.5555353   4.6083817  39.5336723  67.2651100  73.4611654
  39.9714923  66.4424133  73.6796045  40.1300669  67.9446268  73.7754822
  82.7434540  46.3858461  42.2976780  82.3436260  45.5161619  42.2928381
  82.8647327  46.5988541  41.3723898  39.8971605  47.4898148  40.1411152
  40.6448030  46.8923759  40.1592588  39.2887545  47.0932484  39.5175695
  28.5585523  84.0256119  17.2348261  28.0387044  84.5216942  16.6024542
  28.2539415  84.3327427  18.0887103  83.2204914  11.8673575  47.7661419
  83.8474369  11.9323075  48.4865189  82.6671505  11.1211205  47.9967451
  70.0405169  23.8068438  30.5213857  70.2894640  24.4692612  31.1659479
  70.5166197  23.0209231  30.7895088  75.9425020  72.3105240  51.4166260
  76.7391682  72.7177000  51.7568684  75.5796814  72.9603386  50.8146858
  21.2002158  85.9713554  58.2846785  21.7748809  86.6619110  58.6150122
  21.1317968  85.3496742  59.0092897  73.0154610  70.0933838  44.8960447
  72.3357773  69.9966955  45.5630636  72.8814459  69.3500710  44.3080330
  75.7258463  12.5965273  35.3041363  75.0906324  11.8817973  35.2606273
  76.2811279  12.4706304  34.5346904  38.5819268   8.3698517  69.4033003
  37.9120040   8.0056167  69.9818945  38.6859488   9.2748511  69.6972227
  80.4666901  75.7170773  68.5834599  80.5379200  76.6630125  68.4555435
  80.8063602  75.5684710  69.4659376  34.4935894  56.3433695  26.1988235
  33.7362051  56.5230227  25.6417561  34.9105048  55.5808401  25.7976246
  20.6165266  39.9116182  18.3400476  19.8725319  40.1277304  17.7779090
  21.1547112  39.3239927  17.8096843  53.3124971  36.9699144  60.0507736
  52.4227667  37.0712972  59.7126484  53.2418823  37.1882010  60.9800768
  57.6074982  58.2747078  26.9956923  57.6843691  59.2277956  27.0398402
  57.9519510  57.9675341  27.8342795  65.7100773  73.8911963  41.1688900
  65.5641031  73.8969374  42.1148777  66.6129589  74.1912699  41.0640383
  71.7850256  71.0025501  66.6168451  71.7054224  70.1320982  66.2267017
  72.7214098  71.1037350  66.7876673  32.6822209  67.1111155  28.1261539
  33.4939194  67.5985765  28.2667136  32.2557735  67.5611830  27.3968983
   9.3275553  77.9312515  28.7409019   9.5323884  78.8212109  29.0277004
   8.4163749  77.9767132  28.4512210  89.0792084  79.3655396  54.1104555
  89.9771309  79.0860271  53.9320326  88.5938740  78.5494232  54.2314386
  81.8198109   3.8418782  51.4961863  81.8485069   2.9458916  51.8317699
  81.0976315   3.8393232  50.8679533  28.1519723  74.0081835  38.7870240
  28.1156421  73.1338358  38.3991766  27.5481677  74.5299578  38.2584333
  68.2448292  10.8458114  45.4292822  68.2405424  11.0902560  44.5038319
  67.3566580  11.0359240  45.7313395  37.7257466  80.7276249  55.3774118
  37.9862690  79.8346663  55.1516294  38.5325503  81.1426067  55.6825256
  51.2831354   4.2747915  37.1798730  50.6331205   4.1251761  36.4933395
  50.9077883   3.8639998  37.9587150  45.3466368   5.2978867  53.3105421
  45.1439333   4.8892057  54.1520452  45.7183409   4.5902315  52.7839613
  28.2483959  32.6067162   4.2556146  28.6648560  32.6935792   3.3981484
  28.9422703  32.8153157   4.8811209  28.8761640  75.1181746  50.2666330
  28.2796955  74.9616909  50.9987354  29.0624142  74.2460728  49.9188137
  62.3873091  80.3838444  67.8640699  62.8710318  79.9357986  67.1701622
  63.0581284  80.8563328  68.3570051  59.3555498  85.8148670  40.1213026
  58.7861109  85.0483036  40.1872921  58.8192177  86.4744949  39.6814585
  31.1424351  83.2958031  10.2123034  31.7829943  82.6307011  10.4644036
  31.6586804  83.9705658   9.7713757  88.4405327  81.0638809  47.0193291
  89.2456341  81.3276386  46.5738249  88.4539986  81.5480614  47.8449297
  44.4974804  74.2052364  58.6288834  44.1998863  73.7609577  57.8349733
  44.1631603  75.0980616  58.5433435   5.3516251  61.0544109  60.8734941
   5.0942373  60.5670357  60.0909042   4.7062284  61.7581224  60.9404564
  26.7313266  60.0548840  48.7728405  26.3732076  59.1862583  48.5898829
  27.6739955  59.9587107  48.6373615  78.3080959   6.3284069  51.9516897
  78.8738394   6.6608596  52.6485682  77.7734375   7.0807022  51.6978645
  37.3194790  65.8714294  73.3688879  37.9480433  66.5480423  73.1172371
  37.8564596  65.1728392  73.7428665  20.2862787  30.0091624  21.3996983
  19.6551418  29.6113753  21.9994187  19.7791445  30.6614017  20.9163427
  79.1090679  81.7057228  57.2052574  79.2221594  82.6520443  57.1161890
  78.6147261  81.4492607  56.4267445  87.4088573  32.4686766  15.6990945
  87.6214790  31.7205286  16.2570369  86.4944553  32.3308730  15.4518735
  38.7420940  84.8285007  21.7520404  38.5712290  84.7156620  20.8169985
  39.4496250  85.4720688  21.7902756   5.6141424   1.5761271  10.9871328
   6.1780250   0.8416374  10.7446611   5.8257425   2.2603574  10.3520846
  45.7069826  73.7331772  66.3625813  45.4359865  73.9959669  65.4829597
  46.0961437  72.8666735  66.2444496  64.0459061  23.6926889  56.2811947
  64.8711920  23.2362700  56.4449549  63.4572554  23.3765149  56.9665813
  61.9908762  70.7610321  46.3599205  61.6871548  69.9509573  45.9503365
  62.7216101  70.4892826  46.9152689  34.6986842  63.8799381  37.1694851
  34.8758030  64.1994619  36.2847447  35.3768229  63.2230473  37.3271346
  64.4633389  76.9977140  53.1417847  64.1572428  76.7636156  52.2655821
  63.9202166  76.4759684  53.7325716  25.3171992  67.2096634  45.8561850
  26.0378289  67.8101015  46.0469532  25.2617478  67.1979713  44.9006653
  54.3274164  19.4064307  64.8398018  54.6074724  19.2080426  63.9462471
  53.6854076  18.7270641  65.0459909  54.9287558  55.6688833  11.2391818
  55.2788115  55.7193279  10.3497159  55.6729698  55.8826065  11.8019438
  77.2950506  24.7964096  37.3491049  77.6905870  25.4403853  37.9365396
  77.0811892  25.2925396  36.5589476  72.9647207  67.0765781  38.5418081
  72.4891520  67.2624779  37.7321744  73.8704109  67.3187017  38.3485746
  40.3672028   2.8833383  67.4272823  40.2127314   2.5230199  68.3005190
  41.2023020   3.3449838  67.5029516  90.9558868  20.1562405   7.7920634
  90.5592442  19.3417466   7.4830210  90.2128792  20.7011700   8.0513316
  67.0769024  77.3567629  51.7470026  66.1247396  77.4072266  51.6628790
  67.2760248  77.8729439  52.5281191  64.3098640  85.0845146  51.7114973
  64.0595436  84.1631508  51.6431761  65.2003860  85.1173115  51.3620329
  48.0596256  54.2006874  53.2917976  48.2824183  54.2461157  54.2216015
  48.8103199  53.7665462  52.8865671   5.8834416  69.0700293  64.8848724
   6.4735544  68.8088083  64.1779327   6.1296874  69.9740505  65.0806808
  80.2263832  19.9099314  62.3278666  79.9102068  20.0461173  61.4347172
  79.4611788  20.0707746  62.8799677  77.7123928   3.2789093  13.0276763
  77.2495508   4.0764648  12.7709424  77.5437689   2.6638305  12.3139024
  30.5513215  73.8308382  16.2069821  30.2179384  74.3677473  16.9258833
  30.8969474  73.0468988  16.6338420   2.6370311  29.6792221  27.5876617
   2.8553364  29.1207671  26.8415356   3.3474514  30.3197384  27.6233792
  14.4867313   2.5756377   3.4751636  13.9077616   2.5598496   2.7130759
  14.5196092   1.6655293   3.7698725  26.2310219  42.0750141   4.7134548
  27.1007586  41.6759682   4.6898267  25.8621001  41.8966722   3.8483989
  18.7892711  20.0408125  37.9361653  18.1062424  19.5693088  37.4593139
  19.5288181  19.4335079  37.9581332  40.5040359  53.7506819  29.3276358
  39.7884202  53.1153250  29.3488097  40.0681973  54.6001196  29.2588234
   9.9029112   2.2377841  66.7941952   8.9829111   1.9773695  66.8391037
   9.9079472   3.1502351  67.0833969  81.6844749  10.4768860  37.0421410
  80.7447910  10.5068076  36.8623447  82.0920277  10.8099532  36.2426424
  90.8948231   6.0810822  21.1138654  91.2372589   6.1656171  20.2240181
  91.4596081   5.4278141  21.5267825   1.7266867   4.8039952  45.1965666
   2.2756332   4.0199378  45.1845884   0.9631137   4.5538467  45.7167721
  30.8574986  62.1895933  14.6187627  30.4456306  61.6491413  13.9445901
  30.4634619  61.8914366  15.4385638  28.0830216  12.1953225   7.5055122
  28.2817602  11.4702296   8.0979443  27.4100995  12.7001727   7.9621685
  75.8983994  14.6004891  22.0227361  75.8849859  14.0483749  22.8045416
  75.4341173  14.0888774  21.3602209  88.6066532  59.6530771  42.6465988
  88.9935207  59.8244429  41.7879963  89.3575001  59.5459700  43.2305479
  75.7052708   5.1057982  51.8827200  76.6540813   5.0837797  52.0072174
  75.3949976   5.7494420  52.5196552  60.4407406  75.3773069  46.4105272
  60.7502747  74.5207024  46.1161709  60.4572344  75.3225708  47.3660231
  46.5574026  46.9101572  54.8127031  45.8417273  46.2766409  54.8646641
  47.3517513  46.3765860  54.8359776  76.8638039  72.6934862  11.7823160
  77.0553064  73.3523607  12.4497318  76.3929462  72.0056868  12.2529101
  76.2025738   0.2283622  42.9180908  76.2522650  -0.0127911  43.8430834
  75.8760405   1.1281344  42.9223585  80.9318256  64.2582941  53.3937693
  80.4347420  64.7469234  54.0498066  80.3576088  64.2326021  52.6283598
  90.2218628  72.6192904   2.2392358  90.9912777  72.0602655   2.1309593
  89.9870396  72.5273561   3.1626201  83.4571362  66.6037703  50.0320053
  82.8152752  66.1849737  49.4585371  83.8991165  65.8756924  50.4687977
  54.1604900   9.4593805  47.9938221  53.7528658   8.6764270  47.6236057
  54.3591738  10.0076628  47.2347832  67.4683285  80.1238537  63.7164783
  67.7047014  79.2362595  63.9857864  68.0297518  80.3027821  62.9621458
   8.1939429   5.4381084   5.7734811   7.8768086   6.2444264   5.3666532
   8.1769848   5.6210816   6.7128778  36.2141657  53.4632158  31.5039182
  36.0309529  53.5296488  32.4410701  36.4679360  52.5495100  31.3736629
  42.8563356  79.9686098  59.9720192  42.2486448  80.7078457  59.9937820
  43.1840706  79.9014902  60.8688593  81.0665798  76.9306469  48.3575773
  80.3520298  77.3688984  48.8197327  81.8584728  77.3663139  48.6727381
  26.4547753  85.8428383  65.4490423  27.0335484  85.2331352  64.9913216
  26.5508842  85.6157589  66.3739395  81.5646744  11.9882035  42.0239925
  81.1783218  11.9377768  41.1496830  81.3012123  11.1723566  42.4496889
  41.3249063  32.3568201   1.8507996  40.5707407  32.8740811   2.1334743
  42.0402861  32.9898787   1.7899404  16.6073978   2.3704270  35.0386620
  15.6622326   2.2195077  35.0277400  16.9426966   1.8420549  34.3143487
  56.7556906  81.1215401  47.2098970  55.9303570  80.8221245  46.8285751
  56.6587114  82.0715904  47.2750473  33.3280969  70.3955126  56.0111427
  33.4719968  70.6068134  55.0887156  32.3919106  70.2049255  56.0699797
  59.8664713  82.1607685  30.1092601  59.0268087  82.6178741  30.1567411
  59.9306011  81.8715668  29.1990495  79.3829632   1.0292386  30.9694290
  79.8891926   1.4343880  31.6735697  79.1114950   1.7624053  30.4171586
  79.5398426  61.8291378  43.6218500  79.4558287  61.1384583  44.2792225
  80.1741600  61.4852619  42.9928684  12.4663711  22.3162270  48.1155300
  13.0886686  21.7582154  48.5820055  12.2858012  23.0335593  48.7230349
  64.7183657  20.9783554  23.3254480  64.5949078  21.4674401  22.5119472
  64.5950317  21.6286349  24.0169382  45.8513451   6.0339689  68.5469866
  45.3614473   5.8421355  67.7473402  46.3448334   5.2330053  68.7235069
  46.4889956  67.2543001  26.7886162  45.6886768  66.8688345  26.4320493
  47.1970940  66.7533922  26.3837528  20.6788206  63.1447506  49.3983269
  21.1314440  62.3053789  49.4808674  20.8093953  63.5715675  50.2450943
  41.1039209  73.7212610  67.6503277  41.7393970  73.2904053  68.2219601
  41.1942768  74.6528244  67.8509665  30.7233453  73.8590908  21.0223770
  29.8154259  74.1620255  21.0345292  30.7044506  73.0672169  20.4849625
  91.0612005  80.7989597  16.8759966  91.1032204  79.9337149  16.4687967
  91.3748080  81.3980103  16.1984801  67.8557014  67.1662569  58.1641245
  67.1430016  67.7829313  57.9967594  67.6533508  66.7935181  59.0222311
  37.8738618  78.6680222  15.6732106  38.2326484  79.3339586  16.2597525
  38.6412001  78.1988287  15.3456712  51.9847631  67.7661180  22.9476881
  51.8165112  67.6384163  22.0140839  51.2980032  67.2634459  23.3857751
  21.6922259   1.9155779  38.6261630  20.8987403   2.1761727  39.0938187
  21.5315199   1.0076259  38.3692002  54.1645050   8.9745879  53.2738972
  54.5509005   8.5524440  52.5066137  53.2356930   8.7474179  53.2299376
  22.4923277  64.8600483  57.6334095  21.8581104  65.4123116  57.1762371
  23.1345558  64.6273613  56.9628668  67.3439503  70.6707048  60.7359123
  67.3249292  69.8074055  60.3228903  66.5150881  70.7270718  61.2113428
  47.2536039  56.2842560  51.0946655  47.3958111  55.8217573  51.9205618
  46.9744396  57.1616173  51.3564587  85.1458931  39.8447180  50.9365892
  85.8602047  39.5821452  50.3560257  85.3471947  40.7511377  51.1692095
  27.3016286  67.2075415  25.2673388  27.7644110  67.0700026  26.0938644
  27.9967380  67.3416138  24.6230721  73.6320925   4.7152421  67.7089024
  73.2159328   5.5347520  67.9761934  73.5049868   4.6801633  66.7608261
  71.6197872   3.8206255  39.9158072  71.0139799   4.0076971  39.1987062
  71.4466715   4.5064807  40.5606842  49.1841936  64.8083544  46.2317991
  49.1736507  64.1063452  45.5811787  48.9199257  64.3829012  47.0475101
  15.8961463  75.0222397  43.6479139  16.5620518  75.5488157  44.0900946
  16.0892236  75.1251936  42.7160597  80.2150917  33.1797075  45.3272247
  80.1459122  32.7923441  44.4546461  80.2113628  32.4304342  45.9228849
  48.8458061  46.1397648  53.4846020  48.6445808  45.8118677  52.6081181
  48.6914587  47.0827913  53.4288120  33.2007837  42.4556923   0.4708035
  33.1714082  42.2066641   1.3945740  34.0505910  42.8833008   0.3649231
  44.5641279  48.9293385  48.5125971  44.3430090  48.8362789  49.4392490
  45.3344679  48.3738565  48.3932257  64.7140694  82.3498821  24.6668053
  64.5675039  82.6723862  23.7775683  65.2810001  83.0075359  25.0696898
  15.8467019  68.9671183  37.8371382  15.9564579  69.6259785  38.5227680
  16.7300367  68.6319780  37.6834035  54.8440933   1.7209645  16.1462069
  55.6507540   1.8792725  16.6365802  54.2391539   1.3555500  16.7917717
  47.8020287  67.5954485  30.0811410  47.6085758  68.3162832  29.4817996
  48.5574722  67.1557570  29.6910000  31.5149641  13.2307744   7.5767940
  30.7238317  12.9133630   7.1413732  31.4657235  14.1834784   7.4982852
  84.0408134  57.3745775  52.5963926  83.9752769  56.5177441  53.0180216
  84.5275211  57.9122972  53.2210588  38.7761116  82.3090267  38.5360122
  39.0558386  82.5781250  37.6610422  37.8446794  82.5273800  38.5674119
   0.6704900  79.7601509  31.8128538   1.5274373  79.3609715  31.6627574
   0.1892231  79.6070528  30.9997272  42.9040480  69.3003511  40.9643936
  43.5195255  69.3211460  40.2315950  42.0449114  69.2062378  40.5529881
  19.3681443   7.0353550  51.1557770  20.0275922   6.7911768  50.5063677
  19.5950949   7.9320407  51.4021111  82.8931904  74.7928572  46.8407154
  82.4218750  74.0738535  47.2615814  83.6454678  74.3738794  46.4226580
  32.0295429  35.2500606   3.6421281  31.4774561  35.8095622   3.0958796
  32.9245567  35.4776525   3.3903643  33.4567451  60.6048441  66.7610025
  33.3038282  60.2789831  65.8740664  32.5905514  60.8676004  67.0722961
  20.0634074   6.4070684  55.4516983  19.3025935   5.9662408  55.0734568
  20.7043576   5.7083571  55.5829048  74.6880102  74.4116402  27.2469306
  75.0065517  74.9549198  26.5260911  75.2034855  74.6912098  28.0034733
  35.4773235  59.1158009  61.7288494  34.5439339  58.9045906  61.7086554
  35.5055881  60.0708342  61.7866325  50.4590464  59.3253994  45.3263521
  50.6168556  59.0870762  46.2398767  50.7219315  58.5515404  44.8280907
  38.8438869  41.9441700  38.1061101  39.6989298  42.3695421  38.0413723
  38.4155846  42.3784113  38.8438272  62.7251625  21.4440370  47.1077681
  63.0321550  20.5694962  46.8686724  63.4900427  21.8684149  47.4964666
  38.6312604  78.5103655  65.2345991  39.1807508  79.1347265  65.7083750
  37.8207994  78.4711313  65.7423830  24.6728086  66.3110685  48.6686945
  25.3348184  66.6134262  48.0469561  25.0522351  65.5234146  49.0583992
  80.7874870  67.5172758  17.7187240  80.4435444  68.3550072  18.0288005
  81.1505508  67.1029329  18.5014975  41.7953730  72.0536900  38.9425492
  41.8898773  72.1955681  38.0006504  41.1595583  72.7126312  39.2214155
  43.0962849  48.1198597  33.8108349  42.8818083  47.7427149  34.6640611
  43.8402271  48.6967039  33.9841199  82.3436356  56.1678028  43.3292198
  81.7138386  56.3647461  44.0226221  81.8927956  56.4099932  42.5203228
  64.6657801  59.4016743  63.6903048  64.2563057  59.9976730  64.3174791
  65.3302431  58.9376020  64.1995859  88.5390186  52.7752161   8.2647705
  87.8615093  52.0992565   8.2476991  88.1747341  53.4655094   8.8188636
  90.9547520  74.3012953  64.4117832  90.0305080  74.3290091  64.6592331
  91.2883472  75.1705456  64.6339273  14.6996284  84.5873642  57.6931238
  14.8810601  84.9948215  58.5400534  15.5576289  84.5098305  57.2759247
  43.6520720  35.8944392   7.2900468  43.9017677  35.0677872   7.7030027
  43.0254412  35.6434703   6.6113859  17.3478651  85.2334785  59.0386438
  17.4690175  86.0979080  58.6458158  16.7864573  85.3918362  59.7975731
  49.0893984  53.6414242  60.3168201  48.9983940  53.9394093  61.2218904
  48.2372522  53.8199377  59.9190569  47.2686052  61.3166237  46.7398691
  47.1566963  62.0770836  47.3103142  47.1736002  60.5636311  47.3231459
  46.5597010  80.0229836  28.7177134  45.9494448  80.7439518  28.5627007
  47.3386431  80.2556801  28.2124066  38.2619691  54.6855688  37.8023958
  37.9750800  54.9976158  38.6606216  38.4007716  53.7462234  37.9232049
  19.1058874  35.1801658  66.2004852  19.0162075  35.0184989  67.1396637
  19.5430100  36.0298753  66.1443806  63.9843893  40.5051184  68.0421209
  64.7850561  40.1641893  68.4407854  64.0429401  41.4531946  68.1602335
  81.5902233  79.2764235  51.3341951  81.4834595  78.8276768  52.1729231
  80.8108807  79.0361404  50.8330822  21.2712693  10.3706086  61.1479998
  21.6109920   9.8384047  60.4285717  20.3818536  10.5989492  60.8777618
  14.1753650  66.3031244  43.0562735  14.5833886  66.2414646  43.9199543
  13.2604122  66.0651112  43.2060766  45.8129311  43.8888073  70.5139065
  46.5231752  43.5371923  71.0507059  45.2712822  43.1277561  70.3049803
  59.1971111  55.2050114  19.3427980  59.9205256  55.2495527  19.9680328
  58.8124180  54.3397808  19.4828618  51.2919426  69.6977043  62.8725767
  50.6561661  69.0607166  62.5465918  52.0824766  69.1839552  63.0379438
  68.6694527  57.1959400  67.2917700  67.8758669  57.2934341  67.8180313
  68.9207649  56.2792778  67.4049187   7.8600407   2.1667717  56.4790201
   7.3505217   2.9705513  56.5817833   8.6964273   2.3574382  56.9036770
   2.9677275  80.0626659  58.3061361   2.2855204  79.9630070  58.9701366
   2.6870126  80.8151627  57.7853918  45.8307219  84.0806103  19.6537864
  46.5066051  84.3072987  20.2925539  46.2710810  83.4968567  19.0360904
  47.2110128  77.7949476  54.4234037  47.2018862  77.0402622  55.0121307
  46.4238882  78.2882977  54.6542120  30.6108069  46.3601780  23.9195895
  31.3344240  46.9727945  24.0511632  30.9940767  45.6410980  23.4173346
  27.8233480  66.1718559  59.2089272  27.3558712  66.4929008  59.9800491
  27.2409773  65.5114365  58.8335276   2.4036004  85.5661488  49.0406609
   2.7998483  86.3170147  49.4827175   3.1236094  85.1696301  48.5501575
  74.8453188  11.3102627   8.2823193  74.6289015  12.0930111   8.7889755
  74.0524530  10.7751608   8.3178484  31.2927818  78.7360907  55.6075764
  30.9958792  78.2087660  54.8659515  30.7831144  78.4129000  56.3505554
  49.7696733  75.7068348  21.3607502  49.0769958  76.1996460  21.8007135
  50.5626583  76.2211561  21.5120316   0.4978288  20.9192204  42.1182346
  -0.3746783  20.7718134  42.4832630   0.5644334  21.8703270  42.0334578
  38.8290572   0.9461959  63.9890909  38.7281203   1.7435232  64.5090103
  38.6845803   1.2291517  63.0861568  40.5449295  52.5402546  50.8465719
  39.8823357  52.1116638  51.3883400  40.6519175  51.9584942  50.0940180
  61.4043999  14.0777409  74.2236614  60.8442736  14.8446035  74.1036177
  61.4690161  13.9745963  75.1730919  56.9802761  42.1768475  18.5920501
  56.4933729  41.3527870  18.6013579  57.2753716  42.2704649  17.6862979
   2.5899759  13.5614955  33.7941074   3.2509169  13.2753646  33.1636167
   3.0827269  14.0531290  34.4511652  47.6212978  73.7234735  57.0705557
  47.4477816  73.2614136  56.2504148  47.2721767  73.1459141  57.7493525
  12.6846194  75.9993172  35.3335023  13.4819925  75.4858685  35.2039003
  12.1718991  75.4909658  35.9619355  27.4712396  62.3185730  53.9884090
  26.5997767  62.7075529  54.0624237  27.4040580  61.7202759  53.2442570
  14.5739269  68.9156485  62.6199579  13.8928497  68.2670021  62.4421310
  15.1859176  68.8268042  61.8893385   3.2793749  21.4589728  74.6361829
   3.8892521  21.4916457  73.8991505   2.8395237  20.6136359  74.5458043
   7.0001221   8.2577610  22.7401590   6.6941524   7.3702407  22.5532842
   7.4187809   8.1910443  23.5983562  40.3888130  52.2666693  41.5379095
  39.7854829  53.0088520  41.5006256  39.8812318  51.5282393  41.2012815
  56.4462566  56.4850283  37.6535821  56.6864634  57.1428108  38.3061552
  55.6497622  56.8287325  37.2489953  44.6314001  46.5458202  72.0508337
  44.1180897  46.2373590  71.3041067  44.4368744  45.9212160  72.7495909
  16.4620209   7.0531821  65.0825071  15.8017588   7.6864034  65.3641415
  16.0284925   6.5435261  64.3980074  15.8649921  69.6131659  13.0622220
  16.1604285  68.7313652  12.8355682  15.0450802  69.4764566  13.5368645
  39.9548411  17.9692531   8.1116992  40.1417208  17.0404291   8.2480609
  38.9991641  18.0226481   8.1038618   1.8143341  33.8495088  11.8978441
   1.8913409  34.2644644  12.7569807   2.6153028  34.1007161  11.4378703
  38.1581998  59.5011425  48.5251379  38.2367134  60.4527473  48.5923147
  37.4220181  59.2806768  49.0958071  15.6999230  21.1541009  54.4154072
  16.4456344  20.5747819  54.5720482  14.9590087  20.7066345  54.8241282
  35.2713633  61.9674587  59.5771885  35.4497409  62.0880604  60.5098534
  35.1332116  62.8537989  59.2431879  71.9103432  20.0685239  21.3766074
  72.5217533  20.6231856  21.8611264  71.1903715  19.9144995  21.9882822
  82.7864456  30.8006597  45.9580517  82.4627686  30.9595394  46.8447495
  82.0133305  30.5221224  45.4671955  40.2695465  59.5428324  36.0698628
  40.2179956  60.1958847  36.7677879  41.0992098  59.7276545  35.6297183
  12.1670282  10.7835281  23.3649135  11.3787878  10.5650842  23.8620973
  12.8831112  10.6725752  23.9903307  51.8880749  70.9166384  44.1572380
  50.9390402  71.0411310  44.1652775  52.0720863  70.5332088  43.2997131
  43.9597225   2.2433472  25.4623151  44.1407013   3.0586213  25.9300828
  44.7014523   2.1394700  24.8662663  90.8138847  33.7698555  58.8053799
  91.1600399  32.8826499  58.9016724  91.2352657  34.2686367  59.5053005
   2.7813524  10.6785202  31.7959213   2.4731500  10.5280900  30.9022713
   3.3555034  11.4412153  31.7260671  83.8058949  18.1290710  64.6314669
  83.7838745  18.5749519  65.4781866  83.6173439  18.8172328  63.9934111
  81.7266273  68.5919523  31.6170931  82.3518848  69.2197800  31.9791794
  81.3084316  68.2008791  32.3841715  90.7198429  80.4587364  65.2339935
  91.2841034  79.7857618  65.6147242  90.5793571  81.0839081  65.9450817
  41.4099646  39.8039603   5.6736988  42.0554066  39.1037679   5.5769324
  41.1895132  39.7994447   6.6051561  68.1083202  70.3185272  16.7491400
  67.3766041  70.0250292  17.2919869  68.0625391  69.7679901  15.9674478
  32.8544235   3.4375554  64.5003653  32.9068875   4.2148566  63.9442301
  32.6742554   2.7201232  63.8928604  83.2086754  45.7564592  33.1126237
  82.9474831  46.6484976  32.8839731  83.3971691  45.7949877  34.0502882
   7.9280049   2.2813714  71.8638706   7.0613205   1.8775326  71.8191004
   8.0402231   2.7027127  71.0117483  66.4834118   7.2278684  50.1128197
  66.0443497   6.4752507  49.7165632  67.0066690   7.6007801  49.4033337
  78.1241131  20.7947159  32.6822233  78.3781862  19.9991965  32.2144365
  77.1756268  20.8487630  32.5652456  44.1830158  79.4383049  38.3617854
  44.8441458  78.7531328  38.2633805  44.1152239  79.5717096  39.3072152
  73.9740610   1.7875350  28.8133407  74.3130589   2.2814064  29.5599341
  73.6431360   0.9742510  29.1945124  52.6405096  64.5957804  61.4094162
  52.1766090  64.0385580  62.0343399  53.5670853  64.4492149  61.5996981
   1.2917489  13.2738435  56.0109186   0.8690803  12.9840469  55.2024651
   2.2265629  13.1417215  55.8531284   3.4779915  38.9934850   4.5260945
   2.7983648  39.6386647   4.7212443   3.3264822  38.7551832   3.6114967
  26.7558885  82.8648663  58.1744623  26.0761666  83.2705784  58.7126160
  26.2869525  82.5251007  57.4123001  88.2427597  41.5538549  50.0904655
  87.8552723  40.7519531  49.7396994  87.5285149  41.9761181  50.5677271
  46.8269348  46.6812229   1.3973582  47.1661949  47.0287180   0.5725056
  47.6067734  46.5230131   1.9293907  10.4298174  18.5783720  50.8283377
   9.5463210  18.2869720  50.6030560  10.7704508  17.8903711  51.4000511
  85.9609795  13.5124505  54.5434141  85.8968925  14.4431639  54.3291807
  86.8863869  13.3767068  54.7469854  76.4475489  21.4359736  45.6694937
  76.5655994  21.6692948  44.7487020  77.0703268  20.7244110  45.8180141
  26.4679670  75.8130264  22.4380779  25.9026766  75.0657892  22.6337981
  26.4502931  76.3420963  23.2355785  56.5782452  71.5918493  52.0896339
  56.8151236  72.2065830  52.7840519  57.4074268  71.3881445  51.6569710
  70.9654617  75.5428791  59.0244150  70.9839964  75.1669359  59.9045038
  70.7229042  76.4588165  59.1602850  28.5461140   3.2468155  41.0644865
  28.5528135   2.2906622  41.1087370  28.4257627   3.4427434  40.1353168
  10.0126863   2.6127738  35.6619668  10.7961607   2.8016272  35.1455045
  10.3467906   2.3864037  36.5299320  21.1731148   3.3508280  62.2230339
  20.3014684   3.5881686  62.5394678  21.4578748   2.6495019  62.8089380
  56.8230724  76.5374660  34.5595098  55.9396076  76.1704445  34.5914698
  57.2846508  76.1140680  35.2833271  58.1734037  44.4269896   2.5216341
  58.1071520  43.6450005   1.9736049  57.5436115  44.2791033   3.2271305
  20.9956169  13.1993365  43.6139154  20.5356145  13.9845181  43.9107609
  21.3052893  12.7844048  44.4190025  72.4951696  33.4204960   3.8183078
  72.0644760  32.5739241   3.9368594  73.0469847  33.3023000   3.0451572
  49.6198225  82.1095943  29.7821736  49.5374012  81.2915516  30.2723265
  49.2471695  82.7744007  30.3613067  46.4046049  84.0228462  15.0937986
  45.4542398  84.0710354  14.9902618  46.6775846  84.9308681  15.2250087
  44.6719599  59.2110968  63.4840345  44.6087790  58.4288263  64.0320253
  43.8139105  59.6281099  63.5620308  87.2204208  36.5242004  22.3194647
  88.1248474  36.4091706  22.6110220  87.2953987  36.7690921  21.3971639
  54.6053362  76.3717031  57.6402235  54.2191982  75.8464384  58.3411026
  55.4842567  76.5825033  57.9553270  51.6934395   3.8116693  64.5739841
  52.3657799   4.1346052  65.1739073  51.4059782   4.5892239  64.0954399
  64.2833233  55.7115889  52.4218130  64.0320396  55.9037113  51.5183878
  63.4529448  55.5702925  52.8764963  51.9150591  77.8091669  21.2744141
  51.5350533  78.6428452  21.5515542  51.8224382  77.8086567  20.3217053
  31.8753242   8.5214937  35.3564119  31.5601897   7.6259679  35.2341175
  31.1239362   8.9927572  35.7163572  19.2613983  24.9864411  56.8060160
  18.6204588  24.8070550  56.1180830  18.8442087  24.6748948  57.6092100
   1.2232372  36.2361169  41.6472912   0.6492005  35.5616927  41.2841558
   2.1062112  35.8826852  41.5392447  23.1673408  46.8619776  40.0605392
  23.4636998  47.4791479  40.7294941  22.3425555  47.2300911  39.7435951
  18.4921706  15.1450539  47.0626545  17.9641080  15.1002645  46.2655497
  17.8549457  15.0955296  47.7752018  69.0276957  37.5579429  36.5259576
  68.6260176  38.3454990  36.1590219  69.1121340  36.9628263  35.7810163
  39.1353345  70.2868319   5.3052956  39.8852611  69.8542929   5.7136428
  39.4142461  71.1957550   5.1944137  66.8717575  58.6160326  65.3955793
  67.5221443  58.3103180  66.0278511  66.7818165  57.8923416  64.7755718
  66.8518639  11.9821894  25.1738071  67.3118496  11.2974656  25.6593966
  66.4570904  11.5251529  24.4311738  83.8789368  17.6542044  56.0825872
  84.8200417  17.8152955  56.1505127  83.6177349  17.3855793  56.9634104
  67.7976894  15.8813691  56.0758781  68.2294083  16.1667836  55.2706528
  67.6571417  14.9426174  55.9525013  32.8968215  85.4279327  18.8196504
  32.9768085  84.5022392  18.5895860  32.0404553  85.4967022  19.2417145
  43.1160116  59.5382357  68.5884237  42.1720982  59.5435715  68.7472677
  43.4127998  58.6976051  68.9369869  53.1201077  71.2522173   9.6642441
  53.7198400  71.1298275   8.9283258  52.7802229  70.3757524   9.8445553
  12.4110425  27.2997069  11.3509560  12.0775616  27.6434064  12.1797454
  12.3939383  28.0496931  10.7564330  77.2850275  16.0605538  30.1778769
  76.4114761  16.4459264  30.2458882  77.4669504  16.0438442  29.2382717
  48.8692665  77.4931335  44.5052099  49.2666292  77.3529720  45.3646803
  48.0150080  77.8802633  44.6965504  73.6082220  79.1551876  34.5398235
  74.3842125  79.6219254  34.8500228  73.8629627  78.8088369  33.6846161
  54.4554758  68.6681080  34.4760609  54.3999338  67.7125263  34.4796371
  54.8621988  68.8812399  33.6361909  50.8492613  78.4409809  39.5830870
  50.3744030  77.7665091  40.0687122  50.4426670  79.2635012  39.8557878
   1.9979222  34.0994143  30.5456614   2.0798717  33.4912515  29.8110509
   1.4585109  33.6326861  31.1839652  45.9025240  71.9094372  43.4008026
  45.8414173  72.0542431  44.3450117  45.0267506  71.6191864  43.1458330
  56.0737753  61.2879562  43.5649014  55.3373194  61.8725634  43.3857298
  56.4080429  61.0516977  42.6996374  44.9380159  19.5437837   3.7233451
  44.4611025  20.3711581   3.7884057  45.7473278  19.7692633   3.2646400
  13.8658750  66.2370729  25.7226825  14.4170177  65.8444405  25.0456929
  13.7039590  67.1281099  25.4127383  74.2007446  45.9449720  49.3895006
  74.3690825  46.7377329  48.8801622  73.2662487  45.9848785  49.5928669
  90.2638245  78.3908415  50.3369713  90.0054455  77.7485371  50.9979630
  91.1913204  78.2134771  50.1803350  67.0708609  71.9295549   0.9546997
  67.3629522  71.0379314   0.7651632  66.4138222  72.1141148   0.2835267
   5.4742992  79.8233128  59.6848297   4.7034422  79.9921036  59.1430569
   5.5920714  78.8742304  59.6447325  74.1374922   1.4156140  67.1398354
  73.4772539   2.1064237  67.1955299  73.6323929   0.6096583  67.0323992
   5.2320641  28.7028170  48.0553293   5.0813729  28.0119085  47.4102163
   4.4826755  28.6446929  48.6480141  52.0457888  19.0622556   8.1578332
  51.8055058  18.1540596   8.3413476  51.5059185  19.5784760   8.7564027
  49.8976803  72.1652937  42.1445847  50.4539108  72.8158283  41.7160463
  50.1567888  71.3320875  41.7510605  78.9067173  21.2890410  20.6190777
  79.8109436  21.0566258  20.4079270  78.7509251  22.1035933  20.1410961
  75.6202221  35.3080654  41.0823584  74.8069429  35.7289648  41.3610315
  75.7350063  34.5804548  41.6936207  78.3246613  18.8852620   9.8534924
  77.9291391  19.1346264  10.6887245  77.7032232  19.1919041   9.1931754
  84.0602970  82.5170326  15.7504296  83.5269451  82.6491547  16.5342093
  84.9578285  82.4603653  16.0782349   4.0482453   1.3643835  19.5831776
   4.3499810   1.9598441  20.2691913   4.6213952   1.5467939  18.8385582
  22.5330901  21.7403817  49.1971731  22.1466494  21.2818503  48.4510899
  22.4846077  22.6665568  48.9603615  70.8627558  69.3079281  59.8430204
  70.6092119  69.6891880  60.6836081  70.4415941  69.8666620  59.1898251
  76.1372852  70.7979059  54.9074411  76.7322826  70.3048229  55.4723120
  75.4376030  71.0886526  55.4923725  25.5998230   1.6320597  26.6266227
  25.4469967   1.0121769  27.3398018  24.7480798   2.0436077  26.4803529
   0.8231327  13.9400923  25.7716084   0.7312334  13.6174452  24.8751235
   0.6813668  13.1682336  26.3196683  22.4700809   4.2388371  33.5556459
  22.8427553   3.6022204  34.1656184  23.2265234   4.7189260  33.2186890
  90.1184273   9.9448907  27.9897833  90.6170654  10.6946468  28.3145189
  89.4059467   9.8398578  28.6203218  43.8579464  83.2972240   5.4655021
  43.9708710  83.1120014   4.5332077  43.9861727  84.2429447   5.5390537
  51.9949532  39.2237639   5.4229653  51.9859457  39.8894143   6.1107594
  52.1215963  38.3980989   5.8903766  74.8284578  65.3280020  55.1186943
  74.6644974  66.1648369  55.5535030  75.6661558  65.0327682  55.4755163
  61.8938208  44.8442793  13.9824688  61.3347578  45.2133083  14.6662045
  62.7815008  44.9188280  14.3327498  67.1737480  78.7612247  68.3551979
  67.4489880  79.3547964  69.0538740  66.7049694  78.0599022  68.8075542
  42.1005297  64.6867704  22.9223299  43.0505848  64.5700788  22.9197311
  41.9384527  65.3468466  22.2483397  60.7135296  15.1710880  39.6239710
  60.9654665  15.8534718  39.0017891  61.2085247  15.3756881  40.4172850
  32.9107237  80.4374981  54.3979979  32.5881577  80.0651836  53.5772848
  32.2618079  80.1756954  55.0511456  16.1383116  68.7675619  64.9927330
  15.5023921  68.9412260  64.2987013  16.3344204  67.8343391  64.9098635
  17.8522193  24.4284105  46.2432432  18.5570216  23.7810087  46.2242937
  17.0797932  23.9504576  45.9413338  81.9579124  63.0669785  26.9572115
  81.5246677  63.4954643  27.6954055  82.8903961  63.2296228  27.0995069
  15.6800950  11.7160976  49.3004131  14.8396242  11.2797499  49.4398499
  16.1528075  11.5940893  50.1237535  11.9528568  43.3364868  49.3275499
  11.0067916  43.2563019  49.4490528  12.0520711  44.0184593  48.6632442
  54.8753786  76.9150543  52.8474188  55.6991005  77.2517586  52.4947882
  54.2828274  76.8967295  52.0959044   1.1996585   0.0062516  60.0334644
   1.7176312   0.0984042  60.8331203   1.7992932   0.2542266  59.3297768
  22.4525976  73.5034323  45.7269049  22.7586031  74.3508530  45.4036808
  22.6865625  72.8845644  45.0351715  75.3986168  13.2011569  55.4104948
  75.5085230  12.9965162  54.4819117  76.0357618  13.8951242  55.5798674
  58.3622599  67.6514101  61.4994144  57.6929522  67.5908184  62.1810198
  58.9650059  66.9329405  61.6910696  14.3445897  20.5171180  29.1098237
  14.8303652  20.1007485  29.8217845  14.9288762  21.2052846  28.7916017
  37.5641680  36.1268616   5.6380564  38.3671117  35.8209085   5.2162641
  37.3370862  36.9289064   5.1675367  66.5666246  42.4498987  55.1614809
  65.6622505  42.1428156  55.2250719  66.8924189  42.4232912  56.0611391
  35.5095673  73.7584686  29.6776605  35.7092690  74.1283607  30.5376220
  35.5213594  72.8113508  29.8157096   3.9042476  18.7205839   1.5792675
   3.6856487  19.3337786   0.8775279   4.6912864  18.2725596   1.2693070
   9.4619185   8.0533791  43.9764738   9.4662714   7.1225226  43.7534952
  10.1127350   8.4426266  43.3923912  16.7041445   6.4019048  36.1245799
  16.9074416   7.0231527  36.8238306  17.4986339   6.3729030  35.5914950
  18.6817026  67.2523594  47.4709988  18.6089885  67.5765705  46.5733194
  18.3136094  66.3694048  47.4373102  48.2716131  79.0404081  64.5470858
  47.7624178  78.4424591  65.0942707  49.0810680  78.5644913  64.3612957
  27.9964495   5.6758034  44.1439581  27.7387524   6.5839970  43.9858150
  27.1845388   5.1771003  44.0527010  44.1278076  68.2553101  64.9377537
  43.6893892  67.6314116  65.5163479  45.0359297  68.2650852  65.2401686
  30.3183556  79.9815035  34.3912959  29.9956083  79.0907526  34.2548156
  29.6670103  80.5399227  33.9668489  55.2437878  82.8136063  43.1283140
  55.0559998  82.9487705  44.0571308  56.1463976  83.1133842  43.0203485
  71.7687178  65.5569315  23.6478257  72.7078247  65.4440498  23.7946916
  71.4512253  64.6778584  23.4412837  41.8427134  85.9891987  29.8671389
  41.1387491  85.8155823  30.4920506  42.5436878  85.3898716  30.1234055
  83.7324905  16.0973680  51.6279507  83.2911110  15.4196632  52.1399450
  83.0638790  16.7688429  51.4925957  15.7799184  66.8473482  12.6349819
  16.3599706  66.6487789  11.8999028  15.2067471  66.0835695  12.7009010
  83.5196877   2.6263976  72.9508591  83.1726265   3.4559780  72.6228666
  83.3066082   1.9907695  72.2676229  63.8704729  70.5628586  60.1901770
  63.0531502  70.0651360  60.1680994  63.6382294  71.3857651  60.6204367
  80.8461844  -0.1497395  72.3548126  81.5936552   0.3428619  72.0158911
  80.0875317   0.2326172  71.9138193  63.4400320  70.8392334   6.3062859
  63.8104773  71.4346600   5.6547719  62.5472593  71.1570835   6.4410388
  82.2849274  31.7179513  61.0305595  81.3696575  31.4757943  61.1715174
  82.7035332  31.5768266  61.8797302  41.4534616  81.7982101  35.3453684
  40.8225346  81.9273186  34.6372056  40.9804773  82.0542336  36.1371827
  54.6106005  78.7965631  23.7236452  55.0756979  79.6047974  23.9396811
  54.4834852  78.3608007  24.5663691  13.2792282   7.5703275  32.6525497
  12.9764783   7.3070318  33.5215998  12.4792218   7.7989620  32.1793175
  77.9321766  60.6051207  21.9145584  76.9814491  60.5913067  22.0248175
  78.2195139  59.7392845  22.2043753  25.0117826  18.7998915  35.1279807
  24.3626022  18.6087155  34.4510412  25.8462453  18.8238132  34.6596527
  83.7374592  72.9888773  50.0959015  82.8296661  72.7855206  49.8705339
  83.9005947  73.8395500  49.6884966  28.8124156  27.6926136  36.0176134
  27.9544282  27.2714353  35.9656739  28.6225009  28.6296082  35.9706950
   0.7639976  16.1344266  61.0448027   1.2158108  15.3348672  60.7749844
   1.2955867  16.8435752  60.6832027  90.7918072  11.4050031  71.4070511
  91.6444206  11.8398929  71.4194822  90.7885838  10.9075415  70.5892754
  46.9684076  85.0700474  47.6598454  47.0761395  84.1259098  47.5448608
  47.8022051  85.4428959  47.3734903  76.3762093  63.3008718  29.6654868
  75.8447647  64.0113115  30.0247526  75.9859324  63.1184769  28.8107085
  16.2436283  44.4684458  38.2173514  16.9132972  45.1404619  38.3444905
  16.7344403  43.6853266  37.9682231  16.1544347  25.2550268  40.9832668
  16.7817152  25.5849075  41.6266394  15.4437506  25.8961964  40.9910822
   7.7536386  16.4264882  41.6251421   8.3337969  15.7103539  41.3666868
   7.0132315  15.9934640  42.0500183  11.5489817  81.4602089  36.8398046
  12.2341788  80.9169769  37.2292089  11.8275857  82.3590946  37.0147991
  11.6407442   6.9852269  56.3381386  10.8102071   7.3392123  56.6561556
  12.2072530   6.9736600  57.1096087  16.1269784   4.2924044  73.1489086
  15.8531868   5.1088178  72.7308941  15.8368671   3.6064398  72.5476456
  10.7704413   9.2645627  37.9973078  10.1693082  10.0019670  38.1026936
  11.5493584   9.5178437  38.4926558  22.5750232  18.3114946  40.0597954
  23.2106781  19.0251637  40.0064135  23.0995154  17.5161612  39.9671555
  15.0779629  31.0506225   0.8277261  14.1474962  30.8685374   0.9592901
  15.0949037  31.8869591   0.3624472  36.5144372  72.6212025  32.8014278
  37.2992396  72.3784304  33.2927299  36.7225242  73.4762907  32.4249268
  10.2660191  34.2052484  33.2373953   9.9917918  33.7258863  34.0192151
  10.4877853  33.5230327  32.6036501  76.5596628  22.0629144  54.0901661
  76.2388945  21.9088864  54.9787664  75.9928417  21.5276647  53.5347748
  66.2202311  85.0014019  69.1698265  66.3628578  85.8859825  68.8330603
  65.5848598  85.1138496  69.8768616  51.2183571  84.3119144  39.0575337
  50.9514380  84.2066860  39.9707198  50.5884886  83.7884712  38.5620499
  64.0712738  32.2983098  50.9557104  63.2879257  32.5157237  50.4504156
  63.8485765  31.4821482  51.4034986  90.0796318  15.4547691  62.7923155
  90.6667995  15.5279887  62.0399141  89.8144245  14.5350790  62.8005505
   1.9248119   8.0566120  32.4396825   2.0509680   8.9860022  32.2484994
   2.6947525   7.6284295  32.0654058  90.1291656  15.4695749  28.1365776
  90.4020691  15.2680087  29.0316343  90.3798294  16.3846695  28.0100870
  81.8390751  56.1452484  17.7831078  82.6220322  55.8703518  17.3059988
  81.3315010  56.6442919  17.1431410  86.6218090  76.1758852  47.7321863
  87.5653362  76.2809038  47.6098728  86.2461472  76.3669014  46.8727541
  62.2931719  82.8775215  57.2489166  62.6332140  82.0033646  57.0580244
  62.2656107  83.3149052  56.3979292   8.2432365  29.3247128  48.1019878
   7.8958160  29.1981459  48.9848900   7.5514376  29.0029359  47.5239706
  38.1496239  72.9121685  69.7664690  38.4564114  73.8097858  69.8945379
  38.0198407  72.8359842  68.8211775   1.8053935  26.6905117  17.7835131
   1.5737700  26.2109065  16.9881749   2.2464463  27.4791765  17.4677420
  73.8936234  23.2193160  31.9307470  74.5935965  23.8549376  32.0799255
  73.3830166  23.5898757  31.2108850  18.4593773   4.5961437  54.3480873
  17.9086637   4.4996560  53.5711479  19.2693448   4.1369104  54.1260767
   1.4781456  73.9019346  20.3758693   1.2564151  74.5877743  21.0056996
   1.9592650  74.3575573  19.6850991  74.7678804  22.0961857  58.9618301
  73.8870430  21.8541646  59.2477942  75.1424456  22.5629282  59.7088861
  90.6189537  68.4317780  40.5916786  89.8327732  68.9701557  40.6828022
  91.2498474  69.0016651  40.1518822  25.9453177  76.1665297  57.3888922
  26.7063046  76.4286709  56.8708086  26.2739682  76.1113167  58.2862043
  22.1374726  25.3405881  53.7679386  21.6815472  24.5018911  53.8383198
  21.8772101  25.8213592  54.5536566  40.0954294  77.2709370  14.3553770
  41.0344028  77.2550869  14.1701460  39.6808648  77.2575140  13.4927130
  72.0145369   7.3746669  31.2430549  71.6083717   6.6618538  30.7499480
  72.4087715   6.9461101  32.0027590  59.2419386  70.8805513  51.1477327
  59.6993256  70.3374243  51.7896414  59.9258041  71.1582708  50.5382776
  85.9691715  12.0829260  43.1389332  86.1186981  11.1462855  43.2676935
  86.0594273  12.4622774  44.0131092  39.3280387  59.9999952  45.5560923
  39.7043896  59.6673203  46.3709068  39.5425868  59.3334341  44.9034834
   0.2804436  17.3511577  63.7871552   1.2179647  17.2608268  63.6164904
  -0.1120882  16.5767860  63.3840418  11.0418212  78.9235687  65.7163000
  11.2727356  79.4845486  66.4567137  11.6787672  78.2097960  65.7488060
   6.0021645  66.4610672  62.2313452   5.0882578  66.2652826  62.4379253
   6.0148400  66.5695000  61.2803888  89.8535824  14.9853122   9.8025578
  90.7950592  14.8759806   9.9362963  89.6301651  15.7702291  10.3027809
   4.9326143  76.7142487  40.6888819   4.7987977  75.9059048  41.1837626
   5.6256533  76.5006542  40.0641346  59.1637468  75.1501656  19.4058740
  59.6276045  75.8303356  19.8941660  58.2635021  75.1958656  19.7278988
  28.2110882  16.8870687  21.9399738  27.6173067  16.2459266  21.5493441
  29.0660930  16.4567697  21.9334674   3.7238094   7.1761435  57.0355892
   4.3903959   6.8384069  57.6337767   2.9462099   7.2885901  57.5823307
  90.2885151  33.1824660  11.9063997  90.9778500  33.6941743  11.4830780
  90.6837177  32.8777957  12.7232385  17.4119973  45.3549099  22.6254487
  18.3417058  45.4621983  22.4245453  16.9686937  45.4916811  21.7881870
  20.0376368  80.9064674  32.7632546  19.4429791  81.3618755  32.1672559
  19.8498416  79.9779844  32.6258326  31.0078049  81.3603020  56.9718075
  30.5042720  81.3523388  57.7858257  30.3549743  81.2247849  56.2850189
   9.6230584   1.7063543  49.2273188   9.2032236   2.1000259  48.4624720
   9.7764820   2.4412695  49.8211145  80.2361012   1.7377502  35.9049392
  80.5892467   0.8481510  35.8935070  80.6609631   2.1544886  36.6546392
  11.3721776   6.9027567  34.6133614  11.1045933   6.8703526  35.5318284
  10.8661783   6.2081319  34.1918254  82.5962639  84.5663834  55.0268984
  82.8463459  83.6540318  55.1728773  82.7091789  84.6979904  54.0855360
  12.1309090  20.7482505  38.3756447  11.6040874  21.2391949  39.0062499
  11.4900374  20.2741575  37.8457832  66.2725544  46.9593000  59.6463060
  66.4792633  46.0257959  59.6918106  66.4323282  47.1957302  58.7326288
  19.1665936   6.5398836  34.2358232  18.6051106   5.7968074  34.0149021
  19.7165835   6.2201893  34.9510431   9.6448791   8.5891449  68.6735678
  10.2017498   8.9879340  69.3422174  10.0523067   8.8369244  67.8436041
  81.9320488  84.6276474  27.5181866  81.7967892  85.3301716  28.1541133
  82.8805161  84.5974445  27.3927665   7.7237940  17.8995967  20.0304556
   8.2015616  18.7290263  20.0343847   8.3360875  17.2723174  19.6459448
  11.7092001  16.2818158  52.0058537  11.5012681  16.1062741  52.9235554
  12.3921585  15.6470490  51.7893553  54.7060299  77.1503735  32.0517278
  53.7620687  77.1964550  32.2035217  55.0221682  76.5198040  32.6987791
  57.6798677  18.1715655  19.9631715  58.1552219  17.8136027  20.7129288
  57.2038937  18.9225519  20.3177142  49.3049240  79.9818134  66.8531609
  49.2002058  79.8052168  65.9182405  48.7177372  79.3591213  67.2817707
  90.3144836  83.8933182  63.2876587  90.5542374  84.8173046  63.3584499
  90.3299713  83.5721016  64.1892195  13.0017889   3.4642434  72.6342297
  12.2377932   3.3379528  73.1968975  13.5235810   4.1285706  73.0843782
  34.5207572  26.2729216  51.6820240  35.0689936  26.6362405  52.3774862
  34.7349215  26.7966294  50.9099483  63.5297966  85.9719944  17.7951467
  63.9327335  86.4190006  18.5394955  64.1734982  85.3133488  17.5342381
  12.5854170  79.0871620  12.5208104  13.0355251  79.0100765  13.3620548
  12.4127543  78.1831360  12.2578335  89.3231392  73.2882309  71.9106245
  88.3721542  73.2960987  71.8019485  89.6288872  74.0371656  71.3989210
   8.8501674  27.3389673  18.4848654   9.7737551  27.4618196  18.2654929
   8.6770439  26.4188433  18.2857811  15.6584096  36.1960101  23.0678606
  15.7261598  36.4939785  23.9749742  15.6066287  37.0020628  22.5542188
  40.0521374  30.6507707  10.1277721  39.3129206  30.0428295  10.1418793
  40.5268955  30.4694223  10.9389114  89.4174099  14.8439956  25.5680513
  89.8115730  15.0168669  26.4230251  90.1291180  14.4723392  25.0469303
  69.1826010  34.2632508  56.9653463  69.0733528  34.5032787  57.8854990
  70.0798893  34.5220160  56.7552233  55.7499933  11.5692699  20.3867602
  56.2745190  12.0146382  19.7213626  55.8592176  10.6380415  20.1941133
  58.8937712  34.2332006  64.4417572  58.3407736  34.3953848  63.6774826
  58.4714079  33.5017467  64.8921108  86.5798855  64.8221350  18.9677811
  85.6282043  64.8659134  19.0606177  86.9104004  64.8678064  19.8649442
  26.4197993  12.9718673  32.0799780  26.5113068  13.3227384  31.1941195
  27.0236874  13.4941113  32.6080084  23.1988668  13.0843663  37.7125645
  22.4308729  12.5385213  37.5438428  23.2939935  13.0761397  38.6649895
  90.5582237  81.6147041   9.6230799  89.6120739  81.6552830   9.4838250
  90.9105778  81.3104725   8.7867075  34.7722292  19.5578599  52.0745182
  35.4799294  19.0839410  51.6377211  33.9811206  19.2925525  51.6054821
  87.2225857  36.9934011  50.9269381  87.7768898  36.2349606  51.1106491
  86.3909817  36.6178584  50.6377363  15.2986908  15.8630478  17.6494789
  14.6051002  16.0447013  18.2836449  14.8422956  15.4883289  16.8961382
   7.2233987  13.1253862  50.6356573   7.3816818  12.1940589  50.7899570
   6.3134301  13.1682134  50.3417921  89.0864372  31.8418312  33.4571123
  88.3519840  32.0527649  34.0335751  89.2995548  30.9318566  33.6638999
  77.8442907  32.5673842  71.0774612  78.2122946  32.9490232  70.2804947
  78.4529305  31.8663096  71.3104534  90.6572151  37.9123545  42.5933075
  90.5266762  38.6251450  41.9679117  91.1890793  37.2726917  42.1198273
  36.8638325   3.7692979   6.5731388  36.3101339   4.4071481   7.0234680
  36.9062519   3.0238393   7.1720743  90.7554465  69.9302053  18.6717570
  91.3330137  70.5649757  18.2478297  91.2034731  69.7061110  19.4874072
  38.5074735   9.4015819  26.4148068  37.8353429   8.7244570  26.3375115
  39.1710186   9.1550612  25.7704735  20.3541732  12.1962762  29.2964959
  19.4619989  11.8495727  29.2890620  20.3892541  12.7505481  30.0761008
  81.5063190  84.3236256  35.7741642  82.2200203  84.6109200  36.3436651
  81.6905212  83.3993053  35.6070447   9.5391130  44.4678879  10.4217887
   9.4637990  43.8343143   9.7082442   9.7940862  43.9440680  11.1812854
  50.1370811  83.7074661  33.6705446  49.5197248  84.0046787  33.0021381
  49.8148918  82.8433323  33.9268708  28.1619787  16.6549182  27.7169299
  28.3622575  15.9261596  27.1295381  28.2013392  16.2734365  28.5939455
   8.3711451  30.8086205  44.1392326   8.8207465  31.0666943  44.9439001
   8.0528927  29.9233651  44.3160582  36.4196563  18.8574803  43.0862856
  36.4139700  17.9007638  43.0564213  37.2815561  19.0810263  43.4375477
  78.3642054  21.9213700  52.0742130  77.8053856  21.9858527  52.8486729
  77.8947115  22.4107075  51.3986731  84.8044586  75.0279045  58.7780857
  84.2331409  74.2685413  58.8929510  84.2048264  75.7712317  58.7138033
  86.5640640  84.9428368  14.7861195  87.2259140  84.4700432  15.2907431
  86.2970924  84.3263054  14.1043174  84.4166946   9.5589703  50.4777336
  84.9162292   8.7570381  50.3240967  84.9308968  10.2463031  50.0541735
  17.4447763  19.4787228  55.3402996  17.9927993  18.9481270  54.7620535
  17.1300185  18.8637054  56.0028076  29.8443079  13.0873692  31.8331766
  29.8132825  13.7706304  31.1635327  29.4292951  12.3294401  31.4214277
   2.0883854  14.1262400  69.3155098   1.1329231  14.0838671  69.2764139
   2.3537621  14.3708444  68.4289598  32.4034333  14.5709229  34.1139627
  32.5454402  14.8855495  35.0067544  31.7702866  13.8593125  34.2086577
  35.1519036  65.3959465  69.8889017  34.4741893  65.3702879  69.2134190
  34.7109842  65.0918865  70.6822300  51.8356752  63.1216049  63.3994484
  52.3385668  62.3093700  63.3394003  50.9947157  62.8556919  63.7713480
  60.2138519  37.9736567  10.1986182  60.0419617  38.2896924   9.3115956
  60.9867430  38.4624124  10.4814410  18.1686151  26.2103438  42.8314734
  18.2845581  25.2669883  42.9449034  17.5924063  26.4690328  43.5507059
  67.1440029  34.9453640  32.4923015  67.6145983  34.4965529  31.7899227
  66.4338541  34.3472552  32.7250886  73.8175297  80.4619884   6.2961328
  74.0179205  80.1900387   7.1917433  73.7048626  81.4108086   6.3534635
  68.6079884   0.2292727  43.0759048  68.8416004  -0.6793949  42.8862190
  69.4238853   0.7158495  42.9584885  32.4277687  65.9447193  14.8674822
  32.4077964  66.8279552  14.4990766  32.3509264  65.3667688  14.1083372
  41.2780905   2.5704601  50.9661055  41.6826868   1.7947941  50.5776787
  41.8431807   3.2950443  50.6979942   4.2906436  33.0704427  36.2822342
   3.7543404  32.4128723  35.8392763   5.1061958  32.6142550  36.4895964
  84.2679214  72.7073145  29.1242170  83.6924362  73.4403610  29.3425751
  84.5744324  72.8991938  28.2379508  40.0334072  53.1598854  33.0858445
  39.7232008  52.5984859  32.3753285  40.1597929  54.0160370  32.6768637
  32.3488069  15.1993608  29.5696139  32.9498291  15.9427094  29.6189880
  31.7018485  15.3685415  30.2544880   1.8517637  28.7746620  60.4792929
   2.7885509  28.5780358  60.4793596   1.5279745  28.3982682  61.2976599
  22.6670623  36.9271493  34.6453977  23.2541585  37.6288152  34.3639445
  23.1268716  36.5072966  35.3723979  49.8291063  78.8125706  36.5481949
  50.2996254  79.5957994  36.2628865  50.2889919  78.5317755  37.3393273
  53.4665585  54.1098070  56.3758373  52.6974773  54.0955448  56.9455242
  54.1336870  53.6251307  56.8618965  77.8318167  22.9828072  40.6930351
  77.5757122  22.2216129  40.1722431  78.4973240  23.4222555  40.1636791
   2.3231030  17.5100911  23.1423950   2.1732238  16.8254757  22.4904227
   1.8076630  17.2355604  23.9008069  63.0583954  75.2762461  54.6751404
  62.7103901  74.6360207  54.0544653  62.6726246  75.0292301  55.5156136
  86.2738323   6.1864197   4.5354930  87.1190262   5.8974427   4.1914484
  86.0842705   6.9939893   4.0578640  11.5495086  26.5734458  54.4576979
  11.6548252  25.6541181  54.7026062  10.6649196  26.7983127  54.7460890
  88.4122372  11.7577326  48.4036684  88.6744308  11.3929749  47.5584269
  89.0984058  11.4767456  49.0090179   4.4579279   3.1446242  49.9985695
   5.2699918   3.1426522  50.5053043   4.0817201   4.0112466  50.1524019
  21.0119510  31.0320807  39.6233940  21.4533997  30.4969501  40.2829313
  21.7223358  31.4776921  39.1618609  81.2415600  78.2259035  22.2655153
  81.8216324  77.7847481  21.6449261  81.1757946  77.6203775  23.0039215
  40.0744295  10.2621067  23.0662656  40.5134296  10.0099850  23.8786364
  40.0946617   9.4710994  22.5276279  17.5821495  81.8710804  31.6926789
  16.8646455  81.2595272  31.5270591  17.3890543  82.6238537  31.1338639
   1.1293394  16.6761363  25.7238555   1.0218240  15.7358086  25.8668780
   0.2632870  17.0452785  25.8968282  40.7890177   7.3247534  22.0501447
  41.6054058   7.3049819  21.5507913  40.8531380   6.5765595  22.6437140
  77.2634983  77.7480555  17.7821076  76.9248247  78.5483694  18.1833899
  77.4512911  77.1702051  18.5217392  60.7947826  77.8878117  18.5352099
  60.7869482  77.0988894  17.9931974  60.7456875  77.5615692  19.4337571
  31.8403697  15.6089568  52.9860067  31.2923074  15.8890438  53.7190914
  31.2178159  15.3642869  52.3013210   3.4760809  75.9799194  51.6021252
   4.2630187  75.8156776  51.0825205   3.3567956  75.1807594  52.1152973
  79.9188232   1.9009799  44.6146822  80.8386707   1.9736089  44.8693323
  79.8678732   2.3493882  43.7705469  84.5274830  85.2584076  26.6882086
  84.9192810  84.6878433  26.0270047  85.2445221  85.4533386  27.2916102
  51.7058039   8.1434673  47.4572372  51.1818552   8.7546384  46.9393778
  51.0976028   7.8027016  48.1131363  13.5112202  68.4502888  28.8607335
  13.8800013  67.7813435  29.4375753  12.8047407  68.0023384  28.3954787
   1.3711616  76.6372967  64.3046141   1.1896685  76.6469383  63.3648300
   2.3070139  76.4458275  64.3658686  31.8795729   4.3652222  21.8466830
  31.6345859   4.9770531  22.5408554  32.6853848   4.7291747  21.4800239
  22.6793528  21.3918495   0.8700731  23.6305594  21.4659524   0.9471909
  22.5357032  21.0670066  -0.0187874  19.6714330  29.9682260  43.9349318
  19.6757007  30.0189781  44.8907757  20.1340747  29.1541529  43.7362385
  60.2389479  40.4711914  31.0926056  59.3282223  40.5772257  31.3675046
  60.4752016  39.5896888  31.3813353   8.8375932  40.4519510  36.5310168
   8.2632762  39.7376871  36.2549400   8.3294415  40.9275055  37.1881771
  10.4499638  13.7215173  33.7140298  10.7115018  13.8607001  34.6242261
  10.4929280  14.5913386  33.3167934  77.0005369  26.4643645  35.2590275
  76.4817238  26.9729090  34.6357751  77.6759529  27.0719862  35.5604291
  27.9741573  23.6652422  61.1896706  27.3752618  23.1898022  61.7654419
  28.4856701  22.9807496  60.7583284  53.4643459  30.8277488   5.2578139
  53.6859131  30.4008412   6.0853946  52.5323343  31.0315847   5.3354639
  65.0801659  49.6845102  39.1662836  65.8336401  49.8980904  38.6159301
  64.8216772  50.5208445  39.5535326   6.3576841  79.8550177  48.9270449
   6.3900435  80.8115387  48.9431334   7.2315526  79.5906067  48.6395168
   5.7861739   5.3783327  64.7193289   5.9968811   6.0104829  64.0321445
   6.3461417   4.6250352  64.5316839   9.7380704  15.8966029  44.0778399
   9.0226942  16.4825630  44.3250608   9.3389249  15.2747595  43.4693766
  14.3018234  85.0722313  15.1413715  13.4322178  85.4293728  15.3215694
  14.2127180  84.1326809  15.3012013  71.6390276  71.8669701  20.7802653
  72.0001411  72.7323914  20.5882502  70.8855200  71.7867184  20.1954436
  86.4443016  11.6789949  32.3300219  87.2411156  12.0690477  32.6894403
  86.1114979  11.1223650  33.0340385   1.1264353  23.7208176  39.1223288
   0.7417519  24.5523143  38.8450909   0.3960672  23.1022882  39.1075993
  87.5438213  79.7702360  51.0691357  88.3621407  79.9431419  51.5346432
  87.8183460  79.3833780  50.2377462  23.4502935  14.0525162  49.6715260
  23.0494499  13.4161198  50.2636003  24.3332458  13.7154591  49.5197964
  18.4940422  21.4160442  43.9631224  18.2351291  20.5556440  43.6331034
  18.1977534  21.4225554  44.8732901  16.5514374  20.9631157  25.7013249
  16.7864370  21.1561656  26.6089272  16.7036152  21.7848158  25.2345443
  21.0396242  20.5024004  31.7792273  20.2933955  20.9768581  31.4128041
  20.9248662  20.5707169  32.7270651   8.9400762   7.3212218   0.9073894
   8.8649207   8.2353926   1.1810227   9.7538948   7.2878444   0.4045806
   7.8140354  85.1139355  32.4542022   8.4982759  84.8572922  33.0724096
   7.7954090  84.4060898  31.8101192   8.1925887   1.0623511  34.4353819
   7.6022172   0.5281177  34.9666882   8.5505474   1.7050086  35.0478268
  22.6214838   9.3632078  31.0403132  23.2452106   9.9089813  30.5614305
  22.2666478   8.7686992  30.3793430  26.0458565  31.7441821  28.8387632
  26.8504119  31.2846804  29.0791440  25.7766342  31.3401675  28.0138230
  11.1575353  61.5241289  22.3237133  11.6684473  62.1456718  22.8422570
  10.9068656  60.8417845  22.9464507  26.5459943  12.4234676  26.6101623
  25.8713245  12.6513135  25.9705234  27.1780634  13.1403518  26.5572596
  65.6458759  64.3356752  46.0973072  65.2264738  63.6446619  46.6099834
  66.3781643  63.8996887  45.6615353  53.2310152  54.9299526  72.2425842
  53.6790085  54.2542362  71.7337227  52.3527193  54.5779705  72.3872852
  34.6972656  31.2253189   9.4839370  35.0200462  31.0378528   8.6025178
  34.6475911  30.3686476   9.9080539  65.7537174  60.5435658  22.6100516
  65.4225397  60.2086306  21.7767620  66.5104914  61.0780716  22.3695731
  54.2116642  83.2986546  55.1670599  53.4890652  83.2182407  55.7896471
  54.1438723  82.5167179  54.6191454  13.5003912  67.0520115  17.4677241
  14.2455184  67.3788595  16.9635546  13.3950007  66.1454964  17.1790111
  28.2537031  14.6558225  33.4673762  28.3902907  15.4112399  32.8956056
  28.9613724  14.0525711  33.2403851  13.9527023  25.1028204  11.1141038
  14.7317851  25.1757646  10.5627942  13.5415125  25.9656930  11.0630441
  13.3947027  82.6230049  15.8852756  12.8036976  81.8708324  15.8508945
  13.3581567  82.9148865  16.7961574  22.9307127  12.2587931  12.8202236
  22.2624373  12.2147799  13.5041118  22.7114415  11.5422738  12.2246122
  19.2340469  31.5111947  33.7978601  19.4568181  30.5807376  33.7686443
  18.7364519  31.6129804  34.6091986  40.7821178  78.8275290  22.3055840
  40.9775543  79.6478558  22.7584624  39.8408961  78.8660574  22.1357393
  20.8569074  36.7787647  56.8228197  21.6885114  36.3888717  56.5532827
  20.3202987  36.7701721  56.0302210  38.3684397  38.7330151  11.1820078
  37.8908420  38.4355569  11.9563794  39.0465736  38.0705452  11.0497189
  87.9692841   0.5690202  24.1909957  88.6739445   0.5227678  24.8371696
  88.3512115   1.0453466  23.4537888  37.9241014   2.2421801  54.1921663
  38.3085871   1.7214948  54.8973560  36.9793463   2.1655628  54.3255949
  38.9914680   8.3172655  20.0587916  39.6815848   8.0828184  20.6792808
  38.1968212   7.9312927  20.4272890   7.0025671  18.3135808  29.8863745
   6.4341831  18.3333933  29.1164517   6.9894606  19.2117953  30.2169347
  35.9078264   7.1605527  30.5523825  35.4910922   6.6817415  31.2688351
  35.5376649   6.7740411  29.7587705  35.3300166   7.6666808   4.9678308
  34.9274969   8.4670043   5.3050137  36.1804795   7.9495412   4.6317729
  74.8878956  10.0181651  31.8551826  75.6096601  10.4588223  32.3036313
  75.3034210   9.2945039  31.3862634   3.7927836  17.3068416  11.1227906
   4.3282053  18.0441248  10.8295834   3.3731425  17.6193917  11.9243181
  55.1984011  84.0892946  -0.2980876  56.0246526  83.6821615  -0.0377392
  54.7045552  84.1718494   0.5177188  17.2626328   3.1164113  21.4448500
  17.5719714   3.3501920  22.3199987  18.0621994   2.9903084  20.9339452
  20.9017754  75.1010418  17.1305847  21.0932708  75.9992313  16.8607450
  21.6122079  74.5813465  16.7545056  80.8382416  83.8525391  40.7997608
  80.7484245  84.3523979  39.9883914  80.9358978  82.9447746  40.5122709
  78.2663488  36.9288945  31.0922599  78.4776640  36.7413187  32.0068049
  77.3168898  37.0501947  31.0858417  67.6123524  45.8008385  62.6012468
  67.6904964  45.6945944  61.6531754  66.7946100  46.2835979  62.7215624
  86.7615318   8.0386728  34.1961217  87.6569080   7.9426801  34.5206237
  86.2143803   7.6728433  34.8911238  46.9785500  84.7301865  72.8877258
  46.4018774  84.0596199  72.5216341  46.7520761  85.5278873  72.4095821
  17.4122453   1.2595899  17.2835207  17.3767507   0.8185143  16.4347422
  16.5134358   1.2222846  17.6106012   8.4559017  65.1594973  66.7379618
   8.0013680  64.3812799  67.0604706   8.1076157  65.2921391  65.8562994
  61.1351442  79.1907644  26.8184972  60.3673744  79.7614288  26.8516493
  60.9763575  78.5358906  27.4983168  24.2586493   8.2647836  33.5701776
  24.7736359   9.0056223  33.8898349  23.4836221   8.6644167  33.1753922
   5.4720902  50.9974480  17.8257895   5.3048962  50.7369804  18.7315679
   4.6018922  51.0787535  17.4354339  85.5227184  69.2260456   3.4575045
  85.4023266  69.0645695   2.5217366  84.6691990  69.0333366   3.8455701
  11.7396569  36.2672377  24.7864079  11.8640172  37.0187116  25.3661084
  12.2586977  36.4755130  24.0095878  68.2065916  81.4951229  47.2152328
  67.4631643  80.9025574  47.1038008  68.6278963  81.5150356  46.3559675
  86.3159752  66.8038702  37.5697494  85.5972099  66.8529224  38.1999946
  86.7129421  65.9468842  37.7254033  83.4224415   1.5342151  17.2312987
  82.6888943   0.9551080  17.4381220  83.9611721   1.0299507  16.6216147
  47.9772615  15.2096164  59.1948986  48.3360100  15.8709455  58.6031389
  47.0431948  15.1838994  58.9873075  85.1995564  22.0721245  63.8839769
  85.6281757  22.0396304  64.7392321  84.9041748  21.1747766  63.7298536
  23.6324048  14.1177475  55.6398535  23.7487626  13.2167757  55.3382874
  22.8922462  14.4472349  55.1301146  35.1691079  21.2902308  43.0698442
  35.3424191  20.3606653  43.2185030  35.8178473  21.5534234  42.4170780
  34.2289090  11.5403843  59.1237211  33.3073449  11.7049873  59.3233681
  34.4800186  10.8330202  59.7177029  29.1025972  13.1628740  23.7085533
  29.0186143  12.2122884  23.7831640  29.6910357  13.2937050  22.9650140
  30.8163047  42.8540993  42.9732847  30.5853796  42.3895216  42.1688795
  30.7714438  43.7803888  42.7362013   6.7193830  26.2314343  48.1394339
   6.5730590  26.9785976  48.7195778   6.8653786  25.4935408  48.7314034
  16.0209513  37.6952910  43.7412834  16.1289036  36.8350625  43.3355904
  16.8692839  38.1231165  43.6249733  32.1974897   7.3388356  31.1166525
  31.5916467   6.7200744  31.5244746  32.1090174   7.1769226  30.1774025
  37.4971390   8.2729328   1.5823339  37.6928902   8.3605415   2.5151992
  37.3739386   7.3328638   1.4507119   4.6220824   3.2925576  21.5046597
   5.0875032   3.0182907  22.2948456   4.8336846   4.2214975  21.4123178
  36.8004346  12.4863005  10.0079787  36.1554480  11.7791259   9.9966317
  37.3812127  12.2690868  10.7371891  71.6165066  71.5237617  49.2336082
  70.7843876  71.2210989  48.8700056  71.3670397  72.1425247  49.9199963
  10.2957082  17.0285249  27.4716687   9.5065629  17.4837005  27.1779060
  10.9544539  17.2400188  26.8101907  15.0693917  37.8670835  40.9423494
  15.1765192  37.0729113  40.4188538  15.3394091  37.6108837  41.8242121
  83.3146191   3.6030230  15.6283355  83.3408833   2.8819543  16.2573051
  83.8854599   4.2717767  16.0066736  84.0750885  69.8880196  13.7919843
  84.2246151  68.9461946  13.7093019  84.2803383  70.2400637  12.9258621
  35.2115202  18.1381583  35.9606814  34.3804741  17.6703942  36.0431004
  34.9644089  19.0161419  35.6703138  79.4286585  15.2558625  58.2568741
  79.7110510  14.6308494  58.9245892  79.8945236  14.9872041  57.4650240
  83.0003929  75.4760265  15.1904404  83.4425640  74.7320795  14.7814703
  82.4303532  75.8227062  14.5040691  56.2124729  44.8822498  73.0714226
  55.9411287  44.2686796  73.7541628  56.9623327  45.3430367  73.4477472
  20.2686191  32.1417451  42.3168230  20.1354766  31.8517542  41.4143753
  20.1077914  31.3603020  42.8457022  13.7416303  23.4369659   8.6480302
  14.6200848  23.0593467   8.6038268  13.8416743  24.2121434   9.2005908
  20.8576155  21.6827774  34.6620131  20.2667713  22.4054885  34.8737288
  21.2699533  21.4582920  35.4961681  54.5588541  43.1477785  15.3780723
  53.9025593  43.0349636  16.0656655  54.4407034  44.0496302  15.0798452
  18.1569242   9.0024209  22.4734282  17.8823042   9.8736405  22.7594209
  19.0022147   8.8653231  22.9011202  33.3855414  20.6606245  62.3487282
  33.7543392  20.4205370  63.1987762  33.8735461  20.1314282  61.7178345
   1.7040601  43.8246775  32.6334238   1.8630466  44.6337366  32.1472359
   0.8363686  43.9438820  33.0196023  28.2697225  29.2085481  42.9494333
  27.7485251  28.7614775  43.6162996  29.1653752  29.1789794  43.2858276
  25.5515933  33.4863806  68.2660341  24.8413730  33.3081889  68.8825274
  25.9390545  32.6284695  68.0925512  89.5376110  48.6634493  44.2107916
  89.4628620  49.4943428  44.6801138  88.9773941  48.7712765  43.4421778
  35.4431629  20.6074476  46.0157299  35.7750630  21.1152267  45.2753019
  35.4598713  21.2187743  46.7520952  13.1424856   1.2996976  13.8554823
  12.7422392   1.8331397  14.5421207  13.2889807   1.9100446  13.1328142
  45.2728748   6.8438983   6.5893286  45.0235128   5.9740651   6.9014817
  45.3053808   7.3819983   7.3802924  15.4578781   1.9954784  54.0587139
  16.0211563   2.0370843  54.8315096  15.0632358   2.8657469  54.0028429
  52.8282642   4.2609823  49.2606115  53.4679461   4.1905323  49.9691820
  53.3572960   4.3118462  48.4645176  72.1324492  21.8220091  27.1299076
  72.5032520  20.9736013  26.8871236  71.5501547  22.0455217  26.4038181
   8.5131371  52.4382401  30.8900881   7.7802771  52.3162317  31.4936280
   8.7813812  53.3478785  31.0198307  83.2314110  14.7551429  39.5129704
  82.8071594  13.8987541  39.5662475  82.8818798  15.1461935  38.7122583
  28.7370205  82.4615574  43.3233929  29.0572667  83.1626892  42.7558661
  27.9900002  82.0936680  42.8513241  11.9618118  40.6356192  50.5116940
  11.5514183  41.1250019  51.2246513  12.2337294  41.3069105  49.8858643
  76.7761707  81.5433598  24.4525433  76.1800814  81.8331718  25.1431370
  76.9170189  82.3227882  23.9150572  13.5645306  28.1505680  35.1084042
  13.9454794  28.1720543  34.2305374  14.3191242  28.1124067  35.6960797
  24.7018433  13.6362386  67.5150347  24.4718957  14.5077384  67.8372812
  25.6013751  13.5004365  67.8127432  20.3944135  34.9819875  37.3379731
  19.6092188  34.4938350  37.5857735  20.6188631  34.6494460  36.4689088
  17.2448027  43.4682322  10.1243734  16.8669271  42.6342058  10.4033732
  16.4883554  44.0335321   9.9680018  37.0685887  17.6741171  29.8320436
  37.9362464  17.9386592  30.1376891  37.0123744  18.0207014  28.9415646
  39.1279340   6.4040637  51.8958759  39.6061397   5.6294429  52.1917009
  38.3556557   6.4388353  52.4603319  51.7067528  50.2705431   7.9912633
  51.1984682  49.4596434   7.9734302  51.0488653  50.9648228   8.0285394
   7.6958406  27.7793956  30.0339127   8.1141090  27.8271246  29.1742587
   8.0559486  28.5230899  30.5171061  40.2292490   5.4519755  34.7647214
  40.6267357   6.2797612  35.0349212  40.8881569   4.7901303  34.9745679
  16.9419372  37.1615815  19.9571383  16.0359251  36.8661642  19.8671210
  16.8720460  38.1020641  20.1209617  21.2643886  31.2522221  56.5568495
  21.5767694  30.7837868  55.7827568  20.3481770  31.4505148  56.3632870
  34.1102934   7.5609392  36.8767619  34.7557449   6.9991046  36.4478517
  33.4708261   7.7570802  36.1920428  83.1462479   9.1801441  42.0878315
  83.9405441   9.2523217  42.6170874  83.4021854   9.5082206  41.2258053
  28.6295986  40.9401035   4.7888786  28.9819407  41.0645723   5.6701243
  29.3771148  41.0864019   4.2091841  34.9271941   6.7415506  51.8202734
  34.8132300   7.6869994  51.7234707  34.4748545   6.3671392  51.0643387
  22.7492046   2.2903915  48.9383745  23.5100842   2.7606115  48.5975122
  23.0873108   1.7978860  49.6862745  10.6305957  45.4407072  39.0959716
  10.4793704  44.5190430  38.8864470  10.0996339  45.9210014  38.4606552
  15.9579349  79.1587496   8.0943096  15.2760422  79.1938639   7.4234736
  16.7786407  79.2127085   7.6046544  19.7409952  31.3172507  26.1921334
  19.7111118  30.3608537  26.1667871  20.5583429  31.5431905  25.7481480
   3.8911429   9.1812336  49.7478819   4.0590584   8.8175428  50.6172323
   4.2944849   8.5566872  49.1449833  20.3630352  43.0016327  44.3235874
  20.8835793  43.6961031  43.9198875  20.8128309  42.1926355  44.0797806
  17.4337208  27.8410220  39.4166136  18.0161762  27.0827365  39.4611216
  17.8911114  28.4613800  38.8490009  25.8516431  28.2212520  26.1840892
  25.5354023  28.4905601  27.0464683  26.8010092  28.1552911  26.2869811
  36.6699243  10.5770481  27.6692319  37.4499035  10.0960314  27.3926663
  37.0089149  11.3975072  28.0272317  22.0332336  17.5238907  30.9332824
  22.7862167  17.6015985  31.5191245  21.4612365  18.2503891  31.1807704
  32.9763770  32.5174141  24.1662884  33.3205509  32.2194290  23.3242798
  32.0718741  32.2044802  24.1795969  22.2092485  83.3650875  10.8326042
  21.8645096  82.9193592  11.6063726  22.1188903  82.7245426  10.1270747
   4.1024505   0.3410367  -0.1849627   4.8245655  -0.2844973  -0.2440667
   3.5670506   0.0208787   0.5410409  20.8688450  34.5396709  29.1449165
  19.9408293  34.5854759  28.9148712  20.8760548  34.2310333  30.0509644
  80.1591873  22.7568984  32.1138835  80.9519768  22.4901652  32.5792694
  79.5070314  22.0991063  32.3551965  79.3883419  22.4403858  58.4617996
  79.9142027  21.9740963  57.8119707  79.1297626  23.2511473  58.0235863
   6.1427820  72.1352291  53.7635851   6.3654381  72.2140741  52.8359890
   6.2705350  71.2076950  53.9625692  20.0353265  28.9858270  34.3390775
  20.4848766  28.6643052  35.1205897  19.2342556  28.4640193  34.2918468
  63.9194107   4.3201888  33.2855082  63.5769558   3.7622470  33.9838338
  64.8416615   4.4451177  33.5092854  90.4721355   9.1259444  36.8058515
  90.1334763   9.0052253  35.9187388  91.1546707   9.7906297  36.7132759
  82.3800850  46.3003826  18.1788766  82.5608540  45.7908869  18.9687943
  81.4320087  46.4317179  18.1903172  84.9291706  33.8076591  27.7677321
  84.3367958  34.2746830  27.1784806  84.6456623  32.8947473  27.7182627
  13.5253644   9.9567062  59.3270111  14.2023551   9.8230076  59.9903679
  13.8798356  10.6392896  58.7572193  31.7062902  48.8191557  65.2582550
  31.9596148  47.9007292  65.1658058  31.6600132  49.1464376  64.3599367
  35.1116061  35.2601242   2.9444364  35.0651670  36.0536075   3.4777841
  35.6273866  34.6483207   3.4696975  46.4647627   3.7127984  71.4241219
  46.7670536   3.5744974  70.5264997  45.6932974   3.1521285  71.5061092
  25.9977508  28.6482120  38.4801149  26.3528061  28.0176210  37.8535986
  26.5671611  28.5717249  39.2457199  11.9093525  64.1223621  51.4307880
  12.4254286  64.7465897  50.9206533  12.1650851  64.2855787  52.3386383
  66.8365860  82.9830837   8.8796926  67.6265287  82.7723885   8.3818704
  67.1250439  83.6289310   9.5245987  20.3642392  11.6178560  50.0713634
  21.1066484  11.8233776  50.6395388  19.8165357  12.4023604  50.0997448
  20.5687785  18.2088089  33.9575887  19.9290323  18.9178371  33.8925028
  21.4142632  18.6355996  33.8188863  14.5888293  16.3596189  67.6490068
  14.4416344  15.4262090  67.4963284  14.1285515  16.5438879  68.4678030
  33.1993127  26.0215449  17.6734591  33.1936073  26.7907476  18.2431316
  32.6407313  25.3869271  18.1223202  26.9707465  18.4356284  18.1540632
  26.8977118  19.3150532  17.7832413  26.2173319  18.3592308  18.7395215
  27.8247356   6.8128771  70.0101233  27.1246386   6.3057989  70.4211855
  27.5997448   7.7248645  70.1942205  34.3920779  17.5158131  63.3826590
  34.4513321  16.7071271  62.8739882  34.7809052  18.1833279  62.8174448
  22.7890205  80.6590176  36.6441011  23.2423925  81.3087368  37.1812773
  22.0483637  80.3785324  37.1816730  43.4013748  15.5426478  48.5526466
  43.9066792  15.6906688  47.7532768  44.0211535  15.7110143  49.2624044
  40.2497149  24.4294095  21.3021255  39.8481297  25.1453376  20.8097768
  39.7283578  24.3671322  22.1024632  41.3065481  11.8263757  46.3800335
  42.1005964  11.7851067  46.9129610  41.2982130  10.9993231  45.8982134
  28.0246496   4.2341819  12.5169814  27.8977156   4.2794079  11.5693140
  27.4262762   4.8923868  12.8704619  23.5607529  64.9498129  14.9523985
  24.0549946  65.4521227  14.3045974  23.0757618  64.3055439  14.4367111
  20.2697539  49.6506405  45.4246950  20.3136539  50.5812979  45.2052069
  20.7254434  49.2131901  44.7055149  11.5738964  80.9667015  33.8151360
  11.8998861  80.9565258  34.7150588  11.2327075  80.0835800  33.6739922
   5.1681614  68.2703829  56.3877058   5.5688655  68.5817671  57.1993113
   4.2346859  68.4521818  56.4963484  23.5179257  34.3046069  32.8200054
  23.6258292  34.1255689  31.8859100  22.8140879  34.9520946  32.8600335
  10.5807269  38.4403825  27.3121095  11.2309849  38.7640691  26.6887116
  11.0107565  37.7032948  27.7457094  30.4120851  37.8533292  39.9955225
  30.8041406  37.3555565  39.2780638  30.6719017  38.7593198  39.8284674
  27.7290750  30.4192901  50.2478504  27.8646755  30.4576445  49.3010807
  26.9575000  30.9645152  50.4015779  30.2394009  39.7558308  34.5867062
  30.6666064  39.6764994  33.7338090  30.3610969  38.8992167  34.9961400
  55.4797805  85.9859965  44.3602324  56.1460079  86.4923728  44.8249388
  55.3463234  85.2097140  44.9041128  57.5508451  53.9200211   2.3212071
  56.8794775  54.2669010   1.7336935  58.3700180  54.0249681   1.8372977
  17.0910537  13.7741852  17.8233242  17.7597773  14.1421509  18.4009421
  16.4759076  14.4934833  17.6803672  31.1845088  13.4172583   3.7232158
  30.8042550  13.2963133   2.8531519  30.4375839  13.3689177   4.3198714
   8.9799327   6.9590276  19.0702081   8.6265838   7.8427571  18.9682341
   8.2237309   6.4254308  19.3144727  58.8175726  51.4788008  72.8826094
  59.6274519  51.8194103  73.2624912  58.5218287  50.8145761  73.5051632
  63.9072466   6.6000843  38.6479378  63.3370686   6.2588924  37.9589415
  64.5348310   7.1559817  38.1860471  41.0709333   1.8946667  47.3342657
  40.7706928   1.7842951  46.4320993  40.7961702   1.0922671  47.7779913
   6.6242623  37.1787715  26.2262392   7.3782408  36.5908408  26.1805701
   6.8997389  37.8757405  26.8217039  50.6990576  36.9411397  18.4796202
  51.5440702  36.5105438  18.6091506  50.5305719  36.8605185  17.5408196
  49.8976040  42.4193478   0.6058306  50.5699825  41.7425919   0.5274121
  50.3633499  43.1807852   0.9515582  86.3460350   7.9830122  74.1034555
  86.2854195   7.6900530  73.1942081  85.6544876   7.5010407  74.5569944
  32.9338765  25.3970337  37.3363543  33.6780930  25.6835985  37.8657436
  32.3241329  26.1344767  37.3612809  32.3189092  58.0778646  22.1877599
  32.7679563  57.6441479  21.4621687  32.5503683  59.0019751  22.0945859
  47.6735592  74.9741411  34.3008995  47.0509434  74.6519995  34.9526739
  47.3555756  74.6200562  33.4703922  12.3708296  11.8572676  74.2490053
  12.2524357  12.1706092  73.3523273  12.8941023  12.5373054  74.6732330
  26.9646025  34.1121078  29.7733569  27.7918029  34.0845823  29.2925143
  26.5153432  33.3046603  29.5235014  24.9701953  54.3650103  37.4614406
  24.7349381  54.7467756  36.6157794  25.8682775  54.6583700  37.6151347
   0.4326085  69.8850250  26.3580847   0.6164002  70.5797577  26.9903827
   1.2802050  69.6981001  25.9545135   9.7287637  46.0442638  25.1355433
  10.6472635  46.2676525  25.2861691   9.2624611  46.4380693  25.8729124
  87.4341583  21.6376185  36.0594559  86.7394543  21.0197997  36.2873101
  88.1714344  21.0844493  35.8012748  30.3902054  61.2597609  19.3876171
  30.0299501  60.4430342  19.7331679  29.8607635  61.9459200  19.7939503
  49.3430424  36.3386917  26.7517042  49.7911882  35.7381463  26.1561012
  48.4611940  35.9766197  26.8381786  56.1347055  45.1922989  19.0252721
  55.9338856  44.2877293  19.2653883  57.0784760  45.1938200  18.8655090
  34.2589021  50.7419014  26.3327169  34.3794751  50.5313349  27.2586513
  33.5463381  51.3809586  26.3232327  57.2241402  81.2273121  64.7409821
  57.7544641  80.4981613  64.4195271  57.3289061  81.1986637  65.6920004
  29.1122365  60.1296949  36.0223508  29.4354129  60.4984283  36.8444347
  29.6960831  60.4874372  35.3534913  79.5453787   1.6746202  24.2720318
  78.9958382   2.4156034  24.0167189  78.9250374   0.9716424  24.4649935
  38.9860439  62.3130608  30.5831218  38.6736536  63.1536150  30.2482843
  39.8864245  62.2481298  30.2647996   4.3815783  39.6789646  22.0535684
   4.8778716  38.9627457  21.6573954   3.5252059  39.2981029  22.2480011
  17.6951444  44.0174770  44.5601225  17.6793683  44.1396523  45.5093622
  18.5958302  43.7572336  44.3670702   8.3437592  41.2259674  19.1661012
   8.0035698  40.8925438  18.3358395   9.2424726  41.4893818  18.9682126
  37.0127273  78.7217760  51.7002392  37.5900555  79.4844627  51.6652107
  37.4589753  78.1102943  52.2860575  13.4798646  34.2368817   3.3672234
  14.2969787  34.7352052   3.3520645  13.5325599  33.7147641   4.1677535
  84.5863914  81.0575390  73.6044407  85.4757214  81.0309124  73.9574528
  84.2681217  80.1587677  73.6890173  46.7095566  47.5760889  50.9423351
  47.0441437  46.7499065  50.5934620  47.1204948  47.6565313  51.8030882
  68.7944269  44.1874027  25.0097585  68.3566284  44.0242434  25.8451867
  68.1686115  43.8900709  24.3493152  81.1783504  80.7955933  66.9586420
  81.4295864  81.5012836  66.3627338  81.5624523  81.0439873  67.7994728
  58.1054068  11.4093840  24.4900370  58.4673405  12.0770609  23.9074206
  57.1607494  11.5628600  24.4725776  20.4595375  42.6779461  23.1455517
  20.2012253  43.4508419  22.6434183  20.6659484  42.0193911  22.4822760
  25.9254408  65.1031590  21.7532754  25.4290605  64.6495247  21.0720611
  26.6774440  65.4762888  21.2933874  69.0478849  52.9882956  29.0533757
  69.0746832  52.3680305  28.3248234  68.1412745  52.9596424  29.3590999
  80.7611084  23.8978934  21.2020636  81.0426331  23.1910610  20.6212354
  81.3014507  23.7938571  21.9852877  66.3843918  53.0597687  41.4864159
  66.0421848  53.4525347  40.6833839  65.7927322  52.3292542  41.6667461
  33.2153249  27.5607777  31.2657619  33.5944819  28.3241844  30.8302355
  32.8343010  27.9094696  32.0716548  74.8803854  50.7532406  43.6607933
  75.4040194  50.0603247  43.2584238  75.4968882  51.2246323  44.2211008
  24.8802090  60.5145597  24.5321631  25.0632715  60.9608698  23.7054062
  24.2385483  61.0742283  24.9695134  49.0043449  47.4896049  29.5046735
  49.5239925  46.7734051  29.1396260  49.6205997  48.2180786  29.5807409
   8.3987093  46.1653471  20.8060336   8.4577298  45.2579117  21.1048794
   7.5582933  46.4746523  21.1440611  30.2353120  64.2934704  26.6656899
  30.9804058  64.5137358  27.2247529  30.1819754  63.3384800  26.7029548
  28.0394816  47.0243692  29.8706365  27.5109267  47.1772480  30.6538916
  27.6174712  47.5495005  29.1906548  79.6225214  19.8970938  71.0541964
  79.8703527  20.0594378  70.1440048  78.6653852  19.8913777  71.0444450
   7.3899907  48.4365702  40.8785677   6.6681635  47.8649473  40.6169510
   8.0795622  47.8367090  41.1629725   8.1364924  46.0041237  37.3178625
   7.3212206  46.2748289  37.7400970   7.9301029  45.1592684  36.9180441
  48.0223894  46.7715311   3.9862022  47.2322083  46.2338877   3.9334485
  48.7123251  46.1589336   4.2410499  49.8895311  44.6987009  25.1341772
  49.1766596  44.2728090  24.6580887  50.1470137  44.0613651  25.8003163
  11.0943735  45.6702614  19.4095385  11.7456341  46.2410402  19.8173404
  10.2662790  46.1388683  19.5139313  25.3813958  58.1930447  22.8842998
  24.9938774  58.7772274  23.5360575  26.1314917  57.8001738  23.3306670
  50.7191992  50.5575323  35.9711909  49.9592304  51.0066795  36.3412499
  51.3446426  50.5096579  36.6942143  32.5189281  65.0297880   7.9943532
  31.8139148  65.3115082   8.5772943  32.1418524  64.3053341   7.4951440
  63.3417416  53.6371613  20.0422597  63.7188911  54.3548346  20.5511165
  63.8297987  52.8627682  20.3221703   7.7568859  46.4701748  10.3336930
   8.2550973  45.7051277  10.6213057   7.1873546  46.1380720   9.6397394
  72.0050716  79.1198635  71.6403437  72.3174906  78.2445002  71.4115095
  71.2771606  79.2790508  71.0394764  71.8303823  35.5206943   7.5769627
  71.0543060  36.0809898   7.5755125  71.9648027  35.3000855   8.4986442
  41.0479546  48.6371517  36.6285515  40.9633875  49.3304157  35.9739804
  40.1491547  48.3517075  36.7926049  10.0966120  59.9166489  13.0617821
  10.3425300  59.4673204  13.8703990  10.6799734  60.6745005  13.0219662
  21.0841537  48.1185579  38.8700128  21.1261702  49.0300941  38.5809231
  20.4077554  47.7237082  38.3197308  79.8944092  42.2691584  25.6761265
  80.2905369  43.1144381  25.4644227  80.4594803  41.9035959  26.3567877
  41.6937876  67.5993586  32.3065352  40.9113789  67.3778248  32.8115010
  42.4154520  67.2087336  32.7993226  83.8326645  63.9782047  37.3178244
  83.7950802  64.5891619  36.5819216  84.5293903  64.3204355  37.8778982
  18.2939589  25.9847283  60.8737421  18.0678332  25.1522708  60.4588795
  19.1355979  26.2247086  60.4860783  80.1784706  56.5751028  30.0391054
  79.3452406  56.5124512  29.5721722  80.1575565  55.8508539  30.6646085
  28.5099411  49.9856520   2.6754364  28.9198661  49.3780613   2.0597830
  27.5874877  49.7302914   2.6856366  66.3899231  53.2055950  29.8610735
  65.4617882  53.3548021  29.6806884  66.5183926  53.5409117  30.7483649
  43.0213547  45.7593822  12.7360773  42.2327518  45.2675247  12.5071311
  43.7263060  45.1129961  12.6978993  37.7233410  55.3811693  40.2017450
  37.2366047  56.1723423  40.4327536  38.5955691  55.5202770  40.5706596
  65.1845121  55.5237722  40.0942326  66.0252094  55.8776522  40.3844595
  64.5684958  55.7749271  40.7824707  14.7739422  62.7332687  29.1756964
  15.6792176  62.6389837  29.4720387  14.4393051  61.8372107  29.1392231
  55.5725193  74.1447735  23.0091405  54.8261356  74.7430134  22.9737139
  56.1117697  74.4768429  23.7268972  34.0246415  73.2867956  37.4465299
  33.4584212  72.5193167  37.5277781  34.1513324  73.5873175  38.3464575
  35.2029967  54.3015194  21.2469983  35.0998735  53.3499861  21.2605047
  34.9177814  54.5609283  20.3708768  30.6884050   8.3251327  71.7446947
  30.7689118   7.7934062  70.9528494  29.7547483   8.5278547  71.8031693
  43.7390423  63.2551336  32.0369077  44.5004797  62.8497744  31.6220284
  43.7707186  62.9516459  32.9441690  62.2361374  63.5688305  28.6023712
  62.3313951  62.9502439  27.8781438  61.2964916  63.7466192  28.6434865
  40.7548666  66.6666889  38.7547302  40.0426865  66.8412638  38.1394649
  40.7598066  67.4262810  39.3371606  12.7404869  58.2987833  23.6263609
  13.4408820  58.3117294  22.9740477  13.1923175  58.3938217  24.4648409
  73.2145691  26.0272288  20.3149891  72.5801563  26.7326736  20.1881099
  72.7925873  25.2550125  19.9383628  32.6704621  44.9295235   5.6375289
  33.0740952  45.1874495   4.8088035  33.3622479  44.4619989   6.1055964
  67.6313639  21.8278861  51.5215445  66.8903542  21.5537620  50.9811831
  68.0231285  22.5559783  51.0392189  67.0114422  71.4734745  13.5649824
  67.1596575  70.5782557  13.8696885  67.4587059  71.5159369  12.7197719
  38.3857822  64.0140867  54.1469860  37.9299116  64.6807623  54.6607494
  38.1391716  64.1998053  53.2409334  61.4453173  53.5548878   1.7826766
  60.7208157  54.1591930   1.6209832  62.0762682  54.0672398   2.2882739
  80.3779507  61.7993689  10.4718828  81.1961842  61.6417074  10.9429228
  79.9624014  62.5184965  10.9477067  41.9473886  53.1268787  26.9630075
  41.0940075  53.3034945  26.5670586  41.7834568  53.1502676  27.9057741
  52.0641661  64.8359632  65.6971407  53.0185413  64.8844337  65.6419230
  51.7888117  64.5394659  64.8296738  49.1873026  51.9450474   8.8806272
  48.8089800  51.7436266   9.7365093  48.5462570  51.6141129   8.2515216
  24.2099428  71.6392326  51.8277597  23.4793329  72.2574329  51.8112755
  24.3600535  71.4212561  50.9078789  69.5554304  46.6593027  15.2207613
  68.7246943  46.4874601  15.6641293  69.3030930  46.9692659  14.3510032
  32.3078203  57.9884863  57.9105282  31.6804767  58.5031033  57.4027491
  32.6526952  58.6028004  58.5585308  65.6968021  49.0520716  10.4745197
  66.0660744  49.7387457  11.0298085  65.0731516  49.5095825   9.9106234
  19.3320000  48.6171532  22.8432989  19.7711599  49.3754578  22.4581480
  18.5536730  48.9802313  23.2659268  16.8244815  60.6405783  29.9630618
  17.2021890  61.3925791  30.4192042  16.2819409  60.2081871  30.6225443
  55.4160166  50.2886391  35.8997321  54.9743414  49.6459961  36.4548588
  54.7245693  50.8986568  35.6427956  71.9621611  42.4411917  40.5485964
  71.6759872  42.0298719  41.3641644  71.5753174  41.9011879  39.8594069
  76.9271660  48.6753654  45.3253174  76.9576645  48.8903475  44.3930721
  76.0047483  48.4863377  45.4974747  20.8880568  64.9544811  21.9196725
  20.8737755  65.7410765  21.3744259  20.8965945  65.2856731  22.8177094
  27.7035785  67.1679878  34.1414642  27.8488445  66.4985991  34.8100853
  27.0059657  67.7168703  34.4996548  27.9951596  58.8757515  18.2818496
  27.4017262  58.2811451  17.8230333  27.5784898  59.0218353  19.1311312
  49.4374657  79.8132038  31.5282488  48.6421251  79.6784496  32.0435286
  50.0459290  80.2372360  32.1333885  49.9311733   3.3065316  39.5637727
  49.4902897   2.6206380  40.0651741  49.2747450   3.9974424  39.4744635
  33.0794287  50.1319170  40.6422091  32.4457908  49.4856834  40.3305769
  33.8266420  49.6116257  40.9375095  54.2621756  27.1715164  17.1764016
  54.8761225  26.8409061  17.8321481  54.1454458  26.4417171  16.5681279
  45.7880068  35.7483292  22.0732164  44.8558426  35.8071160  22.2826099
  46.1074066  35.0192738  22.6049066  52.7826166  47.4814224   6.5485317
  52.5835466  48.2835436   7.0314401  53.6534977  47.6328373   6.1812854
  40.9996271  35.4871297   5.6135654  40.6181622  35.9397221   6.3658124
  40.5887413  35.8982825   4.8530662  65.3257465  24.8562860   2.4149331
  65.0851822  24.8199511   3.3406985  66.2826681  24.8792505   2.4168490
  69.8648739  28.4389567  15.5160117  70.2294779  27.7534604  16.0758245
  69.4425726  29.0455198  16.1242676  12.9608870  52.8839445  26.0746336
  13.5871696  52.7514076  25.3629899  12.2864258  53.4491491  25.6979656
  32.9533696  77.7622890  48.8325644  33.6857557  77.5472069  48.2550001
  33.2907557  78.4563303  49.3988752  18.5337138  62.6900196  39.9920440
  18.7745929  61.7649460  40.0414753  17.5878918  62.6994181  40.1388884
  35.6151223  39.1601562  32.1532750  35.8505225  39.7295213  31.4207172
  34.7228742  38.8742733  31.9573212  25.3400493  39.8547244  10.7467008
  26.0668516  39.4349980  10.2864611  25.3481054  39.4591546  11.6183031
  88.5530853  23.3748770  34.3301463  87.9162598  23.0533433  34.9683499
  89.3204021  22.8164792  34.4552493  61.7896175   6.3761449  33.0851460
  61.8316841   6.3899791  34.0413189  62.3191118   5.6196344  32.8330278
  55.6702375  40.2833271   1.8379131  55.3047180  40.9442759   1.2498915
  55.1347399  40.3440905   2.6289746  79.5694590  67.1287251  21.3404799
  78.7260914  66.8553829  21.7013764  79.6652794  68.0394936  21.6189647
  55.2209520  54.5277548  26.0924053  56.1208534  54.2016363  26.0997415
  55.3067732  55.4634666  25.9098864  44.1964197  77.4704123   2.8786242
  44.4220161  78.1913805   3.4664536  44.8606014  77.5058413   2.1902640
  61.1254168  68.1835699  33.2713318  61.8442917  67.7253723  33.7066507
  60.6795216  67.5040150  32.7657461  83.6117172  49.9050474  49.3300343
  84.0148926  50.5718136  48.7740660  83.5601616  49.1281414  48.7732697
  69.1017199   3.7511206  37.9795337  69.6899366   3.8144478  37.2270584
  68.4517860   4.4386101  37.8340054  33.2861757  76.3543510   6.2247938
  32.8606486  75.5037308   6.3325047  34.1658950  76.2288380   6.5805668
  64.8450041  27.3811197  18.3339715  64.6497679  27.4872947  17.4029279
  65.6507444  27.8801322  18.4681571  53.2756901  55.7615376  28.5911083
  53.3241892  56.6657352  28.9014363  52.9080677  55.8301115  27.7099824
  38.5685444  85.8859539  32.5508428  38.2222748  85.8417320  31.6595650
  37.9736018  85.3413010  33.0662346  56.2869120  37.4721169  32.5609398
  55.5914545  36.8852735  32.8578925  56.0500860  38.3262801  32.9222560
  84.1945457  27.2141314  24.9578023  83.3586311  26.7768264  24.7957969
  84.0203762  28.1379843  24.7778225  49.7277975  10.7591462  15.1408780
  50.3093863  10.5143452  15.8606434  49.9713612  11.6610348  14.9322951
  42.0839453  72.4080324  19.9164224  42.7725315  72.5376129  20.5685663
  41.8011618  71.5024137  20.0434041  20.5423141  16.0745108  71.3243675
  20.3079796  16.5650320  70.5365133  21.3407588  16.4970088  71.6409254
  61.2472439  42.8820419  49.8810673  60.8018684  42.8088188  50.7251692
  60.5785990  42.6501989  49.2365551  57.5630283  66.2368536  12.8161383
  57.4613094  66.7344666  12.0047987  56.7929268  65.6692076  12.8471065
  23.7203693  41.8162537  28.2535052  23.4376168  41.8676281  29.1665483
  24.5875454  42.2214794  28.2481575  26.7033935  39.6040297   1.9682463
  26.8876028  39.0805101   1.1883579  25.7494330  39.6808338   1.9853304
  49.3834686  42.5177765   5.0840026  48.8315153  41.9392300   4.5578238
  49.3172884  42.1687889   5.9728557  82.5429344  66.0694647  16.1870015
  81.9424438  65.3791857  15.9056342  81.9718647  66.7689085  16.5046275
  45.6063938  70.3566360  23.8508749  46.2723875  69.7936678  24.2455339
  46.1050177  71.0432196  23.4079170  30.9298420   2.7485949  46.9041348
  31.7297935   3.2153305  46.6623306  31.2043071   1.8366033  46.9999123
  21.1415291  23.1624436  51.1754513  21.0513067  22.2123027  51.1024714
  20.7681561  23.3734608  52.0311928  85.0816536  54.4208050  42.1650267
  84.2366028  54.8607063  42.0722198  85.4526997  54.4262838  41.2826872
  65.9705544  32.5861430  14.3040645  66.8253899  33.0151129  14.3425262
  65.3527689  33.2566595  14.5955813  57.8225994  83.4259129  27.8397775
  58.6072397  83.9666557  27.7494144  57.1296835  83.9376450  27.4223614
  26.4014935   1.3964282  31.3500237  27.3185873   1.6488273  31.4570951
  26.1778045   0.9536083  32.1686220  84.6761322  12.0584667  30.4422641
  84.6861076  13.0001545  30.2709293  85.3841591  11.9220507  31.0718107
  76.4095926  18.8727188  40.9555960  76.8989944  18.7513912  41.7692280
  76.9550467  18.4623671  40.2845383  27.6357102  45.0017786   2.9704812
  27.1786690  44.3699074   3.5255358  27.0789218  45.0875568   2.1966186
  47.4783850  49.5038748  13.7293518  47.6653051  48.6615992  13.3147871
  47.9715776  50.1403046  13.2117093  77.5698757  62.9798985  13.5889840
  77.6811075  62.2285414  14.1715002  78.4492159  63.1555939  13.2541287
  69.7642851  72.4163485  36.3318110  69.8514843  72.6380873  37.2588825
  70.2101851  73.1279182  35.8723807  20.3179622  17.9196811  69.1837835
  20.5760956  17.5375283  68.3449984  19.3613410  17.9364717  69.1550636
  10.9818363  11.0518038  15.2321768  10.1258647  11.1525726  15.6485772
  11.5964746  11.4495480  15.8488214  73.1697130  57.8694201  22.8570080
  72.3042059  57.4941397  22.6948380  73.6550999  57.1710634  23.2962513
  77.4813032  69.2077112  57.0146561  78.2634974  69.7374439  57.1688747
  77.2264385  68.8982105  57.8838444  56.7825842  75.4663229  43.4507275
  57.2874594  74.9087763  42.8587198  55.8854580  75.1401186  43.3801174
  55.5392551  53.7520218  21.7193937  55.7956505  53.0167389  21.1627483
  55.8923721  54.5230341  21.2754631  72.2744465  10.5639040  26.0650253
  73.0990171  10.8313668  25.6590939  72.4381399  10.6299198  27.0058107
  80.2806664  67.9191780  29.0799761  80.9053802  67.2703981  28.7558627
  80.7232094  68.3267498  29.8244691  85.0706291   5.7643348  15.9163010
  85.9740925   5.8554065  16.2191188  84.5674419   6.3467973  16.4853084
  23.6460900  22.6982403  10.6341004  24.3679857  23.0810261  11.1326742
  23.4657454  23.3373404   9.9447119   9.0045351   2.3030001  32.0261812
   9.1028923   1.8144172  32.8433990   9.0934217   1.6418910  31.3396931
  75.0539494  47.9447556  47.9903603  75.9916830  47.7988958  47.8654194
  74.7233677  48.1419373  47.1139622  21.6202402  77.1225452  39.3107581
  21.9483995  76.3354921  38.8759136  22.3942637  77.5116396  39.7178531
  57.3212814   8.9781535  47.5927639  57.0520687   9.6971864  48.1643820
  56.9144535   8.2015520  47.9769707  47.7218485  82.6499653  23.7693620
  47.9640484  83.1704235  23.0034041  48.2045078  81.8300724  23.6641932
   3.3583024  25.9626555  40.3388405   2.9103613  26.1062694  41.1724806
   2.6980713  26.1612630  39.6748495  77.7912235  73.5634089  21.6565061
  78.4523821  74.2374849  21.8137217  78.0073977  73.2127857  20.7924676
  11.1623371  17.0737982  35.3845048  11.0891151  16.1703289  35.6921005
  10.8657467  17.0419312  34.4749737  36.1859822  76.5491009  55.9973621
  35.6509948  75.8099556  56.2866449  35.6132436  77.3103428  56.0906935
  81.8387222  65.3574371  33.9160490  82.6357174  65.7028913  34.3181515
  82.1494389  64.6939182  33.3000708  50.5329990  83.6640072  41.8412638
  49.8366117  83.7465000  42.4927759  51.3012314  84.0505123  42.2615814
   2.8784606  56.1465406  21.5499496   3.4202865  55.3822184  21.3538098
   2.1049158  56.0402107  20.9962749  52.4300814  81.2612247  71.9320869
  52.7209759  80.4845619  71.4541721  53.0993843  81.3940239  72.6033783
  39.7844362  62.0864677  65.9776926  40.7360077  61.9868612  66.0063791
  39.4687700  61.5898895  66.7326736  69.1787148  55.6472015   8.4529352
  68.2380533  55.7341671   8.6072874  69.5087194  55.1986456   9.2314762
  57.6449347  69.0370846  34.5986509  58.5233164  69.3938398  34.4667482
  57.4791193  69.1488123  35.5347347  51.9629192  11.5841389  68.9222145
  52.5578928  11.9170606  69.5940781  51.7448997  12.3518121  68.3936548
  60.2250528  76.7224884  56.8262625  60.7991505  76.3570452  57.4993849
  59.5414543  76.0625601  56.7104244  46.4386892  46.7547226   7.3804581
  46.1340237  47.5870466   7.7419126  46.1985779  46.1046410   8.0407417
  69.1461897   2.3403941  45.8170795  68.4495640   1.7015821  45.6658745
  69.8622227   1.8291862  46.1941624  48.3719158  65.8877611  42.4545670
  47.9667759  66.5497255  41.8942928  47.8023338  65.8428383  43.2225466
  56.8498945  78.2397270  37.1948552  56.5703964  79.1287136  37.4135303
  56.0358000  77.7391720  37.1408224   5.0729960  85.5293369  21.8854976
   5.5184257  86.3760376  21.9160962   4.1850239  85.7362461  21.5940762
  35.8953619  76.8315744  37.4644256  36.1555362  75.9822655  37.1077514
  34.9403954  76.7883730  37.5134730  75.2095890  79.9706078  38.8303423
  75.4005098  80.4096794  39.6591973  74.5720005  79.2942381  39.0588975
  16.6941261  45.7520914  74.4907808  17.5524020  46.0028744  74.8323965
  16.7278826  45.9859371  73.5631990   8.4005386   4.8081595  59.3843222
   8.4978944   3.9919204  59.8747396   9.2859137   5.1695442  59.3425608
  53.7013292  79.4320393  70.5508947  54.2285967  79.9376249  69.9323463
  54.2524624  78.6835766  70.7795572  24.6177745  62.6813269  53.4302235
  24.3351674  62.4650383  52.5416374  24.2148852  62.0092344  53.9799547
  13.6002982   7.8773743  39.3109250  13.7599587   7.7470905  38.3761692
  14.4376194   7.6736438  39.7276020  37.1087313  84.6557236  14.6442437
  37.5160336  85.4901886  14.8766077  37.0979524  84.6527672  13.6871088
  48.9598036  62.8541279  55.8411264  49.3615627  63.6130333  55.4181814
  48.1318521  63.1846189  56.1897135  17.4446595  76.3801861   4.8293838
  17.6431620  75.4741764   4.5928016  16.7842114  76.6546488   4.1932151
  53.7356329  70.2584171  12.8889668  53.7860680  69.8923588  12.0059669
  54.5483732  70.7539606  12.9895914  62.1224260  62.8873301  47.2125483
  61.5878916  63.5318804  47.6762915  62.9871798  62.9579115  47.6168346
  66.8222189  64.9293232  22.3605466  67.0168543  65.0305319  21.4288259
  66.1846066  65.6181335  22.5482368  71.7552865  86.3934901  21.3414836
  71.3770509  85.7572889  21.9484591  71.3809836  86.1647066  20.4907274
  72.6108408  50.7611990  30.7500935  71.9712639  50.3273678  30.1853228
  73.3972931  50.8341742  30.2093554  54.6320105  75.0481892  34.1221237
  54.1064405  74.6685171  34.8262954  54.8701477  74.3019819  33.5719442
  63.0405569  52.4368906  63.5371065  62.5663805  51.6556835  63.8218927
  62.5867224  52.7159262  62.7418661  12.2003627  38.0619121  62.7199841
  12.3147213  37.2979546  62.1547174  13.0918586  38.3428669  62.9262114
  88.4487915  63.6025715  12.3271942  89.0674591  63.3356571  13.0070722
  88.1166744  64.4495726  12.6247203  77.7823734  56.3535023  28.1886005
  76.8751478  56.5193653  27.9323602  78.2960653  56.5861082  27.4151373
  47.7341032  81.9270134  40.4238987  48.6490393  81.6480446  40.3878021
  47.5818634  82.3583317  39.5830584  -0.0544405   0.0813549  17.9192853
   0.8921671  -0.0229008  18.0157161  -0.1718807   0.3799026  17.0174491
   8.2280487   5.5623895  38.0393791   7.3995680   6.0322177  38.1348395
   8.2526201   5.3050077  37.1177578  82.1442127  73.4347010  57.0603704
  82.8127384  73.3852339  56.3771009  82.1076488  74.3624926  57.2929621
  81.1902809  63.1231165  21.6698575  81.9505215  63.6839008  21.8240809
  81.5075970  62.2366762  21.8423676  42.0835161  84.4156933  22.7280235
  41.4215612  85.0614071  22.4808264  42.7113819  84.9070835  23.2576990
  74.7552395  61.3714600  17.7672637  75.3607702  61.7308807  18.4156275
  74.4909811  60.5256939  18.1293178  67.7757502  82.4807930  68.8730335
  68.4291983  82.9990005  68.4032536  67.1033955  83.1140423  69.1243601
  73.8022995  61.0519695  28.0989265  74.2119884  61.8339634  27.7289701
  74.1922140  60.3249025  27.6135707  69.1651154  51.6483927  23.0323410
  69.8227882  50.9791136  23.2214594  69.6619511  52.4650240  22.9822969
  90.9461784  76.2520409  72.8653049  90.8499718  75.6062031  72.1653986
  90.9886456  77.0933390  72.4107218  89.0638351   4.2608252  18.8067329
  89.5075989   5.0500864  19.1171622  89.5279884   3.5411698  19.2343831
  37.1048927  15.5018663  47.8085709  37.3889518  16.2361360  47.2641516
  37.7733898  14.8303652  47.6728153  88.8587666  83.8133049  25.8700418
  88.5811615  84.2302227  25.0543523  89.7318172  83.4706020  25.6788135
  37.5354695  77.2343683   9.3736684  38.1092191  77.3579025   8.6175066
  37.3381829  76.2977171   9.3741381  64.6622276  58.9764166  52.2091246
  64.3429852  59.2636156  53.0645990  65.6151342  59.0370226  52.2763920
   6.5860230   7.0882708  33.7138391   5.7525873   7.3291272  34.1183209
   6.6851068   7.7018219  32.9858494  63.2693958  74.6146774  30.2079344
  64.1680288  74.6639252  30.5339217  63.1968689  75.3456020  29.5941567
  67.0811558  13.0730319  71.2080240  67.0839262  13.8475358  71.7704916
  66.2881327  12.5986218  71.4575815  78.5636616  62.5890923  69.5685482
  77.8992128  62.0082808  69.9392271  79.2214012  62.6720190  70.2590036
  51.5929365  66.6594648  20.3248644  50.9565592  66.2958670  20.9405375
  51.4214897  66.1990499  19.5033693  77.2732687  67.7141142  22.8108454
  76.6245890  68.3637762  23.0817413  77.3346519  67.1129608  23.5531950
  74.4124556  77.5908852  40.3609896  73.7837076  78.2172394  40.7195902
  74.3785000  76.8466759  40.9620142  73.9488697  70.5605078  21.5913296
  73.2886791  71.1598921  21.2433124  74.6229649  71.1330509  21.9574118
  76.7422676  69.7749281  50.1211262  76.0019493  69.9941301  50.6869078
  77.1388817  70.6195354  49.9076557  36.0789919  48.5987663  45.6507778
  36.6592312  49.2727470  46.0047579  35.2027702  48.8683796  45.9260464
  82.3947334  74.0966892  33.1096101  81.9817066  74.2338753  33.9621496
  81.7972088  73.5102797  32.6455784   3.1681278  66.0224295  62.4317503
   2.8320903  66.1471796  63.3193016   2.5895986  66.5492201  61.8803596
  73.2151842   8.7232423   8.7423074  72.4563313   9.2525238   8.4968776
  72.8466129   7.9903698   9.2355478  17.6885176   8.1600201  28.6235094
  18.0695748   7.9934329  27.7613735  18.1650209   7.5754797  29.2129922
  87.5426102  53.1577015  21.9608855  88.4235764  53.4979630  22.1169472
  87.6841354  52.2784758  21.6099334   5.7262558  22.0166922  51.2067318
   6.2055165  21.3066149  51.6337347   5.7118022  21.7732000  50.2811337
  82.9393768  40.9800863   3.8184947  82.9660320  41.9359541   3.7755519
  82.1599483  40.7394791   3.3176523   7.5360417   8.3670497  45.7362890
   7.7996808   9.0822792  46.3152313   8.2406116   8.3091664  45.0909519
  87.4736118   1.4460790  36.4469123  87.6188755   1.8493305  35.5910397
  88.0232334   1.9512184  37.0460629  70.0262642  85.2736855  19.3474495
  69.8908710  84.3261147  19.3438411  70.3736877  85.4693031  18.4772420
  56.9260645  71.6984510   0.5817530  56.3284540  70.9664106   0.4294007
  56.4758110  72.2452021   1.2256234  44.6029854  79.2186880  32.9192972
  44.1205597  79.3580627  33.7342024  44.2835379  79.9034834  32.3317266
  69.5436287  71.1367941  19.1111219  69.2145586  70.9066820  18.2422185
  68.7564516  71.2387991  19.6460772  66.9070148  80.6948757  11.4414775
  67.8020096  80.9105396  11.1793542  66.5511370  80.2064610  10.6991601
  58.6106586  51.5733862  17.1300733  58.2106066  50.7708931  16.7951190
  59.5526886  51.4174891  17.0629287  19.6061910  29.5957507  74.3665581
  19.5403017  29.1413630  73.5266643  20.4616893  30.0243224  74.3405469
  42.4812365  83.7731361  27.3859191  42.9412556  84.2744827  28.0591702
  41.9086170  84.4117737  26.9610834  32.7714014  -0.1290521  14.2067266
  33.6933112  -0.2777105  13.9964521  32.6383686   0.8062339  14.0525365
   2.8272140  74.9656296  44.3692541   2.8324991  74.5637083  45.2379656
   3.2713586  75.8047819  44.4908857  78.4359980  84.9241829  41.9994307
  78.8220215  85.6497288  42.4901485  79.1820049  84.4937992  41.5817261
   3.5938612  69.2646170  16.0724413   4.1655120  68.4968615  16.0720766
   3.5403255  69.5238066  15.1525569  24.0237284  15.4474533  64.1275311
  24.0595436  16.2400210  64.6630573  23.1532669  15.4662549  63.7298155
  48.3609104  80.9427071  26.6981220  48.3992004  81.5741444  25.9797597
  49.1920471  80.4706955  26.6466737  53.7871408   5.4521376  17.8826165
  53.9681339   4.6852911  18.4261429  52.8344584   5.4606950  17.7901268
  18.3391345   3.7264913  37.1882200  17.5403047   3.4766790  36.7237878
  18.3827162   3.1241682  37.9308748  40.7484579  83.4717560  31.5344954
  39.9193740  83.4529877  32.0125127  41.2450361  84.1802406  31.9439960
  58.6855030  71.4406538  19.0423763  58.6768913  70.4836702  19.0610325
  58.0656719  71.6990948  19.7244704   3.8668615  77.0766640   8.4778911
   3.3469489  77.7778149   8.8707155   4.2235959  77.4624586   7.6778078
  57.5347376  69.1026449  13.4802055  57.5045872  68.4440565  12.7862406
  56.6690683  69.5106554  13.4609675  22.7677059  36.8991232  64.0825891
  22.9387331  35.9732723  63.9100122  23.6064792  37.2447777  64.3879032
  64.8661709  57.8175259  36.4209461  64.6877003  56.9061995  36.6530347
  65.5403996  57.7645493  35.7435703  88.6994267  57.6842117  35.2293038
  89.5134544  57.6755333  35.7328176  88.8711166  58.2881927  34.5068359
  10.0010503  23.9266623  74.4995000  10.7358373  23.9559639  73.8867507
   9.7934402  24.8456419  74.6686407  19.9755669  38.8747191  32.7477670
  20.0208664  37.9557228  32.4839044  19.4199729  38.8730049  33.5272193
  83.7960052  72.9649401   1.4852947  83.3622837  73.4726572   2.1711048
  83.1447220  72.3156643   1.2197743  90.0949383  11.3006830  34.9051523
  90.8867455  11.3859820  35.4361892  89.3977165  11.6569030  35.4558086
  56.0731125  81.0684490  40.3317261  55.1748037  80.7710075  40.4759741
  56.1464214  81.1569595  39.3814516  51.5612984  66.2574005   2.7591875
  51.9177914  67.1324444   2.6060832  51.9226885  65.7242775   2.0510826
  84.7796631   5.4792327  22.7460384  85.5769444   6.0049140  22.8110504
  84.3543243   5.7871825  21.9457364  82.1824741  81.3292885  26.2257695
  82.5189972  81.8770695  25.5166030  82.3643112  80.4330540  25.9430528
  11.4916587  15.5516148  64.5827770  11.2822652  15.0203288  63.8145876
  12.4337351  15.7076144  64.5165396  45.2709723  79.7807789  54.9288654
  45.6025696  80.6767654  54.9877834  44.9362087  79.5911646  55.8053446
  25.2869153  26.7785525  41.8376112  25.8733678  27.0983267  41.1520100
  25.3984022  25.8279634  41.8239975  46.3279676  72.4590921  59.6639490
  45.8101082  73.2241106  59.4133425  46.6419363  72.6607037  60.5454302
  43.3043289  82.1215630  24.8522520  42.4595690  81.7109108  24.6679235
  43.1901646  83.0340004  24.5864487  36.3586044  80.8739662  71.2219334
  36.4364409  81.7376995  71.6270733  36.7377043  80.2733803  71.8636513
  82.3124886  52.1111202  69.2962217  81.8432045  52.8486443  68.9062834
  82.1722794  52.2089958  70.2380276  86.9740486  59.2488480  23.7433958
  86.6534996  60.1490927  23.7985301  86.1923790  58.7269497  23.5621786
  56.1973810   2.9705918  61.0267878  56.5786314   2.1827236  60.6393051
  56.9210052   3.5963905  61.0580063   8.2317495   1.2916380   2.6363745
   7.3405546   1.3222034   2.2884245   8.3081460   2.0832005   3.1691262
  82.9820538  61.3040781  11.5981627  83.3431625  61.8007469  12.3324299
  83.1382465  60.3882551  11.8285930  12.0897722  29.0419364   6.6603178
  12.1236467  28.1742191   6.2576389  11.9270980  29.6387744   5.9298694
  45.0427198  64.0124035  49.3297100  44.8328829  63.0959558  49.1499233
  44.7292328  64.1592741  50.2221155  60.7597542  73.5645056  13.3339143
  61.6177273  73.5090828  12.9131484  60.8547401  73.0562019  14.1394174
  74.5017719  70.8329105  66.9347429  74.7347116  69.9320316  67.1592093
  75.0995541  71.3712215  67.4535036  48.3015871   3.7139210  63.4909439
  48.8151789   3.5816544  62.6940966  47.6645184   4.3886077  63.2560492
  50.9898329  49.5407438  68.0229092  51.0911703  48.7767553  68.5906076
  51.8402958  49.6348095  67.5938463  80.3455830  78.8741636  27.0527387
  79.5765400  79.0026474  27.6079822  80.1491070  79.3641996  26.2543082
   7.4113476  83.4390068  14.0437984   7.9922956  83.2854462  13.2987154
   7.3484004  84.3921089  14.1059840  83.8858318  55.1890469  54.6239853
  84.4527531  54.4251060  54.7299433  83.4994984  55.3224945  55.4895306
  37.3061395  18.3490002  37.7175355  36.5319109  18.2936871  37.1574092
  37.9417086  17.7632868  37.3061681  60.6785297  56.3446188  27.5664496
  61.0122585  57.0693111  28.0952930  61.4187002  56.0891819  27.0158815
  30.0538874  75.0767756  18.4440053  30.9486842  74.8879099  18.7266719
  29.5113730  74.8514318  19.1997385  18.9005625  25.4934931   4.5335075
  18.9770591  26.4459348   4.4766578  19.7835064  25.1710773   4.3527061
  31.5510654  10.3146923  46.8149281  30.7411718  10.7719803  47.0411873
  31.2876534   9.6733505  46.1549854  18.9241791   6.0986155  38.5455036
  18.7446392   5.3376859  37.9932499  19.7555327   5.8933300  38.9732194
  59.1364145  54.0342855  27.6978731  59.7637177  54.6741629  28.0344391
  58.5678244  54.5392084  27.1164989  53.6644936  76.2336874  40.2742243
  53.9370394  75.3300238  40.4334164  53.1703138  76.4762878  41.0572720
  29.5409727   8.9141786   5.8493787  30.0143170   9.1907984   6.6340172
  30.0149012   8.1406379   5.5439955  20.6733489  81.3035870  47.2813654
  20.5601430  81.5479469  48.1999016  21.4584827  81.7751312  47.0030880
  74.7856140  79.5834923  67.8053999  73.9967346  79.1458845  67.4854040
  75.2251339  79.8939323  67.0137691  77.2737408  77.2864437  31.2208796
  76.9507456  77.8710842  31.9065213  77.9519272  76.7651606  31.6504788
  11.1446714   0.9547050  69.4281578  10.9211552   1.1454123  68.5171700
  11.2739909   0.0065233  69.4495964  10.2200890  28.9802265  67.3705816
  10.1527941  29.9030471  67.1254158  10.5199456  28.9951253  68.2794809
  81.1388016  72.3258686  31.1064100  81.2012672  71.8044567  30.3061223
  80.4637623  71.8883896  31.6252255  41.8409681  50.3231096  20.6376243
  42.6454496  49.9432278  20.9908056  42.0734310  50.5928469  19.7491229
  31.6364312  58.0677032  72.2191620  30.9894466  57.7556801  72.8518438
  32.4317288  57.5779057  72.4285221  58.6493444  70.4893827  15.6143153
  58.3367634  69.8456049  14.9786472  59.4264412  70.8711863  15.2061784
  37.6913214   0.3549118  45.5597067  36.8840361   0.6546537  45.1417637
  37.4651337   0.2726696  46.4861584   8.4709114   8.6878097  16.6840947
   7.6919705   9.1772807  16.9484806   8.1308973   7.8548515  16.3572884
  18.3606541  51.2530375  29.7067308  18.7373257  50.4551268  29.3356681
  17.4161959  51.0975075  29.7002912  76.9351196  79.0091181  61.7390585
  76.7132664  78.9459133  60.8100700  76.7049026  78.1526089  62.0990944
  74.9083757  27.9957914  41.3359976  75.2923203  28.8599420  41.4845324
  75.6574678  27.4000645  41.3220119  79.5901155  72.0943546  10.0036108
  79.8924494  72.6475286   9.2833173  78.6421537  72.0402575   9.8824567
  25.3360581  79.1336489  24.4090009  25.6223083  78.3631420  24.8995256
  25.7132459  79.0162611  23.5371184   4.6619320  16.1679029  69.2688990
   3.8842979  16.7188764  69.3580389   5.0118196  16.3854074  68.4048939
  78.1185198  25.7987285  18.0048954  78.2228899  25.9930658  17.0734596
  78.7293148  26.3912964  18.4431076  49.7486973  10.6037831  60.5321884
  49.4180393  11.3313568  60.0053692  50.2642393  11.0222030  61.2216568
  11.6011834  28.0283523  20.2997088  11.1663020  27.1799278  20.3850579
  11.0030079  28.6473036  20.7184172   7.4531418  28.6394906  50.6948423
   6.8331772  28.2204437  51.2917328   8.3129007  28.4490561  51.0700512
  64.8574877  75.5891943  14.6272159  65.1633167  75.1529884  15.4224670
  65.4754639  75.3136683  13.9501452  62.2927856   7.4264199  11.7033279
  62.4993467   7.6451331  12.6120234  61.9130135   8.2283759  11.3443387
  12.5232565   4.5735687  38.4808683  12.4293292   5.2966130  39.1010427
  12.0152891   4.8459753  37.7166724  60.8178186  48.3834791  55.4526424
  60.5551243  49.1255999  54.9081421  60.8601856  47.6443672  54.8458910
  53.3130074  76.2237597  46.9732666  53.0181789  75.3216124  46.8490267
  53.5690308  76.5147495  46.0980463  25.7899189  34.3000460  15.1591480
  24.8831511  34.0346456  15.3126645  25.9475350  34.9950194  15.7982111
  43.7967110  83.2651615  51.8947697  43.4675932  82.7507973  52.6318884
  43.3948135  82.8638554  51.1242723  71.4991474  74.5082092  70.7014751
  70.6103086  74.3675518  70.3752661  71.5954828  73.8765240  71.4141655
  19.1326427   6.7065024  15.6353736  18.5338807   6.2984037  16.2608111
  18.6105001   6.8164867  14.8407030   5.1187342  16.2481499  45.4735661
   5.3224170  16.0734153  46.3923740   5.6561881  17.0078290  45.2493763
  90.3322983  18.2568014  27.8462696  90.6293011  19.0181530  27.3479128
  89.3913269  18.2117224  27.6766348   8.9996403  79.0615845  53.7180996
   9.1132396  79.6346474  52.9598570   9.8551595  78.6490011  53.8368082
   0.5050577  61.4782715   4.2309758  -0.4267870  61.2897635   4.1198090
   0.6069673  62.3764229   3.9160600  16.3383782  14.8720825  39.7916031
  16.2131274  15.5462742  39.1237640  16.8329799  15.3100526  40.4842663
  35.7540965   1.6079350  12.6834846  36.5451217   1.4224514  12.1774137
  35.1583648   0.8902586  12.4683714  38.0852342  67.3898840  30.4076147
  37.2340989  67.7537918  30.6512761  38.6885333  67.7277470  31.0695171
  30.9721327  84.0062904  35.3878951  30.0528789  83.8713551  35.6181073
  30.9958005  83.9184189  34.4350314  29.8503995  70.9416676   1.8281528
  30.0730872  70.2634430   1.1904585  30.6821775  71.1552906   2.2509313
  80.2666378  67.4203920  33.7869859  80.2023220  67.6095915  34.7230959
  80.7351971  66.5868902  33.7427306  10.7908392   3.1114772   2.6596600
  11.4721584   2.5802308   2.2475766  10.0093055   2.9509273   2.1308298
  67.7172518  54.5911884  45.2037382  67.1059513  54.5865965  44.4671726
  68.4152317  55.1871920  44.9320030  31.6538882   4.2150772  71.4959431
  31.0937524   4.2662758  70.7214403  32.1529531   5.0318068  71.4850092
   1.1526269   5.7631922  25.6183648   1.8771246   5.8986562  25.0076389
   0.8712102   6.6467190  25.8558869  25.9739470  17.2390032   9.0284967
  26.4621592  16.8472874   9.7526777  25.7471108  18.1155741   9.3389839
  67.8858662  52.5132322  64.7362375  67.3503447  53.3006954  64.6395254
  68.7711668  52.8430557  64.8901701  82.6054001  55.6728697  14.5292389
  82.3334885  54.9603653  13.9507627  83.1219769  55.2437305  15.2113092
  81.2923717  69.9335146  49.2043114  80.4470825  70.1278305  49.6092272
  81.0830975  69.3315458  48.4901237   7.3592287  37.5833654   8.3935273
   8.2420176  37.9432702   8.3075976   7.1845633  37.5994587   9.3345189
  88.3694839  56.0165215  49.6341372  88.4164238  55.3065872  48.9938021
  87.4346638  56.2066460  49.7128534  53.8931608  74.5043325  28.2265973
  53.7834215  73.8159180  28.8825512  53.2663488  74.2814875  27.5383544
  33.9689422  57.5709534   1.5967643  33.3898473  56.9068003   1.9706419
  34.4668460  57.9026365   2.3439649  29.5676613  22.2979045  46.9338703
  29.3562388  23.1845665  47.2260427  28.8158655  21.7708755  47.2045660
  27.1851420  14.5617175  13.9414430  27.3398924  15.2474034  14.5911503
  26.4477968  14.8845851  13.4234548  70.0532246  76.2593555  44.0005398
  70.1767159  75.3137207  43.9183092  70.2387047  76.6020441  43.1262398
  87.7008438   6.0682601  37.7967048  88.5270596   5.9902501  37.3197174
  87.3003864   6.8668711  37.4530768  48.7752342  72.2053337  27.2311997
  48.5347939  72.8285217  26.5455914  49.0611982  72.7525187  27.9626679
  59.3124008  74.1102457  24.2729115  60.0439262  74.6942043  24.4731402
  59.2522764  73.5321808  25.0334764  38.1178045   3.0807388  28.3147049
  37.7191091   3.4220725  27.5142264  37.7884316   3.6518282  29.0086794
  24.8167491  31.1596107  22.4806404  24.1405153  30.7257390  21.9603562
  25.4548240  30.4707193  22.6664329  15.3221178  42.0957470  35.0745893
  15.9971881  42.5717449  34.5909238  14.7826934  41.6896915  34.3960810
  88.7423897  21.4396048  27.3568201  88.4440517  22.3395658  27.2253227
  89.6964169  21.4928150  27.2999287  68.7079954  67.2005558  15.5004358
  69.3216705  66.5790796  15.1087725  69.2037773  67.6133823  16.2075460
   7.6899779  17.5315225  49.0214586   8.2277256  17.6867127  48.2449436
   8.1681395  16.8648887  49.5146036  13.7208140   0.5435051  44.2982292
  13.9959157   0.4223024  43.3894634  14.4832408   0.2846159  44.8158360
  91.5430856  54.9000072  69.1971540  91.6950034  55.8439541  69.1510963
  90.7115470  54.7687292  68.7415886  19.6042895  80.8985424  25.5238962
  18.7921929  80.5017757  25.2087593  20.2135825  80.8115387  24.7908020
  26.0645390   3.8893324  58.9902782  26.2832499   2.9646793  59.1060972
  25.5694056   4.1186658  59.7767115  52.8973389  78.0941868  13.5479009
  52.1597910  77.4882936  13.4761119  52.5115442  78.9020681  13.8866007
  50.1233578  45.2632093   5.1357794  49.7744036  44.3869495   4.9725887
  51.0384941  45.2117920   4.8598856  18.0504036   3.7142667  16.3528073
  17.5049639   4.3403780  16.8289495  17.8864491   2.8762886  16.7854083
  70.7015848  64.7160864  37.2943544  71.5787792  64.3336678  37.3170638
  70.7908392  65.4870510  36.7341018  15.9159434   5.6086081  16.8692458
  15.8054829   6.0756940  16.0410786  15.0438023   5.6109184  17.2637033
   4.9237582  15.0311327  22.2547221   5.7144654  14.7969186  21.7687607
   4.5369267  14.1911924  22.5018930   8.4966117   7.7783120  28.4715557
   8.2506937   7.0240676  29.0071607   9.1754282   7.4444616  27.8850555
  86.5214157  79.8854971  24.0908766  86.0115814  80.6949043  24.0569067
  86.3085270  79.5039034  24.9425220   6.7268062  77.9083300  28.1419873
   5.8307272  78.2022810  28.3059001   6.6631091  76.9539070  28.1066942
  83.8870907  66.0618258  29.5211530  84.8286438  66.1913872  29.6348333
  83.6030674  66.8131685  29.0005326  64.2945385  71.8077946  19.4479108
  64.3241739  72.5087309  20.0990963  63.3679199  71.5753174  19.3882465
   3.9021534  19.0396869  50.4494524   4.7376856  19.3433619  50.0946283
   3.2949394  19.0931022  49.7114325   4.0458858   7.6335108  52.0012426
   4.9371874   7.3342955  52.1809196   3.5930240   7.5549173  52.8408718
  63.4748363  31.7489529  17.6130021  63.3257103  32.4647951  18.2307088
  64.3560219  31.4359188  17.8173578  87.6198864  83.3502388  19.9475646
  88.2419968  83.0699158  19.2762768  86.7830658  83.4134960  19.4871604
  27.8028512  76.4406061  59.5330715  27.8793073  77.1407413  60.1813030
  27.7460551  75.6385374  60.0523901  64.4948339  66.8853378  45.8352041
  64.8896790  66.0142231  45.7966232  64.2889833  67.0955563  44.9243450
  35.9214067   2.1031778  67.9829502  35.5282593   1.2526393  68.1785345
  35.2464628   2.5718027  67.4919605  41.5225220  52.5755119  38.0353546
  41.7053747  53.3712006  38.5350275  40.5978107  52.3942661  38.2035398
   8.7533563  18.7218332  41.2610769   8.3573121  17.8541112  41.3413239
   9.6898836  18.5495901  41.1637115  64.7045135  40.9724855  56.7868805
  65.0540781  40.3067350  56.1945915  65.0574446  40.7384634  57.6453114
  67.7530098  84.7294807  10.9318483  68.2818556  85.4405403  11.2937176
  67.7519512  84.0597916  11.6157675  84.4031620  73.0635643  54.9439049
  83.7752151  73.0697632  54.2214966  84.9297428  73.8516617  54.8102999
  53.3953190  52.8586006  27.2240925  54.0458965  53.4280300  26.8133211
  52.7840805  53.4605837  27.6486301  62.9239511  36.1147738  14.0780938
  62.0569754  35.7988930  13.8235235  63.3403063  35.3609848  14.4960415
  21.1334801   8.6663508  33.3585620  20.8071756   7.7728152  33.2520151
  21.4316654   8.9182520  32.4845719  58.6031055  48.3601904  57.5569916
  58.4714079  47.6351357  56.9461012  59.4919205  48.6665630  57.3770380
  43.9629269  40.8561230   2.7396071  43.2404613  41.4591360   2.9146716
  44.5821333  41.3686752   2.2198895  63.8495207  56.5153408  47.4035025
  64.3162441  57.2965431  47.1066380  63.2497263  56.3079119  46.6869450
  63.3320713  79.5202160   1.8572715  62.4845457  79.6275949   2.2890162
  63.2669926  78.6774445   1.4081226  90.9146404   3.2685074  47.0076466
  90.7087803   2.5279209  46.4372206  91.2517357   2.8673717  47.8086996
  61.8692112  79.3465376  16.3835096  61.3662291  79.0751553  17.1513593
  62.0261097  78.5349512  15.9008706  79.2845154  64.9844265  47.0939684
  78.9642048  65.5271864  46.3735247  78.7310219  64.2038393  47.0702076
   9.1825825  27.9750919  35.5385852   9.7949791  27.4730945  36.0763621
   9.4417381  27.7825952  34.6374679  90.3334522  33.0423927  25.7412052
  90.4072857  32.4821496  26.5138030  90.6443024  33.8985157  26.0355711
  42.1989679  72.5327635  29.0360713  42.5451756  71.9190121  29.6838999
  42.2760677  73.3905983  29.4536924  30.3753185   4.9562022  42.6297283
  30.0656176   4.3854192  41.9265032  29.6416807   5.0003982  43.2429600
  82.2747517  77.1621990  52.9273081  81.8997478  76.4383698  53.4289742
  83.1080818  76.8216991  52.6019478  67.7333832   7.4392569  30.7505298
  68.5406160   7.3169327  31.2501764  67.9994392   7.3368376  29.8367691
  21.4439416  36.8863058  18.1458628  20.6436205  36.4724350  18.4690166
  22.1180177  36.6273546  18.7741911  70.4440641  25.7314730  32.9174876
  71.3863516  25.8911824  32.9706430  70.1301813  25.8495045  33.8140249
  82.5145054  23.8588905   1.1292661  81.8203545  24.2726111   1.6423225
  82.7353191  23.0670714   1.6196698  42.2469950  73.0689096  72.3550510
  43.2025766  73.0914402  72.3041868  42.0286703  73.7004662  73.0403996
   9.0149748  10.7562995  55.4597378   9.0470862  10.3198826  56.3110542
   9.7537625  10.3891277  54.9743414  69.3412638  67.4709177  64.5698977
  68.8409424  67.2959137  65.3669453  68.9828777  66.8624640  63.9236975
  77.3195410  31.0239458  44.9627924  76.9138384  31.8630433  45.1808596
  76.5878534  30.4083657  44.9188709   4.8128471  18.0576658  14.8153567
   4.9349901  17.9727483  15.7609260   5.2886826  17.3144197  14.4446850
  71.3381481  55.4985142  32.5466561  71.7339659  55.9148932  31.7810273
  71.0457516  54.6438026  32.2301054  10.0543821  76.6223049  62.8273201
   9.9465501  76.0595465  62.0605707  10.1965916  77.4966335  62.4646091
  64.7969580  79.2165089  41.2572384  64.1544342  78.5121441  41.1719465
  65.6029844  78.8508749  40.8927298  30.1552153  31.4712620   0.2672182
  29.2827582  31.1157250   0.0979711  30.3272796  31.2573481   1.1842058
  70.1497698  19.6617568  43.7171221  70.8605957  19.3963695  44.3006706
  70.4971504  19.5197988  42.8365469  88.0776215   7.5391787  44.5769453
  88.9928150   7.8085876  44.6547604  88.1033516   6.5840733  44.6347666
  85.0349712   2.4725600  36.3213253  85.9847260   2.3735610  36.3876629
  84.7912788   1.9420984  35.5627394  60.0659561  61.5387440  21.5730166
  60.9301567  61.5374899  21.9845843  59.4512606  61.5467072  22.3067188
  70.0072765  13.0019522  53.4950161  70.1973248  12.8569567  54.4218874
  70.8562183  12.9191756  53.0606508  13.5570121  30.1140547  73.6237001
  12.8789663  29.4518018  73.4898806  13.7636042  30.0601697  74.5567846
  77.9358339  56.8627691   6.1734039  78.0483580  57.1660566   5.2725226
  77.5196457  57.5979614   6.6234130  18.1145513   1.4902478  32.8208399
  18.8059950   0.9637684  33.2220364  18.5700536   2.0344566  32.1785116
  66.4092302  72.2066736  37.5605083  67.0363569  71.6455936  38.0167270
  66.9524527  72.8203726  37.0660233  71.7266560  83.0373764  17.0190752
  70.8151484  82.7605247  16.9255793  72.2306967  82.2257519  16.9603848
  15.6864953  20.2855253  18.7299907  15.3445244  20.0517392  17.8670704
  16.2952220  19.5790577  18.9458334  22.7441096  84.4731045  35.8224034
  21.8650508  84.4814205  36.2011075  22.8058839  83.6270523  35.3789973
  60.0789785  71.3186550  55.3159714  60.0289297  70.4099560  55.6126022
  59.1831923  71.6463852  55.3959036  54.2312431  74.7092533  42.7249146
  53.8349056  74.5587111  43.5831022  53.6991072  74.1910887  42.1211147
  82.9510784  37.2470284  42.0245457  82.1702671  37.7923894  42.1201801
  82.6664925  36.3725972  42.2902775  59.6572399  83.9749813  47.0236874
  60.1873159  84.4653511  46.3953638  60.0691128  84.1471672  47.8704119
  19.2577076  43.5790491  72.5918818  19.3930554  44.3131828  73.1910133
  20.0688410  43.0736351  72.6452827  85.3797340   6.8573248  43.2111549
  85.8613110   6.2864757  43.8098526  85.6989861   7.7374065  43.4105635
  11.2709546  20.9360623  57.3129892  12.2003591  21.0180831  57.0991898
  11.2449741  20.3010464  58.0287457  82.6049709  63.8028097  57.5042295
  83.0562782  64.4992876  57.0272875  82.8487301  63.0000687  57.0433331
  63.7439203  75.9709644  50.5696106  63.8586044  75.0219631  50.5198479
  62.8302956  76.1150646  50.3231096  29.4819474  38.0671191   2.6020879
  28.9994168  38.1689715   3.4224662  30.3541899  38.4121490   2.7928299
  74.2951202  19.8323643   7.0439398  75.0923395  19.8170352   6.5143728
  74.5900679  19.6111536   7.9272866  75.3805351  15.7752407   7.1914691
  74.9811649  16.4160001   6.6031116  76.3213825  15.8642375   7.0394224
  67.4255848  68.4314251  11.1420083  68.0383968  67.7181911  11.3208675
  67.6495123  68.7236977  10.2584553   3.9546227  60.6062794  21.2853193
   3.8599870  61.3840914  21.8351269   3.6007619  59.8929691  21.8165469
  75.5252123  59.6496487  50.4657984  75.6531429  58.7218952  50.2679586
  76.3956356  59.9648952  50.7091379  55.2192307   0.7942263   5.4430401
  55.7854080   0.5724297   4.7037968  55.0657654  -0.0403094   5.8860195
  79.5094013  20.3631973  16.3535690  79.4299269  21.2828207  16.1001801
  80.1173496  19.9905002  15.7150364  63.3977699  46.1785078  43.5271025
  63.7696457  46.2249422  42.6463127  63.9680529  46.7350006  44.0575027
  78.8855171  57.8351021  49.6222210  78.2711315  58.2401037  50.2343798
  79.4356203  57.2753048  50.1701689  83.0664635  28.2348895  63.2722282
  83.3020496  27.8154230  62.4447155  83.8739777  28.2214165  63.7860012
  34.0160704  74.7822523  21.4263368  34.6622491  75.4113102  21.7472219
  33.3343458  74.7753429  22.0982289   3.0396473   1.1161656  48.9982510
   3.3809030   2.0099151  48.9668131   3.7170440   0.6170547  49.4545984
  24.2226291  27.3590469  48.1244040  23.7659073  27.7113271  47.3605108
  24.3243122  26.4265633  47.9337025  89.4815540  19.3069935  45.5131531
  90.0577450  20.0389814  45.7332277  88.6096573  19.6007144  45.7772446
  78.1054115  18.4236860  43.1214619  78.3688164  17.5445461  42.8495026
  78.2046890  18.4196973  44.0734959  88.0472851   3.4925899  31.1268830
  87.9222679   4.4376478  31.0404730  87.1851921   3.1586289  31.3748741
  68.2729101  65.5486822  34.2530775  67.5928926  66.2198448  34.1951513
  69.0822268  66.0076857  34.0282345  51.1493397  66.5497017  60.1903963
  50.6915283  66.2941885  59.3895531  51.6607380  65.7771111  60.4308224
  32.7712417  26.4904785  22.4057412  32.8824353  25.8875990  23.1408620
  32.1909213  27.1735024  22.7418041  67.6284218  34.6886206  66.4426422
  68.3464003  35.3192496  66.4978123  67.4844265  34.5711637  65.5036545
  16.1210930   0.2188082  21.2641573  16.5762734   1.0478120  21.4117885
  15.1921427   0.4414955  21.3249230  39.2931604  79.8037434  49.0444946
  39.6149254  79.7544575  48.1443453  39.3385553  80.7342148  49.2644691
  85.7545757   1.7991546  68.8751030  85.7505894   2.2683790  69.7093916
  86.6419888   1.9192626  68.5369968  31.6959929  10.4196727  22.9968071
  31.0989547  10.7003081  23.6903667  32.1999907   9.7064775  23.3886886
  85.9473228  79.8921394  46.0777617  86.7894173  80.0996113  46.4828014
  85.9482098  80.3852081  45.2573299  83.7628460  63.3111668   7.5179768
  83.0521393  62.7396536   7.8086638  83.9207172  63.0539656   6.6095954
  78.9246178   3.4816748  67.8481293  79.3924141   2.6951209  67.5675392
  78.0859756   3.4382474  67.3887634  16.1081970  53.9307642  48.7769699
  16.5575778  53.2119417  48.3324575  15.1915121  53.6570501  48.8086224
  12.0194459   2.3492000  55.2216434  12.0976377   3.2423881  54.8864794
  11.7993522   1.8232721  54.4527531  33.7912917   9.8723167  43.4798813
  34.3998408   9.5424753  42.8187418  34.0679431   9.4488931  44.2925358
  59.8182821  81.7984295  15.9245312  59.9280071  81.1308098  15.2474189
  58.9876080  81.5779018  16.3459408  14.0441382  49.7202635  10.6311083
  13.8679981  49.5977354   9.6982670  13.9201939  48.8519287  11.0143340
  17.5160658  80.0575924  51.2910843  18.2616663  79.5938683  50.9099436
  17.0398045  80.4057693  50.5373096  54.5014906  56.6791773  66.9953299
  53.6834812  57.0272732  66.6404724  54.4369888  56.8303013  67.9383183
  75.8669090  49.1794348  26.9042325  76.7199612  48.7855291  26.7215681
  75.6268454  49.6196651  26.0888791  25.1516366  73.1285095  17.3708606
  24.5896530  73.2930374  18.1280518  26.0153151  73.4401274  17.6413882
  81.3637733  74.9271250  50.2586794  80.6983185  75.3792667  50.7773066
  81.4188766  75.4319096  49.4472694  38.8920784  14.1693354  24.2508245
  38.5524058  14.4889498  25.0867081  38.8356447  13.2161701  24.3180776
  51.9829369  37.8178191  70.5968523  52.6833630  37.1886349  70.4243469
  51.8859816  37.8131771  71.5491199  36.2439966  13.7342298  33.4973168
  35.3799391  13.4175217  33.7606239  36.7939448  13.5993469  34.2690659
  46.8301916  84.3193722  12.0229709  47.7353954  84.5954895  12.1664917
  46.4809561  84.1767120  12.9026949  27.0156765  16.8353415  31.2812853
  26.4256096  16.0821033  31.3074589  26.8247056  17.2602534  30.4450965
  79.7071981  80.1820374  11.4652467  79.6933985  80.9355354  10.8750856
  79.6369219  79.4230270  10.8862877  44.6845007  29.5023751  72.4097300
  44.9557924  28.5846448  72.4298477  43.7649107  29.4745541  72.1455145
  82.5203228  73.5609531  59.9228048  82.3761177  72.8966284  60.5966806
  82.3727894  73.1002426  59.0968418  17.3522925  37.5714707   3.2845119
  17.9416406  36.8253016   3.1743681  17.6030934  38.1794715   2.5890496
  30.2968693  72.9219007  25.1915312  29.8937988  72.8543472  26.0570955
  29.5868731  72.7245712  24.5806336  24.4827127  28.5212207  65.4887056
  24.6817112  27.5849748  65.4974794  25.2028751  28.9237094  65.9740925
  17.0128417  78.0335808  36.4538956  16.9427359  77.7446985  35.5440259
  17.8606987  77.6994085  36.7466378   2.9209682  16.2503374  30.9718800
   3.8578305  16.0540926  30.9749079   2.5744870  15.7530653  30.2310014
  23.8437295  26.1001492  17.2819519  22.9906917  25.7366109  17.0444667
  23.9721918  26.8272662  16.6728306  29.8361683   7.8135580  26.3699460
  29.0172029   7.6395547  25.9059930  29.6242929   8.5286832  26.9698906
  39.7716784  41.7263222  18.4063554  38.8302398  41.8895292  18.3490419
  40.0485611  42.1951962  19.1935813  15.4357195   9.6274489   5.0827235
  15.9411573   8.9173812   5.4784107  15.2492392  10.2223349   5.8090615
  71.9600058  81.2635517  49.5060301  71.0709047  81.5078259  49.7630501
  72.5125217  81.5876389  50.2173138  40.3810263  13.0566347  39.8508501
  40.3294325  13.6831629  40.5726767  39.5461345  13.1504118  39.3921638
  77.9210806  18.2779956  36.2688184  77.0317078  18.6252117  36.3372755
  77.9041147  17.4723923  36.7854881  32.8448749  14.6118045  20.8500767
  33.3852768  13.8547468  21.0760403  33.3500576  15.0760186  20.1825976
   0.6200992  64.9722004   7.3463905   1.2066580  65.0862312   8.0941725
  -0.1888428  65.4124546   7.6072013  65.5710220  67.2446060  51.2188816
  66.1085892  67.1396780  52.0038986  66.1919451  67.4963951  50.5352974
  82.7067661  44.5757103  30.5191803  82.4608517  44.7962761  31.4175725
  82.4053001  43.6747217  30.4026747  35.9609365  45.7620859  70.9428835
  36.6662526  45.6147623  70.3127575  35.8512688  44.9182606  71.3812447
  52.8755569  44.3160915   5.5325711  52.8533030  45.2321672   5.8092350
  53.6321163  43.9466763   5.9879589  39.9046874  12.9128909  27.6983953
  39.9497700  13.1316161  28.6291790  39.0116310  13.1423438  27.4414229
  20.3239417  84.5154285  17.1306765  19.7216725  84.6035385  16.3919353
  20.5045652  83.5768127  17.1818089  19.1776538  81.3823509  18.6219096
  19.7529364  80.6950188  18.2859683  18.6099517  80.9342766  19.2489457
  14.6692872  65.8221054   2.4329361  14.5621479  66.3345194   3.2343006
  15.4602516  66.1760139   2.0262977   7.8809303  76.1653137  64.5496464
   7.8412485  77.1199846  64.6067238   8.6766493  75.9882402  64.0479374
  12.9063761  50.4487085  41.6579294  12.1429503  50.0178146  41.2735605
  12.5859296  51.3102055  41.9250774  44.1730785   8.9486617  15.3334343
  45.0083494   8.5536587  15.5834889  44.3371439   9.3300098  14.4709456
  89.3523312  80.6197739  23.9369941  90.0286674  80.1249886  23.4744143
  88.5314846  80.1968670  23.6847973  29.0491223  19.6840942  22.7517533
  29.8480296  19.7238052  23.2774925  28.7785482  18.7670040  22.7961111
  41.2631321  16.2377775  18.8277960  41.8122959  15.4539621  18.8446152
  41.2488079  16.5004873  17.9074645  28.3440137  74.1834545   8.8933212
  28.5369205  73.6052752   8.1552660  28.1040502  73.5907125   9.6055746
  86.6246414  54.4436932  36.0603404  86.4431477  55.0144386  36.8070269
  85.8293819  54.4840765  35.5291414   6.5010649  85.2916050  18.3274841
   6.3089669  84.8239422  19.1402698   5.8130705  85.0135803  17.7228391
  65.6929588  80.1499748  17.3784649  66.4325523  80.3192425  17.9620624
  65.4264975  79.2537069  17.5832677  14.3990445  79.0051937  45.3488684
  15.1586056  78.4342623  45.4643440  13.9174247  78.6181450  44.6177959
  69.4973230  54.5288658  67.6600885  69.7416401  54.0160990  68.4305477
  69.7825718  53.9963007  66.9176292  10.2416360  51.6897345   3.7822691
  10.7640743  51.3323641   3.0642313  10.3149796  51.0378695   4.4793540
  50.9942770  45.6560135  71.4562702  51.3037920  46.3857031  71.9929075
  50.4883957  45.1122808  72.0601559  26.0972500  32.6020455   6.1814618
  26.3562965  31.9006515   6.7791009  26.8295622  32.6781797   5.5697817
  24.5529890   4.8487777  61.2247372  24.6439099   4.4932520  62.1087980
  23.7700200   5.3978038  61.2667274  34.1173244  23.9129853  19.8866463
  34.6371722  23.7889767  19.0925360  33.3015513  24.3085098  19.5795524
  34.1899633   5.0864708  49.7974539  34.5107102   5.7709652  49.2102432
  34.9676895   4.5715469  50.0124598  10.7608318  76.8310881  37.9019046
  11.0543573  75.9301281  37.7664590  10.4132712  77.1001530  37.0515871
  39.7458053  39.5724034  72.7982330  40.1028442  38.9174485  72.1984100
  39.4831777  40.2979851  72.2318506  38.3233261   5.3734934  18.5376489
  38.6587358   4.8482472  17.8111172  39.0107489   6.0183972  18.7043262
  51.2662506  72.5888205  20.9485412  50.7303572  72.7712584  20.1766801
  51.0103941  73.2595253  21.5817285  31.1502624  61.6277695  42.1928453
  30.5563903  61.7004681  42.9400158  31.0823798  62.4735260  41.7497587
  51.8935490   2.8915685   7.0218229  51.2575531   2.2757632   6.6577888
  52.3621893   3.2306859   6.2591904  65.3744268  75.9523058  23.0785012
  64.5208073  75.5215120  23.1230259  65.4144430  76.4871359  23.8713360
   8.4770983   4.0552369  25.2711701   8.9148188   4.8921591  25.4267120
   8.8366163   3.7479368  24.4389772  80.4530907  85.1781464  38.3607292
  79.6760798  85.6144333  38.7102151  80.5457020  85.5275822  37.4744177
  88.8749695  77.9112530  33.3649635  89.2921829  77.6618338  32.5403714
  87.9379368  77.8045797  33.2011580  22.5130868  10.1984274  11.1787438
  21.6621685   9.7737801  11.0699117  22.9870081   9.9953467  10.3722775
  25.2950525  73.4321880   1.7687553  25.9871173  72.8238964   1.5094183
  25.6930852  74.2984772   1.6830359  31.8091869   0.0825483  26.2592340
  30.9934521   0.3755038  25.8530450  31.5514350  -0.2019964  27.1360636
  29.3800306  -0.0625927  12.3006117  28.8464880  -0.2516968  11.5287316
  28.7700510   0.3352230  12.9218102   6.0042000  79.8354483  45.5787992
   6.8320674  80.2755928  45.3860760   5.9967542  79.0743971  44.9983072
  54.9538136  34.5825267  21.8608928  54.6289873  35.0316858  21.0805225
  55.4649067  33.8486934  21.5195608  90.4042244  23.6260939  62.1982622
  90.7004929  22.8551888  62.6821661  89.5197105  23.7891436  62.5257874
  76.5300894  61.1430311  70.7759809  76.3250017  60.2325392  70.9885120
  76.0630322  61.6542912  71.4368200  49.4394112  32.5053000  19.8205447
  50.1763344  32.8361487  20.3340745  49.6234131  31.5723467  19.7111201
  71.0696589  44.5612784  -0.0538992  71.2171160  45.4185182  -0.4534316
  71.8052660  44.4478137   0.5479646  36.6328502   4.2824620  26.3430929
  37.4257469   4.5455343  25.8758259  36.0400510   3.9775664  25.6561732
  28.3863211  23.7214494  36.6379261  28.2641268  23.3487654  37.5110865
  27.5326395  23.6266994  36.2154531  49.0141869   2.3824838   8.5116732
  48.8835096   2.8499949   9.3366510  49.6390581   1.6896027   8.7254089
  86.2206841  75.8736944  70.1902342  86.2524891  75.2485704  70.9144211
  86.4494705  76.7134905  70.5885315  59.6275043   2.2445734  72.0194530
  59.0704489   3.0210012  72.0749807  60.1803064   2.2901180  72.7995634
  67.5188065  49.8051167  62.8092289  67.7615261  50.7139730  62.9861307
  66.8584204  49.8636150  62.1187925  11.8437755  16.8860447  14.4905293
  10.9544098  16.5690732  14.3330812  11.8581033  17.1064973  15.4218876
  24.1951489  18.4723759  63.7495422  25.1247263  18.2674599  63.6489153
  24.1764617  19.4083095  63.9493227  29.2642379  83.1721687  31.5583014
  28.8644433  82.5899792  32.2044015  29.3838668  82.6235294  30.7831144
  15.7953274  15.0967896   1.5467010  16.5863359  15.5636966   1.2773785
  15.3323162  14.9180603   0.7282217   2.9740998  76.8654108   5.0740057
   2.4798054  76.5586567   5.8341414   2.3450907  76.8395948   4.3529561
  45.3845978   5.8401155  31.4308619  44.8279190   6.0577703  32.1785021
  46.1465406   6.4117658  31.5251279  55.9937954   8.7245876  12.0543790
  55.9654951   8.0202055  11.4068627  56.8714762   8.6675906  12.4320817
  41.6136932  27.7576089  10.1935589  41.8158340  26.8238187  10.2519238
  41.1378288  27.8485131   9.3680155   7.4757403  27.2818971  22.8626013
   7.6076698  27.7823949  22.0574117   6.5308642  27.1335006  22.9002714
  20.3378510  83.8419724  37.3707628  19.4666624  83.4488964  37.3182845
  20.3413010  84.3057919  38.2080722  24.7022319   6.3872248  35.7245922
  24.2753983   6.8893003  35.0303555  24.8643017   7.0270091  36.4178753
  35.4514718  37.4170184  10.5687559  36.0820961  36.8880153  10.0801873
  35.6451893  37.2325253  11.4878130  19.5802820   9.1345757  13.0632567
  18.7951899   8.6442536  13.3070719  20.0913048   8.5212785  12.5350952
  47.5246525  42.5434446  55.8786345  48.2657194  42.7096415  56.4612436
  47.6547146  41.6446877  55.5760670  67.2255373  13.9122105  59.4920921
  66.9136572  13.0594361  59.1892147  67.2781372  14.4438946  58.6978769
  65.5316734   7.7442122  36.4292932  66.4041042   7.6541215  36.0459185
  64.9361467   7.7069938  35.6808305   4.7893623  49.9226427  74.3638515
   5.1810730  49.3145466  74.9907589   5.5225688  50.2122259  73.8209105
   8.2554090  82.2005272  40.6105518   8.6445731  82.3244572  39.7448587
   8.8352406  82.6774597  41.2043190  18.5809112  83.2612133  23.5962319
  19.3438625  82.6902008  23.5063386  17.9099202  82.8522205  23.0496740
  82.9444504  71.6160727   4.1139367  82.6923466  72.1314240   4.8801541
  82.2449493  70.9695530   4.0194112  62.9459572  68.2985020  66.3252878
  62.8740311  69.2395544  66.1656809  63.8797140  68.1102514  66.2309694
  90.3380476   0.7476204  15.1715147  90.3196560   1.3735645  14.4475758
  90.4873692  -0.0996144  14.7518504  80.9137821  60.9774590  74.1781282
  80.0621700  61.0984135  73.7581921  81.1694908  61.8561935  74.4586039
  14.7718132  21.2414479  33.1012177  15.2798748  21.3626194  32.2990823
  14.9754715  22.0113087  33.6323214  34.7458959  29.2274618  26.2476611
  33.7941527  29.1690111  26.3313389  35.0470853  28.3203888  26.2999511
  34.8919201  16.3861871  14.1464818  35.6360555  16.8963766  13.8267922
  34.1260195  16.9173086  13.9284527  18.9542449  23.9350963  22.6940846
  19.0017521  24.8911095  22.6903749  18.2750249  23.7315345  23.3370900
  21.3430429   6.3665438  20.7200360  21.4292049   6.6334885  21.6352129
  21.6222310   7.1332580  20.2196002  22.6917148  23.3737659  14.4881642
  22.8052425  22.7897048  15.2379751  23.5489178  23.3863211  14.0623963
  40.0024748  36.6202903   7.7881539  40.0459862  36.3393521   8.7021625
  40.0717878  37.5741792   7.8272200  60.6269884  19.8897874  24.4957924
  60.8162117  19.0362000  24.1061592  61.0622168  20.5179524  23.9194083
  40.4391003   6.7844111  32.0850205  40.2506876   6.4251953  32.9520249
  39.5791864   6.9941646  31.7206240  41.4505386  18.9072227  55.8858967
  42.3763132  18.8507426  55.6492710  41.4514923  19.2687476  56.7721987
  31.3350081  16.7345107  13.6571765  31.7430639  16.3750565  12.8694487
  31.5299988  16.0941815  14.3414187  22.2650075  15.2941680  18.6761677
  21.7041540  15.1397586  19.4363213  21.8740392  14.7674012  17.9791069
  73.7578297  17.7063179  51.4562845  73.0459595  17.3919439  52.0136356
  73.3348751  17.9179192  50.6240797  10.1091659  85.3280544  34.3856406
   9.8388600  86.2252712  34.5809937  10.9977913  85.4153442  34.0407372
  17.8349614   3.6314693  13.5151565  17.0642483   3.9781421  13.0656552
  17.6384497   3.7398067  14.4456816  75.2265310  64.3570566  16.3047409
  75.7138777  63.6339092  16.6994357  75.6289768  65.1448441  16.6703367
  41.7122126  14.2108846  13.8877058  40.8196354  14.3773723  14.1907203
  41.6444254  13.4064257  13.3734262  50.3615952  77.2324276  64.0493727
  50.1180553  76.4196873  64.4925213  50.0351334  77.1252060  63.1559753
  45.2986431  12.8726077  70.4235315  45.4599810  13.1107664  69.5105791
  44.9402475  11.9860995  70.3800535  43.9065123  17.9348421   1.5616275
  44.3315744  18.2802403   2.3466459  42.9741764  17.9261839   1.7782202
  59.7018480  41.1940813  16.2182200  59.0980864  41.8554735  15.8801961
  60.1475620  40.8571196  15.4410267  28.4742379   5.4595876  53.7575722
  27.9917836   5.2403325  54.5546913  29.2695165   5.8910561  54.0699816
  17.8483212  27.1757936  34.4913006  18.1476796  26.4572263  35.0483274
  16.9692791  27.3773098  34.8120928  22.2900510  -0.2127451  32.1533537
  22.7640200   0.5484241  31.8183804  21.9492006   0.0715243  33.0014348
  15.6919551  71.8431807  59.5569420  16.2122941  72.6337242  59.4136858
  15.3663313  71.9298601  60.4528713  45.5846214   3.6103192  29.9190354
  45.4333067   4.3365717  30.5239248  44.8674679   3.6708468  29.2879581
  89.4950485   1.5201624  21.5642810  90.1971245   1.6205011  22.2071385
  89.9215317   1.6638385  20.7194710  17.1824193  11.5339530  22.9771233
  17.8220224  12.2442210  23.0286860  16.7616701  11.6518879  22.1254802
  45.9788084  27.5624108   7.9715526  46.2858486  28.4246325   8.2517940
  45.1762915  27.7415562   7.4815488  59.8747540   3.4754252  41.2469673
  59.2432213   2.7798140  41.4300680  59.6622849   4.1638014  41.8772268
  11.9392896   4.5389947  43.5915184  12.7547765   5.0328898  43.5061884
  12.0268095   4.0740615  44.4236279  79.0140009  80.4080772   6.4073497
  78.1506777  80.8058739   6.5198475  79.4189882  80.9105778   5.7004541
  35.6460714   1.5541303  31.1524653  35.1430058   1.0656852  31.8040609
  34.9908948   2.0670080  30.6792521  53.6588430  57.5101233  72.8074408
  52.8724527  57.8383112  73.2434607  53.4826040  56.5803432  72.6636171
  54.2848778  10.6062317  50.3654385  53.4874201  10.4551518  50.8728504
  54.1225767  10.1704371  49.5287943  16.9312012  13.2483244  61.4810038
  16.8548536  12.2982085  61.3933563  16.8439710  13.5791028  60.5870199
  31.4448333  59.4356918  29.6781707  31.5552664  60.3346825  29.3685675
  32.2332525  58.9814758  29.3809891  73.8867569  49.9876547  34.9677777
  73.2836056  49.3664217  34.5597148  74.7138929  49.5104218  35.0335550
  33.6205864  24.8517656  31.6160417  33.3373761  25.7534218  31.7678404
  33.6846018  24.4702077  32.4915671  67.6336241  20.4180145  28.3630562
  67.7483749  21.3643980  28.2769060  66.6871262  20.2974987  28.4395671
  64.7007227  75.8883333  33.5716438  64.0425062  76.4716434  33.1938457
  65.2193975  75.5953217  32.8224087  30.5726147   9.3870705   8.9981139
  29.7619152   9.8419189   9.2263907  30.5464220   8.5791010   9.5106858
   4.9813864   2.7183992  13.5625970   4.0848556   2.4308607  13.3900106
   5.4889566   2.3742928  12.8276181  24.6140528   5.6520438  41.0082626
  24.1128278   5.2188593  40.3173542  25.0044727   4.9342775  41.5068769
   5.3466499  82.9866982  36.0929275   6.0584599  82.4085712  35.8184576
   5.0691271  82.6391506  36.9405270   4.5362115  51.3578892  62.6432896
   4.5155472  50.4408693  62.3696518   3.7918442  51.4470768  63.2384300
  32.7103329   7.6725990  17.7232897  32.3654485   6.9494611  17.1994984
  33.6353588   7.7229446  17.4824047  17.7889514   9.0054375   3.5143989
  18.5129476   9.4740534   3.0991137  17.0580673   9.6230143   3.4891385
  78.6834764  62.6273251  59.8443604  79.0367413  63.0137300  59.0430355
  79.3429661  62.8157330  60.5120516  26.3421988  73.4679699  70.2194214
  25.8460331  74.2708397  70.0598907  27.2545934  73.7169456  70.0718451
  14.1808701   3.4775004  23.5820508  14.8830473   3.5106099  24.2317295
  14.3936014   2.7193028  23.0378866  27.4432254  77.5166082  43.3632183
  27.7075410  76.6793156  43.7444162  27.0730925  78.0075693  44.0968323
  56.8613577   6.4115179   2.0059842  56.2417078   6.0232770   1.3883024
  57.3465633   7.0530856   1.4871404  53.5446835  29.0961075  72.1308899
  54.3634558  29.4861555  72.4370003  53.2300186  29.6981239  71.4565086
  55.8564711  66.4717150  60.8994150  56.6747379  66.9238186  60.6938076
  55.1845837  67.1501684  60.8323383  19.4501889  47.7833128  19.7309470
  20.2211523  47.2570896  19.5189643  19.5329380  47.9629421  20.6674910
  48.8840628  18.0087459  11.7145526  49.1762829  18.9188337  11.7653322
  49.6738386  17.4939907  11.8804336   1.0484982  45.8273029  71.9479227
   1.2831682  46.4826965  71.2909460   1.7106676  45.1429653  71.8507195
  44.0355730  77.4985075   6.5198880  44.4567204  76.6792345   6.7800003
  43.3859777  77.2372007   5.8672202  81.7154980  12.0995569  69.7212696
  81.8893814  11.4026845  70.3540134  82.5731754  12.4898434  69.5530796
  57.2546911  24.5704126   4.6450055  56.9000435  25.3986216   4.3216923
  56.5146828  24.1463351   5.0794935  48.2837296  11.5707505  20.3766990
  48.9380217  11.2813377  19.7407937  48.4967232  12.4898958  20.5380583
  34.7157812   3.0335400  21.6827011  34.9327922   3.2901248  20.7864285
  33.7642217   3.1237856  21.7339325  42.9531860  -0.0080384  17.0016718
  42.7699900   0.9311792  16.9783878  43.0541754  -0.2093743  17.9319930
  38.2546997  24.9423051   7.7490979  37.5482154  24.5350695   8.2503694
  37.9903412  25.8582664   7.6632881  40.4358912   7.4815738  11.6175115
  39.7197104   7.9844648  12.0053494  40.0128222   6.9318867  10.9578991
  11.2906992  20.9617949  45.9260607  12.2364116  20.8402181  45.8419275
  11.1967993  21.7032504  46.5241051  18.4584069  72.4682379  44.9803591
  17.9062676  71.7253780  44.7363663  19.1779768  72.0788479  45.4771757
  41.6248846  15.1970792  63.6456013  41.4005136  15.4019856  62.7379084
  42.5188446  15.5226755  63.7507010   3.9489383  62.2108459  64.1115713
   4.7940326  62.5229263  64.4350672   4.0354076  61.2576771  64.0965271
  48.6814880  35.8953714  16.2100589  48.1708813  35.4551935  15.5305338
  48.6730814  36.8181944  15.9559774  39.9417758  23.9071321  11.8002284
  39.2929316  23.3077955  11.4314115  40.3585482  24.3078899  11.0373867
   9.7539777  49.4303417   5.6673652   9.7011960  48.7207651   6.3076365
   9.1808718  49.1516161   4.9531567  79.8840809  46.9039869  13.9858937
  80.4208946  46.1476612  13.7491691  80.5125618  47.5564003  14.2950928
  30.6056929   6.1813027  51.4254999  30.6372929   6.1788297  50.4688215
  29.8219895   5.6755483  51.6405630  42.4743509   2.9634365  22.3033190
  42.4651432   3.7139514  21.7092848  43.2087040   2.4284886  22.0020127
  13.3733416  39.7749305   1.7768444  12.8376293  40.0749683   1.0425270
  14.2717302  39.9788976   1.5169850  69.5825148  59.0499258   2.8956130
  70.1526308  58.3235502   3.1477541  70.1620579  59.6638346   2.4445230
  27.2971153  16.6278350  52.9198408  26.7684007  15.8877933  53.2182217
  27.7858829  16.9013953  53.6960554  69.0948391   4.6512336  18.7452936
  68.9466524   5.1484168  19.5497072  68.6608219   3.8120484  18.8990092
  78.8857603  43.6506939  13.4700119  78.9065552  42.7519369  13.7987065
  78.1508255  43.6645460  12.8568947  80.4743004  15.3136837  34.7340941
  79.8641968  15.8724082  34.2526078  80.7147789  14.6285129  34.1104412
  30.3700280  85.7462311  20.1742315  29.4530749  85.7263756  19.9003124
  30.6512475  86.6453362  20.0046396  39.0377569  17.8790712  16.0541391
  39.8763919  17.4262714  16.1430049  38.6403346  17.8198218  16.9229174
  39.0124679  52.1104240  23.3600521  38.7694621  53.0261755  23.2237506
  38.1920648  51.6275120  23.2602262  48.7596989  50.7756138  38.0816841
  47.9399681  51.1272812  37.7344084  48.5490990  50.5195141  38.9796233
  45.7053471  46.1835957  33.4738469  46.5155029  46.1375189  32.9661512
  45.9148788  46.7618370  34.2073059  43.9580822  52.8881264  13.0279219
  44.5216465  52.6762533  13.7720573  43.7846851  53.8251781  13.1179535
  52.6000834  38.9368558  20.3554034  52.1636391  39.6550536  20.8135986
  52.0207071  38.1853557  20.4811168  15.0520718  55.2784204   8.2897443
  14.7070289  54.7504807   9.0097851  15.1748908  56.1489010   8.6684412
  31.3318968  39.2531705  22.0193362  32.0078039  38.5828161  21.9193006
  31.5210795  39.6597242  22.8650045  82.8447151  47.3812580  50.8193064
  82.5489998  47.1632624  51.7032003  83.1007290  48.3020449  50.8726788
  49.3663168  37.5503349  20.6258082  48.5858727  37.9401636  20.2318859
  49.9320698  37.3432469  19.8819888  43.3960867  26.2513566  12.9734004
  43.7718153  26.6185069  13.7735629  42.5159883  25.9737277  13.2275355
  30.3764772  25.8594775  31.4481044  30.5545020  26.0900140  32.3599124
  30.3247309  24.9036765  31.4484334  13.0801785  11.8008018  67.1754026
  12.9773235  11.3078511  67.9894352  12.1847081  11.9602036  66.8771505
  33.8013554  48.6738968  17.3331511  33.4503031  48.6842823  18.2235932
  34.7085714  48.9634037  17.4299717  57.8498888  43.7110949  12.0151365
  58.7852669  43.8500357  11.8668389  57.5146770  44.5747375  12.2559226
  46.2432051  62.6515102  30.9193301  46.3914204  63.5330772  30.5771255
  46.6872644  62.6459503  31.7672753  61.5617609  29.7596765  16.7087793
  61.9850922  30.6173992  16.7453051  62.2802830  29.1439009  16.5646267
  36.8089806  36.6926841  -0.0405049  36.5761219  37.6170520   0.0464178
  35.9894739  36.2235002   0.1160598  30.8337355  32.3578644   5.9817487
  31.1585879  31.5397239   6.3577163  31.1199832  33.0339694   6.5958959
  49.8801994  42.5987291  30.3515172  50.5026102  43.0930758  29.8181748
  49.0710926  43.1084585  30.3096104  75.4729033  54.5514917  31.5880656
  74.8388815  54.6487045  30.8775759  75.6570387  53.6126423  31.6179681
  68.6131048  71.8318748  68.3972454  68.7256527  71.7828417  67.4479532
  68.7501907  72.7556276  68.6072874   3.8717371  71.0090160  18.3075488
   2.9810360  71.1256599  18.6381197   3.7804294  70.3836298  17.5886691
  56.6347599  37.0279717  17.0733619  56.2336493  37.2561288  17.9119825
  55.8950472  36.9201446  16.4755118  64.9568605  29.3686700  13.1932127
  65.3598309  29.0389562  12.3900104  64.9827290  30.3210354  13.1006789
  71.1399364  38.8614488  12.2384143  71.0642529  39.0829277  13.1665587
  70.9692287  37.9202962  12.2020674  46.7718744  59.0543365  18.9867830
  47.2691679  59.2850018  18.2020998  45.9803009  59.5900011  18.9347565
  52.2781610  45.4049635  34.7372246  51.6646099  46.1387062  34.6997309
  53.0697298  45.7325935  34.3102431  53.2944298  56.1718178  14.8167229
  53.1672144  55.8151388  13.9376163  52.9571533  55.4932976  15.4016101
  49.5845222  41.9093847  19.6090138  50.2757549  42.1581888  20.2226305
  48.8085938  42.3753500  19.9205351  60.8548594  42.8379059  18.1685698
  61.6948891  43.2211065  17.9161000  60.5802917  42.3359251  17.4011970
  23.1498814  36.8091106  11.5532076  23.9065170  37.1624875  12.0210314
  23.2565522  37.1214366  10.6547070  87.6246262  39.1263652   4.3532518
  87.6984882  38.1770802   4.2550868  86.9273758  39.3763161   3.7469548
  53.1496191  21.7763758  22.2573638  52.5118685  22.2030973  22.8295684
  53.7149668  21.2849545  22.8532815  76.7474270  77.4733162  73.8130808
  76.0241508  76.8764830  73.6210012  76.6986275  78.1377697  73.1258011
  66.5753317  43.3644295  44.9753761  66.6508055  42.4102640  44.9653387
  67.3311329  43.6591387  45.4834604  59.0395164  37.1441698   1.3533625
  59.4555855  36.3230062   1.0910466  59.6410561  37.5234771   1.9940709
  29.7883081  38.6565733  29.6287680  30.2793646  37.8720117  29.3847251
  29.0779805  38.7032437  28.9888549  64.4235516  31.7384601  38.0109525
  64.8788309  32.0024109  38.8105059  64.3954182  30.7827234  38.0557442
  55.6694794  33.6956120   1.9288328  56.3914967  34.2231345   2.2703609
  55.8214617  32.8210759   2.2870494  53.0170870  35.4428744  18.2006443
  52.6181698  34.9546981  18.9209104  53.1070137  34.8004723  17.4967504
  64.8969221  74.5147085  71.5056515  64.0284777  74.3460560  71.8711567
  65.4995871  74.0829039  72.1111012  32.9860520  41.4759684  43.6293364
  33.0877209  41.4274120  44.5798826  32.1712947  41.9614553  43.5000896
  45.0086308  41.9378805  20.9194899  44.4014120  42.6041937  21.2412620
  44.6572733  41.6860247  20.0654721  52.9195595  50.4857349  21.5615106
  52.0191431  50.3835011  21.8697858  52.8306198  50.8180189  20.6682515
  76.9885540   1.0653728  11.6920006  77.1504450   0.1539664  11.9356441
  76.2291574   1.0266034  11.1105883  55.6999969  39.5890379  29.0002036
  55.7072639  40.1793194  29.7536922  55.9538126  38.7389040  29.3594861
  57.7633476  24.4599175  11.5688813  57.8838587  25.4086137  11.6099191
  57.2134972  24.2553878  12.3252296  22.2863674  23.8794017  33.6780596
  22.5716209  23.7605071  32.7721214  22.3737335  23.0116439  34.0725160
  80.9428596  62.0798922  71.1917973  81.6165829  62.6610708  70.8388758
  81.4032936  61.5436506  71.8373060  38.7888265  62.1335983  48.0771685
  38.9435220  62.1951628  47.1345568  39.6519017  62.2626638  48.4704590
  79.0483475  20.0812840   1.6558884  78.2318068  19.6163750   1.8385042
  79.6234560  19.8509359   2.3855606  63.0157471  58.3739471  20.3822494
  62.5115871  59.1141462  20.0443721  62.3899794  57.8796911  20.9117365
  63.6030722  11.1992872  26.8381071  62.8010225  10.7850730  27.1565080
  63.3063221  11.8059516  26.1597776  77.0361853  67.6777458  62.2371101
  76.9762230  67.5294352  63.1808472  77.9747820  67.6566887  62.0505095
  42.7840328  42.5046349  18.9648640  42.8852129  43.3475733  18.5227680
  42.0252323  42.6233530  19.5361435  81.6920185  24.8446751  67.7863026
  82.1772385  25.5858636  67.4237728  82.3199463  24.1222382  67.7821302
  13.0777109  64.6406174  16.4769197  13.0362058  63.7890768  16.9121039
  12.1864533  64.7926760  16.1626434  60.1588726  37.5658369  14.7748590
  60.4540443  38.3056188  14.2439842  60.5022526  36.7948651  14.3232763
  34.2501235  43.0188465  10.9041297  33.6073732  43.2683897  10.2401781
  34.3446183  42.0718098  10.8020151  65.7412863  26.8711281   0.4535927
  66.0294008  27.6802182   0.8761978  65.0992107  26.5002394   1.0589157
  88.0192375  55.6144190  25.4635668  87.5921917  55.5206823  24.6120524
  88.6203575  56.3506651  25.3502917  15.2982581  83.4473324  36.9363332
  14.4658220  83.2457066  37.3636866  15.0664294  84.0574074  36.2361193
  47.3843622  29.7407722   5.5727327  46.4489603  29.9415302   5.5418849
  47.6993132  29.9304771   4.6889627  85.5778790  35.7968760   8.4349185
  84.6299744  35.8386016   8.3085507  85.8978462  35.2970171   7.6839250
  82.5111961  76.3043547  20.5225348  81.8514538  76.4583683  19.8463297
  82.9000473  75.4611349  20.2901387  25.2309704  81.4244556   6.4404804
  25.8493233  82.1413422   6.5816993  25.7656884  80.7127380   6.0886776
  79.3058157  45.0809479  41.7801094  78.7921286  44.3484068  41.4398956
  78.9083767  45.8565044  41.3841534  70.1553345  55.4889202  58.9517784
  69.2898512  55.5216217  59.3593359  69.9979639  55.1142216  58.0851364
  56.8817663  46.5528727  24.0616512  56.7157459  46.5677786  23.1190753
  56.2029886  45.9780741  24.4153452  32.8240848  55.3756762  44.9370670
  33.1704092  55.4023314  44.0451145  31.9003654  55.1493406  44.8286772
  63.9389372  37.6128578   9.7992176  63.4290075  37.2950149   9.0541178
  64.7976208  37.2031856   9.6940005  45.3368950  68.2342577   4.5692882
  44.4319868  68.3019209   4.8739061  45.6355190  67.3842382   4.8925924
  77.6763821  56.5551090  21.6227365  77.3607540  56.5533924  20.7190728
  77.6357841  55.6375647  21.8923593  53.3882380  34.0077496  15.9874666
  54.0247059  34.5503283  15.5218995  52.6825809  33.8706446  15.3554261
  23.5200071  66.6180849  19.7291768  24.4138718  66.9477797  19.6367657
  23.3443141  66.1675119  18.9031327  86.6246414  47.8561878   1.3951091
  87.0110893  46.9997120   1.5777001  87.2047043  48.2461739   0.7411415
  84.3459415  69.4929695  67.8977394  85.1852894  69.0403080  67.9804182
  84.2792416  69.7057295  66.9668722  42.7397203  53.7986040  35.6808400
  42.6890802  53.0620193  36.2900305  42.1410561  54.4512939  36.0439157
  51.1046028  16.1127841   4.2238349  50.2490664  16.4740157   3.9918864
  51.4920664  16.7682469   4.8038974   0.2265152  35.5620527  26.3242555
   0.3812681  35.9173894  27.1994805   1.1022965  35.4074025  25.9702444
  69.4342899  52.0922709  13.2373691  69.0724516  52.0264912  12.3536396
  69.6181202  51.1871862  13.4888935  53.6531401  52.1496630   7.3260701
  53.6428213  51.3960838   6.7359495  53.4723997  51.7796898   8.1901801
  51.8045187  60.1488972  23.7077022  52.3289156  59.7308159  24.3906689
  51.0888195  59.5343637  23.5453606  46.6917324  35.1737952  28.1504035
  46.0322046  35.8615327  28.0594683  46.6168785  34.8890877  29.0612125
  37.9470277   3.3556265  74.8083639  38.7699986   2.8803647  74.6940041
  37.6050544   3.4595191  73.9203930  46.2869644  41.1915922  18.5302401
  47.1354246  41.2953424  18.9610410  46.1856270  41.9862175  18.0062807
  63.8820028  55.2255869  37.3226500  64.4287777  54.9919605  38.0727744
  63.5378170  54.3898153  37.0075989  69.4026947  63.7468815   3.1944993
  68.9731455  64.2916584   3.8539982  69.2018604  62.8488207   3.4579018
   1.6182552  32.6593637  23.3934975   1.2053205  32.8141761  24.2430568
   2.0588988  33.4837842  23.1875873  88.8102436  73.9953566  68.4337425
  88.2858372  74.0573311  67.6353788  88.1678009  73.8808632  69.1340160
  54.5524025  29.0054440  30.3274012  53.8563824  28.4411550  30.6640983
  55.2182961  28.3980536  30.0050688  78.0353737  45.4647684  31.0559082
  77.1149921  45.4285669  30.7955003  78.4641171  44.8032665  30.5129290
  33.3933663  45.5787945   3.3458227  33.1321931  46.4028025   2.9346883
  32.6788425  44.9741650   3.1455418  71.5853071   3.4013277  32.6389456
  71.6674519   3.0895218  31.7376900  72.4495173   3.7547463  32.8498220
  47.6964951  77.8726578  68.0261183  47.3614359  77.5594711  67.1859503
  48.4828806  77.3492098  68.1805086  58.9406776   8.3587521  20.6758451
  59.5632887   7.7552724  21.0813093  58.4697294   7.8235906  20.0370646
  13.2356703  15.4799664   4.3601882  12.9328775  14.5763993   4.2701027
  14.1735613  15.4380071   4.1735539  64.4357157  64.6621418  30.3735614
  63.9370728  64.5312262  29.5670581  64.3731546  63.8244581  30.8324814
  42.1859264   8.6313546   9.8034704  41.6930103   8.0992651  10.4280889
  41.7257404   8.5130781   8.9725226  86.2691784  67.1310329  22.4081326
  86.8446350  66.6235352  21.8358254  86.7693996  67.9216051  22.6106429
  48.7036085   3.0397218  16.7613614  47.8752995   2.6366240  17.0214510
  49.2801619   2.9095289  17.5142682  52.6348162  33.3023977  11.4835215
  52.7825356  32.4183345  11.8194401  51.6822386  33.3926821  11.4575338
  59.6774626  38.5045505  28.2379103  59.3397570  38.3660150  29.1227794
  59.9884558  39.4098210  28.2392430  67.0378256  55.5112410  60.0977373
  67.3437309  55.4417419  61.0020733  66.6059256  54.6744585  59.9260139
  63.0050564  15.6516099  34.4672847  62.5131416  16.4125800  34.7757912
  62.5874424  14.9057531  34.8980117  15.5778396  77.9133701  48.5246897
  15.9419954  77.7892542  47.6482105  15.7385409  77.0818567  48.9707756
  56.5042686  57.2460890  73.2871294  56.9612408  57.3182106  72.4491501
  55.5768585  57.3170805  73.0610895  52.7033472  43.2992697  29.1223550
  53.5900688  43.4284925  28.7858105  52.3732328  42.5398588  28.6421943
  68.4657001   0.7094702   7.2988027  69.1051674   1.1280939   6.7225510
  68.9846087   0.1149931   7.8406191  59.7280931   2.8865886  31.9096088
  60.0849962   3.1952286  32.7424312  58.8494015   2.5749189  32.1263933
  32.9099441  17.5008106   9.1626245  32.7453184  18.1102753   9.8821265
  33.7507200  17.7798235   8.8000190  78.5405731  42.3850632  18.6212087
  78.6643457  43.1742620  18.0938828  78.3241940  41.7034054  17.9850066
  65.5261469  37.8904057  16.9610989  65.5096865  38.4370875  16.1755419
  64.6909475  37.4230480  16.9452024  39.9607444  37.2530055   3.6066067
  40.7525873  37.7441645   3.3875769  39.6329832  36.9388556   2.7639240
  62.7918196  34.7277236  22.4798179  62.3045397  34.2298698  23.1362724
  62.1728659  35.3907275  22.1739554  55.4980230  40.7889414  31.4215827
  56.4266109  41.0076571  31.3433385  55.4042053  40.4587126  32.3151040
  65.3063297  11.4787698  32.7097726  65.6462002  11.5928555  33.5973001
  64.8525286  12.2998476  32.5196934  18.9582741   4.9801451  70.7282829
  18.0042374   5.0435555  70.7732868  19.1496682   4.0736103  70.9686899
   7.1830595  78.7649107  51.1750555   6.8073386  78.9854288  50.3227425
   7.8154451  79.4628668  51.3458538  62.9042244  47.6432657  17.7409410
  62.1201038  47.9574156  18.1911540  63.6175394  47.8115511  18.3566499
  50.2321386  43.0798388  17.3551404  49.7894812  42.4274349  17.8979611
  51.1378860  42.7744293  17.3043394  82.7102470  56.4779615  11.0508096
  82.8210163  55.8629227  11.7758524  82.6403046  55.9226942  10.2742672
  33.6580348  38.9264917  72.9321432  32.8176570  39.3764305  72.8452635
  33.6983490  38.3455610  72.1724558  50.6938648  81.8927956  16.0198939
  49.9466133  81.5713310  16.5243781  51.2193489  82.3801708  16.6543722
  63.4328747  24.3020868  34.1736031  63.6807823  23.9419532  33.3220887
  62.7111244  24.9001932  33.9797544  57.5863075  72.5961924  34.0480781
  57.2363281  73.0518579  33.2824945  56.8167305  72.2206879  34.4758439
  56.0840607  25.0178790   8.7267458  55.9675455  24.1615295   8.3152586
  56.0402536  24.8401022   9.6662718  61.0565662  70.9978151  28.0020356
  61.1386776  70.8747196  28.9477301  61.8558788  71.4604473  27.7504277
   4.3097869  42.5991964  12.0207870   5.2521366  42.5277996  12.1728146
   3.9161292  42.4418688  12.8789902  16.4053869  85.9630775   3.5758042
  16.0207403  85.2666950   4.1080824  17.3336136  85.9581947   3.8094762
  18.3348489  55.9588242  34.8734045  17.6900637  56.6334867  35.0862741
  17.8681302  55.3553772  34.2952538  73.9618683  37.4677467  20.0034952
  73.2929707  36.9475842  20.4487371  73.6200380  37.5899434  19.1178024
  74.4924402  68.8512278  33.5825896  74.6233606  69.4484329  34.3190956
  74.7967100  69.3420649  32.8192210  65.0609636  62.0513821   7.2138876
  65.0102472  61.8511963   6.2792289  65.7515001  62.7108955   7.2804552
  60.5552912  49.1230440   8.3889717  60.7579994  49.7775793   7.7205986
  59.6422148  48.8875532   8.2244456  86.4291668  78.4907770  71.5501690
  87.2589970  78.9609385  71.6311169  86.1213589  78.3913231  72.4510574
  25.8823299   2.2344208  18.3725774  25.5006146   1.7751156  17.6245379
  26.5947032   1.6657315  18.6647272  62.3045635  85.4364872  31.0978484
  62.2642088  85.8540630  31.9582129  61.5247583  85.7524395  30.6414485
  88.0194378  64.8774624  40.6081057  87.9288578  64.1648865  41.2407684
  88.4932995  65.5603886  41.0827589  51.7756796  23.3355594   5.2690119
  52.4022579  23.1612468   4.5666987  51.8069601  24.2848539   5.3877413
  50.3145742  50.7254505  21.8973279  49.8367214  51.3803196  22.4062848
  49.9992561  49.8856688  22.2313619   0.9740321  71.3910580  53.5224724
   0.2841600  71.6381264  52.9066277   0.5122096  71.2189960  54.3430471
  56.8856525  41.9612932  28.0177450  57.4481487  41.6184187  27.3232913
  56.3978148  41.1988831  28.3291578  52.1706581  23.4190178  69.8469925
  52.6368570  24.1593456  70.2353287  51.9199991  23.7245011  68.9751673
  59.9905062  56.9741774  34.4207430  59.7248363  56.8620014  35.3334713
  60.5799913  56.2394142  34.2508435  13.4358180  24.8245525  60.8142281
  12.5751162  25.2395225  60.7574415  13.9838266  25.3261232  60.2106142
  51.2697554  80.6147480  33.3638310  51.5041208  80.5197430  34.2870212
  51.8595982  81.2934113  33.0355954  68.6419487  39.9990916  21.2804413
  67.9387426  39.8263240  20.6544352  68.2176781  39.9492121  22.1370268
  22.6159096  70.7513285  62.5119209  21.9332671  70.1500368  62.2141266
  22.2681785  71.1267614  63.3208466  53.1241608  12.8068721  12.8206241
  52.5380135  12.0533419  12.7509439  53.7837982  12.5388515  13.4603715
  67.4039841  63.1990480  29.7879934  67.4117470  62.2493076  29.6689749
  66.4756489  63.4261799  29.8412490  65.3817320  33.0813575  33.2862830
  66.0571480  32.4673223  32.9981732  65.3980589  33.0244255  34.2416477
  83.4830284  43.7187099   7.2961354  83.8375759  43.5344982   6.4263135
  82.5842094  44.0045071   7.1328098  72.2245026  81.6183662  43.6942959
  72.8982019  82.1140099  43.2287884  72.6355219  81.3766575  44.5242786
  58.4612799  21.4134312  22.0137453  57.9913807  22.1165538  22.4621296
  59.3696642  21.5127039  22.2987366  82.8511715  55.8689451  28.4858513
  81.9832706  56.2058449  28.7082696  83.1607246  55.4542637  29.2911148
  64.4773579  64.1336584  14.7226655  64.2386723  63.3600187  14.2120337
  63.7774372  64.7623396  14.5463169  60.5496645  46.2133503  20.2290106
  59.8071861  46.2171888  19.6249020  60.5056572  47.0628166  20.6679940
  72.1957207  54.4107151  36.1364770  71.6956615  55.1869106  35.8841014
  72.9614592  54.4219637  35.5622387  48.7042332  28.8360310  13.7321150
  49.1157818  28.1295919  14.2299151  48.7875700  29.6057439  14.2949891
  36.2488270  79.3463850  38.1584001  36.0193133  78.4316969  37.9943848
  37.1453953  79.3122578  38.4919167  11.4199889  55.8033419  46.1295986
  10.6542420  55.5197001  45.6301832  11.4788401  56.7442703  45.9640169
  70.6387424  66.5775537  25.8389807  70.1122808  66.0124540  26.4044285
  70.8624363  66.0252762  25.0898600  11.5403473  24.6198440  16.2211776
  12.3608160  24.4698834  16.6908336  11.7837203  24.5831752  15.2961612
  25.3071594  79.6905613  56.5683508  24.4924593  79.1897297  56.5275669
  25.5718231  79.6429873  57.4870014  65.1088953  75.8636713  61.9726896
  65.4123116  74.9886084  61.7309475  64.7423267  76.2218952  61.1642742
  55.9995413  43.4703350   4.1712040  55.3877974  42.7388477   4.0879872
  55.4690027  44.2474318   3.9954561   5.4039204  49.5419407  30.8973956
   5.9609544  50.2815485  31.1401463   4.7274223  49.9247980  30.3388262
  56.3312197  16.8720675  73.2880735  56.6847754  17.4221277  72.5890303
  55.4980659  16.5516424  72.9425192  57.9083490  42.0084047  30.4692554
  58.8388681  41.7839909  30.4698563  57.6920605  42.1307039  29.5448685
  43.7900686  41.9971752  29.9133682  44.5335531  41.7219496  29.3769789
  43.1666613  41.2737751  29.8478723  68.0249357   5.9807265   9.0857106
  67.9336023   6.7248428   8.4905785  68.7866259   6.1964536   9.6237791
   6.7932647  43.8666582  56.3367748   5.9015465  43.8175154  55.9923124
   7.0023519  42.9673719  56.5893602  37.1708393  51.6981602  14.2889607
  38.0820155  51.6625214  14.5800233  37.1818542  51.3008928  13.4181631
  27.5123882   0.4493368  41.7442465  27.5911546   0.7136188  42.6608610
  27.8096175  -0.4604485  41.7308998  46.7558015  86.2360887  37.8187466
  47.6554025  86.0301185  38.0727673  46.2248672  85.9440920  38.5597420
  72.7222919  79.6751833  41.4870358  72.4635172  80.0540829  42.3270988
  71.9776678  79.8424768  40.9092999   4.3276814  54.9434280  39.7672868
   3.7303483  55.4168177  39.1882133   3.7622961  54.5782804  40.4479027
  47.0407486  40.0790882   5.0194037  47.3878288  40.1582193   4.1308627
  47.2987175  39.2010450   5.2999914  42.0745516  42.5656509   6.6460216
  41.7798138  41.7918396   6.1658418  43.0261660  42.4722147   6.6899318
  88.8221359  55.0702953  63.8530397  88.8736725  54.7326803  62.9588413
  89.7081375  54.9658775  64.1999197  43.9978218  22.2497725   8.0107099
  43.4268951  21.5820217   8.3906871  44.0438318  22.0249653   7.0814216
  70.9542942  16.3487267  19.1820335  70.1220465  16.8183744  19.2370176
  71.5238094  16.7965496  19.8076069  14.7644663   0.5774846  67.5341749
  14.2117262   1.2837693  67.8686476  14.3197381   0.2808592  66.7401552
  88.0452156  45.0260830  68.0849171  87.2517967  45.3071594  67.6291513
  88.3561802  45.8132362  68.5320377  65.5127668  29.3988180  53.6404228
  65.0049877  29.3123507  52.8336287  66.1327457  30.1050997  53.4586859
  29.4280028  13.1076193  53.1937695  29.8414922  13.4910715  52.4203205
  28.5406232  12.8904104  52.9081011  49.8574972  65.9889841  23.2622242
  48.9277887  65.9010601  23.4723282  50.2964020  65.3837013  23.8599086
  23.2394338  41.8358469  15.1758027  23.6493683  42.6615477  15.4335034
  23.9664459  41.2161589  15.1152289   9.6427673  42.1655750  28.6210895
  10.5235898  42.3802948  28.9281368   9.7776562  41.7865038  27.7525592
   3.6781141  62.9608774  49.7018051   4.6318153  62.9602575  49.6200418
   3.3836240  62.2993422  49.0757990  44.8116875  40.0781488  11.8479967
  45.0000620  39.1413546  11.7917120  45.2282047  40.3576517  12.6632416
  17.6520550  28.2026505  52.4182034  18.4668612  28.4249616  52.8686476
  17.9102254  27.5559855  51.7613888  49.8136616  77.5669050   8.9553303
  50.3913355  78.3279419   9.0131849  50.2961779  76.9403982   8.4159797
   4.0157789  53.5946941  47.8285074   4.3632972  54.3412638  47.3405552
   3.6186028  53.9822435  48.6084318  29.7392011  78.4520388  25.8739519
  30.2810073  77.6759481  26.0166502  29.7329283  78.5683775  24.9238706
  80.4679680  70.6320763  12.4071407  80.7809067  69.8268461  12.8193510
  79.8986864  70.3326654  11.6982698  66.2444639  73.0756807   3.3253613
  66.9198704  72.9304266   3.9879015  66.5533447  72.5930309   2.5586322
  70.6087255  20.0530386   3.1208169  70.9002399  20.8717799   3.5219595
  70.4518795  19.4663584   3.8607067  37.5759602  32.1107483   5.6372344
  37.3402643  33.0342388   5.7258022  38.0005336  31.8913150   6.4665830
  48.4719563  25.1773143  13.2697761  47.8613949  25.5234814  13.9206302
  48.1264162  25.4826641  12.4309719  81.6176987  57.9077148  23.0538368
  80.6769943  57.8534174  23.2222247  81.7375755  57.4584341  22.2171736
  60.6244135  35.0673795   0.5351833  60.8767939  35.4843163  -0.2886494
  60.6976175  34.1290116   0.3609911  58.4289837   0.8507682  41.9344521
  59.2100573   0.3848907  41.6359234  57.7225780   0.5102598  41.3855648
  44.0591574  49.8460722  37.5314331  43.7584209  49.5479918  36.6729808
  45.0110722  49.8995733  37.4464440  50.4579258  45.0251007  32.0857048
  50.4464197  44.0684175  32.0563912  51.3504076  45.2617407  31.8333006
  13.6929786  33.5127854  31.9173241  13.8498962  32.8007603  32.5375104
  14.3030334  34.2008042  32.1832085  67.6387262  46.5948057  72.7908897
  66.7926884  46.1900377  72.5995302  67.9208946  46.9665337  71.9551706
  13.4996045  54.2506933  43.1245852  13.3599591  54.7594070  42.3258734
  12.9370046  53.4832191  43.0211735  11.5985310  48.5783195  52.9713964
  12.1193445  47.8843641  52.5671530  12.0244646  48.7377167  53.8136578
  35.9700012  30.6464100  24.3682122  35.7519412  31.5485620  24.6023083
  35.3367162  30.1142359  24.8498487  68.0424404  72.0793867  26.6543937
  68.7250853  72.4770403  27.1948528  67.4726915  71.6312695  27.2795439
  87.2873974  78.0189562  59.8267555  87.7101994  78.5395145  60.5097532
  86.3653278  77.9921818  60.0822973  66.8617487  50.1288939  42.2922659
  66.6767454  49.3817520  41.7232466  67.8167152  50.1530123  42.3530197
  78.6536360  70.1850605  53.2245922  77.9060078  70.5532074  53.6954975
  79.4060707  70.6844139  53.5419464  64.6282196  47.6620245  22.1961021
  64.5950079  48.0687237  21.3302374  63.7569427  47.2845364  22.3169899
  60.5942917  62.2425270  35.3952622  60.9953547  63.0650282  35.1144218
  59.8609114  62.5104618  35.9489727  56.4498472  26.6821957  18.8066363
  57.0278120  27.4105644  18.5793209  56.5461636  26.5867281  19.7541809
  11.0002732  39.8526883  20.8126020  10.6636858  40.3840923  21.5340900
  10.2790880  39.2629480  20.5927634  48.1501722  55.5201674   0.5199210
  47.7641678  54.9638700   1.1965059  48.4711885  54.9062204  -0.1405727
  61.6850567  35.3317618  29.0119553  61.6867542  36.0643053  28.3958316
  61.4671278  35.7286191  29.8553061  12.3507333  19.8060882  20.2216506
  12.4722433  20.2925873  21.0369945  13.1413543  19.2725694  20.1409817
  62.7730703  60.5521107  15.4727423  62.9673576  61.0804176  14.6985483
  62.1906805  59.8632145  15.1526189  46.4733362  46.0951519  23.8410258
  45.6712103  45.7169437  24.2012835  46.2606573  47.0176458  23.6995792
  42.4769878  50.0638199  39.6515989  41.6473436  50.5284643  39.5419288
  42.7928829  49.9237633  38.7589478  59.7296906  77.8102446  28.9634323
  58.7922525  77.6305819  28.8915896  60.1010466  77.0047474  29.3233013
  77.3325920  58.4167051  17.5933886  78.2764196  58.5461903  17.6864123
  77.1765566  57.5368929  17.9366338  43.2036114  68.7319469  38.1005549
  42.8023577  68.4043980  37.2956085  43.0205202  69.6714544  38.0943346
   6.3969702  78.5569000  53.8808441   6.2616324  78.4648943  52.9377365
   7.2928375  78.8837385  53.9634895  55.3152657  73.4601974  15.2367914
  54.4100952  73.7522697  15.1291025  55.3994465  73.2814741  16.1733830
  59.1978550  33.7941456  29.7633147  59.9235153  34.2550540  29.3423510
  59.6123648  33.2702327  30.4488277  45.3911448  49.1095448  35.1542139
  46.2483501  48.6838865  35.1697898  45.5263090  49.9012852  34.6335292
  73.6002922  74.0742207   2.3459372  74.1638422  74.0695906   1.5722330
  73.6681318  73.1863070   2.6969805  41.8293190  17.8442645  50.9225559
  41.6617727  17.6347446  50.0037193  41.2795877  18.6079299  51.0981703
  78.3180857  45.9684324  20.3607512  79.1911268  46.3608503  20.3542614
  77.7312422  46.6858435  20.1216531   5.2996784  49.9224329  52.4918699
   5.5801320  49.3778658  51.7563248   4.6296221  50.4974937  52.1223307
  56.0002470  25.0160074   1.7257413  55.9889030  25.6358838   0.9964555
  56.7154312  24.4147229   1.5179028  36.3215828  49.5779133  43.1913424
  36.2652111  49.1857576  44.0627003  35.7625461  49.0265226  42.6439142
  60.1446342  61.4382935  44.2832136  60.1579952  62.3840714  44.1363907
  60.2374935  61.0589170  43.4093237   1.1937840  61.5242195  28.0360317
   1.5165919  62.0879173  27.3329854   1.7726688  61.7085505  28.7757230
  57.2881603  42.5936174  35.7037163  56.4235783  42.9983616  35.6335855
  57.2644138  41.8683052  35.0795484   1.3134092  11.3181448  26.6588664
   0.4873223  11.0580552  26.2512326   1.9766499  10.7906926  26.2137389
  91.2525304  57.5145340  70.5061007  90.8852926  57.9437494  69.7333527
  91.4788871  58.2343626  71.0950327  55.9827089  58.1327915   4.7440472
  55.9196520  57.1781588   4.7745931  55.1086569  58.4223080   4.4824317
   5.2745891  83.5736275  28.6771107   5.5987597  84.4186115  28.9888048
   6.0420471  83.0018139  28.6935449  54.0334177  82.3311806  20.0457215
  54.7603989  82.6570702  19.5151246  54.4357634  82.0874405  20.8793521
  52.3509932  55.6213427  25.8998871  52.9876375  55.4932785  25.1966691
  51.5556908  55.1924706  25.5839920  77.5994301  68.2083702  74.2048550
  77.3125792  69.1112900  74.3415451  77.3259211  68.0029058  73.3108711
  43.1443167  49.8516560  11.8102181  43.8441038  49.7006464  11.1748230
  43.4214306  49.3712854  12.5903988  71.9753456  46.8479729  38.3463573
  72.7880812  47.0144320  38.8238406  71.4314747  46.3577127  38.9628649
  48.4241629  81.8648911  35.1786494  47.9508209  81.6054440  34.3881631
  48.0635452  81.3069153  35.8677411  63.1068420  52.7734900  17.6621139
  62.6512432  53.4355021  17.1421170  63.1152391  53.1305265  18.5501933
  53.9264011  38.3513594  27.2066045  53.4369802  38.6765242  26.4509773
  54.2305660  39.1415548  27.6530385  81.1930752  36.5574765  45.1078320
  80.3484154  36.7502785  45.5147934  81.4384270  37.3715067  44.6680689
  61.5010595  42.7323532   0.9680866  62.1489525  42.3511124   0.3755311
  61.3852596  42.0732117   1.6524523  52.0787144  35.8508372   3.6778086
  52.7760696  36.3364244   3.2372004  52.2316217  36.0050106   4.6100542
   9.4839782  46.6820002  30.3943801   9.9503404  46.5184450  31.2141299
   8.5902286  46.3840628  30.5637264  18.6974669  55.1013136  41.0247517
  18.6687756  54.4265127  40.3464842  19.6305585  55.2703667  41.1550999
  62.4359703  37.0431972  62.1524954  62.8088856  37.6357722  62.8051949
  63.1820726  36.5319777  61.8390942  53.5377789  37.9524994  16.7089045
  53.1337976  37.1596551  17.0616460  53.5077763  37.8345442  15.7594740
  55.9744215  62.5449753  26.3299084  56.2777901  61.6372252  26.3161898
  56.4169645  62.9340315  27.0842433  44.9717999  37.2087002  27.2726727
  44.1277218  37.3678136  27.6951122  45.1097298  37.9755902  26.7167187
  57.4781322  37.1494102   7.1313184  57.6033258  38.0577731   7.4059707
  58.1757164  36.6667843   7.5748068  53.0332756  51.8820524  34.6760821
  52.1533537  51.5286636  34.5453644  52.9530811  52.4459028  35.4454136
  57.9971027  33.7216496  43.0975819  58.7338305  33.3030105  43.5427904
  57.8808689  33.2119894  42.2957325  42.9029179  54.3218088   9.8826849
  42.6963568  54.3857384  10.8151424  42.3631811  54.9966526   9.4709855
  87.9424477  54.6150780   9.9637586  88.6703014  55.2366352   9.9526274
  87.1762943  55.1472378  10.1783609  56.6030741  44.4361925  21.9502473
  55.8226204  44.7447062  21.4898777  56.3569927  43.5752010  22.2884321
  43.0363369  38.0330968  16.3659739  43.5311222  38.6051106  16.9526744
  43.2690382  37.1468973  16.6429770  55.3739119  50.7203197  27.1810150
  54.6198559  51.2044239  26.8444514  56.0885191  50.9457397  26.5854001
  70.3653240  68.0612087  17.4012768  69.8009062  68.0795860  18.1741440
  70.7625580  68.9316702  17.3740411  83.3150959  10.1377177  18.5041606
  83.1394577  10.7763839  19.1951668  84.2395115   9.9147081  18.6134613
  40.4149055  67.4369192  24.7783470  39.6903753  67.1929979  25.3543615
  41.0839224  66.7717409  24.9401712  82.7346706  48.2577610  16.1485195
  82.3823833  47.6408625  16.7900515  82.8338337  47.7411461  15.3488290
  18.2857335   1.2080116  68.8994837  17.5469601   0.7498883  69.3001938
  17.9685366   1.4618708  68.0327797  57.9040766  79.4403934  15.3342223
  57.1880627  78.8226461  15.4823339  57.8885269  80.0133514  16.1008465
  70.2192307  32.8617644  44.2342138  70.3595781  32.4067402  43.4038591
  69.3515491  32.5761414  44.5201731  57.6571751   5.8014840  25.2982569
  57.8422499   6.6016853  24.8066688  58.3690739   5.2061874  25.0636268
  62.7731180  55.1287794  15.8728647  63.3712006  55.7432699  16.2982261
  62.0242405  55.6649685  15.6122565  32.1208668  51.6663599  21.9596934
  32.5775003  51.3670683  22.7459121  31.3004684  52.0365381  22.2854948
  82.0554161  84.1704369  12.3528600  82.3433208  83.7297058  11.5534234
  81.1497688  84.4234848  12.1739745  56.6859579  49.5767593  29.5062757
  56.8822241  50.3947258  29.9630475  56.2991285  49.8532104  28.6755133
  52.8095675  78.8957596  26.2726927  53.3897018  79.6530628  26.1941171
  52.3828745  79.0080309  27.1221399  64.9452877  46.6795063  30.6583953
  64.1897964  46.2133884  31.0164452  65.5805159  46.6917276  31.3743329
  18.1435883  64.9610376  20.7619381  17.9092646  65.6128502  21.4225936
  18.7893033  64.4026136  21.1948919  54.6347094  39.3381810  34.1954184
  54.4023848  39.9278903  34.9127030  54.1639185  38.5277081  34.3896294
   0.4379120  33.3222342  19.9993193   1.3877913  33.2620859  19.8976159
   0.3108796  33.9926720  20.6705928  46.1720848  39.6282363  22.6174903
  46.0501289  40.2540922  23.3313966  46.1052465  40.1563454  21.8219614
  78.2524920  69.8823452  66.3045549  78.3068085  70.6083345  66.9260168
  77.8344774  69.1761017  66.7972136  32.9521632  64.7002506  31.6931891
  32.7117872  63.7972784  31.9007850  32.1286845  65.1138115  31.4341879
  64.1213799  37.1013689   5.6809843  64.3071699  38.0210948   5.8702368
  64.9700689  36.6651535   5.7563323  39.9552083  62.9281378  27.2682524
  40.6596947  62.9955244  27.9127598  40.1088619  63.6579657  26.6682768
  40.5714130  69.5937490  34.3206501  40.9420109  70.4762936  34.3208551
  39.6257091  69.7311068  34.2658353  75.1602221  61.7489719  47.7621508
  75.4325438  61.1068916  48.4177494  74.7359610  61.2290955  47.0795298
  49.9845982  34.9903274   2.2081582  49.9209833  35.8957887   1.9043069
  50.6480026  35.0151420   2.8977272  61.8335485  23.9894652  19.1624928
  61.2651300  24.6840668  18.8298345  62.2271347  24.3598461  19.9525177
  37.3338056  39.3996358   8.3362842  36.3951969  39.5847821   8.3052307
  37.4580860  38.9297223   9.1608858  67.2745514  33.3688855  38.2186699
  67.0167732  33.0354381  37.3592544  66.4653730  33.7172461  38.5929799
  73.2995367  45.1720238  22.9896450  72.5366735  45.5887032  23.3904600
  74.0211344  45.7767391  23.1624103  60.8944941  26.4014554  19.0346599
  60.0848818  26.7303085  19.4253159  61.5858507  26.9248796  19.4399810
  71.0576820  83.7674999  12.4105871  71.3984919  83.1866741  11.7303514
  70.1307726  83.8706779  12.1951175  66.3899565  32.7544641  62.4601221
  65.8252192  32.3112226  61.8270016  66.7972994  33.4634709  61.9625139
  70.2747202  46.4974689  35.8447504  70.8668566  46.6446638  36.5822697
  70.2109241  45.5449343  35.7752252  64.3334579  25.4733253  13.1506228
  64.3943024  24.5518327  13.4023738  65.0766516  25.8902860  13.5865605
  72.9699326  56.0709476   9.9879295  72.9079485  55.1158333   9.9757910
  73.2939243  56.2788200  10.8643150  79.2970800  37.5784278  13.8023424
  79.6085882  38.3734608  13.3697712  78.3743668  37.7526307  13.9880359
   3.0347183  27.8353286  25.5936909   2.5089172  27.9642224  24.8042917
   2.9769954  26.8961310  25.7692122  69.4447517  18.1309056  39.7178149
  69.0339661  18.9472437  40.0025606  68.7639999  17.6825213  39.2160606
  60.6391096  39.9059677  13.1883514  60.0065279  40.2729797  12.5707984
  61.0853529  39.2184830  12.6939166  57.2852612  20.2042294  14.4116020
  57.9782915  19.8574615  13.8497365  57.4260235  19.7773635  15.2567077
  38.2598829  40.4519749  29.8512912  38.4638429  40.1268339  30.7281685
  38.5073328  39.7355986  29.2666531  72.4859381  46.7815638  32.7587485
  73.0093670  46.2219667  33.3324265  72.5627756  46.3771963  31.8945646
  73.8191748  10.7197595  11.3615763  73.5903549  10.3927648  10.4915500
  73.0533028  10.5223036  11.9007277  49.1233301  72.7059603  15.7763600
  48.7335014  72.4378109  14.9442768  49.9341393  73.1504154  15.5287957
   9.2824346  15.6846917  13.7222672   8.3741754  15.8254623  13.9896262
   9.2419666  14.9440479  13.1172550  46.3594389  54.9116564  19.4554710
  45.8236074  54.1371727  19.2843187  45.7499266  55.6459093  19.3806124
  39.9515414  65.7977581  33.1684971  39.0993738  65.9955120  33.5570002
  39.8938584  64.8747158  32.9217076  46.2826204  35.6713271  19.4705176
  45.9996748  35.6889701  20.3847718  46.4972210  34.7534990  19.3038809
  78.7272167  29.9168062  31.0871625  79.2860985  29.1656303  30.8881235
  77.9272556  29.7597480  30.5855393  31.8111730  62.5393343  23.6225295
  31.8194556  63.4507799  23.9148140  31.1900210  62.5269556  22.8943467
  78.8947868  53.7925100  60.5161238  78.3274698  54.5481586  60.3632212
  78.9017916  53.6868715  61.4674473   4.4605237  77.8956413   3.0515909
   3.9638066  77.5111866   3.7738782   4.3778530  78.8405418   3.1802747
  61.9469118  57.7635908  12.2370112  62.1995354  58.0706453  11.3663054
  61.9420576  58.5535765  12.7775002  56.4281178  72.3991632  28.1105280
  57.0919323  72.1932888  27.4523497  56.7909670  73.1424332  28.5923195
  55.5427361  58.5222244   7.4626940  54.6220207  58.2751036   7.3764056
  55.8873892  58.4772778   6.5708268  25.0419807  71.0187674  12.3357689
  24.7512341  71.8752766  12.0225739  25.3640199  71.1844158  13.2218194
  12.5585961  73.5187769   2.2894846  13.4385419  73.7111568   1.9655722
  11.9838417  74.0804529   1.7694733  20.8233333   1.0290419  28.9141440
  21.6505694   1.4031282  28.6108732  20.5749130   1.5720327  29.6622610
  23.7294006  76.0102892   5.1305568  24.6201253  75.6713343   5.0413775
  23.2355022  75.2871084   5.5169582  73.1886005  16.9931257  16.6716266
  73.2559776  17.8764141  17.0342469  72.9625082  16.4429426  17.4215674
   5.0002700  31.0014057  27.4458098   5.3080010  31.8857741  27.2472525
   5.4831815  30.4383111  26.8408680  77.5765800  43.2257843  40.4158401
  77.1581650  43.0344582  39.5764613  76.8754387  43.1297684  41.0603619
  45.3676128  53.9740133   8.5572559  44.6040678  54.3764114   8.9711434
  46.1064911  54.2468309   9.1011864  59.6217632  41.2038946  23.2905650
  59.2873812  41.8239546  22.6425314  59.0368414  40.4491377  23.2239866
  76.3513088  49.2432070  34.2415762  76.7803383  49.9304819  33.7318540
  76.9860935  48.5270119  34.2599750  43.3123112  71.4778471  42.6067495
  42.8662395  70.6357813  42.5163460  43.4233570  71.7877769  41.7079496
  63.4864235  34.3307257  55.3183556  63.2807970  33.4789515  54.9330902
  63.1528711  34.9666667  54.6854639  41.7656565  44.0516663  49.6448421
  40.9286022  44.0931368  50.1072788  41.6333723  43.3865643  48.9692831
  68.6810303  34.0889645  13.1929970  69.4050455  34.1195869  13.8183725
  69.0974712  34.2028785  12.3386943   5.8797866  23.9694715   2.7685750
   5.5917633  24.5358324   3.4844720   5.3730029  24.2636585   2.0117025
  81.8110275  56.4657450  33.2837820  81.3648796  55.7183886  33.6820793
  82.3324203  56.8397808  33.9940500  29.3429947  30.9064937  74.1572237
  30.0500035  31.3846087  73.7238884  29.5087004  31.0291362  75.0919580
  61.3353968  74.2760277  10.5648327  61.9900513  73.9921999  11.2028813
  61.1574936  75.1882410  10.7938397  48.8682413  56.5480137   4.4158626
  49.4887781  55.9209871   4.0443730  48.0285501  56.3184929   4.0177810
  37.3784614  47.9075813  67.6467419  37.1293640  48.7236929  68.0804968
  37.5102973  47.2862864  68.3628750  75.3459692  51.1188030   7.2461116
  76.1561060  50.6509686   7.4486983  75.3723145  51.2436771   6.2974578
  76.8206072  83.1945992  43.7352133  77.0116138  84.1034317  43.5033321
  77.6725626  82.7586269  43.7169313  90.2299786  73.0255461  24.4120073
  90.7416344  72.6908779  23.6755061  90.8793640  73.4153461  24.9973083
   2.4763173  66.0150433  53.9844656   2.5449327  66.9174242  53.6726332
   2.8467235  65.4881239  53.2763767  85.1170826  60.9575462  24.8189211
  84.4860077  60.2676821  25.0240088  85.0698566  61.5549660  25.5653048
   3.5538003  82.1248150  23.2714868   3.1439385  82.9861259  23.3514142
   3.4209287  81.8803978  22.3556042  62.0964956  64.8956776  13.2809365
  62.2309637  64.3419647  12.5118113  61.1476326  64.9046183  13.4066868
  58.0153131  73.8923264  29.6709061  58.3367348  73.5462570  30.5034685
  58.1336021  74.8394060  29.7435403   5.3526944  58.4134293  24.5873356
   5.8311737  57.8564358  25.2013779   5.6548876  58.1324720  23.7236404
  43.5709858  60.4352760   7.6426190  44.3565083  60.1788044   7.1594924
  43.9033747  60.8959675   8.4130180  62.1151066  40.2072191  23.2479739
  62.4585056  40.6510782  22.4725366  61.2241030  40.5441475  23.3419108
   8.6170918  71.2321997  58.5917950   8.1633288  70.4092169  58.4100389
   8.6145627  71.3013220  59.5464945  55.1191282  44.6109724  25.1101828
  55.4933596  43.8216496  24.7188425  54.1892099  44.5712948  24.8867774
  78.1912184  70.7599735  15.9883869  78.6651850  71.5059423  15.6208122
  78.7750673  70.0139952  15.8510292  26.5558314  79.3988895  22.1166039
  26.2103200  78.9855766  21.3253832  27.2065639  80.0233746  21.7959833
   6.2324131  46.3928032  25.3705931   6.2649143  45.4949474  25.7007861
   6.9089055  46.8547392  25.8657742  83.9849472  31.3661861  26.9529772
  83.8733006  30.4210162  26.8508935  83.1926060  31.7436075  26.5709186
   7.0920539  42.7319527  40.6903791   7.9980302  42.6753378  40.9940767
   6.6255111  42.0728827  41.2043762  63.3715487  54.7236443   3.1765985
  64.0570164  55.1242113   2.6418951  63.3298397  55.2701759   3.9613235
  63.0560303  49.0517807  20.1450539  63.1142712  49.9190807  20.5458355
  62.1715498  49.0150976  19.7809350  67.3701954  56.7424822  40.9100819
  67.7748299  56.8554449  41.7701626  67.7225637  57.4599743  40.3835154
  77.0083904  82.7694416  52.8531170  76.6441250  83.6516476  52.7806425
  77.5440598  82.6661301  52.0665979  88.4771824  55.1476908  28.2089257
  88.3253956  55.2551699  27.2699690  87.7368259  55.5906773  28.6234832
  67.2266722  73.3348274  32.5180459  67.5111198  72.6212645  31.9469547
  66.7439032  72.9007387  33.2214189  19.1648269  82.9180813   4.0485787
  18.8279009  83.5395622   4.6939209  18.3933210  82.4303818   3.7602013
  20.2171755  24.4919491  13.2942235  19.6061206  24.8452306  13.9407802
  21.0101628  24.2991209  13.7944424  59.3962431  72.5612545   3.3739868
  60.0426483  73.0227709   2.8397655  59.8266983  71.7411184   3.6154759
  75.3737497  73.9838934  43.5910320  74.8100710  73.2108068  43.5621405
  74.7997904  74.7082472  43.3417988  21.9558167  35.3026819  26.9647002
  21.4195752  35.0153756  27.7037072  21.8389583  36.2523723  26.9388914
  59.2798376  73.1375980  36.0793519  58.8819838  72.8831768  35.2467585
  58.7428808  73.8672876  36.3883185  62.3425722  79.7986460  51.9317293
  61.6803980  79.3272066  52.4372053  61.8397474  80.3223515  51.3079262
  51.6773176  83.1616211  18.2147503  52.4563837  83.6260319  17.9087949
  51.6064453  83.3964062  19.1399980  51.6228533  70.0429440  41.5966845
  52.3559809  70.3214073  41.0478544  51.6783857  69.0873861  41.6037607
  77.6006031  66.6995430  17.5349271  76.7304850  67.0975542  17.5083125
  78.0583811  67.1708584  18.2310128  72.3735809  58.3895159  39.9158406
  71.4898920  58.5457993  39.5828247  72.8671551  58.0881405  39.1530919
  57.2599983  35.7625866  29.1857529  57.5252962  36.4115977  29.8373914
  57.7053308  34.9586463  29.4533253  64.7480392  36.5207362  21.2185407
  64.1748905  37.2693110  21.0531068  64.1580772  35.8289099  21.5178061
  59.0477371  22.7883196   5.5410099  58.6109304  22.2945809   6.2350255
  58.4122849  23.4575057   5.2868009  63.2234478  73.6102533  21.0333467
  63.4416246  73.7987518  21.9460893  62.2725105  73.5009193  21.0320568
  45.4066324  22.7016425  61.7067432  45.6343269  21.7768002  61.6115904
  46.1596966  23.1717658  61.3488150  69.3198490  35.1262450  59.5117044
  70.0351095  34.6476769  59.9307632  69.7455597  35.8733869  59.0912485
  42.1811819  12.8580797  61.2192011  42.5633001  12.5141346  62.0266151
  41.5877771  12.1682203  60.9222269  57.5243473  60.0977230  30.9375191
  57.8621674  59.3851233  31.4800262  58.3027267  60.5902576  30.6771898
  57.1163082  31.5414071  65.8853340  57.9532623  31.0850739  65.7987452
  56.4997673  31.0082507  65.3834820  75.7419538  14.8491681  27.9855180
  76.3436413  14.1380668  28.2058263  74.9847364  14.7068298  28.5534930
  89.8298836  30.1218486  40.2914429  88.9524841  30.2825451  40.6387043
  90.3383923  30.8862114  40.5623531  52.8925943  11.9212341  72.9842377
  52.0260143  11.8298900  72.5880909  52.7356577  11.8400323  73.9249849
   2.2802268   4.6883807  14.1610813   2.3002972   4.5386091  13.2158852
   1.4731500   5.1815015  14.3083596  85.8985424  64.7011948  43.6458349
  85.6234932  64.1946316  42.8816557  85.8525753  65.6129360  43.3580065
  47.2454691  -0.1656921   7.1453863  47.3179960  -0.2269213   8.0978686
  46.8733978   0.7022256   6.9888121  60.5134821  69.2140293  40.3098154
  60.4280853  69.6828890  39.4796848  60.7500410  68.3214903  40.0575495
  59.7261953  42.5638103  52.0875931  60.0304413  43.1146479  52.8088760
  58.7871838  42.4624681  52.2432280  43.5968018  38.9293289  33.7281227
  43.0777836  39.6218157  33.3190846  43.9120960  38.4013128  32.9946232
  68.0248594  67.7817297  24.6429825  68.3885860  67.1666050  25.2798152
  67.1696234  67.4155569  24.4177628  40.9916925   1.8131334  24.3178439
  41.3670444   2.2165443  23.5351539  41.7300701   1.7280184  24.9209905
  66.5619230  68.8971758  14.7514355  66.2210464  69.0992212  15.6227636
  67.1371317  68.1443548  14.8879158  38.8186312  50.6019211   6.0379869
  38.3312941  50.9010410   6.8056208  38.8284039  51.3579130   5.4509473
   2.4843301  62.3332644  47.2875881   1.8346947  62.3541594  47.9902744
   2.1709369  62.9771662  46.6524410  48.0479860  51.2276745   4.5445028
  47.9450178  50.7104683   5.3433341  47.6569319  52.0753765   4.7559482
  73.0507946  38.9150882  26.4981675  73.1131315  37.9802752  26.3020349
  73.8574648  39.2886019  26.1431956  66.9611979  78.8307190  24.9674821
  66.3418961  79.4716501  25.3166270  67.7991009  79.0653706  25.3663397
  40.7291985  81.6083813  23.9759231  39.7764635  81.5750408  24.0620661
  40.8910608  82.3487854  23.3912563  47.1410799  59.3117428  15.7815421
  47.8970146  58.7646055  15.5683815  46.3903999  58.8276434  15.4375088
  84.4036007  63.1786156  41.8156719  84.4262028  62.4430752  42.4277973
  84.4479847  62.7716160  40.9504461  68.7724590  28.3910418  35.6523824
  69.7005510  28.6240983  35.6761408  68.3166313  29.2297626  35.5816889
  74.3495274  12.4790525  22.5200725  73.7983179  13.1562161  22.1278310
  73.9807177  11.6554248  22.2009373  22.7803397  16.6814828  28.3055067
  22.7500677  17.1439683  29.1430187  23.7023449  16.4503598  28.1927228
  36.1437464  11.2837303  62.6326466  36.9249868  10.7721400  62.8428173
  35.8642650  11.6497982  63.4717607   7.8324181  70.0177956  15.5935633
   7.8482449  70.4546738  16.4451027   7.5521857  70.6976271  14.9807572
  50.4971552  45.9014034  17.7976561  49.9400759  46.5010977  17.3014081
  50.2116299  45.0290966  17.5260270  67.4441957  54.3498802   1.5217893
  66.6848803  53.9218855   1.1261933  67.2224665  55.2810383   1.5194923
  87.3873997  36.0660338  47.2893858  86.5494156  35.9400105  46.8442631
  87.4199963  37.0039988  47.4775171  12.9200947  82.8542137  59.6372938
  12.7612114  83.3451748  58.8311005  13.6591697  83.3021641  60.0488043
  77.3413086  78.1443453  34.1980076  77.3196793  77.7915525  35.0875592
  78.1532192  77.8018618  33.8241959  68.1521940  54.7382021  71.1479568
  68.9736748  54.4463301  70.7527256  68.1797314  55.6926203  71.0804415
  24.2570043  22.8408098  54.4923258  24.3657947  23.0684352  53.5689735
  23.9814353  23.6571169  54.9093866  66.5110588  77.3414516   1.9495532
  65.7068110  77.0338058   2.3676161  67.1435833  77.4055147   2.6651230
  87.8054142  55.6523180   6.3940471  88.6479282  55.2554131   6.1729836
  87.1931458  54.9169350   6.4180064  64.0987015  34.5235682  30.6683588
  63.2657003  34.9754047  30.5335426  64.5577288  35.0562096  31.3178372
  81.0498619  57.1918774  20.0926542  80.1847458  56.8684149  20.3440213
  81.2777328  56.6853762  19.3130648  78.3195353  51.9656420  37.7074146
  77.4218607  51.8039513  37.4171305  78.2331848  52.6223755  38.3984137
  59.5073271  62.6315451  31.1009789  59.9184656  61.8555593  31.4818239
  59.2895651  63.1811094  31.8538356  77.0556402  55.9975386  18.9824903
  77.8210592  55.4237604  19.0162802  76.4673805  55.5754900  18.3563459
  58.5707855  43.2559776  33.6725450  58.1967831  43.1586838  34.5482659
  58.2808495  42.4755526  33.2002139  74.8964643  29.9457192   8.0310923
  74.2043114  29.2847538   8.0143875  74.6080446  30.5779743   8.6893475
  61.6656733  66.8000841  19.5544302  61.6568565  67.5104618  18.9129364
  60.9891939  67.0406199  20.1874804  88.7212372  32.1996474  53.7522221
  88.2632351  32.7319098  53.1017065  88.1344891  32.1882463  54.5084190
  11.9858575   9.8445356  28.0196047  11.8598223   9.0985489  28.6059904
  11.9864619  10.6068230  28.5985231  54.2554951  13.5912561  33.2142305
  54.1346645  13.9740956  34.0831757  55.1049852  13.9222908  32.9226685
  45.0254488  13.5766613  36.0601783  44.1743946  13.7873614  36.4442921
  44.8837900  12.7467990  35.6046653  60.4533577  66.5178728  29.8256898
  61.1876154  67.1094465  29.6609402  60.6875372  66.0653305  30.6359982
  86.3678360  36.4876413  72.9401350  87.0619965  36.7554998  72.3379469
  86.6026783  35.5952716  73.1946135  64.5851946  62.8630972  26.3179064
  64.7369671  63.8051844  26.3931727  63.9918423  62.7749252  25.5719900
  66.1245775  66.8724346   8.2255960  65.7232761  67.7414513   8.2259542
  67.0292854  67.0262861   8.4977341  32.8083253   3.6606380  37.8882623
  33.7205029   3.8241425  37.6486182  32.3652959   3.5070235  37.0537806
   4.1273481   2.6784563  25.9975052   3.5132796   2.3341857  25.3489470
   3.8756883   3.5960278  26.1022067  67.6893806  70.3577995   6.1824280
  66.7567444  70.1946640   6.0416764  67.8917027  71.0990143   5.6115544
  27.7314210  51.2847185  67.9303408  28.2512283  52.0739174  67.7780199
  28.3260417  50.5630732  67.7256870  86.3436508  84.1860104  37.6808071
  86.3896751  83.8501453  36.7856503  85.8430958  83.5250664  38.1591678
  81.4154243  73.6207247  26.0933423  81.0383892  74.4491100  26.3897371
  80.8660412  72.9492378  26.4977193  20.7712221  17.8646600  38.0861497
  20.9846807  17.0398557  37.6498413  21.3902187  17.9176104  38.8143468
  65.1182365  32.3922348  68.6939669  65.1404142  32.0438242  69.5852327
  65.6879711  31.8076754  68.1940460  67.5489330  62.7814770  26.5381241
  66.6227579  62.5430727  26.4981914  67.9531670  62.0858574  27.0567179
  10.4965734   9.3427891  62.5032663  11.2151492   9.1089857  63.0908155
   9.9533808   9.9416214  63.0156851  65.0236750  12.1019161  67.4035549
  65.9073973  12.1200192  67.0362186  64.9859476  12.8691089  67.9747152
  52.8106451  12.0470095  65.8655977  53.5034323  12.5106800  65.3951836
  53.1761789  11.1788321  66.0355520  76.7511129  57.4077034  39.4310498
  77.1667528  57.9048634  38.7265587  77.4297810  57.3292065  40.1014853
  86.5666199   5.5433095  11.8088317  86.8546486   5.4934382  10.8973598
  87.1061897   4.8983693  12.2661567  54.2459488   1.1425743  24.0512061
  54.8584509   1.3352285  23.3413053  54.2177296   1.9476038  24.5682764
  35.4618788  25.3866315  16.0213447  34.5909452  25.7722068  16.1164153
  35.3005743  24.5192170  15.6501257  68.8878203  86.2962804  44.3059921
  68.2952047  85.8783954  43.6811638  69.7189051  85.8349716  44.1931915
   1.6656290  33.5561919  73.3715630   2.4565354  33.3952689  72.8569746
   1.3648669  34.4185901  73.0851316  78.9233541  51.4924812  20.8141279
  79.5419121  52.0970201  21.2241864  78.1590700  52.0322275  20.6121898
  21.3236856  84.1544628  30.9941339  21.7763782  84.8173714  30.4727364
  21.5129042  84.3931389  31.9015813  13.0058146  16.1235678  69.9355412
  13.3033311  15.2264571  69.7841835  13.0661941  16.2391591  70.8838129
   0.6573976  26.0537863  10.4955602   0.2103055  25.3672338  10.9905255
   0.4510892  26.8613625  10.9661877  23.8413262  29.1320205  34.3454480
  23.9420509  28.5576391  33.5863876  23.6243224  29.9863315  33.9722276
  55.1601267  34.9507093  69.4894838  55.0557041  35.7456899  68.9666700
  56.0043287  35.0609326  69.9269867  24.8327494   3.9236742  36.5283990
  24.7994423   3.9326915  37.4849772  24.6301031   4.8236942  36.2731910
  13.8543165  54.3659973  10.7571006  13.3215737  53.5910034  10.9354472
  13.3196414  55.0993633  11.0612774  81.8998814  62.5418377  32.1694088
  82.8015327  62.2283506  32.2399950  81.3654804  61.7501640  32.2318125
  68.9335108  27.5349975  31.2780380  69.4865847  26.8509674  31.6554546
  68.2691145  27.7018428  31.9466019  45.9997368  18.1223488  72.0741844
  46.7579317  17.5585997  72.2276640  46.2629128  18.6846149  71.3456059
  71.4828253  33.8105512  38.0586672  70.7456732  34.1331267  38.5771060
  72.0845175  33.4384942  38.7034726  72.4027395  29.6466970  19.5787048
  72.8311920  30.0162697  18.8066447  72.7633142  30.1431394  20.3133893
  51.3716650  65.7802820  33.5819483  52.3086500  65.6382799  33.7165856
  51.2559414  66.7252636  33.6811686  74.7866201  52.5607204  29.0155530
  74.6432543  52.4300432  28.0782151  74.9202538  51.6787386  29.3626595
  58.0481529  23.6691022  43.5139132  57.4866295  24.0312815  42.8285360
  57.4850178  23.0552602  43.9854097  67.6964378  10.1211357  70.6376410
  67.1790171  10.8172810  71.0424757  68.6055326  10.3855979  70.7784843
  58.7445211  14.6085989   0.8893324  58.9299154  14.4445288  -0.0352979
  58.4142685  13.7729788   1.2193380  58.5105801  75.2206326  12.5947964
  58.2301569  75.0457144  13.4931278  59.3029261  74.6950150  12.4845815
  81.1117840  17.7821231  41.2465763  81.3001728  18.7129951  41.3658094
  81.9301319  17.3410201  41.4745283  53.4813738  86.0463238  14.7448027
  53.2377720  85.3138542  14.1787910  54.3238735  86.3442230  14.4017458
  14.8590159  56.6951609   1.6190638  14.2094493  56.9386101   2.2786291
  15.6452405  56.4854860   2.1231678  76.9827795  60.6058884  29.9698710
  76.5849161  60.0281239  30.6211209  76.6717577  61.4804316  30.2036953
  53.5803604  75.8865118  23.0051923  53.8460350  76.0682011  23.9066553
  52.9379225  76.5667105  22.8031158  56.3340473  47.4574089  31.4797592
  56.9597626  46.7631960  31.2729168  56.2843895  47.9811621  30.6801009
  44.6851349  61.3998652  48.9217615  45.5085659  60.9422207  48.7522030
  44.1688347  60.7806635  49.4377613  84.6512318  78.6554146  22.3684216
  85.4909611  78.7884331  22.8081846  84.2745495  77.8877449  22.7985692
  28.6075425  64.0990686  14.5460558  29.5501542  64.0839863  14.3802607
  28.5275865  64.4170380  15.4453516  83.2013607   6.3667059  34.0539479
  83.2220268   6.7035860  34.9496698  82.2972775   6.0790318  33.9270496
  73.9580870  58.9028025   9.6767795  74.4512463  59.1387606   8.8910639
  73.6489201  58.0129051   9.5072728  41.0988760  49.5361376  69.4047499
  41.2425089  48.6700869  69.7862625  41.2026644  50.1414919  70.1389217
  77.3129606   2.2986080  40.9715986  76.5991116   1.9242269  40.4553699
  78.0596638   1.7251104  40.7990694  77.6929140  60.9620619  40.7440138
  76.8006706  60.9678507  40.3974485  77.9166842  61.8872547  40.8448887
  81.7495728  75.9892416  37.0778775  81.4198589  76.5652514  37.7676105
  81.9231319  76.5739441  36.3401556  41.5975475  31.1603785  56.7475462
  40.6627321  31.3581276  56.6905451  42.0250273  32.0166278  56.7294359
  72.6954937  72.6020861  43.1544781  71.9534063  73.2027435  43.2234240
  72.5746584  71.9879818  43.8787031  43.8239002  68.3881378  30.0225306
  43.4806585  69.1643524  30.4651451  43.9989614  67.7670527  30.7295203
  14.7222841  44.3783712  21.2930131  14.6040905  44.6578741  22.2008348
  14.5956707  45.1755714  20.7785439  14.1776896  80.6635284  25.8343863
  13.5584354  79.9354219  25.7833338  13.8609707  81.1966419  26.5635753
  81.2284088  55.5252981  25.5946732  82.0925522  55.8227539  25.3100252
  81.4000988  55.0101233  26.3829303  30.4467511  23.3796120  23.2951331
  30.1737285  23.1062794  22.4193573  31.2961555  22.9575014  23.4238529
  45.5108309  36.7169738   9.7406435  45.6304359  35.7684398   9.7876227
  45.8524609  36.9591212   8.8798964  17.0071614  29.0014839  18.7669361
  17.8179383  28.4928489  18.7540591  16.7552567  29.0273070  19.6900332
  85.8594131  60.8622551  19.2550051  85.3678608  61.6180182  18.9333975
  86.7500782  61.1905718  19.3780744  36.4600825  41.9787169  40.8612871
  35.7088733  41.4124250  40.6845713  37.0705175  41.4226961  41.3454819
  14.0548599   8.3670551  11.2770140  13.7707543   9.1344732  10.7804406
  13.3577192   7.7246189  11.1447179  57.3420000  69.7626591  37.3762870
  58.2501602  69.7895384  37.6775527  56.9640303  69.0047503  37.8223181
   8.3873677   2.9103163  28.0037761   7.4830800   2.8200856  28.3043647
   8.3106756   3.2518104  27.1128607  26.2485647  24.5655203  29.5129132
  25.2923703  24.5991182  29.4847250  26.4514112  24.2552471  30.3954196
   6.3609970  40.5964518  31.9680548   7.1385455  40.3642654  31.4603758
   6.0187376  41.3796997  31.5372276  26.2308550  79.0279770  45.3994608
  25.3662348  78.8075972  45.0529146  26.1017179  79.0863132  46.3461113
  21.2095070  84.1639805  22.4290514  21.0560942  84.3689060  23.3513856
  21.3570929  83.2183266  22.4151444  23.0496669  36.1349225  30.8337712
  23.2949305  37.0582032  30.7735133  23.4063292  35.7399392  30.0381517
  74.3587351  67.0305872  44.5575142  74.0853453  66.2626982  44.0556812
  74.8072338  66.6696930  45.3222561  23.3995128  15.9376979  68.7914658
  22.5628257  16.2304831  68.4302711  23.7636352  16.7158580  69.2135000
  77.1251999   0.0478904  27.5030184  76.8282305   0.9565036  27.4534631
  76.8063246  -0.2624256  28.3505177  72.7515888  49.9317169  12.5401998
  72.2931957  49.6879053  11.7360461  73.5086441  49.3467855  12.5710940
  25.3192186  43.7826824  31.3935566  24.6878576  43.2674551  30.8914042
  25.0769925  43.6336946  32.3075366  60.4405022  43.7308025  31.6380930
  61.2250519  43.2299089  31.8612981  59.9028206  43.6989355  32.4293661
   7.3961276  34.4631529  69.1217804   8.0544317  35.1399612  68.9643097
   7.9015571  33.6568928  69.2253065  68.8557529  42.9188156  21.4647913
  67.9300451  43.1096983  21.6159821  68.8675928  42.0078993  21.1709785
  33.0717015  74.4877625  34.9610949  33.6312175  74.0315008  35.5895853
  32.2039509  74.4826078  35.3650904  63.8052982  26.9013012  74.3885183
  64.6807128  27.2616662  74.2470336  63.9471582  26.1429394  74.9550828
  58.6671400  53.5283709  36.2907791  58.6990452  54.4799232  36.3895774
  58.7495756  53.3825254  35.3483534  80.5123615   3.7149498  13.3001351
  80.6712437   4.2622250  12.5310588  79.5590639   3.6880663  13.3821619
  64.6454239  49.4375896  32.6084971  64.7381115  48.5004044  32.7797627
  65.2709675  49.6157408  31.9062233  53.5568333  53.4092236  36.7986465
  53.8930511  54.2778873  37.0191169  54.2251587  52.8047132  37.1213555
  82.8293324  35.6778812   8.4957647  82.3482609  35.5547595   9.3140787
  82.6266861  36.5752792   8.2314867   1.5132970  53.1954002   7.8875637
   0.9542279  52.6477051   7.3364735   1.2352263  54.0909815   7.6956064
  22.8051162  62.9134750  13.3272195  22.9449058  63.3351612  12.4793577
  23.4443521  62.2013330  13.3488250  67.2947359  48.8923740  13.8051152
  66.6312027  48.2124043  13.9217007  67.9639578  48.4825230  13.2570302
  74.2175913  73.4377289   7.1407580  74.3655920  74.2040396   6.5865928
  75.0416231  72.9521561   7.1030784  80.3229332  74.4654846  34.8720694
  79.7680235  73.6935711  34.9836922  80.8591652  74.4915962  35.6645322
  62.1371078  58.4175634  63.3434963  61.6336775  58.9659882  62.7418184
  62.2911549  58.9765167  64.1051197   0.2563176   2.8428230  29.9842119
  -0.0790682   2.8831178  30.8798265   0.1676290   1.9225144  29.7364259
  43.1880426  72.9916859  56.5161848  43.0723810  72.0438671  56.5831852
  42.2995615  73.3353949  56.4229012  71.6951752   4.0020633  62.4233007
  71.0482836   3.3490270  62.6903296  71.6478252   4.0091264  61.4672995
  69.1731024  13.3902550  46.7264462  69.5222855  13.1304538  45.8739185
  69.2103529  12.5922906  47.2537947  28.4371805   7.9767132  15.9398627
  27.4805713   8.0082440  15.9282100  28.7008858   8.4052783  15.1256001
  23.4910083  81.0735512  69.3466282  22.5823212  81.3586903  69.2506170
  23.4987974  80.1793671  69.0051556  41.8372488  49.6317244  25.7388043
  42.7297497  49.9307203  25.9128189  41.6268206  49.9939823  24.8781538
  70.2343607  63.3852768  16.6175330  70.6636572  63.9837027  17.2289431
  70.8119822  62.6227760  16.5832913  78.9779568   6.8446869  38.6027074
  78.9282227   7.0859998  37.6777601  79.2955351   7.6349074  39.0396571
  88.7193871  82.8643703  13.9488924  87.9419708  83.0750847  13.4317362
  89.1709328  82.1915722  13.4392893  15.8105981  62.3341846  44.1749859
  16.5066838  62.6557922  44.7479296  15.8060300  62.9446363  43.4377241
  47.3832512  17.2659409  53.8755798  46.9972515  16.8606925  54.6521187
  48.3256388  17.2547317  54.0429354   1.5778422  80.7041168  45.6428528
   2.0491730  81.1171722  46.3663626   1.5123507  79.7829342  45.8945560
  46.1002541  14.1607678  10.9180355  45.9312534  13.2244825  10.8129585
  45.4683781  14.4455922  11.5782213  10.9446979  67.9425144  49.0994835
  11.8361354  67.5946045  49.0764570  10.4438865  67.2862101  49.5839262
  11.3489723  62.0187140  31.7211485  11.2874722  61.2793493  31.1163473
  11.6725445  62.7416039  31.1835909  29.8473763   2.7012202  62.6939678
  29.4651747   3.5739180  62.7864456  30.0604558   2.6304379  61.7634773
  63.7577105  76.0803652  40.7523155  63.5789490  76.3962507  41.6380310
  64.1110039  75.1997900  40.8788347  88.1580544  30.1312780  46.0805845
  87.2168064  30.2238178  46.2279844  88.5520935  30.8301806  46.6026068
  74.5503044  58.2512283  62.4061012  73.6735916  58.0285883  62.7192116
  75.0853825  57.4900436  62.6308727  67.5921392  10.3382695  32.1861339
  66.8244410  10.9015036  32.2842884  67.2354078   9.4920349  31.9162035
  78.4086752  66.9113398   7.3921281  78.4466171  66.3849926   6.5935373
  79.2782116  66.8188667   7.7814728  68.7034845  58.2768154  19.3201423
  68.1897354  58.9990950  18.9587510  68.4612322  57.5200462  18.7864304
  22.3405123  23.8931823  66.5846729  21.8850541  23.5392451  67.3485565
  22.3187160  23.1834936  65.9427214  73.1861544  83.1406212  21.2492108
  73.7541914  82.3806667  21.3758278  73.5461950  83.8086224  21.8326306
  90.9212399  59.6884727  24.6147990  90.9912586  58.7373066  24.5334625
  91.7127991  60.0237703  24.1938043  17.4400330  51.2495565  43.2594013
  18.3894968  51.3331270  43.1712723  17.0999670  51.4503241  42.3874617
  73.1846046  77.5299025   0.2578800  72.7660847  76.7224073  -0.0404884
  73.4402275  77.3472404   1.1620507  63.3757973  73.1234646  47.8228092
  64.1932726  73.5836840  48.0129814  63.3763790  73.0173826  46.8715048
  42.4114084   0.4338329  30.7575965  42.1154690   0.5598506  29.8560596
  41.8403149   0.9985899  31.2783051   4.0176943  33.8456917  10.3286874
   4.8955002  34.0028429   9.9808490   3.9622614  32.8942871  10.4180586
  16.4439368  53.6769819  45.3320456  16.3996530  53.1832170  44.5132256
  15.6287205  54.1781569  45.3538990  63.3882332  66.4016104  10.9571576
  63.0510426  67.2614336  10.7056749  63.7887287  66.5429306  11.8149817
  54.0269566  59.6415329  70.7603788  53.8029718  59.5925713  71.6897106
  53.6231470  58.8637543  70.3753757  65.8718491  70.6532383  22.0394611
  66.1695671  71.2172937  21.3257122  66.3897562  70.9299660  22.7953863
  81.8577576  57.9421759   2.5357217  82.3415756  57.5889969   1.7891139
  82.4010563  57.7307034   3.2948917  80.2373886  65.0445175   2.3884302
  80.6096554  65.3681660   1.5681225  79.3956661  65.4940987   2.4633110
  82.8708076  48.8825417  63.6479759  83.1754971  48.0471373  63.2937241
  82.0999241  48.6553240  64.1679335  70.9612656  83.2606792  32.9185128
  71.0966253  84.0184402  33.4874582  71.2818480  82.5173378  33.4293079
  66.6867161  80.3747463  43.0298042  66.0313225  79.8199081  42.6069117
  67.5237322  79.9632359  42.8146362  69.0779543  84.6729660  70.9458208
  68.1820631  85.0023937  70.8744860  69.2774630  84.3308830  70.0743818
   5.6967294  43.0901718  22.9240656   5.6940496  43.4648943  23.8048649
   4.7890672  42.8262615  22.7732944  50.3372288  70.8850145   1.8122299
  50.2121830  71.6735125   1.2841576  50.6784868  70.2361870   1.1967618
  67.7305222  68.1433153  32.1581459  68.6173677  67.8563166  32.3757744
  67.3220730  67.3760366  31.7572951   4.8577335   5.3123909  31.5931201
   4.1440332   4.6745580  31.5988827   5.4426616   5.0236535  32.2936368
  79.1366434  71.4774036  32.7959108  78.8946247  70.8182907  33.4464669
  78.3164358  71.6841984  32.3478842  23.1932402  68.7758684  53.0372858
  22.7340317  69.5881605  52.8238821  23.2329941  68.7673521  53.9936209
  10.9929228  16.6032851  32.5662041  10.4946220  16.8947017  31.8026567
  11.9083178  16.7348695  32.3192835  10.3704894  85.0244999  73.6556721
   9.5176679  84.5906830  73.6286688  10.1659596  85.9447098  73.8218927
   4.4929537  61.4567327  41.2171030   5.1356113  61.8625975  40.6352949
   4.4182113  60.5564785  40.9005737  62.6262951  70.4768324  11.4871705
  62.7980375  71.3665915  11.7954922  63.1579447  69.9195862  12.0555520
  83.0591488  41.6713810  33.8675737  83.0192280  42.0545053  32.9913044
  83.3973217  40.7869911  33.7271237  78.9555645  62.5106049  20.1252103
  79.6258879  62.7954626  20.7462978  78.4973812  61.8012714  20.5759239
  71.7116833  12.8094697  21.0540676  71.3728142  13.1705189  21.8732381
  71.1485004  13.1834209  20.3764081  75.6412268  57.1453238  54.7879744
  75.2934027  56.2940979  54.5221472  76.4435768  57.2467041  54.2759323
  88.5537338  45.8741283   5.2117121  88.1095123  45.1932049   5.7169181
  89.1123390  46.3192081   5.8489752   6.9630301  79.6981478  22.3096347
   7.2942936  78.8830996  22.6867151   6.5154135  80.1332283  23.0352926
  57.6790333  28.0351710  63.7860966  57.4569798  27.1218419  63.9670849
  56.8785048  28.5204101  63.9859152  35.5675030   5.3128046  19.0749693
  35.3489852   5.2336037  18.1464183  36.5223932   5.3771514  19.0916657
  48.1798697  36.4634299  73.1914473  47.8743601  35.5602241  73.2757807
  49.1231823  36.4125919  73.3457661  33.8945103  17.8588569  72.6460552
  33.6928272  17.0461524  73.1098127  34.7158051  18.1592321  73.0352688
  74.6155071  85.1311398  57.2849846  75.5176497  84.8112488  57.2914886
  74.6964979  86.0732269  57.1361637  26.0556030  82.6358795  11.1763120
  25.7413650  83.4388542  11.5919065  26.4040184  82.9234791  10.3324366
  43.3614731  26.9650388  73.6262083  43.8021803  26.7979479  72.7930880
  43.4301996  26.1382174  74.1035748  45.0944328  65.7383919   5.9013683
  44.6901131  66.2624168   6.5928596  44.3555832  65.3708887   5.4163164
  42.1150064  17.0375848  61.2862635  42.5310659  17.4300277  60.5187273
  41.3183451  16.6310418  60.9452534  63.2551336  74.1152859  23.8519669
  63.4402990  73.2643318  24.2492390  62.7657843  74.5914221  24.5228386
  89.7622204  85.8448696   0.6886260  89.5140076  86.6640377   1.1170890
  88.9435768  85.3538704   0.6180260  28.4224892  72.8703547  14.0336752
  28.4485579  72.1504116  13.4034085  29.3423557  73.0659008  14.2121029
  62.5592661  26.2435508  31.4920282  62.8630114  25.8994389  30.6520534
  61.6126394  26.3362885  31.3846588   7.8740102  59.5465851  25.8777189
   8.2737470  58.6961174  25.6956530   7.4506551  59.4349432  26.7289186
  20.5385828  80.7361031   0.2683148  20.4097080  81.6009617   0.6577437
  20.7639885  80.1716423   1.0077759  16.3759041  14.4909060  26.2213063
  17.2920096  14.2461419  26.3519716  15.8948135  13.6667573  26.2959051
  29.6499586  56.8823814  73.7496567  30.0045419  57.4465942  74.4367981
  29.6957898  55.9997129  74.1171217  54.7597694  29.3376446  67.2588205
  54.7178411  29.3123317  66.3028717  55.5601501  28.8597584  67.4761915
  58.3138704  72.8528643  48.2267189  57.8786564  73.3451509  48.9227629
  58.9334965  72.2858381  48.6858177  10.3796244  14.0311337  48.5116243
  10.5395138  14.1724086  47.5785065  11.2476647  13.8707328  48.8817739
  87.5903225  72.7547026  46.6535664  86.6927433  72.6166534  46.9560862
  88.1364250  72.3843384  47.3469925  90.1351166  28.4932661  30.7820535
  90.3806019  28.3371091  29.8701382  90.5413628  29.3323588  30.9991264
   7.9720837   6.7545313  57.3079586   8.3113950   6.3169360  58.0887318
   8.2613820   7.6625609  57.3975182  28.4520125  16.9982457  69.2523336
  29.3395352  17.0822370  68.9037895  28.5029149  17.3754287  70.1306105
  79.3565941  76.6234541  33.2334042  80.1288414  77.1840715  33.1587505
  79.6811724  75.8221054  33.6441636  55.0526333  78.3389521  21.0544705
  54.9860287  78.6117697  21.9695473  54.5879078  77.5028658  21.0193801
  56.0123777  85.2051544  58.2097912  55.3562784  84.5302010  58.3835745
  56.5189123  85.2610683  59.0200567  24.2329645   6.0912967   9.3393695
  24.5504880   5.3976762   8.7611824  24.2201591   5.6911892  10.2088416
  31.8911910  20.4650998  19.0296507  32.5213552  21.1810589  18.9488614
  31.8803239  20.0567675  18.1639838  44.4067240   5.2038211  23.6352253
  43.4749031   5.2138937  23.4165049  44.7662497   5.9693509  23.1869650
  17.5710988  82.2039700  41.8069696  16.8890285  81.8432617  42.3734474
  17.1164298  82.4212074  40.9931421  58.9936113  25.5806303  17.1187341
  59.6864557  25.9737802  17.6494241  58.7973404  24.7523737  17.5565684
  32.8760052   2.6857412   2.0412348  33.7352657   3.1052956   2.0845154
  32.6882911   2.6203373   1.1049028  86.5226650  79.1913271   6.3146520
  86.2939835  80.0594807   6.6466898  86.3038063  78.5955572   7.0311642
  55.8197641  16.2430620  54.3440294  55.2392197  16.3015854  55.1028299
  55.5983496  15.4054391  53.9370966  70.4410315  18.8103092  32.8415132
  69.9112844  19.0949035  32.0967960  71.2997246  18.6177373  32.4649501
  18.2474172  71.6907501  17.0957255  18.7989867  72.3175049  17.5638902
  17.8522038  72.2008562  16.3887393  16.1803699   4.7780076  70.2828455
  15.9557557   3.9320457  70.6703091  15.4001176   5.3165728  70.4147005
  37.2847128  72.2070885  63.3656502  38.0074096  72.7857971  63.6086369
  36.5865278  72.4233198  63.9837217   5.2466148  72.8123283  16.4159131
   4.5088685  72.7296543  15.8116555   5.2169740  72.0125151  16.9409406
  84.2217636  58.6547995  34.6437550  85.0000095  58.7068319  35.1986003
  84.4327641  59.1971064  33.8837457  14.4770825  12.8665030  13.3960283
  14.0946507  12.1718395  13.9321446  13.8975942  12.9296052  12.6367891
  47.7509642   9.9750584  30.7181048  48.6860657  10.1776302  30.7459760
  47.5901604   9.4754589  31.5185905  33.7362766  69.5490503   1.1387663
  33.2462001  68.7397385   1.2839139  33.2191682  70.2242422   1.5780252
   5.2255219   1.6983385  72.0676708   4.8561609   2.5750208  72.1736574
   4.9418598   1.4226927  71.1960173  82.7379417  11.8827927   7.5326073
  82.7372742  12.5833011   6.8802899  83.5478687  11.4007533   7.3655766
  51.3334608  15.7474339  12.5553679  51.8365669  15.8339524  13.3650792
  51.3789606  14.8150671  12.3435819   6.4499342  83.1863022  21.2007666
   5.9992743  83.8240147  21.7543530   5.7450962  82.7000237  20.7730103
  43.9990759   9.9907106   2.0526038  44.7143412   9.9500519   2.6874053
  43.9188623  10.9208679   1.8414076  17.6682425  32.2249889  62.1527052
  18.5074627  31.8307948  61.9149017  17.4379420  31.8137026  62.9857969
  18.2358611  66.3285303  22.9886532  17.8828943  67.0643806  23.4888291
  18.8317466  65.8899927  23.5959721  84.2231846  57.9132938  42.2058964
  85.0870419  57.8568220  42.6143074  83.6122131  57.6788044  42.9044390
  76.0726881  55.6115580  73.4166145  76.5432215  54.8173046  73.1636429
  76.0707855  55.5942631  74.3736553  88.0173779  32.4617720  56.6129780
  87.6838779  33.3571696  56.5557337  88.9094543  32.5592804  56.9460154
  72.3712730  53.1731415  50.0164700  73.0987167  53.7274170  50.2990294
  71.6009045  53.7375641  50.0812149  11.8858767  23.5530615  72.7830458
  11.5730953  22.7128506  72.4477196  12.8122735  23.5767269  72.5433350
  73.4643745  40.7904816   7.3901093  73.1004715  40.2848530   6.6633743
  72.7396011  41.3418913   7.6848555  26.9348145  82.9042244  71.3820744
  26.1728597  83.4807873  71.4389467  27.4273276  83.0783558  72.1841574
  17.7736831  70.2850628  21.2547016  17.7943540  71.0214567  21.8658686
  18.6421061  70.2834797  20.8521199  62.3905134  46.6014814  26.3025522
  62.9880095  45.9609175  25.9166598  62.1086216  46.2009954  27.1249771
  73.6999702  83.2015896  73.3953190  72.9342604  83.2353020  72.8219223
  73.5452700  83.8899422  74.0422058  90.3442764  39.8659277  53.7118864
  90.7075596  40.4955769  53.0891514  90.1332283  40.3886700  54.4854689
  22.0156169  39.1882753   0.9569209  21.8662882  39.9791408   0.4387844
  22.6325917  38.6738610   0.4363938  82.7946091  65.9905195  45.8642197
  82.7347279  65.2536011  45.2562761  83.7125111  66.2591696  45.8252811
  36.4877653  48.4560537  17.4234998  36.3147855  47.8629208  16.6924047
  37.2203207  48.9955950  17.1260321   4.4979438  78.5290527  38.1461191
   3.6945525  78.9863777  38.3944130   5.1855981  78.9603281  38.6534286
  71.8931198  50.7289314  25.9162331  71.9743538  50.7837963  24.9640656
  71.1733770  50.1145458  26.0602021  59.9653101   0.3890326  34.5278430
  60.0503635  -0.4492106  34.9820971  59.1652250   0.7747257  34.8846793
  17.4104476  73.5124207  64.3313217  17.3561800  73.2013798  63.4276962
  18.3248794  73.3736563  64.5778799  16.3483477  72.2100544  30.0848985
  16.7052627  72.0137310  29.2186999  15.4319715  71.9382954  30.0335765
  67.5265455  48.1727076  56.8714476  68.0648708  48.0665159  56.0871267
  66.6280937  48.0547142  56.5630674  47.6899385  12.7377617   6.7525971
  48.0192995  13.6340177   6.6856629  47.8965378  12.4729824   7.6489449
  75.7894659   1.5482700  72.1089983  76.1118460   2.3290801  72.5591516
  75.6197357   1.8409508  71.2135887   8.6474663  31.5482640  56.5180492
   8.0413687  32.0915413  57.0217609   8.8234985  32.0566797  55.7263708
  66.0071193   0.2358310   2.3457542  65.8274757  -0.3120739   3.1097972
  66.1151873   1.1172073   2.7031451  52.1987057  67.0800829  68.5913944
  51.6866875  67.6230431  69.1907835  51.6431999  66.9885731  67.8172684
  30.2714467  80.2015591  46.7171478  30.3924322  79.3039799  46.4074135
  29.4670272  80.4959583  46.2899828  26.2359667   9.8337644  14.4268584
  25.9577656  10.7402849  14.5574558  25.4241514   9.3563843  14.2556965
  68.8344526  32.1985984  66.3271952  68.7538624  31.8617249  65.4348612
  68.2599878  32.9639912  66.3470507  57.9013205  53.4412766  23.4852099
  58.3669853  54.2255354  23.7756085  57.4616671  53.7088442  22.6781511
   0.6680148  27.1628213  32.7310729   0.2653152  26.4408755  33.2136297
   0.5156697  27.9321575  33.2798386   1.9630651  46.7227650  52.7502060
   1.2719426  47.1026278  53.2926893   2.6951778  46.5909624  53.3525896
  74.5394182  53.8736820  34.5284247  75.4687405  53.8206148  34.3053222
  74.1742468  53.0395269  34.2333531  91.3545704  43.6962175  57.3680115
  90.5957985  44.2783880  57.3283672  91.0494900  42.8780746  56.9758368
  40.4616642  44.5228958  12.1162045  40.1335955  43.6464405  11.9151413
  40.4889107  44.9685144  11.2694955  78.9504004  23.7095046  13.8252997
  78.2941866  23.1969047  13.3532226  79.3992376  24.2098141  13.1437802
  22.7052379  72.3016644  20.1888108  22.3754168  71.6684532  19.5512438
  23.0592680  71.7651701  20.8980846  18.6707091   2.1356340  27.1196342
  19.0571296   3.0101532  27.1657467  19.4109404   1.5402089  27.2369242
  76.6630793  62.3793316  10.7941580  76.2160397  61.5334892  10.8248174
  76.9852495  62.5124168  11.6856313  40.1186228  11.6090262  11.0571492
  40.8327723  11.4311218  11.6691720  40.3876400  12.4059963  10.6003118
  17.1047008  44.6504116  17.2064734  16.8055916  45.2513409  16.5240884
  17.5014257  43.9226723  16.7276812  74.9094200  49.6880484  21.2692070
  75.0176001  49.6733904  20.3182530  75.5034304  49.0086794  21.5883350
  65.0938559  68.3547831  63.6655664  64.5448208  67.5710487  63.6890936
  65.5785370  68.3325386  64.4906902   3.7246498  63.9058447  33.8590264
   4.3618181  64.0621710  34.5560265   3.7482110  62.9589510  33.7209344
   8.0897903  65.3028917  17.3971653   8.7773073  65.8532381  17.7722287
   7.4860078  65.9211302  16.9855118  88.6498642  52.5746822  49.8844576
  88.8679790  51.6974163  49.5697212  87.7730179  52.4841642  50.2575159
   9.1936719  54.1564226  73.4366512   9.5217514  54.2733192  72.5450659
   8.2671666  53.9434862  73.3249426  35.8683658  73.1717253  47.4752665
  35.1812100  73.5042143  48.0527592  36.5411210  72.8398895  48.0698395
  56.9964790  77.9621458  67.4092007  56.8244028  77.0938587  67.0449114
  56.1485863  78.4055233  67.3822451   5.1368994  74.5572233  20.6769896
   5.1203120  75.0010014  19.8290396   6.0657507  74.5063066  20.9025431
  44.5473003  15.3828549   8.7852907  43.8234234  15.3684700   9.4114119
  45.3338146  15.3177702   9.3269467  19.1500306  79.0846348  72.3226118
  19.3911815  79.3506527  73.2099152  18.2071590  79.2420912  72.2732782
  32.0143414   4.0270391  16.6462529  31.3034558   4.6515611  16.5018690
  31.7145991   3.4879777  17.3782361  81.2199974  71.3495970  68.2772017
  80.8426571  70.7913256  68.9570427  81.9689369  71.7693901  68.7003994
   2.6436880  64.9981165  73.6302567   3.0495280  65.0331211  74.4964600
   3.3364964  65.2733803  73.0298615  62.8177166  73.2449389  73.5155249
  62.1661472  73.9001989  73.7651682  62.7395630  73.1799698  72.5637341
  10.7372117  18.1068838  23.4693551  10.6347990  17.3761618  22.8596115
  10.8933985  17.6911724  24.3173075  31.8204904  42.9226303  13.9891779
  32.7288890  42.6235723  13.9490938  31.5401673  42.9603195  13.0747211
  76.9098616  40.7893038  31.7209578  77.6768351  40.4207850  32.1593404
  77.2569799  41.1797237  30.9188867  48.1085300  29.1306353   9.8992735
  48.7235117  28.6560249  10.4585385  47.2520781  28.7651372  10.1209378
  43.9559031   8.3095652  31.2654877  44.6152830   7.6295280  31.1276627
  44.3571281   9.1061497  30.9180689  42.0262814  29.7309494   3.1116033
  42.2055864  30.6322455   2.8437510  42.0792866  29.2250609   2.3007402
  62.7523136  33.4492588  58.8553715  63.3395720  32.9104352  59.3854952
  62.6360846  32.9517078  58.0459499  78.6869287  47.6762295  33.8115907
  79.1228819  47.8972960  34.6345782  79.2537355  48.0445004  33.1338477
  49.8339939   6.6993403  73.8113832  50.3628492   7.4497914  74.0822458
  50.4140091   6.1891001  73.2461643  74.4373417  47.4419880  13.3356798
  75.3501987  47.6465130  13.5383999  74.2596054  46.6351748  13.8190985
  41.7258978  66.4344883   2.2718029  41.2223291  66.5547752   1.4667051
  42.6248217  66.6542959   2.0271504   5.3118432   1.8983376  54.9784088
   5.5600375   2.4416120  54.2304230   5.7290375   1.0535122  54.8097372
  70.9459972  64.9702597  67.5726795  71.8572617  64.6997261  67.6851273
  70.8343029  65.0476313  66.6251707  67.6709906  31.2136916   0.4486299
  67.9608939  31.2899951  -0.4604172  68.4707061  31.3165025   0.9644962
  64.5937634   9.4922394  30.7345057  64.5755196  10.3759122  31.1019588
  64.9462891   8.9474654  31.4381933  76.6670227  29.2797375  16.2633550
  77.5746250  29.0612435  16.0518062  76.7184496  29.7224474  17.1104634
  46.1978388  24.2708802   2.1670920  46.0597563  24.7767568   1.3663091
  47.1410704  24.1093802   2.1887146  68.7091017  77.4028873  64.8312569
  69.0262508  76.9859648  65.6323957  68.1675291  76.7344332  64.4116116
  61.3286686  46.6883278   9.1982985  62.0387650  46.7101383   9.8397976
  61.1523914  47.6090336   9.0047461  42.9718733  33.1167722  10.2604616
  43.1097889  33.2238507   9.3193221  42.0356274  33.2725692  10.3845870
  76.7275763  70.7926655  74.4388771  76.0892534  71.1779308  75.0391579
  76.5223360  71.1819649  73.5888433  50.1646948   2.7069819  34.8799348
  50.4967451   2.0799409  34.2374444  49.3564034   3.0421525  34.4919133
  44.4242239   8.4246731  49.8729658  44.7066498   9.3146551  49.6622562
  43.5465479   8.5323644  50.2394676  54.9183083   4.3265134  40.2404308
  54.9707460   4.9921632  39.5545793  54.0102053   4.0251556  40.2127886
  74.1617537  38.0797911  58.5751677  74.7648954  37.4185634  58.2357168
  73.7299585  37.6528049  59.3150759  41.4591026  72.4242973  33.5802293
  42.1512413  73.0728769  33.7087750  40.9493971  72.7608252  32.8432226
  14.9483645  83.5987091   3.8495243  14.2479479  82.9689217   4.0198576
  15.6349993  83.3683777   4.4753927  79.6663475  59.9826193  69.1588688
  79.3179035  59.8359489  70.0382471  80.5662823  60.2749014  69.3034983
  57.3322773  11.4066851  14.9944258  57.3545456  12.2342479  14.5139313
  58.2470608  11.2346029  15.2175748  60.5351782  10.1455665  25.8017635
  60.0706244  10.9598446  25.6084442  60.6816196  10.1720512  26.7473269
   1.8894669  52.8254461  30.3127003   1.0140794  52.5211525  30.5521488
   1.7358720  53.5008907  29.6520853  83.8139343  34.1192293  71.7527628
  83.5306168  34.0791607  72.6661968  83.6532021  35.0260043  71.4916945
  75.0252676  39.9585152  24.2443180  75.2897787  39.6791601  23.3678317
  75.0587225  40.9145594  24.2112684  78.0570841  16.4428973   7.3295093
  78.4211540  15.6967533   6.8531120  78.3089256  16.2914085   8.2404745
  34.5388770  50.3275871  29.0805221  35.4144406  50.3201628  29.4672608
  34.0162301  49.7736168  29.6603417  83.8030338  65.7583952  72.1917677
  83.5902405  65.4544926  71.3093901  82.9958344  65.6308699  72.6901722
  55.4780722  23.5931253  28.4617138  55.1541138  23.1237173  27.6929903
  56.3021374  23.1572270  28.6788440  67.1815395  25.6218076  34.3228889
  66.5480471  25.3323603  34.9795032  68.0211544  25.6189799  34.7825336
  25.7106447  26.7624688  22.2064424  25.3232336  27.0528889  21.3807297
  25.0857091  27.0417571  22.8755355  41.9846869  85.2824116  67.6032114
  42.4069309  84.9955463  68.4129381  41.6419315  84.4779778  67.2138166
  31.4737082  52.4132347  31.4799356  32.3284554  52.7207899  31.1781931
  31.0929918  53.1674004  31.9299579  36.8600106  14.9660492  22.6475525
  37.0363212  14.6303546  21.7686582  37.6898289  14.8643792  23.1137037
  53.7067842  24.8960567  23.2633662  53.8088369  24.0800977  22.7734375
  52.9597902  24.7371268  23.8404036  74.5821667  65.0400925  69.5690632
  74.0391541  64.2815495  69.3546295  75.1747179  65.1291609  68.8226175
  63.3877516   3.9964780  36.7238164  63.1386137   3.4489715  35.9792352
  62.8195429   3.7044129  37.4366069  23.9476085  72.1080065  73.8012600
  24.7073364  71.8949652  73.2593536  24.3170238  72.5339460  74.5747805
  20.9227753  65.7900143  32.4074078  20.0732613  65.7595062  31.9673800
  21.4581466  65.1493502  31.9392562  28.2760453  74.9247932  20.5268574
  27.9206681  74.0925503  20.2149105  27.6025796  75.2676439  21.1143351
  12.2397745  11.3472176  63.9247799  12.7342963  11.4249897  63.1089163
  11.4746737  11.9076884  63.7954569   0.2936310   5.5451632  32.2610426
   0.5835844   6.4573848  32.2642231  -0.5404986   5.5606091  31.7917657
  58.8223791  14.4931340  37.6312828  58.7226677  15.1539886  36.9460392
  59.5505762  14.8101211  38.1655908  20.6343961  79.7477722   2.9461679
  20.5761290  78.8661528   3.3143848  19.8412430  80.1879025   3.2518253
  38.9361572  66.8215799  21.5778399  38.9912581  66.1405849  20.9074354
  39.8443079  66.9752216  21.8383884  69.2647457  63.9328337   0.1406377
  69.9830008  63.4246492  -0.2363098  69.4062185  63.8827038   1.0859969
  25.5459881  24.0846682  24.4782114  26.4933157  24.1187596  24.6110201
  25.2135587  24.8643088  24.9230504  36.5193534  78.9023066  31.0977960
  36.8647337  78.5310078  31.9096351  36.1406493  78.1550455  30.6347466
  22.3486733  85.1535988   1.2777299  21.6039610  85.7424068   1.1555122
  23.0953074  85.7368469   1.4140420  27.4760389  25.5223131  54.2325926
  27.7442408  25.7802296  55.1145124  27.9295063  26.1364317  53.6551332
  24.6299267   9.7330701  56.5833521  23.7544656   9.7792602  56.9676256
  25.2227163   9.8895311  57.3184395   9.0555078  12.8127182  16.6291261
   8.8551170  13.6014593  17.1330726   8.2466215  12.6192880  16.1552906
   4.5766258  82.7576447  61.7523098   5.0802857  83.5622787  61.8752956
   4.3919888  82.4525261  62.6405954  41.4837360  57.4444056  49.9748516
  40.8628893  57.3203230  50.6927538  41.6515732  56.5605783  49.6478844
  20.4838133  47.8328514   6.1771435  20.0697374  48.0418396   5.3398281
  20.3277445  48.6050272   6.7208564  58.9068222  28.2923985   4.1341430
  58.5824585  27.9810023   3.2891279  59.3730402  27.5421667   4.5029601
  71.3583612  59.2045355  18.9821064  72.0573330  58.5808945  19.1789329
  70.5514526  58.7331963  19.1893947  81.0387230  18.6339188  36.9637847
  80.7769203  19.4277716  37.4301386  80.5066681  18.6370897  36.1680889
  71.7523813  39.7773266   5.4341435  71.3090897  38.9639115   5.6751466
  71.1565590  40.2007818   4.8161495   6.1877144  85.7425324  65.6402445
   6.9632996  86.3034103  65.6509542   5.5846323  86.1792097  65.0387192
  73.5219145  22.1088958  13.5178435  73.9129257  21.7728472  14.3243241
  72.6764393  22.4644661  13.7916505  87.4938488  42.4285936  68.7862206
  87.1514034  42.2527409  69.6625996  87.5642681  43.3822441  68.7434959
  72.4652529  44.6104336  18.0317116  72.2931862  45.2866364  17.3764455
  71.6839504  44.6084452  18.5846961   0.7976000  42.2565603  68.0384350
   0.4430159  41.3860035  67.8577757   0.2443189  42.8505325  67.5311804
  45.3492451  48.2599640  11.5293670  44.5360661  47.7554035  11.5490007
  45.7055616  48.1744909  12.4136543  83.2894516  56.1502600  31.1742330
  82.5143909  56.0619354  31.7289472  84.0162182  56.2399483  31.7906785
  25.3206372  75.6246281  12.3843634  24.8433113  75.0879717  11.7516029
  26.1802053  75.7582235  11.9849551  83.7226009  17.1462536   1.0851941
  83.9191532  18.0605602   0.8811247  83.5293102  17.1462989   2.0226759
  64.5080185  23.3663416  27.7604222  64.4002867  23.5148907  28.6998701
  63.9302492  22.6281357  27.5668573  44.5505428  21.7666411   1.7333551
  45.3202677  21.4753699   1.2445694  44.7509813  22.6695395   1.9799955
  10.5928850  13.7144768  30.1135921  11.3891268  13.2100391  29.9469376
  10.7982111  14.2369127  30.8889222   5.9944165  39.3933940  34.5541382
   6.6213340  38.6753511  34.4668484   6.0477072  39.8605633  33.7203836
  80.9987354   9.9769044  12.2139311  81.5375328  10.0767970  11.4291024
  81.3283253   9.1808772  12.6309955  51.2422991  84.1323853  46.7041588
  50.6774569  84.8976040  46.8119812  52.0416927  84.3556595  47.1809626
  52.6784706  48.5767841  31.4539170  52.1293211  48.0361319  30.8861518
  52.6171637  49.4557905  31.0799813   1.6720079  54.0906048  11.2432230
   1.9102085  54.6498346  10.5037940   1.4875340  53.2380533  10.8490646
  60.5206966  48.7460947  21.8124604  61.2843132  48.6982203  22.3876429
  60.6314278  49.5684767  21.3353252  49.3153763  27.2765803  16.4912856
  49.9631310  26.6355753  16.7841291  48.5837650  26.7487502  16.1713243
  30.7291222  76.3440943   4.9798176  30.4651618  75.9368038   5.8048451
  31.6836715  76.3930511   5.0315040  60.9950161   2.9641494  66.6579390
  60.5421448   2.9188836  67.5000143  61.1041451   3.9009988  66.4947319
  10.5663991  73.8940620  13.4038424   9.8587620  73.9808321  14.0425539
  10.2351010  74.3298769  12.6186430  44.4455719  47.4284792  16.6918981
  43.6148691  47.2881222  17.1462798  45.0936031  47.4964905  17.3930836
  84.5006466  62.2108173  71.0793066  85.3536701  61.7804384  71.1372948
  83.8995647  61.5159607  70.8107996  84.1080856  46.2306356  62.6756859
  83.3810997  45.6362200  62.4902534  84.3007755  46.6433048  61.8337774
  49.8257017  40.6740808  11.0994959  50.3647089  41.3162088  10.6375659
  50.1752234  40.6646585  11.9905496  45.0735998  13.7322664  32.0617366
  44.5180845  13.1591511  32.5901079  45.9401417  13.6615074  32.4621463
  68.0157852  83.7590027  13.4967208  68.0961609  84.3816471  14.2192721
  68.1725597  82.9044247  13.8984060  48.2514477  36.5310359  13.0628467
  48.8649464  35.7980704  13.0116832  48.6810303  37.1631598  13.6391354
  11.0233760  67.2892380  74.6997070  11.6496170  66.8527937  74.1221476
  10.2694440  67.4739265  74.1396093  47.0234060  58.1191778   0.3137359
  47.4927425  57.3527050   0.6430998  47.6123190  58.4986115  -0.3385268
  61.7098236  12.8318048   2.3023351  61.5332556  12.3452163   1.4971726
  62.0224905  12.1695769   2.9187161  13.8115275  69.9130917  20.6098795
  14.4832611  69.6381664  21.2339163  14.2870188  70.4267359  19.9569535
  57.9433489   9.0074307  45.1120424  57.7160263   9.0305966  46.0415697
  57.1025324   8.9266264  44.6617842   0.9269083  73.7952280  71.8115091
   0.3362226  73.1522799  71.4191628   0.5396687  73.9862680  72.6657867
  82.2157192  60.0232601  26.1293077  82.3074341  60.9575891  26.3159704
  81.7330551  59.6754503  26.8791676  66.2309217  35.9727693  10.2664840
  66.1574554  35.0396109  10.0663531  67.1268940  36.0793829  10.5860114
   6.8270069  46.1201477  71.3184118   5.9831941  46.1141491  71.7702675
   6.7722905  46.8642139  70.7187414  14.3377841  36.8671179  19.3207622
  13.9381266  36.6631126  18.4752524  14.0747762  37.7701831  19.4983387
  78.6952114   3.0105913  73.2601643  79.1434717   3.7966394  72.9480410
  78.8215160   2.3692419  72.5609159  15.2974558  83.8798714  64.6683073
  16.1382866  83.4476948  64.8181534  15.0353992  84.1998100  65.5315590
  35.4665041  53.6593771  55.8961105  35.9213400  53.8929558  56.7053032
  34.6031165  54.0637636  55.9813547  27.8053284  62.0198345  19.8323047
  27.4693584  62.8449440  19.4822299  27.2304296  61.3504648  19.4612622
  41.9660568  45.2566671   6.9192255  41.5700150  45.7469225   6.1987883
  41.7167711  44.3471098   6.7555350  47.7155352  55.7825756  31.3618875
  48.2706118  56.2058926  32.0168114  47.0583582  55.3109407  31.8736625
  54.0875721  29.8893166  12.2230887  53.9854002  29.9806571  13.1704271
  53.2147980  29.6518683  11.9098496  57.2002840   2.2431433  19.6360826
  56.4080763   1.7148051  19.7335577  57.3667765   2.2535284  18.6935306
  85.2868748  45.7276058  30.9302664  84.4042683  45.3680277  30.8411503
  85.6905270  45.2030325  31.6217303  75.9006310  79.5986223  27.8030944
  76.0619736  80.5252838  27.6255798  75.3668451  79.5963621  28.5976362
  79.7622252  17.7311862  20.6875777  79.8631191  18.3952236  20.0055885
  78.9359045  17.2959864  20.4777527  61.4823103  45.0597477  28.9288759
  60.7277346  44.4722128  28.9694762  61.2999249  45.7297230  29.5877409
  33.5595608  59.5499754  33.6081839  34.2165160  58.9808321  34.0090728
  33.9787745  59.8756456  32.8116703  12.0272100  84.2756844  56.8177748
  11.9593000  84.6698570  55.9481478  12.9537380  84.3545914  57.0448208
  52.4720001  11.9229662  16.6053689  52.4063396  12.6323760  15.9661043
  53.2185841  11.4021683  16.3093758   8.6479115  79.1878605  71.1409426
   7.7294892  79.4318247  71.2558889   8.6254483  78.4515333  70.5297565
  50.9748220  78.2944679  18.6921203  50.5046844  77.7214575  18.0864298
  51.8701124  78.3171654  18.3542359  26.4561701  70.2909184  25.1827884
  26.3314390  71.1546326  25.5760765  26.8893409  69.7775269  25.8647156
  71.8885183  44.8986864   5.9102255  72.2934198  44.1554117   5.4632044
  72.2595310  44.8787069   6.7923713  11.0336220  84.9880695  51.7470932
  10.0912535  85.1484680  51.6976166  11.1396194  84.4159222  52.5071192
  32.7024889  74.5762825  18.7910926  33.3986187  74.1440201  18.2963419
  33.0160022  74.5764112  19.6954942  22.6387382  84.8815536  72.7063990
  21.8205118  84.8500347  73.2021284  22.6496649  85.7561493  72.3175621
  13.4470832  70.1908970  52.0812893  13.6010230  70.5286264  52.9636002
  13.7083745  69.2712307  52.1278906  61.5152740  32.7926302   2.4465474
  60.6954193  32.4267435   2.7785119  61.9974518  32.0360589   2.1128798
  72.5562668  22.6334906  69.6431017  72.6446009  23.5344672  69.3321848
  72.1353340  22.7156115  70.4988480  56.1720419  42.3273659   8.9200735
  56.2486172  42.6946878   9.8006654  56.5121651  41.4363766   9.0018076
  79.0130472  42.8815746  54.0965271  78.1727934  42.4407959  53.9703417
  79.6529102  42.1707392  54.1356087  26.6513038  28.9182687  18.6759293
  26.7432380  28.4377766  17.8531861  26.0249257  29.6144772  18.4779966
  82.2550106  53.8492680  12.6629865  81.5359497  53.5066080  13.1938004
  81.9035530  53.8773155  11.7730868  24.3021560  77.3078251  64.4781876
  24.9875665  77.9081678  64.7714996  24.7392869  76.7344952  63.8485527
  67.1883726  16.8843639  35.2809000  67.7516556  17.5940382  34.9721861
  66.2983370  17.2154355  35.1606321  21.7958379  16.8630326  14.3734908
  21.0935712  16.8708026  13.7231123  21.9316816  17.7853990  14.5903325
  61.6312599   8.3131427  24.1513777  60.9917927   7.6734209  24.4645309
  61.4524174   9.1013342  24.6642137  45.1685762  32.2585797  21.4184856
  45.6815052  32.2625160  20.6103253  45.7925749  32.5099230  22.0994329
  39.6230459   7.0096958  14.5980144  39.4830608   6.1060399  14.3150973
  39.1557050   7.5383061  13.9511800  39.0624714  21.2869859   8.6340714
  39.0278578  20.9910941   9.5437318  39.2829823  22.2165871   8.6928105
  37.9997063   8.6983252  12.8452086  38.0696702   8.5155350  11.9082332
  37.8077507   9.6348691  12.8928506  54.7425175   6.2826276  14.4487023
  53.8936901   5.8523887  14.5517385  55.0280809   6.4664286  15.3436339
  64.0884829  42.7388477  60.4243803  64.1998434  41.8100023  60.6270504
  64.2122650  43.1834841  61.2629557  91.7177934   1.7137289   7.9862326
  91.1196576   2.4597514   8.0300033  91.1440541   0.9480287   7.9586953
  65.7285118  26.7751265  30.1151681  65.7280207  27.5318360  30.7013607
  66.0340548  26.0500669  30.6602931  91.0586452  62.7250147  54.7394323
  90.5527592  63.5351610  54.8025513  91.0471344  62.5074577  53.8073587
  54.2722607   3.7849304  51.4493275  54.3228722   4.2682168  52.2740126
  55.0803280   3.2725671  51.4219952  71.6552877  63.7447405  61.6726828
  71.4168501  64.3750048  60.9928703  71.3044643  62.9108858  61.3598871
  89.1258621   1.0153068  43.3457613  88.8730335   1.2785199  44.2306519
  88.3410931   0.6025417  42.9852295  48.2089996   8.5333222  10.7297039
  48.2437229   8.9298576   9.8591948  48.1262827   9.2758882  11.3280225
  81.9653702   6.6404212  31.2497902  82.4953842   5.9252769  31.6017556
  82.0366573   6.5463346  30.2998948  90.9626961  75.0859451  58.6018848
  91.3210964  74.2141581  58.7685299  90.0199604  74.9867344  58.7346649
  49.9374437  29.7257519  20.2087474  49.1852379  29.2314816  19.8829949
  50.6667519  29.4434571  19.6567965   0.3361770  22.4432898  14.8141718
   0.3827289  22.5203586  13.8612163   0.9512112  21.7417073  15.0280559
   1.8943468  58.0623913  34.9781919   1.9445424  57.5398827  34.1777563
   2.7841470  58.0466795  35.3306699  62.7225065  19.8945510  17.7113426
  62.8301287  19.9525857  16.7619848  62.0109463  20.5033970  17.9093838
  59.4947863  58.2563972  73.7598896  59.1253328  58.3010578  72.8779888
  59.0759373  58.9762068  74.2317724  68.7754583  26.0645437  13.0001843
  67.9868841  26.5954137  13.1122601  69.2773485  26.5208006  12.3247814
  34.0192962   6.3986129  20.8653283  34.3454742   5.8257854  20.1712751
  34.7408772   7.0042515  21.0349059  70.6500673  57.0165920  21.7932105
  70.1810741  57.8493929  21.8453193  70.2169561  56.5417862  21.0838389
  49.7369146  13.8163185  29.0689135  49.8364067  12.9437828  28.6881042
  50.3263521  13.8171279  29.8230958  60.8199406  31.1188674  27.6840043
  60.2926493  30.6656408  27.0261431  60.4838037  30.8000016  28.5216022
  87.1235657  60.9981966  71.3590479  87.0412254  60.3449821  70.6642342
  87.9978752  60.8539391  71.7210007  75.0193787  26.3035822   6.1557001
  74.5534706  26.8760729   5.5462617  75.9399128  26.3877010   5.9071666
  73.8656569  21.5923715  22.4672961  74.2745399  21.9226003  21.6672993
  73.7020588  22.3751307  22.9933715  47.1069956  38.6508751  31.6701221
  47.6024532  38.8099790  30.8667302  46.8377781  37.7344203  31.6079640
  71.6259003  37.6435542  50.7839537  70.9406805  36.9854021  50.6676102
  71.8042755  37.9625678  49.8992777  51.3990545  43.2480764  13.4090543
  52.0861959  43.7509060  13.8463581  50.8974791  43.9015293  12.9215610
  43.0166245   0.7642817  65.2889872  43.5636139   0.8175468  64.5052814
  42.8234482  -0.1684669  65.3833008  49.2595911   9.3803769  34.3149734
  48.4003401   9.8005348  34.2777419  49.8734474  10.0669861  34.0542340
  68.2513285  58.5781097  61.5899086  68.6182499  58.5776758  60.7058287
  68.3127832  57.6664782  61.8751812  79.1585302  56.4462090  15.0675476
  80.1001263  56.2771511  15.0998580  79.0884972  57.3585320  14.7864962
  50.2052164  18.6164522  14.8409700  50.5051422  18.4357882  15.7318330
  51.0102081  18.7108171  14.3317425  62.2916460  41.3103914  19.9721110
  62.7357483  41.0337543  19.1705644  61.4473438  41.6484833  19.6736550
  43.2836437  41.9151449  25.1902056  42.9487753  42.6327276  25.7279515
  42.7300787  41.1677551  25.4164886  27.8191280  82.2701740  52.0339298
  27.4678922  82.4476242  51.1613607  28.6467409  82.7503300  52.0611763
  82.4646378  61.5387583  55.9944391  81.7601299  61.5206432  55.3466988
  82.1426773  60.9954643  56.7137480  41.7832851   6.8384784  61.6814280
  42.4054050   7.3979259  62.1464205  41.7958307   7.1630943  60.7810402
  31.1880779  28.7829304  57.8057623  30.3560710  28.3115888  57.7629805
  31.0823536  29.5114851  57.1939898  68.4655190  40.9492731  28.5445738
  69.2745018  40.4447937  28.6299276  67.8230333  40.4604483  29.0588546
  28.7471938  63.0563402  43.4086132  28.1490374  63.2785368  44.1221046
  29.1403532  63.8919163  43.1566811  24.1286945  66.1408949  65.1879787
  23.3388734  66.5688896  65.5184889  24.8333836  66.4789104  65.7406044
  82.9465675  58.0192614   7.9108071  82.0473862  58.2904816   7.7260035
  83.3189964  58.7474823   8.4080249  54.5044088  16.2062061  61.2764645
  54.1024017  16.1142421  60.4126549  54.1492319  15.4770434  61.7847967
  74.3511057  70.3964233  71.6719866  74.6049166  71.2471819  72.0297861
  73.8835573  70.6064177  70.8635759  39.0645194  75.2221107  26.2775302
  38.4818792  75.4093790  27.0135283  38.7538242  74.3848085  25.9331226
  68.9263010  56.5131807  43.8538027  69.6675444  56.5801287  43.2518864
  69.2909050  56.7409658  44.7090292  60.9859419  54.6859217  21.3456535
  61.7754078  54.3181133  20.9485555  61.1371136  54.6160650  22.2882533
  60.0968170  34.5647717  20.4944134  60.4977989  34.8793602  19.6841800
  59.6442795  35.3294778  20.8503222  30.6811142  73.0678463  58.3464098
  30.9389114  73.8739538  57.8992367  30.4766083  73.3443689  59.2396879
  63.1255722  37.0228887  24.2881107  62.3057175  37.1737123  23.8176584
  62.8584528  36.8859100  25.1970220  63.1972456  22.5122142   2.5621876
  63.9196301  23.0032778   2.1707156  63.5829878  22.0896530   3.3295709
  78.9709568  44.6370077  33.7985635  78.3628225  44.6275187  33.0594325
  79.3453455  45.5179024  33.7894011  68.9470863  17.3682153  16.1864614
  69.5736647  16.6480231  16.1160743  69.3769169  18.0046725  16.7577744
  80.5576897  52.7212048   6.5761536  80.4282856  53.6117887   6.9022578
  79.8826122  52.2045708   7.0161474   1.6071780  36.2944508  36.0446191
   1.2195967  35.9507036  35.2397275   1.2394895  37.1739936  36.1308789
  55.3827238  15.2427328  70.0072670  56.1919022  15.7442009  69.9072981
  54.8916674  15.4178929  69.2045116  76.3726473  37.9585576  14.0910482
  76.5682888  38.2777691  14.9719918  76.0740280  37.0587778  14.2231607
  34.1257358  15.0407457  45.9785938  34.2226124  14.5302904  45.1746798
  34.9432039  14.8950696  46.4547825  83.7561035  51.1793089  40.2281284
  83.9050865  50.9456062  41.1443281  84.6322918  51.2141657  39.8443198
  83.8536739  69.4870758  57.5594568  83.7912750  69.2003632  58.4705687
  84.5399666  70.1543236  57.5648022  71.4587975  40.0258255   1.2387411
  71.2084532  40.3100586   0.3596677  71.7754698  40.8213758   1.6665840
   3.0051520  69.3436432  65.5372190   2.6572034  68.5908270  65.0592756
   3.9555687  69.2474985  65.4764271  82.7768993  84.1193295  70.1871681
  83.0449295  83.4221363  69.5885754  82.7503777  83.6996841  71.0470629
  40.3057003   1.3967150  69.9060011  40.0154591   1.1549120  70.7855034
  41.2080526   1.0812220  69.8563719  66.4610004  32.6827025  19.5183039
  66.7257690  33.4354424  18.9896142  67.2838449  32.2540498  19.7537136
  66.9993353  27.2649550  10.0219619  66.1967611  27.7005100  10.3090131
  66.8207598  26.3319564  10.1396787   5.2279973  39.5306444  27.7280617
   4.7434399  38.9186954  27.1740270   5.3526592  39.0602922  28.5523558
  72.8707361  74.0896416  73.9831591  72.3831606  74.2919779  74.7816324
  72.3801899  73.3746862  73.5776615  33.2413149  21.8380356  71.6309547
  32.7397299  21.0246086  71.5763807  33.0785513  22.1607804  72.5172806
   0.6121687  77.5414371  70.3597116   1.3842896  77.3578787  69.8245811
   0.3789704  78.4439278  70.1420927  42.6519966  50.6679106  18.1808412
  43.4932375  50.2868938  17.9291070  42.2661161  50.9626436  17.3559403
  86.5224171   4.7114593  56.9316244  85.9964085   3.9907861  56.5849543
  86.0021400   5.0614136  57.6548672  76.2752676  26.0433865  29.3204212
  75.4008245  25.9328032  28.9471221  76.4110088  26.9907856  29.3359470
  79.4076157  50.7497454  35.5230212  78.9939976  51.1699915  36.2770391
  79.9897671  50.0926447  35.9045362  57.6778030  63.5316324  28.8443232
  57.1886492  64.0976763  29.4414496  58.2647943  63.0336714  29.4132757
  19.8194040   8.7700451  73.5070674  19.3427147   8.0524910  73.9243422
  20.3291763   9.1629208  74.2155963  21.5321326  25.0908709  20.6677914
  21.6274571  25.5824113  21.4835954  20.8592987  24.4374681  20.8590746
  68.7987566  76.2233639  14.7945917  68.3211088  76.6043615  14.0577590
  68.6899090  75.2784014  14.6876764  13.0064416  13.0972421  37.1512055
  12.9060161  12.1456110  37.1278644  13.3457804  13.2808602  38.0272007
  33.2565689  67.2628498   5.4548490  34.1394401  67.4505901   5.7734746
  33.0912399  66.3597345   5.7255620  24.4254732  34.2670918  45.4129171
  24.2822146  34.1719222  46.3545370  23.5794044  34.0540671  45.0191879
   5.9200805  24.7520232  23.7288213   5.6358075  23.8394642  23.6772490
   6.8523574  24.7250032  23.5135031  52.8764629  31.5028763  20.8240676
  52.6817131  31.6079617  19.8927975  53.8137293  31.3106489  20.8525538
  58.0099106  41.1483765  12.2365952  57.7421045  42.0617151  12.3382044
  57.2734547  40.6431103  12.5809395  40.9969997  22.8526592  68.8311052
  41.2126207  23.7798929  68.7312174  40.0819683  22.8484511  69.1120481
  56.6215992  17.4974191  29.4314861  55.7037544  17.2321284  29.4899559
  56.7537546  18.0707800  30.1864839  11.2729156  52.6349354  41.8754768
  10.3724718  52.9202223  42.0305443  11.4891970  52.9839516  41.0108137
  41.1387777  19.4988728  65.9211206  40.4372358  19.6035254  65.2783775
  40.7489300  18.9700007  66.6172123  59.6500683  71.3897705   0.3769884
  60.0204802  72.1638250  -0.0471211  58.7327290  71.6163492   0.5298960
  84.8099709  36.9820762  26.3866735  84.0504265  37.2122645  25.8515716
  84.4694710  36.9398284  27.2802639   9.7045267  84.8149204  58.0850124
  10.6113207  84.7880650  57.7796745   9.2457199  84.1854763  57.5286627
  72.3315334  78.4105492  67.2356367  71.9912148  78.6804104  68.0886269
  72.1157932  77.4799395  67.1752024  14.4490755  83.4210873  71.9609070
  13.9712453  84.1793823  71.6248941  15.2373183  83.3756638  71.4197588
  84.4311619  15.6052554  61.6957664  84.0026283  15.2081358  60.9375525
  83.7542057  15.6213522  62.3723125  67.1652222  60.2603436  17.7886069
  67.4941206  60.7943487  17.0654905  66.2217712  60.2059460  17.6363659
  68.7820339  54.0340042  15.1376808  69.4291210  54.7211790  14.9786305
  69.0150690  53.3385754  14.5226145  59.9114895   7.6010460  73.5511971
  59.9060392   7.9711407  72.6684570  60.3619528   8.2570440  74.0831614
  62.1542406  19.2608845  15.1050985  61.7044258  18.4504557  14.8661327
  62.2498465  19.7343767  14.2787230  59.7711372  49.4513369  25.4664660
  60.3701639  49.5189762  26.2099886  59.0430450  48.9225578  25.7928181
  46.9798279  49.1666651   9.0622163  46.1522722  49.6316528   8.9390534
  46.9852114  48.9287758   9.9893689  68.5942602  35.8089995  34.4974113
  69.1159296  35.0415635  34.7322226  67.9418659  35.4757619  33.8813186
  15.5255580  71.4666653  46.2542772  15.7473385  72.0702314  46.9633293
  15.5901992  70.5976868  46.6504192  77.8638029  37.9085064   7.6083267
  77.8841400  37.6973844   6.6749209  77.1955347  38.5894752   7.6853585
  84.9509525  62.1945047  35.6318045  84.4906044  62.7241850  36.2827682
  85.8359051  62.5586271  35.6091571  75.0383902  13.7272549  60.5389786
  75.1723146  13.2718170  61.3701630  74.1217232  14.0019345  60.5613565
  48.4370375  22.8667235  68.8067770  48.0702686  22.3757386  68.0714893
  49.2496300  22.4078131  69.0196800  61.0923624  36.2207961  57.6960802
  61.8111324  35.7096052  57.3242140  61.3359880  37.1316910  57.5313187
   2.5533623  78.7593603  52.4581146   3.0253106  77.9363346  52.5850964
   1.6798711  78.5916042  52.8118134   6.2319940  49.6602869   6.6983229
   6.5930009  50.5173206   6.9250286   5.8331043  49.3461561   7.5097680
  52.8931999  62.1670103   9.4476318  53.3825827  62.2922802  10.2606797
  51.9832420  62.3440313   9.6860933  23.3232570  82.9129505  57.3809910
  23.7951112  82.6019382  56.6084242  23.9740372  82.8943825  58.0826855
   5.8362317  37.9298663  73.9380503   6.7007232  37.9034138  73.5279417
   5.9800231  38.3785772  74.7712421  59.4503784  57.2834015  12.7466905
  60.3600454  57.5732183  12.8155255  58.9625883  58.0763006  12.5239658
  27.1169424  27.5866318  14.2745554  26.8426323  28.4930182  14.4140136
  26.5892816  27.2879624  13.5338771  62.8446293  48.1243420  38.9911103
  62.4142647  48.2770205  38.1498551  63.5801315  48.7368822  38.9985371
  56.0745049  32.6337552   5.3797638  55.4160309  31.9797254   5.1454705
  55.6500006  33.1725001   6.0474336   6.5190244  67.9014397  74.2614698
   5.7987523  68.4900618  74.4872284   7.0761067  68.4172249  73.6784983
  74.5167065  12.2265971  41.4814377  74.5112753  11.5367532  40.8178759
  73.6240959  12.2335434  41.8270254  64.5414782  17.6211262  72.4165487
  64.2018557  16.7422140  72.5850773  65.4847527  17.4972558  72.3110867
  63.3563519  56.6076326  23.6559844  63.9202452  57.2809267  24.0366793
  62.5377798  56.6747332  24.1475821  84.1945267  66.1612320  35.3649139
  84.3991375  67.0932722  35.2896118  84.8417473  65.7282019  34.8083019
  54.8701382  48.7198687  12.2338057  54.9535227  49.5907593  11.8454337
  53.9261675  48.5695457  12.2843552  39.6864009  35.1952672  70.8810616
  39.0361929  34.8115301  71.4694548  40.3049850  34.4847274  70.7115984
  68.8357639  67.3456478   8.8022262  69.3414545  66.8084335   9.4120705
  69.0535212  66.9963598   7.9380417   0.1791340  30.6921077  31.3285351
  -0.2676243  31.5364265  31.3898921   1.0982718  30.8942151  31.5033746
  50.8504534  31.6351199   5.3132766  50.5615997  31.4117455   4.4284612
  50.2278280  31.1899018   5.8880389  27.5917888  48.5765076  24.1425824
  28.1276488  47.8197718  24.3801451  28.2088947  49.3076944  24.1146755
  14.0861666   0.9399939   6.4548981  14.0287554   0.6459732   7.3640120
  14.0821981   0.1322954   5.9412456  69.7671032  51.7799044  10.5638373
  70.3980017  52.4948263  10.4796851  69.2293644  51.8408298   9.7743088
   7.0334101  15.1750386   7.3025262   6.2805027  15.3966057   7.8504956
   7.7523601  15.0509393   7.9221559  28.1240082  54.6127367   9.6668375
  27.3307896  54.0774965   9.6902806  28.6869574  54.2364216  10.3433740
  72.8811121  34.8107219  10.2139890  72.7100468  34.8288155  11.1556053
  73.6486769  35.3709865  10.0991917  50.9035301  57.9538584  11.6293347
  51.5454578  57.2463226  11.6889334  50.5316687  57.8665781  10.7516491
  38.9241481  52.1065283  38.4086776  38.4240484  52.1340895  39.2243814
  38.3978176  51.5619326  37.8233337  51.0974169  34.2113185  64.1875696
  50.1645803  34.1269517  64.3848801  51.2392902  35.1538301  64.0994024
  25.7076645   4.6658853  24.7862673  26.2195516   5.2200490  24.1971087
  25.7325506   3.7988442  24.3814802  85.0791740  25.5315208  11.5318286
  84.1673660  25.6825590  11.2827837  85.5893040  25.9618831  10.8456898
  86.4088535  47.2741747   8.3938402  86.5814304  46.6815853   7.6622075
  86.6431904  48.1404448   8.0608279  77.1780872  47.8818417  14.6179152
  77.4583483  48.6255980  15.1513112  77.9529619  47.3228264  14.5604432
  74.6099234  80.8078766   9.5057493  74.8374319  81.6941833   9.2248011
  75.0900126  80.6855965  10.3247702  63.0558920  52.7877235  35.7136583
  62.5210381  52.0019293  35.6010079  63.8442135  52.6167822  35.1983333
  31.4296103  34.6996236  19.2529833  31.8456984  34.2641473  19.9969351
  32.1454787  35.1576233  18.8125277  73.6540222  52.8933001   1.5273915
  74.3512678  53.5183191   1.3288099  74.0971279  52.0459461   1.5706855
  54.6816683  10.1994228   4.6262333  53.8163853  10.5660117   4.4442222
  54.6159077   9.8624372   5.5197364  85.0071239  43.4480476  33.0376148
  84.6194363  42.8022623  33.6282897  84.4392967  44.2147350  33.1150126
  87.2424316  72.4523926  31.3860893  86.2973881  72.3574734  31.5049124
  87.4463081  71.8964338  30.6340384  35.2219844  13.0484188  64.5172787
  36.0955334  13.4397209  64.5222902  34.7115374  13.5943949  65.1152611
  24.7394204  73.6542940  56.6269922  25.2262306  73.1777000  57.2993851
  24.5537496  74.5053911  57.0237112  31.8901467   8.7724566  57.8023386
  31.2538528   9.4196957  57.4982929  32.6601577   8.9168876  57.2523832
  45.9722424  32.6639915   6.7054021  46.1999607  33.5108638   6.3217562
  46.2266397  32.0238042   6.0408169  42.1874523  17.0929956  74.0168810
  42.6688910  17.3112237  73.2188654  42.8662491  16.9745255  74.6812868
  61.6808987  55.5816507  31.0454059  61.4796972  56.5032005  30.8826256
  61.0970020  55.3318930  31.7615867  53.0496025  67.8700161  14.5223117
  52.3206091  67.3330784  14.2116690  53.0299664  68.6469364  13.9635265
  51.0746431  14.2492461  48.1951952  50.8676195  13.6724663  47.4598694
  51.9009399  14.6646869  47.9484701  73.8075495  62.3697805   2.1746369
  74.4061804  62.4759912   1.4353204  73.9358664  63.1582928   2.7019110
  25.2932739  68.0155659  66.9459200  24.8130155  68.1851482  67.7563667
  25.9445238  68.7157154  66.9024563  39.7935390  72.8066921  24.7523689
  40.0126123  72.0452785  25.2894807  40.1372719  72.5945377  23.8845730
  68.7693548  26.8087935  26.8790817  69.3373919  27.1825552  26.2053871
  68.0064631  26.4879656  26.3981462  80.0027275   9.3835324  26.3112688
  79.6162415  10.0799060  25.7803011  80.3303242   9.8309958  27.0914531
  36.4895296  61.0322571  74.4214487  36.3130856  61.2484789  73.5058355
  37.4315882  60.8652496  74.4508600  44.9984741  53.8958883  23.0080032
  44.9107027  53.8157511  23.9577961  44.3921232  54.5971823  22.7697611
  71.2551403  59.6078348  36.4680219  70.7825804  60.3686523  36.8057823
  70.6226969  58.8911295  36.5188146  17.7358544  59.2476034  63.1521749
  18.4500611  59.4993258  63.7376499  16.9777107  59.1485023  63.7280512
  34.4886923   7.7833301  55.9851027  35.4265189   7.9404640  56.0947418
  34.3975139   6.8319255  56.0375166  69.5078039  66.5922785  11.1809385
  70.2868557  66.2772417  11.6392672  68.9413786  65.8234739  11.1150825
  60.3070498  37.9925513  19.8905110  60.2337313  38.9274836  20.0822210
  59.9504423  37.9005337  19.0069973  52.8351688  20.6692290  53.9680672
  53.6950302  20.8504701  53.5885668  52.9192114  19.7930276  54.3441486
  54.5518875  29.6543574   7.4710000  54.4802141  29.2473507   8.3343887
  55.4521275  29.4785762   7.1973294  79.4386864  75.1040268  -0.3031345
  78.6639738  75.5637121   0.0204995  79.6988440  74.5341873   0.4206293
  77.4787998  48.1242323  29.7341061  77.8534698  47.4479771  30.2984953
  76.5983486  48.2657623  30.0819683  74.0339422   8.2979017  15.0724566
  74.1569567   8.7611663  15.9010005  74.8756266   7.8724986  14.9086475
  64.3282509  66.6144085   6.0836059  64.6345472  66.3723660   6.9575799
  65.1195955  66.8878889   5.6196916  42.4098349  57.1194315  30.6584716
  43.3314371  56.9161701  30.4985738  41.9452715  56.7191553  29.9234939
  69.1495466  73.6560631  21.6244578  70.0843382  73.8294125  21.7355895
  68.9235830  73.0825567  22.3567557  74.8513317  46.7679644   7.0260596
  74.1603184  47.4303150   7.0204920  75.5483723  47.1445227   6.4888698
  18.8541794  21.6185713  10.8332574  19.1048598  21.5769815   9.9104029
  19.6342230  21.3292599  11.3066101  81.6693497  50.2062845  46.9544888
  80.8846760  50.1807690  47.5020981  82.0114517  49.3128061  46.9844055
  67.4629593   9.7335696  26.9439435  66.8188000   9.0854585  26.6589117
  67.2113180   9.9417013  27.8437161  57.9153252  68.8642406  27.2068548
  57.8129959  69.1084099  28.1267142  58.8515949  68.6916924  27.1075726
  11.1868441  35.0763035   7.7640277  10.5984378  35.0710154   7.0090562
  12.0446575  35.2911115   7.3976326  62.1019411  23.9403558  49.8147154
  61.2726021  23.5610747  49.5239019  61.9638205  24.1362953  50.7414103
   8.6628467   3.2013145  11.9061410   8.0642599   3.9286008  12.0763755
   8.4332806   2.9031548  11.0260093   3.3932498  15.3417563  43.5771847
   3.7968323  15.9216809  44.2229700   2.6791751  15.8586931  43.2042170
  47.6713705   3.2144827  33.0378771  47.8284121   2.5743517  32.3437572
  47.1692371   3.9099768  32.6131630  71.2035418  48.5584068  34.3934345
  71.6471386  48.0063295  33.7494946  70.5617094  47.9790258  34.8040414
  77.0562601  40.7763195  12.9522121  76.7242146  39.8971772  13.1341076
  76.3485336  41.2047911  12.4707854  67.6199436  60.5643559  10.4990256
  67.7692366  59.6374607  10.3124535  68.4946537  60.9218502  10.6517136
  69.5217657  79.2911243  18.2780886  70.4100132  79.4781685  18.5818362
  69.5307159  78.3562326  18.0728304  55.8331013  68.4173107  21.7615294
  56.0750628  68.0351925  20.9179211  55.2112293  69.1107130  21.5408468
  87.4332523  48.5396814  42.7223587  87.7533340  49.2279053  42.1391535
  86.6486359  48.9123011  43.1245565  21.9765449  30.5730724  59.1896963
  21.6957760  30.9937072  58.3770037  22.1815968  29.6733713  58.9352894
  70.0399065  21.6716361  59.0179014  69.2686129  21.4638329  58.4905005
  69.7623444  22.4021125  59.5707035  39.4245219  40.5667543   0.8726173
  39.6057153  39.7455215   0.4154783  40.1812267  40.6943989   1.4447537
  36.5340710  16.0056806   0.7859893  36.1680484  15.2968609   1.3149817
  36.6863966  15.6100035  -0.0721885  45.9146690  83.4119606   9.6447808
  46.0174894  83.9062214  10.4580295  46.5212631  83.8288403   9.0328240
  74.6385717  61.3797331  67.9865503  75.4473782  60.9046745  67.7958059
  74.6777248  61.5511990  68.9274502  76.5895414  52.8121090  19.8837495
  75.6413841  52.7166176  19.9738157  76.7302322  52.9299736  18.9443111
  37.8138471  57.3620749  15.9682298  36.9416165  57.4278021  16.3569796
  37.6828575  57.5857115  15.0467849  84.8320580  58.6127377  18.0426574
  85.4129028  58.4841347  17.2927821  85.2422142  59.3164825  18.5453987
  58.9844084  51.6338348   0.4793878  58.7805796  51.3072491   1.3557601
  59.3223190  52.5173807   0.6256369   9.9744523  43.7039471  23.6999226
   9.4053769  43.8085842  22.9374027   9.8670912  44.5177031  24.1923761
  86.6878796  65.7988548   7.3773682  86.4838600  65.3067303   8.1726146
  85.8412838  66.1282587   7.0757258  54.6384907  28.0181956   9.9576777
  53.8186121  27.5599623  10.1422131  54.7657013  28.5944128  10.7113492
  89.2622375  65.3420115   7.9173172  88.3749104  65.3134489   7.5594479
  89.1372871  65.4721451   8.8573623  69.3838453  22.4785781  18.3366966
  69.1890955  22.5607586  17.4031281  68.8399553  21.7481375  18.6314332
  52.5360823  65.2019024   6.1148751  51.7084217  64.7736692   6.3335609
  52.9007053  65.4642057   6.9601452  79.7918129  16.0753775   4.3264803
  80.3337002  16.6646183   4.8512569  79.6359682  15.3221810   4.8962510
  43.6231709   2.5866774  33.4503078  43.4003258   1.6606244  33.5451651
  43.0237579   2.9095697  32.7774954  75.0732803  49.2103052  17.3669195
  75.2319860  49.8375797  16.6615343  75.4034996  48.3787537  17.0267594
  86.0262299  65.6891680  10.2010703  86.3954067  65.6055212  11.0802436
  85.9171486  66.6318464  10.0757980  67.2929192  44.0798140  14.2288029
  68.1147432  43.5952234  14.1512668  67.3816681  44.5729351  15.0443935
  79.8400974  58.9161777   8.0760306  79.1939831  58.9873981   8.7786686
  79.5813370  59.5867062   7.4438393  46.5619516  35.9451747  31.4206529
  46.3519573  35.0723219  31.7527103  45.7191706  36.3977265  31.3868260
  45.0599146  43.7516689  12.5789416  45.5268002  44.3901825  12.0399189
  45.0962257  42.9395103  12.0736563  63.2700634  24.5061994  69.4072723
  62.9129028  23.6243105  69.5118761  63.2389879  24.8830509  70.2866173
  87.4121857  39.2156816  24.3796396  86.5592384  38.9511037  24.0350866
  87.8085804  38.4012413  24.6891379   5.4764760   3.3719695  41.6454649
   5.1973850   2.9916599  40.8125782   5.0310880   4.2183831  41.6834831
   9.9931526  28.1657028  15.1004601  10.4207683  28.0494165  15.9489024
   9.1494912  28.5662222  15.3103471  10.2786243  56.7339039   4.8100632
  11.0157013  57.1702480   5.2373266  10.5021143  55.8035803   4.8380327
  82.5327969  73.6497021  52.9328823  82.8279018  74.1477013  52.1705580
  82.0382881  74.2815018  53.4549236  16.5604019   1.9471943  29.7496486
  15.8079398   1.9534126  29.1580462  17.0291805   1.1413975  29.5324612
  31.9328666  24.8532724  68.5880375  31.4868832  25.2989125  67.8678036
  31.2366080  24.6531415  69.2136574  53.6285210  77.8353405  17.6959753
  53.9045382  78.4979486  17.0627356  54.0830898  78.0724716  18.5042882
  13.6806512  84.4839001  62.5608873  14.0107942  84.5359421  63.4578419
  12.8872490  83.9526558  62.6281452   6.3999927  51.5987110  13.0038798
   7.1891814  51.4809179  12.4751675   6.6772169  51.3940430  13.8969028
  86.8385410  50.1450825  10.3667569  86.8677711  49.5592833  11.1232066
  87.2362328  50.9582186  10.6780148  81.1061668  39.3152857  41.4649153
  81.0951900  40.2483845  41.6780901  80.2694416  38.9850020  41.7920923
  87.3979759  45.4491949   3.0042481  87.8323174  44.6464539   2.7158177
  87.8657436  45.7018805   3.8002262   7.7535647  13.1686139  47.2959661
   7.6281238  12.2196734  47.2932577   8.4952372  13.3104897  47.8842020
  73.4436226  13.1935978  30.0985575  73.2930326  12.3039198  30.4179716
  73.7263060  13.6812043  30.8722258  63.9966106  14.2794299  71.0220003
  63.4033918  13.5289443  70.9888840  64.2221546  14.3657625  71.9482327
  43.5662508  55.8308601  13.7468886  42.8037119  56.2783241  13.3800876
  43.2328176  55.3916359  14.5292771  64.6305323   4.9282634  13.4035420
  64.7409201   4.9527881  12.4530447  64.7473288   5.8366656  13.6817455
  11.6343999  51.2204075   1.1656805  11.0275912  50.5213881   1.4093703
  12.0362115  50.9159184   0.3520066  73.8764811  72.3961639  61.2848139
  73.2384300  72.9728794  60.8646679  73.8063669  71.5711594  60.8045244
  86.8021393  70.5053425  18.8531351  86.2191010  70.3805161  18.1043267
  87.6803112  70.3656483  18.4988260  44.8260689  19.3793881  74.4973230
  45.1652002  18.8159394  73.8018036  44.6366596  20.2102852  74.0614700
  43.7222242   2.1275559  48.2594347  44.1675329   2.2641702  47.4232149
  42.8036356   1.9983949  48.0233240  87.9672718  50.9707975  17.3866498
  88.6352158  50.7861471  18.0469465  87.3293018  51.5226173  17.8391099
   0.2719894  50.0303698  21.8089414   0.5320809  50.7995701  22.3158097
   0.8752080  49.3426561  22.0907426  68.0682802  70.2995396  35.6253362
  67.5272942  70.9601068  35.1926470  68.4929800  70.7701015  36.3425779
  55.9308767  37.9715610  11.2908435  55.1135492  37.5191784  11.4995623
  56.5615988  37.6316595  11.9255769  73.3699083  27.8121018  27.0836949
  74.1266108  27.6796365  26.5126610  73.3557510  27.0376539  27.6460695
  70.3665113  63.7631464  30.2419925  70.2828979  63.6857891  31.1923909
  69.6353769  63.2521009  29.8948479   0.2510724  22.0013332  64.3231153
   0.9882890  21.4104080  64.4765711  -0.4414606  21.6744542  64.8973799
  37.1691751  15.0202513  31.1962438  36.6594934  14.7255564  31.9509697
  36.7687392  15.8532679  30.9473157  76.6489172  48.0518293  19.6967888
  75.8217859  47.5764608  19.6186149  76.6504097  48.6538887  18.9526439
   1.2948313  23.2912087  48.1758022   1.4952901  23.0358410  49.0762663
   1.3894841  24.2437005  48.1702471  60.9627724  71.8720055   6.4693218
  61.0861921  72.2354650   7.3461908  60.8652544  72.6382494   5.9039921
   5.1335162  76.4574480  46.6467714   4.9181694  77.2094870  47.1984005
   5.7288361  76.8087435  45.9846401  83.7010479  52.1882010  14.7981524
  84.5020866  52.4765253  15.2356744  83.7632465  52.5571775  13.9171195
  79.4010448  43.0158615  35.9542131  79.0614080  43.4866333  35.1931262
  78.9138222  42.1919918  35.9632611  87.8291416   5.3611624  16.3645267
  88.6030483   5.4408985  15.8069134  88.1669998   5.0323188  17.1975613
  66.5255833  76.2806749  70.2166986  66.3961220  77.0202065  70.8104706
  65.8405352  75.6571388  70.4578304  47.8613424  28.9559126  18.4790015
  47.1080017  29.4367719  18.1362522  48.2054520  28.4796333  17.7233684
  69.0898466  36.4664793  19.4649899  68.5894489  36.6665053  20.2560806
  68.5908318  35.7718754  19.0351713  65.1051760  46.1332226   7.5710297
  64.7226906  46.4017773   6.7356753  64.4399595  46.3568640   8.2219565
  23.6383724   1.8880954   3.1554833  22.7047324   2.0213407   2.9917866
  23.7682509   0.9458292   3.0482581  14.4694364  70.4077721  55.0887251
  14.4313037  71.1982679  55.6271458  15.4035127  70.2109623  55.0180340
  39.8710513  65.6087446  63.3494377  40.3650093  65.6653261  64.1673851
  39.3181944  66.3901424  63.3489752  10.3086388  59.9025822  33.4074807
  10.6523871  59.9536657  32.5155950  10.9703481  60.3384161  33.9445281
  13.2407129  28.8252664  15.3878665  13.0663872  28.0626178  14.8363137
  13.5756087  28.4577823  16.2058115  73.5754204  77.9862499  31.8979287
  72.9022789  78.6057854  31.6163564  74.3939877  78.4789419  31.8392968
  82.5652504  28.8272929  27.2271824  81.7608547  28.5569882  26.7843294
  83.2302094  28.2161403  26.9100785  87.5070763  54.5481205   3.6898074
  88.3407211  54.3285513   4.1058081  86.8474579  54.3436575   4.3526274
  88.4799004  52.1340179  11.2465441  88.2896423  52.9225063  10.7382953
  88.4034252  52.4129629  12.1589994  -0.0078188  39.4854212  16.4520276
  -0.6998621  38.9113307  16.1238194   0.7955373  39.1377640  16.0647404
  77.5065422  66.5533829   2.5441772  76.7982626  65.9533167   2.3107503
  77.6900434  67.0330667   1.7364253  38.8243508  64.6161985  59.2764950
  39.3252993  65.3579140  58.9371634  38.8090992  63.9873314  58.5550213
  44.7785378  60.9794617  21.1017108  45.1315451  60.4576397  21.8223500
  44.9796915  61.8843651  21.3402891  70.5202818  55.1666689   6.2558377
  70.0108385  55.2851200   7.0575047  69.9045229  54.7749996   5.6364286
  12.5834131  44.4282198  26.0996747  12.3723686  45.2739477  26.4951944
  12.1796441  43.7842703  26.6815138  60.8441353  76.0040712  16.7330313
  61.3721323  76.3028336  15.9926283  60.2681828  75.3355074  16.3621771
   6.5489894  56.9813919  72.8752851   5.9958720  57.5385618  73.4228754
   6.2235314  56.0946369  73.0301332  71.5693378  40.9157324  52.7236128
  70.7921314  40.7360744  52.1945572  71.2352276  41.0105753  53.6155796
  25.1237488  84.0375423  74.0307188  24.3332601  84.4510555  73.6837769
  24.8341894  83.1722546  74.3199539   1.3010198  45.9457970  19.4025803
   0.8591215  46.7456007  19.6876621   1.5695839  45.5177641  20.2155352
  73.0424070  73.8109398  52.9407406  72.3345804  73.7517309  52.2990942
  73.5125113  74.6109104  52.7056360  24.6425366  24.6934247  69.3841124
  24.7166705  25.6468368  69.4258308  23.7180829  24.5171928  69.5589256
  67.8790855  82.6961136  31.0312748  67.1405315  82.1172523  30.8423471
  68.4409285  82.1851635  31.6139364  90.0275040  63.3823729  16.9956005
  90.0845623  62.7243567  17.6884127  90.8451366  63.2873058  16.5070605
  78.3744764  26.3673639  15.1692522  78.5791492  26.8962502  14.3981361
  78.2908726  25.4752636  14.8325074  72.2791052  41.8324518  71.9600058
  72.5340271  41.1346912  72.5636387  72.3288727  42.6321888  72.4836254
  57.0578957   2.7134123  29.3218565  57.6761580   3.3338496  28.9357972
  56.9228315   3.0334851  30.2137899  77.0802736  53.3657932  72.1164560
  76.2963867  52.8354788  71.9731903  77.5335312  53.3558655  71.2734270
  60.8011198  53.1149101  66.3761759  61.6173458  53.5906649  66.2223482
  61.0312557  52.1953058  66.2435293  69.6403217  59.7391176  56.5193605
  70.1985312  60.4899597  56.7215300  69.3541193  59.4164658  57.3738861
  10.1948130  42.7170181   8.2912558  10.8118868  42.1741343   7.8006130
   9.3564790  42.2628403   8.2066977  30.6746769  26.1588573   1.8061675
  30.9689760  26.2388420   2.7134836  31.1841416  25.4297447   1.4525113
   2.0622315  47.6466465  56.5400124   2.3652661  48.0387974  55.7211018
   2.8302416  47.6611948  57.1111345  22.6611853  63.4373331  42.6168823
  21.7303729  63.2821512  42.4564409  22.7043033  63.7078285  43.5340500
  77.6151657  77.9461527  70.2242565  77.6592064  77.0032644  70.3831530
  77.5793839  78.0270100  69.2711449  45.2956915   9.1301417  45.9099913
  45.6313944   9.9292290  46.3161898  46.0476446   8.5382444  45.8885431
   3.1460157  72.7677393  50.1300669   3.2232368  72.8867006  51.0766983
   2.2299117  72.9675055  49.9375057  77.8497791  43.3133078   7.1981812
  76.9440269  43.4178448   6.9067740  77.8910160  42.4185610   7.5357693
  82.4130058  64.9221849  69.6878624  83.3385181  64.7001600  69.5860863
  82.3511505  65.8312988  69.3947458  70.7504606  30.2199435  27.3990202
  70.0641155  29.7788095  27.8995824  71.0116911  29.5808792  26.7360067
  71.5572500  65.0870800  64.7627020  71.1298943  65.5507326  64.0425444
  71.9452477  64.3138838  64.3529987  70.2117014  47.4988937  58.2167435
  69.3356276  47.5393486  57.8332233  70.7383442  48.0850601  57.6733351
  64.9168015  29.2100215  10.4386783  64.0694284  29.6499872  10.5066562
  65.3916597  29.7064900   9.7721475  71.2152290  24.8694468   6.6280782
  71.4428663  23.9630961   6.4208579  70.4437113  25.0513029   6.0914940
  11.8666458  43.6455679  41.8256569  12.2902942  44.4109058  42.2142649
  12.3201013  43.5181141  40.9923697  39.0715694   8.1319439  43.7499237
  39.8258281   8.0219167  43.1709433  39.4498444   8.1930512  44.6270800
  79.3939400   4.1611204  42.9272795  78.9009857   3.5606194  42.3681545
  80.2529049   4.2263457  42.5099564  70.8434916  64.7725439  47.5478697
  71.0422945  64.3902254  46.6931486  70.6265831  65.6851816  47.3574257
  28.1245637   1.1992728  25.9278965  27.2339582   1.4052686  26.2118292
  28.3927345   0.4718849  26.4893460  77.5528002  35.4675651  25.6301117
  77.7470493  36.2650394  25.1376319  78.2647276  35.3995657  26.2663269
  72.2962332  71.1760235  53.3569574  72.4398708  72.0482779  52.9898405
  72.7869844  70.5899096  52.7808762   2.4899870  18.2457483  48.1767368
   2.5655288  17.9602599  47.2662306   1.9159558  19.0108895  48.1409931
  65.0975943  51.8428230  57.2780466  64.8970413  52.5526762  57.8880596
  65.9383202  52.0889282  56.8922377  13.4104276  66.3269567  69.3337202
  13.8228774  65.6565428  68.7890530  13.1003642  66.9842625  68.7107897
  63.0900478   6.6867959  72.9960442  63.7176371   6.3122284  73.6141586
  62.5162601   7.2296602  73.5366917  77.6179123  57.4986839  53.0624342
  78.2844257  56.9534397  52.6444530  78.0974579  58.2660103  53.3746481
  74.1138840  33.4342790   1.6133806  74.8257542  33.6669874   1.0172980
  73.3180046  33.5604000   1.0967506  20.1505303  81.1670113  54.8540401
  20.1800942  82.0705605  54.5394564  19.3001175  80.8392429  54.5614672
  39.3994021  19.3464828   2.0415717  38.8777685  20.0275707   2.4661250
  39.0580392  18.5262930   2.3979321  84.2944050  53.2524204  20.2074695
  83.9474010  53.4478569  21.0778880  83.5731697  53.4539747  19.6112943
  73.2872057  17.2248638  62.4377394  73.8005209  17.3438287  61.6386223
  72.8540039  16.3793933  62.3204994  86.6794491  67.3537207  62.9403830
  86.4239120  67.2899532  62.0201302  85.8587170  67.2597933  63.4239244
  47.6820278  46.8947220  72.4826288  48.0464125  47.1565866  73.3281374
  47.0698404  46.1897850  72.6936388   9.7065985  62.6522732  54.6455193
  10.6167519  62.6676846  54.9415207   9.2383671  63.1917763  55.2826500
   5.2987152  71.6055918  20.9645653   5.0295222  72.5240946  20.9535980
   5.0483292  71.2723160  20.1029015  54.8509169   1.0504761  31.5081620
  55.5607891   1.2073882  32.1308088  54.2295122   1.7604467  31.6694975
  11.2587678  75.1064539  64.6669722  10.9069824  75.6195116  63.9394760
  12.0496511  75.5764961  64.9311638  73.3892155  82.6050377  37.4420905
  74.0920210  82.7811050  38.0676246  73.8117647  82.6611710  36.5850401
   4.0973413  45.5565214  50.7927465   3.4320238  46.2436390  50.8308887
   4.3578783  45.5262375  49.8721838  19.1212904  62.3765898  64.7179508
  18.2146728  62.6775789  64.6572495  19.1568792  61.8879175  65.5402422
  41.3955736  80.4822922  73.8955069  41.3703537  80.7629204  74.8102951
  40.7314301  79.7954512  73.8372803  73.9549160  34.2077875  22.9259539
  73.9027643  33.8855290  22.0261431  74.4309235  35.0353527  22.8567696
  36.4747453  82.5044250  62.6090050  36.8538904  81.6526222  62.3923922
  35.7618785  82.3021793  63.2149363  12.8057218  12.1234131  29.9275303
  13.5935259  11.9702709  29.4058537  13.1122386  12.6258922  30.6823778
  34.9640083  52.6660967  52.0757866  34.1519833  52.1625805  52.1334124
  35.5271697  52.2906590  52.7526379   6.2497306  14.2404664  27.0863843
   5.7178485  13.5813487  26.6404057   6.5258342  13.8159037  27.8986311
   5.7801694  83.9956856  51.1319160   5.8246744  84.6820736  51.7975950
   5.1526159  83.3631706  51.4816618  39.5949793  15.3331172  66.0622644
  40.5296564  15.1267946  66.0687399  39.5458221  16.2096238  65.6807518
   1.5510410  48.4143877   2.5926945   2.1256788  49.1310453   2.3235813
   2.0381668  47.9626656   3.2818162   3.1772667  54.3154621  67.6704359
   3.8756418  53.9672422  68.2247353   2.4070551  54.3333673  68.2384872
  78.6091757  10.8785737   8.8873267  79.3618155  11.2520778   9.3458688
  78.9934206  10.3318906   8.2019597  10.6521165  82.8853512  25.1825356
  10.9745347  83.4403324  25.8926582   9.9061310  83.3655262  24.8231268
  24.4392562  71.0276699  60.6328917  24.3013215  71.9333363  60.3554487
  23.7082577  70.8439445  61.2229061  64.9240017   0.5057009  -0.3201634
  64.0955257   0.6269666   0.1436795  65.5484533   0.2644037   0.3639947
  73.1571484  31.6090131  39.8613763  72.9149151  32.2773004  40.5024290
  72.9092932  30.7811880  40.2730846   9.3999273  55.0823927  44.4726086
   8.8609296  54.9492979  45.2523518   9.2888874  54.2787266  43.9646530
   2.1273345  85.4925346  36.5624881   2.3845167  85.8393002  37.4167967
   1.9643275  84.5626640  36.7206359  31.0741901  69.4739485  39.7979736
  30.4839277  68.8013744  39.4581723  30.4928899  70.1353836  40.1732397
  28.6276518  26.7044143   0.1156927  29.0804802  27.4071864  -0.3504538
  29.1754090  26.5334109   0.8818222  84.6720219  54.9318027  50.8725595
  84.4395638  55.2675200  50.0068331  84.6323395  55.6978655  51.4451027
  75.7574940  42.7183008  53.0878878  75.1989126  43.2123327  52.4877596
  75.3048086  42.7653265  53.9299631  39.7915649  10.1219332  60.3152943
  40.7085943   9.9589205  60.5360174  39.3399167  10.1302409  61.1592007
   0.8798767  11.6851223   4.6705234   0.5281056  12.5023293   4.3174487
   1.6324809  11.4876664   4.1130024  67.6895571  50.9488583   2.0838147
  66.7380333  51.0339451   2.1438226  68.0071354  51.8496990   2.0217273
   8.6484760  34.6624398  62.0631123   9.1942912  33.8763833  62.0839548
   7.7785707  34.3568802  62.3202705  65.5791140  64.6138382   9.9700999
  66.5136003  64.4167185  10.0341952  65.5262470  65.3151226   9.3207645
  88.0312634  38.6404514  29.2230296  87.3852444  37.9539657  29.3892717
  87.6545525  39.1562629  28.5101032  89.6300888  74.1976118  45.5653286
  90.4165363  74.0874481  46.0997438  89.0750313  73.4538698  45.7998419
  23.3036184  61.7615366  62.9161453  23.2322621  61.0235500  62.3107338
  22.5728774  62.3341417  62.6829624  87.8042126  84.8994446  48.8069534
  87.8727245  84.0168095  49.1709518  88.3803177  84.8887062  48.0426121
  72.9522324  18.8447094  11.0756123  72.9081869  19.0353596  12.0125997
  73.8408804  18.5160232  10.9395838  64.5554447  62.1929502  31.7145634
  64.3267393  61.2652874  31.6565561  64.8864508  62.3027420  32.6059723
  58.5337687  15.8361995  55.2243042  58.5700035  15.8444417  54.2678261
  57.6042938  15.9369266  55.4296541  87.9687119  63.7300587  54.3380499
  88.2692528  62.8299809  54.4636202  88.2063484  63.9380598  53.4344482
  41.8977880  83.2925892  65.7434654  42.4907017  82.5725365  65.9584475
  41.3567305  82.9526711  65.0307655  83.1159401  64.2342377   9.8771137
  83.0955410  63.2773733   9.8618674  83.3554840  64.4829512   8.9843690
  19.9503124  75.9182358  41.4204836  19.0852463  75.6788731  41.0879230
  20.3793097  76.3511229  40.6823778  32.8727841  18.3222127  65.8524656
  33.2893634  17.8081691  65.1607609  32.2275352  18.8611317  65.3948021
   8.1046659  40.9922171  58.9245653   8.3088315  41.2261200  58.0191135
   8.2558721  41.7972517  59.4198227  52.8537893  73.2694769  35.5527782
  52.1472073  73.7379217  35.1083302  52.4195480  72.5322771  35.9819698
  32.9685879  85.9026814  58.7816048  32.6445103  86.0981846  57.9024076
  33.2740140  84.9970818  58.7284040  23.2261133   0.2989071  56.8542290
  22.6114893  -0.1167233  56.2494802  22.6939630   0.9272449  57.3423290
  12.5547099   2.6817974  45.7069588  13.1026673   1.9585505  45.4021835
  12.7789044   2.7786267  46.6324854  86.4061607  76.9943209  73.7576810
  86.6132606  76.0598059  73.7528967  86.3305534  77.2181435  74.6852688
  71.0135317  67.4531698   1.5951252  71.0884809  67.8316259   0.7191212
  71.7465639  67.8295708   2.0821735  35.6374073  60.1104212  39.7215962
  34.8367476  60.3615189  40.1821661  35.8938050  60.8972549  39.2405701
  36.8644381   6.6778266  53.6609888  36.1393571   6.9862908  53.1175423
  36.8460250   7.2469085  54.4304323  36.8450069  18.1351006  56.2567616
  37.3876929  18.2795215  55.4816055  36.0285068  17.7723360  55.9133005
  48.3506823   3.2556102   5.9531170  48.6144257   3.0627754   6.8528312
  49.1726112   3.2835037   5.4633385  50.1482534  30.5885530   1.0599560
  50.9120226  30.0145912   1.0011373  49.5665216  30.1502347   1.6809997
   3.1842950  68.9836693  53.0639172   2.9753530  69.8922634  53.2807922
   4.0592256  68.8459063  53.4268904  16.2379920  64.4205618  55.4523706
  16.3241732  63.4770298  55.3161764  16.7987120  64.6060324  56.2056446
  59.2538309  28.6264586   7.4847054  58.6497259  28.3116913   8.1571680
  58.7497759  28.5859251   6.6719842   9.9901134   3.1902048  38.6434317
  10.7496607   3.5042655  39.1340303   9.4634467   3.9745119  38.4894323
   7.9522783  54.0222263  66.7058992   8.0390108  53.7769461  67.6270628
   8.2074112  54.9443913  66.6785431   5.5378288  67.4080563  67.2784185
   5.0981146  66.5592241  67.2297478   5.6705189  67.6617813  66.3650465
  65.0552273  56.4158106   1.4514568  65.2613115  57.3404121   1.3140914
  64.6805000  56.1277151   0.6191014  16.7175555  85.3824902  45.0378275
  17.4324024  85.0947094  44.4700146  16.5982425  86.3075066  44.8225594
  75.0097275  15.1762795  45.1315689  75.4417038  14.6145117  44.4881058
  75.5121326  15.0489509  45.9363079  43.7805033  49.7696495   0.6150313
  44.0897465  49.7126436  -0.2890423  43.2545233  50.5690479   0.6382973
  80.3906631  74.0394831  42.4566936  80.1809788  73.9330196  43.3845568
  79.5590782  74.2822504  42.0495415  84.5172596  67.5211525  39.4608140
  84.1019154  66.9163322  40.0755644  84.7884655  68.2632208  40.0011921
   7.9779500  60.8701134  72.5852537   7.1593243  60.7050037  72.1174669
   7.7831703  61.6156960  73.1530619  65.5314589  59.2774725  20.2731299
  65.8437157  59.4349909  19.3821084  64.6736813  58.8686991  20.1575637
  42.9628515   9.7720784  28.4616780  42.3718977   9.0219581  28.5274458
  43.4192467   9.7919118  29.3028331  70.6048584  85.6090450  57.0009089
  69.6864033  85.8715248  57.0623684  70.5872869  84.6553707  57.0810795
  53.2986069  28.4546447   2.3058084  52.7436590  27.9895353   1.6797578
  53.4990597  29.2863274   1.8764442  41.7871857  13.4873450  42.6852560
  41.5832424  12.5577927  42.7880716  42.6442719  13.4988117  42.2592211
  29.2528987  20.6563926  72.9381418  28.7918067  20.0178099  72.3942327
  30.1801467  20.4610085  72.8029776  78.4256077  60.4469299   1.1288789
  78.4837770  61.3769865   1.3476108  77.5557232  60.1841021   1.4296372
   3.8406599  33.0038166  71.8086243   4.4614482  32.3746967  71.4411163
   3.6740881  33.6203671  71.0956383  30.1853085   2.4274477  24.8533034
  30.2383137   3.2139888  25.3962350  29.4693661   1.9201680  25.2358246
  89.3733692  48.7552404  68.7835741  88.5353088  48.9777994  69.1889620
  89.1356850  48.2767153  67.9893780  90.9701385  77.0204020  56.0654783
  91.7582740  77.4389458  56.4117384  90.5734723  76.5920353  56.8240213
  10.8376360   2.1380988  43.0105114  11.0327864   1.9335870  43.9250183
  11.2132704   3.0078936  42.8741741  36.9897151  46.5986109  33.9831591
  37.0483851  46.9560623  33.0971456  36.1461854  46.1466503  34.0037179
  81.6517258  41.1287689  17.8630912  81.7506123  41.8223286  17.2108448
  80.8784199  40.6413698  17.5790679   6.8186772   1.4806530  67.4115849
   6.9892877   0.6351761  66.9965029   5.9138936   1.6851752  67.1754265
  32.1683311  73.1154585   6.6130066  31.6527033  72.3098755   6.5755969
  32.1794987  73.3498049   7.5410092  12.1333754  84.1077423  47.9104042
  12.6102412  84.3689537  47.1226215  12.8135157  83.9865112  48.5729313
  63.7304020  48.8049603  29.0750265  64.3923426  49.2951918  29.5626116
  63.7384081  47.9332638  29.4703960  85.2042770  64.2854786  69.7523212
  85.9551907  64.6992445  70.1779604  85.0357437  63.5007429  70.2738714
  33.8310409  82.8313446  43.5644245  33.1870461  82.2974586  44.0296936
  34.6763778  82.4563694  43.8114738  39.1827607  14.8408210  14.8790443
  38.5131478  14.9218309  15.5582273  39.2423415  15.7159472  14.4958520
  60.8983755   2.4842937  59.9066782  60.8203268   2.1218985  60.7891798
  61.7971849   2.2850934  59.6445847  73.7287378  69.8187017  28.5305476
  73.7447643  70.3889179  27.7618957  73.6124802  70.4159641  29.2694616
  54.9511051  22.6812458  64.4454908  54.7859430  21.7439699  64.5477962
  55.6317377  22.8762221  65.0896597  28.5089993   7.8616828  58.0764818
  28.4600019   8.6111230  58.6699247  27.7470374   7.3278052  58.3014679
   5.3026730  56.4790392  66.2470913   4.7815421  55.6921625  66.0874653
   4.8677111  57.1620131  65.7366180  64.3171978  16.4427269  14.5966148
  64.2001390  16.2235641  13.6722255  64.5828772  17.3623097  14.5929599
  59.9313259  13.7461221  52.3040533  59.9290514  12.7967238  52.4259901
  60.3769970  13.8790822  51.4674377  33.7537349  85.4846879  63.9522648
  34.5252622  85.9818737  63.6806393  33.3395876  86.0311403  64.6201754
  36.2331653  82.1956921  36.0403037  36.1710334  82.2288609  36.9949102
  35.7670236  81.3956738  35.7975960  62.6943970  38.1535196  12.1888733
  62.8880739  37.4307084  12.7857530  63.2967854  38.0268073  11.4558613
  75.0872850  44.2167425   7.9119468  74.7055960  44.4019079   8.7700015
  74.9096489  45.0031948   7.3960280  90.8185863  25.4812479  71.2095022
  91.7509270  25.6858063  71.1378765  90.4565811  25.7107353  70.3536272
  63.5550022  70.9073925  54.5114136  64.0492249  70.1956081  54.1047907
  63.6397743  71.6381788  53.8990450  58.5242987  24.4830966  74.1368818
  57.8131771  25.1228333  74.1725969  59.2208099  24.9260187  73.6521912
  41.0688066   9.2484415  30.8709717  40.1689482   9.0018606  31.0847068
  41.6015816   8.5306871  31.2133360  17.8031361  52.3114586  47.3911095
  17.3185444  52.7193546  46.6734552  18.6594462  52.7389097  47.3753023
  49.0704632  83.3117104  37.4921465  48.9226961  82.7405739  36.7383504
  48.1957960  83.4716892  37.8465319  62.3785305   6.5960497  35.9341168
  61.4710999   6.5599519  36.2366009  62.7636194   5.7723182  36.2331271
   8.1646997  81.2762356  66.6178703   7.8568792  81.1858082  65.7160378
   7.8959072  82.1580791  66.8754101  17.6519096  21.6793609  46.5363169
  18.5273790  22.0566297  46.6226578  17.2802341  21.7326665  47.4167967
  68.0567551  37.6029253  13.3338165  67.9285097  37.9283285  14.2248261
  68.5673189  36.8006563  13.4429944  16.9080114  62.1538115  61.4789629
  16.4748204  61.9249630  62.3012829  17.0843983  63.0916166  61.5540743
  91.2332344  48.2262754   8.5675925  91.3043594  48.5529280   9.4645160
  90.8284760  47.3636150   8.6582547  52.3798037  17.5976765  68.1635475
  53.2435465  17.2250926  67.9864550  52.4519205  17.9605734  69.0463495
   6.8323761  65.8588743  56.1133718   6.6489530  65.1317549  55.5184841
   5.9804761  66.2706184  56.2581587  90.4246140  18.4603095  59.0023708
  90.3137207  18.3721793  58.0557108  90.6433296  19.3829823  59.1330338
   0.4136290  42.2592974  65.1762486   0.0584841  41.6762638  64.5052910
  -0.3571187  42.6639843  65.5742502  20.1421475  53.5102510  35.5298758
  19.7316134  52.7853775  36.0013103  19.4123459  54.0762138  35.2782702
  11.8125880   1.7210393  33.0186057  12.3532712   2.5108033  33.0314827
  12.1327507   1.2238340  32.2659349  84.4484711  22.7849960  36.4589930
  83.6253452  22.6274419  35.9965396  85.1144886  22.3705149  35.9104919
  61.7679214  28.2618499   8.1599027  61.9243145  27.8497624   9.0095830
  60.8158731  28.2531595   8.0611044  37.7746511  64.5803404  45.2537346
  38.2862997  63.8198471  44.9778748  38.1524301  64.8300791  46.0970259
  77.3671484  34.1657591  68.6766100  76.5068388  34.4734049  68.9620018
  77.2083044  33.2806754  68.3485460   0.2332128  50.7516718  40.9820604
   0.7074941  50.9575939  41.7876005   0.4899801  49.8528671  40.7760382
  22.5356030  29.9363947  27.0188069  22.1666932  30.1750636  26.1684108
  22.2587681  30.6398749  27.6059294  66.3942719  41.1009598  51.5582275
  65.6923342  40.6703234  52.0461512  65.9591341  41.8153191  51.0928488
   2.8553128   5.9727126  70.0168371   3.3462006   6.6102564  69.4983816
   2.8074205   5.1963431  69.4589949  35.3082371  62.3118162  55.1260424
  35.9007144  61.7269278  54.6537018  35.7563758  63.1576300  55.1261806
   0.2699996  38.7233567  36.3199234  -0.6776749  38.6115003  36.2448668
   0.5353197  39.0908194  35.4768276   1.3505818  21.2400198  56.5216923
   0.5241563  20.9435272  56.1404514   1.9308183  21.3621569  55.7702637
   3.5996354  30.9201264  34.9469256   4.4067666  30.4411960  35.1350689
   3.5084590  30.8713341  33.9953279  15.3216720   3.2622880  40.6139326
  15.4675853   2.7617332  41.4166689  15.0867665   4.1390672  40.9177542
  77.3796034  21.7435908  73.1732130  77.2162056  20.8388424  73.4396076
  76.5360928  22.0517850  72.8419447  79.4850159  47.5620270  17.5476313
  79.0364885  48.0210781  16.8374729  79.5349550  48.2052755  18.2547188
  31.6985178  39.0772295  31.8885136  32.3535728  39.5760441  31.4003372
  31.0205650  38.8764644  31.2432957  61.3816786  43.9647436  35.7590532
  61.3784552  43.0322313  35.5430937  60.5020189  44.1357231  36.0955000
   4.5933625  36.6602874  35.2128553   4.5101839  37.6136231  35.2343678
   3.8393587  36.3655424  34.7021341  28.2356238  67.2133923   6.6974187
  28.7652040  67.7520514   7.2853142  27.6111579  66.7727518   7.2737098
  34.9438024  69.2683125  60.9944534  34.3286610  69.3583536  61.7222738
  34.4227839  68.8906670  60.2858210  87.3740864  22.9891181  52.1474791
  87.2685051  23.6604118  52.8216076  86.6585636  23.1521916  51.5329361
  64.6710825  64.5751333  59.5984125  64.9743700  64.1939592  58.7744236
  65.4509592  64.9826479  59.9751806   2.1540464  58.8157606  47.8396511
   2.9231241  58.6344337  48.3799028   1.6897565  59.5089340  48.3088875
  90.7193661  66.2076473  23.0681658  90.2985096  66.2512445  23.9267755
  90.9323978  67.1171904  22.8593850  84.3424511   6.1966938  46.8204784
  84.5852852   5.2709055  46.8070841  83.5933590   6.2392449  47.4148464
  11.9355941   2.7664578  64.6458817  11.3462925   2.5612533  65.3717232
  12.6545286   3.2515851  65.0508738   3.7861735  81.5220356  20.7631731
   3.6337313  80.6466484  20.4072309   3.5129654  82.1158409  20.0638986
  60.9361696  55.8460855  63.9553690  61.2716293  56.7424774  63.9686632
  60.3592491  55.8175468  63.1921005  47.2200918  75.6005096   5.2992386
  47.4214649  76.1622143   4.5507947  47.0681381  74.7365284   4.9162546
  44.1722393  86.4477158  21.1035395  44.5881462  85.7543659  21.6159081
  43.7294102  85.9863949  20.3912783  21.5561771   4.2592913  74.3917131
  21.1809063   5.1398373  74.3852091  22.4997878   4.4005099  74.3149948
  80.1315594  61.5283918  54.6532059  79.2818022  61.7408371  55.0392199
  80.3411388  62.2842836  54.1046333  30.1882648  11.0676396  11.9039249
  30.5203938  11.6807914  11.2482059  29.8175001  11.6256702  12.5875664
  59.0039825  25.0679564  28.9909124  58.8711786  24.3491983  28.3728671
  59.0096378  24.6467757  29.8504519  27.3816562  19.0051985  58.8169432
  27.9516578  19.3360269  58.1227684  27.1781206  19.7756386  59.3472528
  25.0229454  29.7089982  41.4231825  24.1100979  29.6347022  41.1449432
  25.2856994  28.8109469  41.6249132  63.8814831  65.0883627  50.5111551
  64.3766403  64.2695951  50.5370665  64.4968033  65.7504606  50.8261633
  28.5845017  44.1683483  37.6254082  28.8744783  44.9568653  38.0840898
  29.3883824  43.7877798  37.2716093  32.4761081  35.8000970  43.0596828
  33.3286095  35.5735445  43.4313583  32.6837850  36.3223600  42.2848606
  89.3955517  22.8099656  57.8626776  88.4918690  22.6628232  58.1418371
  89.9116516  22.2013569  58.3913279  74.8327732  54.5489979  26.0050631
  74.7281933  53.6682653  26.3650703  75.0960684  55.0840902  26.7537856
  24.0128350  79.2259502  50.0847673  24.8517609  79.1218281  50.5337620
  23.4057760  79.5004034  50.7720757  10.5863678  47.7102661  36.2907887
  10.7019675  47.5432396  35.3553891   9.8233926  47.1864367  36.5351295
  79.6897650  20.2772307  53.9780569  79.2184162  20.9882069  53.5438061
  79.3121910  19.4789135  53.6087847  50.4128313  61.2085247  15.5143547
  50.3192186  60.3803539  15.9850979  50.2404356  60.9849596  14.5997345
   0.0934137  81.2701607  21.1554885   0.8342374  81.3132191  20.5508685
   0.2680696  80.4981041  21.6936851  16.6586614  56.1960602  42.5150824
  17.4530458  55.9250355  42.0549440  16.3398993  55.3965664  42.9339266
  25.7139802  56.7643833  28.0133820  26.3184977  56.0928202  28.3292913
  24.8852444  56.5645313  28.4486818  19.0564227  28.9341545  37.2392535
  18.7951910  29.7851706  36.8874550  18.3161438  28.3583546  37.0477509
  66.6423082  40.4581356  45.3511906  66.3181686  40.1233721  46.1873150
  66.4615202  39.7563028  44.7259092  42.8314495  74.7106743  48.4294748
  42.2241020  75.3997326  48.1601095  42.3852634  73.8952875  48.2007885
  47.1534014  13.5323119  29.8855186  48.0846500  13.6550939  29.7013068
  47.0671558  13.7211382  30.8199382  76.5205896  85.7362393  45.9264183
  77.2262216  85.2073098  46.2986374  76.7676067  86.6393312  46.1255121
  79.9917221  26.6628647  45.5732918  79.7537136  27.3246622  46.2226009
  80.8689022  26.3792181  45.8308411  84.8005772  49.0851927  66.2640333
  85.3438473  49.8046970  65.9424734  84.1947460  48.9029646  65.5457067
  33.0728030  25.0082660  57.9234219  33.0376291  25.9604740  58.0145073
  32.3524785  24.6889019  58.4669065  20.7145143  74.6940184   7.7769655
  20.6298518  74.0322924   7.0905364  19.8166120  74.9785328   7.9474229
  85.7003880  67.9707050  17.2299707  86.5002632  68.1133175  17.7360189
  84.9929905  68.0696154  17.8671861  67.0108223  28.8829303  40.0980473
  67.3906136  29.7593999  40.1596069  67.7233934  28.2949853  40.3486443
  33.3904719  45.7131958  17.1175373  33.9273143  46.4217901  16.7626762
  33.8288188  44.9128342  16.8285632  48.7041044  61.0540390  10.6424654
  48.8645887  60.1725340  10.3056777  47.8118944  61.0198736  10.9874606
  12.7488053  70.0291204  44.1826963  12.5851095  69.4815874  44.9505806
  13.5329914  70.5295753  44.4081545  37.0857739   1.9903457  42.2590971
  36.2522864   1.7801251  42.6802111  37.7057672   2.0739910  42.9835606
  16.1977005  39.6585011  37.7427912  16.9387329  39.0638208  37.8588009
  16.1419034  40.1359653  38.5705280   3.6362499  62.0770931  43.8535023
   3.7898281  61.8643332  42.9329681   3.5881537  61.2270832  44.2909908
   1.3568075  31.2915540  71.5312958   1.9074543  31.3214278  72.3136806
   1.9766781  31.2936354  70.8019209  86.0851288  67.3852205  67.2446156
  86.9906425  67.6908207  67.2983837  85.9911251  66.7836189  67.9831696
   8.2475567  36.6325045  60.2567196   8.1204480  37.4791241  60.6848669
   8.4125477  36.0227728  60.9759092   5.2387100  45.9580755  57.2090006
   5.5653769  45.4400253  57.9446268   5.8901894  45.8318615  56.5191603
   9.1750777  64.6729136  39.9768901   8.5503268  64.8678970  40.6753874
   8.6913139  64.8427248  39.1685772  86.6090298  52.0733786  46.0538721
  85.8014107  52.3866749  45.6466532  86.3484287  51.2817526  46.5246677
  20.8150125  11.1706376  37.4099207  21.1899447  10.6859255  36.6745901
  20.3486156  10.5086339  37.9202700  75.6135941   6.1137086  20.0503802
  75.2564669   5.5547345  19.3602788  76.3294506   6.5882421  19.6277738
   7.2641516  40.5966425  53.8249493   7.0794064  39.7378612  53.4446907
   6.4023274  40.9947014  53.9475870  90.1944542  47.6296711  49.6357298
  90.3573227  47.7307510  48.6979198  90.2086544  46.6836214  49.7806883
  21.5832925   0.9133049  41.7393827  20.6467390   1.1028631  41.6830921
  21.9599128   1.6883786  42.1560955   5.9591293  59.0682173  28.8610196
   5.0968134  58.6563444  28.9158034   6.5757555  58.3363342  28.8796329
  13.3520734  47.9311943  70.8105087  12.6423061  48.2684946  70.2639771
  14.0555549  48.5728502  70.7124043  76.8571234  51.9185257  40.5487823
  76.9799137  52.8474951  40.3534174  77.1535778  51.8228960  41.4538765
  63.8390255  70.9066200  16.5995586  64.2628765  70.0568056  16.7195535
  64.2153072  71.4606380  17.2834468  71.5874577  83.3095837  47.0117283
  71.9229746  83.7295723  46.2197256  71.6948318  82.3723316  46.8496704
  26.0077572  79.8863840  48.1167984  26.3640380  80.7579708  47.9446363
  25.1675367  80.0513172  48.5446501  68.6293030  64.2447186  24.2389321
  67.9141426  64.6142864  23.7210536  68.1936789  63.8019657  24.9672413
   9.5519954  32.0062995  46.6170502   9.0330291  31.4576554  47.2051764
  10.2870643  32.3036361  47.1532345  73.5163975  60.4569292  37.5642443
  74.0160370  59.6762705  37.8033257  72.7184200  60.1161146  37.1601272
   6.4140642  47.1882343  29.2723799   6.4805859  46.5590620  29.9906754
   6.3644415  48.0408382  29.7046185  39.1714454  51.0336065  55.2887774
  38.5983491  51.1198854  56.0505867  40.0545740  50.9978533  55.6562519
  36.9682121   0.9712383  58.2022047  37.3948836   0.5278351  57.4690056
  37.6509857   1.0422073  58.8692999  18.5845602  67.7601862  69.2095566
  18.0601346  68.2126951  69.8701954  19.2968905  67.3558998  69.7049046
   4.9093631  40.1320410  66.4363861   4.4358057  40.9062195  66.7407227
   4.3440738  39.7551990  65.7620955  90.2464008  35.8262587  53.4614515
  89.8560905  35.5280018  52.6399040  90.8805752  36.4927769  53.1972456
  32.5110888   6.5528882  43.2144356  31.8131709   5.9478557  42.9632807
  32.7795053   6.9634026  42.3924494  13.9673197  34.8077321  57.2893620
  14.2152774  35.3197670  58.0591440  13.2380450  34.2643428  57.5878906
  86.6101933  38.6189675  66.9826460  87.1211338  37.9338837  67.4137354
  86.7199421  38.4469867  66.0474396  59.9970675   4.0240252  34.6931219
  60.1659060   4.1088113  35.6314898  59.5617819   4.8420706  34.4532084
  25.1413941  65.1163626  41.8800879  24.5533347  64.4576788  42.2496128
  24.9620533  65.9086084  42.3864603   6.2115270  45.6089926  42.6670551
   6.0736758  45.4437399  41.7343569   5.4929125  46.1902046  42.9160881
  39.5243049   0.7792603  19.2432618  39.8950434   0.0122403  19.6796846
  38.6344504   0.5150899  19.0095866  88.8847923  66.0366964  17.6478577
  89.0890694  65.4255915  16.9400072  88.1878853  65.6057453  18.1426680
  20.3588462  18.1158328  28.7455177  19.8060179  17.5182664  28.2420015
  21.1578298  17.6169384  28.9156866  11.8018055  76.6007328  47.2436857
  12.0818746  77.3004198  47.8337955  12.4660277  76.5883970  46.5545654
  34.6765089  58.6189032  53.3652592  34.5251369  59.3670225  52.7876472
  33.8006926  58.3471489  53.6397123  81.9442177  60.6541538  35.7597423
  81.8816853  61.0623264  36.6232920  82.8473473  60.3413343  35.7075047
  89.8038864  46.0564756   0.7207609  89.9051285  45.1186037   0.8831770
  90.6998825  46.3842487   0.6433975  17.8494895  34.8327541  30.1860452
  17.8227389  34.0994811  30.8007216  16.9781351  34.8452425  29.7900438
  40.5201578  13.8835669   3.3504951  41.4345980  14.0598977   3.5717124
  40.4075670  14.2614913   2.4782974  20.6420755  65.9954405  61.1557245
  19.8031366  65.8814764  61.6022968  21.2462282  65.4258537  61.6319561
  19.2756546  26.4370155  26.9310260  18.6328316  27.1461606  26.9198728
  20.0059605  26.7837906  27.4435019  39.3406606  80.6839752  41.7685652
  38.4869504  80.9708786  41.4443779  39.8958063  80.6562328  40.9892845
  83.4255600  66.2155485  58.7130785  82.5866222  65.7548666  58.7270403
  83.5357094  66.4849663  57.8012037  76.3229322  39.1120028  34.7056317
  76.5862751  38.1944299  34.6353364  75.9725046  39.3274999  33.8413453
   1.8320748  56.8286228  13.7331641   1.8686277  57.0621777  14.6607137
   2.7417397  56.6492748  13.4953070  68.0351019  77.6938391  32.2318459
  67.1211100  77.8454494  31.9913030  67.9910326  77.0825386  32.9671025
  84.7983456  71.5773153  39.8723984  85.4397869  72.2675943  40.0406027
  83.9542389  71.9797993  40.0766706  13.4775031  59.3222141  58.5543537
  12.6600158  59.4834948  59.0254593  13.9500129  60.1532316  58.6031485
  42.1531773  52.2801304  60.1092815  42.1524286  52.3396683  61.0646296
  41.3141060  51.8728733  59.8940277  74.5703936  45.2340651  65.3806400
  74.7655630  44.6946430  66.1469078  73.6282778  45.1293230  65.2476740
  35.1054144   3.9814067  24.3030953  35.2770829   3.7812319  23.3829379
  34.4320464   3.3528602  24.5633578  77.6158762  56.7223740  65.1009750
  77.8559589  57.6073217  64.8262644  78.0323505  56.6158104  65.9562111
  70.8791733  34.7256994  15.1587963  71.7004538  34.9656248  14.7296548
  70.7882690  35.3573680  15.8722126  24.5969677  75.2682257  68.7032938
  24.2317438  75.8060646  68.0007458  23.9674735  74.5552301  68.8110352
  83.1396484  67.6481390  42.9688072  83.4364796  67.3171902  43.8165092
  82.9955864  66.8620920  42.4419260  54.9703741  47.9061270  26.4354491
  55.1948500  48.7492609  26.8291020  54.6924162  48.1236362  25.5456948
   4.1408652  75.0868368  32.0014119   4.4837326  75.9653473  31.8374228
   3.7994349  75.1258898  32.8947949  67.7607346   8.4899741  43.4560013
  67.3704910   9.0200329  42.7610350  67.0182228   8.2179391  43.9953518
  21.2462616  62.6905012  72.8058863  20.8523679  62.3379326  72.0079041
  21.0008097  62.0672894  73.4896946  86.9824314  71.4942694  62.5174046
  87.6406097  72.1469450  62.7562571  86.7259789  71.7280817  61.6253281
  43.7694931   8.0636472  63.2310152  44.4819641   8.6397660  62.9540586
  43.5438585   8.3674151  64.1102457  88.2121277  42.3355198  16.1786675
  89.1101742  42.2255182  16.4911532  88.1669712  41.8003225  15.3863573
  74.7702551  60.8318996  52.8268576  74.7567415  60.3863764  51.9797707
  75.0045490  61.7362118  52.6181459  90.3424263   4.0165150  25.4164577
  89.6316433   4.2769367  24.8306227  91.0642052   4.6042988  25.1933599
  34.6593356  74.3000126  39.8896575  34.6729422  75.0806427  40.4434252
  34.7019672  73.5686016  40.5056524  54.2912292  68.4993935  60.3755140
  53.8488054  69.3422651  60.4757977  54.2436552  68.3140087  59.4376469
   4.1494974  83.7592602  18.8793755   4.1218305  83.5082150  17.9560947
   3.2686999  84.0844059  19.0656734  78.9181137  39.2457819  51.0592222
  78.1516886  39.6380353  51.4774990  78.6363363  39.0675139  50.1619768
  13.6093771  26.4075541  40.3693485  13.6390829  26.0396242  39.4861889
  12.6786602  26.5576053  40.5351257  77.4098778  58.2790422  45.7339764
  77.4018812  58.5349417  44.8116541  77.0757627  59.0464687  46.1983681
  19.9823856  72.0317745  20.9388542  19.4864166  72.5053263  20.2710247
  20.8933401  72.2802114  20.7817817  85.1478672  39.4487453  58.9801693
  84.2708397  39.3462038  59.3496847  85.2440834  38.7073946  58.3823633
  31.0186911  65.5412006  57.3737812  31.7601752  65.1307201  56.9288778
  30.3436089  64.8627949  57.3898983  85.8442020  63.4574747  31.6324043
  86.6204071  63.3765697  31.0781598  86.1455345  63.9493704  32.3962545
  20.9599376  36.0369277   9.1426164  20.2487421  35.7532954   8.5681754
  21.5889359  36.4566517   8.5557371   4.4485012   7.9629976  35.2683663
   4.5971331   8.4348911  34.4489408   3.4974065   7.9641557  35.3763008
  73.2057810  42.2668219  33.1860161  72.3894691  42.3272657  33.6822128
  72.9902649  42.6266289  32.3255968  71.2499142  13.7024105  73.3806658
  71.7002583  13.0150425  73.8715315  71.9548464  14.2185831  72.9896832
  44.4612694  62.3459291  55.4469061  44.2819452  62.8103828  56.2644386
  44.7811079  61.4874601  55.7243395  70.2627325  73.2616901  44.1805315
  69.9275923  73.1026554  45.0629282  69.5307732  73.0438662  43.6034536
  88.0107880  57.0023584  31.5459943  88.8079548  57.3524714  31.9437170
  87.6180744  57.7512360  31.0974574  30.6607151  57.1785498  69.6034241
  29.9075603  57.0251703  70.1739168  31.3795757  57.3762560  70.2037382
  36.7052722  62.1933794  38.0893111  37.4770927  61.7788887  37.7036667
  37.0445800  62.9785299  38.5190034  59.0848160  80.0267696  47.8511333
  58.1432009  80.1971626  47.8275776  59.1544342  79.0943527  48.0560446
  83.8927174  14.0238297  56.4659691  83.6106014  13.1536114  56.7476797
  84.8204041  13.9182591  56.2550592  14.0057099  55.5116940  45.5832100
  13.1538641  55.8939981  45.7940054  13.9056861  55.1814318  44.6903753
  39.1665292  47.3555946  48.5567999  38.4158516  47.7507210  49.0001869
  39.8743057  47.3985052  49.1997910  73.6164093  46.5664482  26.8097448
  73.1857109  46.4182520  25.9678602  74.4255257  46.0576773  26.7576861
  10.9721971  19.7189879  31.2427354  11.2801206  19.7477067  30.3368711
  10.5283093  18.8742936  31.3181543  74.5905972  55.9519434  28.2628107
  73.7831306  55.5059147  28.5183358  74.6777105  56.6684246  28.8915372
   1.1881064  45.2855301  48.5651970   1.2962873  46.0151148  49.1753054
   2.0395792  44.8482561  48.5613537  81.0513973  50.1490879  59.8289633
  81.9935513  50.0925207  59.6696520  80.7004547  49.3280125  59.4841385
   4.7591579  59.5517254  64.1126156   5.1286477  59.5280790  64.9953127
   5.4797083  59.2802238  63.5439968   6.5426058  55.7215881  57.6221275
   5.8213842  55.7184696  58.2514620   7.2337413  55.2139091  58.0473661
  27.7354026  73.3176708  55.2321672  28.3935595  73.4192705  54.5446062
  27.0204186  73.8960695  54.9666691  84.8004913  57.1678925  13.6118448
  84.0350246  56.6813850  13.9177775  85.2499962  56.5616512  13.0230701
  26.8042040  63.8270283  24.1692543  26.5416932  64.3840599  24.9020815
  26.8797636  64.4271088  23.4273481   9.5010334  43.5529852  54.4031668
   9.2265755  44.1139555  55.1285744   9.1549838  43.9848995  53.6221886
  35.3444386  57.0298100  22.4272871  36.1484766  57.4089193  22.0722771
  35.1051331  56.3463879  21.8012691  56.3219213   1.7724176  22.6415944
  56.2197495   2.5629792  22.1116829  57.2409391   1.5280320  22.5324512
  82.0912266  65.1774740  63.6211872  82.9990292  65.0576496  63.9000368
  81.6002750  64.5208025  64.1151381   1.9256964  28.0618310  45.1823759
   2.3009518  28.8305259  44.7528124   1.0061619  28.2893491  45.3199387
  90.6675053   8.4296989   7.1949476  90.1340485   7.9310787   7.8138477
  90.2477837   8.2857907   6.3467997  18.8280439  39.6145439  58.4719467
  18.1612897  38.9368176  58.3607674  18.9638352  39.6640062  59.4181728
  87.1358776  68.8645983  14.8421371  86.3641644  68.9536858  15.4013789
  87.8492165  68.6649323  15.4483604  83.1584454  58.8863087  63.0248356
  83.5083961  58.5889053  63.8646650  83.9185905  58.9103508  62.4436092
  66.5613842  53.7102461  52.2503233  65.7273579  54.1694880  52.1516848
  66.5344334  53.0198050  51.5879107  35.3243494  77.0435524  43.4662247
  35.5188441  76.4233065  44.1688585  35.7004952  77.8710318  43.7662697
  68.9647675  47.7779007   9.1835153  68.5420084  46.9409657   8.9910305
  69.8937607  47.6215696   9.0139318  15.9978712  55.7566929  62.5022507
  16.5709984  56.5187454  62.4183655  15.6363797  55.6311369  61.6248751
  60.8191395  49.8822975  30.9168172  61.0939455  50.4834366  31.6091657
  60.6563759  50.4462004  30.1606727  13.9195836   4.5319971  14.3622565
  14.2297602   5.3460306  13.9655554  14.0183282   3.8763165  13.6719203
   8.1405729  45.4725409  44.4459581   7.5804442  45.5172682  45.2208710
   7.5555652  45.6740141  43.7156153  71.6167784  83.3315659  51.8353081
  71.4834356  83.9416981  51.1099243  71.1163759  83.7074757  52.5595427
  10.4111385  35.8588314  52.9714489  10.9504771  35.1645422  53.3500051
  10.0435174  36.3158989  53.7278700  18.4652925  27.5019121  65.8660078
  17.7146149  27.2555757  66.4064121  19.1605079  26.9007707  66.1334753
  76.8724251  58.8220835  60.7552481  76.0252762  58.5909367  61.1362219
  76.6654348  59.1039228  59.8642063   1.0284517  54.0652561  63.1080151
   1.9766569  53.9698124  63.1976223   0.7546813  54.5037842  63.9136028
  52.3793507  19.7020280   2.5603333  52.7277565  18.9416933   2.0947862
  51.7829800  20.1133418   1.9347166  47.8607941  68.8297510  24.5540309
  48.4798288  68.9690685  25.2707052  48.3858824  68.9333725  23.7604451
  54.1819525  41.5598154  11.2948930  54.3224525  42.5060558  11.2613821
  54.4600010  41.3074255  12.1753573   2.0869252  32.7950883  61.3709593
   1.4550313  33.4615254  61.6407824   1.5492851  32.0503426  61.1016512
  85.4472256  41.9028473  21.9894171  86.0492039  42.1788883  21.2982893
  84.6149731  42.3172808  21.7617726  16.1557782  49.0153265  40.9925795
  16.9582629  49.5049953  40.8123732  15.4578805  49.5532703  40.6187010
  84.8970509  82.5169563  49.6930885  84.4584274  82.1971798  50.4814911
  85.4093170  81.7696953  49.3842030  61.5362883  68.6793470  17.0278478
  60.8007622  68.0820608  16.8918848  62.1218920  68.5100412  16.2898529
   5.0289476  35.6117249  20.6695628   5.4158610  36.4763403  20.5318427
   5.5754298  35.0196958  20.1527524   3.4775451  55.5456829   8.7215966
   2.9044831  54.9989939   8.1840456   4.0308642  54.9222994   9.1921973
  90.5303478  57.9085159  19.4691432  91.4638233  58.0349445  19.2992449
  90.4838371  57.6890802  20.3996897   9.4229954  51.8472481  54.0844631
   9.7646743  51.5076876  54.9116182   8.4747136  51.7367744  54.1536570
  81.8431091  60.2514553  50.9814930  82.6289558  59.7051525  50.9662342
  82.0363808  60.9310865  51.6272306  73.1851959  58.4105730  49.5542431
  73.0070782  57.6686573  50.1322269  73.8828611  58.8955116  49.9950695
  87.4231529  74.1910124  27.5487566  87.3602486  74.8760223  26.8831444
  87.8986454  73.4809637  27.1175170  89.6643353  61.9617319  23.8426781
  90.0782490  61.1332417  24.0845752  90.0466061  62.6040268  24.4406343
  41.3976622  56.5833616   9.7526211  42.0753431  57.2483301   9.6309823
  41.3567114  56.4536476  10.7001066  82.7417088  82.4622345  72.5728416
  83.5732269  82.0492840  72.8058529  82.3320961  81.8485355  71.9630718
  27.4826407  51.0622072  30.7060862  26.5786505  51.0355282  31.0196495
  27.7567649  51.9691277  30.8423924  10.3106570  48.9128685  28.9231753
  10.3233576  49.7789764  29.3305182  10.4389954  48.3041430  29.6506476
   5.7117462  67.6199293  36.3207793   6.1131084  68.3503056  35.8499360
   4.8506024  67.9469872  36.5809631  85.5817795  28.2306933  58.2892132
  85.4189396  29.1274071  57.9966021  86.5058517  28.2242775  58.5387897
  17.4645782  47.2566032  39.2242980  16.8260920  47.3014164  38.5125685
  17.0897377  47.8006458  39.9169350  21.5679717  38.7572098  24.9954152
  22.1503186  38.0138135  25.1518345  20.7377863  38.3599234  24.7323751
  31.4228892  44.4165802  21.7323875  30.5805230  43.9926481  21.8965030
  31.5281153  44.3802452  20.7816839  72.7976036  44.2915773  73.0163622
  73.4493542  44.7085571  73.5799026  72.0251751  44.8523521  73.0879402
  76.7278290  52.8311682  56.8969107  77.5763035  53.0349255  56.5034580
  76.2762356  52.3078728  56.2347507  85.1928139  37.2372246  29.3471885
  84.4339943  36.7087221  29.5944095  85.8780766  36.5971732  29.1548800
  88.2096672  73.2288361  39.4992089  87.4615955  73.6817837  39.1100287
  88.6361313  73.8926649  40.0411415  19.0614724  35.5524063  19.6007037
  18.4509671  36.2792969  19.7237635  18.5906744  34.9366784  19.0390456
  11.3073373  65.3273106  37.0137525  11.4915407  66.2638187  36.9412708
  12.1236813  64.9016619  36.7517662   6.2597877  53.9420557   1.7847684
   6.9796777  54.0754557   2.4013674   6.1308187  54.7989416   1.3781419
  13.4176600  57.9239988  53.5910225  13.3260119  58.8717365  53.6891127
  13.9770865  57.8157949  52.8218889  24.4747210  85.9259892  53.6258030
  23.9010882  85.7854557  54.3790817  24.2296028  85.2384949  53.0065298
  76.3607883  70.8786249  28.8932085  75.6320143  70.2580833  28.8999915
  77.0661545  70.4247236  29.3543696   3.2513237  -0.0188191  70.6746912
   3.0755806   0.8904331  70.4326248   2.4069023  -0.3539021  70.9762096
  77.3484230  49.0594101  62.6618910  76.8612146  48.3473110  63.0763435
  77.1327829  48.9877272  61.7320585   6.8725473  71.8814468  27.9736781
   7.5229555  71.2774229  27.6154041   6.3352358  72.1288061  27.2211218
   0.8592983  69.2987394  37.8630352   0.5454734  69.9393606  37.2247910
   0.7694613  68.4551668  37.4197006   9.3008298  43.2870293  49.6796560
   8.7607712  42.9032516  50.3705168   9.0615356  44.2138243  49.6755934
  12.4646020  68.0709791  67.2967672  11.8212986  68.7724876  67.3981571
  13.2846105  68.5244036  67.1012449  18.3099496  56.2243080  70.6355190
  18.8535428  56.7014647  71.2624645  18.8295889  55.4540443  70.4055214
  68.4692192  14.4632816  43.3200026  69.3547964  14.1580296  43.5170078
  68.5260010  15.4169869  43.3787632  48.6870575  10.2155197   5.5127907
  49.5798445  10.1655543   5.8543563  48.3005047  10.9672391   5.9619284
  29.0100861  64.2191839  33.7428617  29.4467568  63.3706236  33.8170123
  28.9550924  64.3787289  32.8006554  70.3676081  66.7758989  32.9990029
  70.5698109  66.5731668  32.0856309  71.1826611  66.6006756  33.4693360
  15.9364235  85.2286911  28.0078220  16.5278554  85.9574127  27.8196621
  15.7361031  84.8550701  27.1496201  28.7133312   5.3263795  34.9160743
  28.9000440   4.4400483  35.2255702  27.7599072   5.3993636  34.9595165
  60.0300932  18.4547484   4.4819832  59.1196680  18.3764005   4.1969872
  60.0126886  18.2138872   5.4082203  33.3088517  73.8549137  48.8449526
  33.9487791  74.2718029  49.4219494  32.7164888  73.3930683  49.4382811
  36.2344813  68.7900734  48.7478209  37.1645451  68.6042356  48.8769484
  36.1421394  69.7163916  48.9706278  75.6479216  33.1226444  25.9458542
  76.1186361  33.9540625  26.0041618  75.2027702  33.0397797  26.7891836
  31.6050649   7.3878402  28.4077787  30.9338808   7.4143171  27.7258396
  31.9965315   8.2611984  28.3925843   4.6466777  58.8882875  49.3267679
   5.4796213  58.4657812  49.5363474   4.1586205  58.8771582  50.1501179
  87.4287987  46.0221672  44.6366215  87.7705669  46.8592882  44.3225288
  87.2035694  46.1839962  45.5527639  10.1176298  55.4444981  59.7571754
   9.2952633  55.1409483  59.3727255  10.4455221  56.0962391  59.1375351
  42.3802757  65.6085157  44.7108459  41.6396284  65.7245827  45.3059959
  42.1813440  66.1773348  43.9671373  23.1063890  63.7504244  31.8353796
  23.0350924  63.5271168  32.7634335  23.5350013  62.9919863  31.4387774
   0.5091738  57.8239202  59.7797346   0.8536367  58.4435415  59.1365767
  -0.4405805  57.9336214  59.7332096  71.7907906  57.9273129  62.3844481
  71.3298130  57.2137213  62.8254986  71.8466854  58.6195898  63.0431271
  79.5802164  37.1230841  39.1843057  78.8472414  37.7073145  39.3783450
  79.7520685  36.6717887  40.0107622  80.5543518  80.6022358  36.5344810
  80.5021954  79.8837471  37.1647835  79.6472502  80.7549000  36.2697244
  80.4943562  63.4306908  64.8752022  80.6026459  63.5629749  65.8170128
  79.5960379  63.7084723  64.6960449  88.7571907  74.6292496  34.4959950
  88.0003834  74.7595596  33.9245987  89.5134544  74.7201633  33.9163065
  11.4201486  38.3662796  38.7382078  11.8337476  39.2265630  38.6669064
  10.5410028  38.5498953  39.0692973  33.7356114  50.0650215  44.1859007
  34.4716763  50.4580641  43.7169027  33.5749650  50.6582308  44.9197435
  71.9908381  43.4340143  56.8230247  71.7945337  43.2392502  57.7394104
  72.2690296  44.3498898  56.8270922   0.9333760  56.1132622  56.8386698
   1.7149188  55.5606270  56.8343830   1.1426476  56.8193245  57.4501562
  10.9087896  55.9666586  66.7599964  10.0349951  56.2186146  67.0587158
  10.8989644  56.1389256  65.8184767  71.5538836  28.7030172  40.8302307
  72.1159172  28.5291123  41.5852833  71.6352510  27.9200220  40.2856874
  15.1659524  33.7910914  35.0516343  14.8014438  34.6625495  34.8969555
  16.0559857  33.8383341  34.7025776   0.2112005  64.9769592  43.6075735
   0.2514303  65.8789921  43.9252996   1.0232035  64.5769501  43.9188242
  83.3544254  49.4857740  54.0268946  82.6581955  48.8366699  53.9260483
  83.1400108  50.1678276  53.3904457  23.0227089  58.6204576  14.2757607
  23.6888909  59.3066263  14.2356336  22.6315808  58.7168550  15.1440692
  76.4766979  37.4214196  54.9160242  77.3186827  37.8655052  54.8156071
  76.3726377  36.9196510  54.1075516  84.5512390  62.2460604  29.0494752
  84.0807533  61.4471626  29.2874670  84.4643784  62.8125715  29.8161268
   9.3854058  65.2155685  61.4739943   9.0556270  64.4944239  60.9378672
   9.9825716  64.7986317  62.0951128  72.8849363  85.4818058  55.0769043
  73.5939169  85.0835228  55.5818319  72.3712587  85.9642601  55.7246733
   5.0219935  75.5270576  24.8696017   4.6316203  75.3468704  24.0143991
   4.6442118  76.3660717  25.1333499   5.6071246  69.2582035  48.1761169
   6.2284994  69.5506668  48.8428926   5.0663680  70.0278234  47.9986429
  11.8633866  57.1508837  58.0781555  12.3782587  57.9118204  58.3466959
  11.5008318  57.3954010  57.2266865  20.0804710  49.0917826  34.6288252
  20.5901933  49.7999191  35.0224781  19.2489648  49.5003366  34.3881702
  11.9686615  74.0599823  68.2730532  11.4610708  73.3149910  67.9512262
  12.8421021  73.7030458  68.4340811  67.0661402  82.0828438  22.3997951
  66.1116314  82.1416187  22.3587346  67.2468519  81.1436272  22.4377894
   6.8476176  78.8144207  41.9604588   7.2940093  78.3815002  41.2327623
   6.4347982  79.5823717  41.5654135  13.3326769  62.9800320  45.5766821
  14.1943717  62.5936222  45.4204702  13.0363321  63.2623053  44.7113895
  29.1112304   7.9639184  23.1131697  28.4514117   7.2722119  23.1622958
  29.1161847   8.2252336  22.1923423  12.5330150  64.7107315  47.6115990
  12.8565669  64.0093231  47.0462942  11.5930188  64.5453596  47.6843357
  44.0549517   6.3943404  33.6575580  43.8365412   7.1470010  34.2071319
  44.0908337   5.6560671  34.2657495  27.3373246  56.4284325  37.6928854
  27.8943849  56.8310308  38.3590913  27.7485323  56.6654921  36.8616581
  10.8403385  71.8841743  43.4474468  11.6507459  71.3965988  43.5948944
  11.0593057  72.7874899  43.6761570  33.4722400  64.8709488  49.3897390
  33.2131696  64.1950178  48.7634563  33.3510923  64.4624043  50.2468538
  91.0857773  54.8965693  32.3030806  90.2537537  55.0811625  32.7388406
  91.1829758  53.9463329  32.3650789  22.9277611  73.2722902  34.3434739
  21.9711399  73.3035851  34.3546772  23.1589723  72.7412653  35.1055646
  28.1446600  81.1615181  45.4241180  27.3504114  80.6538105  45.2578735
  28.2918406  81.6483498  44.6132183  13.5382247  57.4250555  49.1971445
  12.7780187  57.9149723  49.5106697  14.2476058  58.0675364  49.1820002
  46.3283777  69.5433617  68.7769556  45.4553080  69.8621273  69.0058136
  46.8496466  69.6844387  69.5672750  47.8267622   2.0968249  30.2731633
  47.0763588   2.6805106  30.1616359  47.5156927   1.2453829  29.9657297
  43.7388420  59.1088152  50.2444553  44.2014885  58.7207365  50.9871435
  42.9829645  58.5375881  50.1081467  15.8821785  83.6354542  30.4013538
  15.8861077  84.2893314  29.7023129  15.0507534  83.7745857  30.8547902
  10.7898498  69.7770739  63.6526155  10.0537622  70.3811598  63.5551977
  11.5655828  70.3204441  63.5139894  22.0542932  31.6111231  24.4323730
  21.9862533  32.4104691  23.9102149  21.9437575  30.9015203  23.7995410
  90.6202984  41.2027550  12.2269237  90.0499249  41.1886930  12.9954982
  90.5710220  42.1041155  11.9085586   4.1294092  78.7808800  47.8291893
   4.2814949  79.1202927  46.9472027   4.7022855  79.3045092  48.3894205
  84.3661499  77.6570511  55.6163549  85.0876808  78.0326462  55.1118279
  83.6392879  78.2657385  55.4844093  46.7695379  22.5826001   9.1054857
  46.7533302  23.5139036   8.8849396  45.9337997  22.2454691   8.7828213
   8.1569260  68.9976263  29.7364831   8.3999175  69.0697050  28.8134503
   7.2002202  68.9674377  29.7306490  33.7560630  78.1360292  31.3940954
  33.6043119  78.8968754  31.9547367  33.9624453  77.4270535  32.0031810
  14.2129040  71.8955088  24.7849703  13.8962793  72.7336025  25.1219797
  13.5913062  71.6647243  24.0946198  39.7089100  72.8735065  31.6628790
  39.3120146  73.7406301  31.7453647  39.6024442  72.6483011  30.7386589
  76.7861080  13.1882954  10.9715915  76.9299221  13.3320403  10.0362372
  77.3544216  12.4498582  11.1905956   7.8989160  58.9379930  50.6782484
   7.3977745  59.7270155  50.8844805   8.3325106  58.7080240  51.5000391
  73.4043503  23.4081721  11.0246551  72.8333807  23.8969970  11.6173422
  73.9635420  22.8902507  11.6037011  26.3406110   6.4056420  38.7367678
  25.7242656   6.8123782  38.1277370  25.8494496   6.3214278  39.5540190
   5.1115304  44.6845865   3.1502223   5.6010228  44.0111876   3.6226228
   4.9715135  44.3124437   2.2795117  88.7237167  70.2468252   1.0709964
  87.8479099  70.5802441   1.2660266  89.2795277  71.0260391   1.0592798
  71.1730814  64.2873669   7.4999464  71.2249279  63.3526993   7.6997852
  70.6513548  64.3323994   6.6986942  12.6208186  73.7191391  46.6939306
  12.6072180  72.7771139  46.5247297  11.7897582  73.8952827  47.1350050
  36.2228060  75.0793505  45.2360821  36.3814974  74.6137381  46.0572100
  36.3585305  74.4192314  44.5563364  49.7142076   5.8908069  34.6928024
  50.3837252   5.4170477  34.1993213  50.1508188   6.6928351  34.9797750
  81.0893250  79.7004604  46.0774469  81.4051247  79.8268843  46.9721651
  81.6881847  79.0555906  45.7009554  87.4404240  53.9660931  54.3180418
  88.0225277  54.0064335  53.5592556  86.9569969  53.1475973  54.2058086
  64.7021008  53.2996845  11.1332476  65.2603769  52.5309706  11.0164762
  64.4628811  53.2834244  12.0599306   1.1836525  59.6370554  39.9259996
   1.4671363  59.8710108  39.0421820   1.9935676  59.4201565  40.3877640
   4.0555680  71.7928410  32.4378443   4.7981045  71.8834972  31.8406415
   3.4688804  72.5112343  32.2013283  79.6057987  76.3892269  56.9659328
  79.8779106  76.2858772  57.8778028  78.7262869  76.0128021  56.9343042
   4.5966253  54.9364042  59.5389986   4.1292849  55.3792048  60.2473450
   5.0423366  54.2051220  59.9665451  64.5601130  59.5029736  46.6336870
  64.7972775  58.8828897  45.9441376  63.7053013  59.8416758  46.3675833
   9.6375358  44.7811699  15.0571609   9.1041863  45.4820681  14.6823120
  10.0881183  45.1916552  15.7952023  73.3202457   9.4396055  48.0593967
  72.8515482   9.6514738  47.2521353  73.3266115   8.4828722  48.0886030
  22.7929068  71.0348463  54.8722887  22.3698306  71.2001991  55.7148409
  23.7298512  71.0509348  55.0675011  48.5814524   8.0965197  36.4736533
  47.7045441   7.7328533  36.3511324  48.7861300   8.5150915  35.6375098
  30.3156400  58.0755711  64.2986774  30.3590918  58.8038635  63.6790514
  31.1743426  57.6571608  64.2371035  89.9560261  52.3256350  28.2667446
  89.5996475  52.0778751  29.1198802  89.6391773  53.2176352  28.1247091
  21.3377833  56.3955688  47.3488855  21.5325379  55.6331158  47.8938341
  22.0997047  56.4813232  46.7758656  22.7009869  81.2314987  61.0114670
  21.8337202  81.4551926  60.6737709  22.5821161  80.3795242  61.4312840
  28.2241678  84.9326420  56.4900923  27.6444173  84.2215633  56.7630005
  27.8967834  85.1913452  55.6286240  21.2944913  66.8615103  66.3025761
  21.1616659  66.0260439  65.8547068  20.4715252  67.3339796  66.1771774
  89.2083836  54.2030859  52.3667002  88.8960075  53.7434196  51.5873623
  90.0694656  53.8226843  52.5401020  38.8330317  19.3453014  54.5377398
  38.8730764  19.1938829  53.5934401  39.7099900  19.1264272  54.8528099
  37.9734898  11.4796925  12.8881860  38.2421803  11.6889071  13.7827611
  38.6944485  11.7930746  12.3420715  33.2543993  65.3622246  45.2152681
  32.6662016  66.0857677  44.9990702  32.8943443  64.9937153  46.0219860
  13.1567526  75.4433012  49.9020290  13.4660935  75.4687166  48.9965487
  12.9543781  74.5212030  50.0602007  66.1886978   1.3637029  13.9852548
  66.7227554   1.4260617  13.1933427  66.6846418   1.8455252  14.6471596
  39.1076279  80.6246662  17.4029624  38.2406139  80.5434895  17.8003609
  39.7096610  80.3022861  18.0736768  31.6598892  69.1450357  26.5168214
  32.1788645  69.3575621  25.7411075  31.7738104  69.8991823  27.0952010
  11.7575717  67.8754997  35.0906873  10.8197331  68.0267954  35.2081609
  12.0878565  67.7204323  35.9756160  50.0179577   2.0292650  45.9936476
  50.3275776   2.0070431  45.0881767  50.0026321   2.9594883  46.2187719
  80.9195232  76.1702967  24.1617322  80.6838036  76.2234688  25.0879288
  80.5808830  75.3215742  23.8767409   9.3766373  68.6152220  60.5402470
   8.4985811  68.4935427  60.1790762   9.3144721  69.4197702  61.0550928
  33.3961725   6.2285691   9.8838598  33.8688803   6.8559021  10.4308820
  33.4551024   5.4015768  10.3622353   4.6460629  56.8033743  42.7215195
   5.4109752  57.3459339  42.9132795   4.9091971  55.9193707  42.9775095
  42.7339220  66.1569071   9.8515916  43.2334471  65.3616762   9.6663421
  43.0854988  66.8075991   9.2439497  57.0175266   4.6893814  15.5694520
  56.9898081   4.9560416  14.6505630  57.6162767   3.9427119  15.5842066
  32.2991419  68.9725733  53.4897423  31.5202284  68.9839649  54.0459776
  32.0019913  68.5786247  52.6695347  15.4138970  62.3232317  52.7107430
  16.2830424  62.0101976  52.9613972  15.5835164  63.0115652  52.0675802
  73.5309410  18.7426102  32.2011375  74.1086292  18.2062840  32.7441502
  73.7326145  18.4784567  31.3034821  39.7955608  76.9469595  38.1755042
  39.8503566  76.4815378  39.0101361  39.2088461  77.6829243  38.3497405
  16.8655312  47.3535776  24.4452524  17.2128189  46.6997099  23.8385558
  16.1688423  47.7895069  23.9545155  81.9202709   2.7789685  23.0993700
  81.2984276   2.4349934  23.7406445  82.4004936   3.4587350  23.5721588
  30.9860134  74.5030594  41.2573910  31.6002870  74.4208431  40.5279112
  31.4337897  75.0706291  41.8847609  77.9747200   1.6875313   4.2533201
  78.4526062   1.8529916   3.4406218  78.4587479   2.1756530   4.9194175
  89.0252876  53.2457495  38.4048748  89.6857643  52.5728941  38.2397485
  89.0941238  53.8378525  37.6559424  13.1608415  36.9223404  48.2675314
  13.2049894  36.6355467  47.3553753  12.3638546  37.4504113  48.3142662
  20.2977753  68.9137936  49.3972397  19.6604979  68.3525801  48.9554834
  21.1487079  68.5642815  49.1326904  32.1838903  68.9823961  74.6973085
  32.1279001  69.0837097  73.7471294  31.4142108  68.4624243  74.9285030
  72.7779531  11.4457655  49.7796488  72.5541639  12.1446908  49.1651106
  73.0396843  10.7122505  49.2231512   2.8146884  76.5370417  38.9532948
   3.1933087  77.0974779  38.2759523   3.3983296  76.6418266  39.7047043
  52.4667263   2.6982319  61.7955208  51.5340281   2.8870541  61.6923141
  52.5863791   2.5908557  62.7391195  21.8947792  59.2866230  41.2492085
  21.3157845  59.7825861  41.8280125  22.5428081  58.8963938  41.8357325
  16.8845463  29.4440103  64.3203974  17.2262979  29.3920445  63.4277964
  17.2715986  28.6923456  64.7691965  32.4829173  14.9202454  59.4410610
  33.3305764  15.1517653  59.8206711  31.8515897  15.4583359  59.9186802
  30.7145762  64.8419714  19.0226185  31.5630937  64.3992901  19.0058112
  30.5154705  64.9428844  19.9534273  13.9418960  58.3221340  26.1647177
  14.6702909  58.8603544  26.4745426  14.2004371  57.4249411  26.3755059
  46.6393471  18.2536876  57.8008413  46.7289019  18.5390294  56.8915606
  46.8804026  19.0222955  58.3179140  10.3358793  51.2031555  39.0448022
  10.2980256  50.8700275  39.9413657   9.9510753  52.0779896  39.0979028
  56.1261415   7.6050246  23.2756996  55.4808474   6.8982935  23.2567453
  56.7244148   7.4024439  22.5564909  24.5054531  66.0192251  59.2492056
  23.8509822  66.4266205  59.8165894  23.9934683  65.5182457  58.6142874
  84.0587616  49.6047258  10.0140691  85.0042534  49.4625187  10.0594401
  83.8539600  49.5572901   9.0802395  40.7361078  79.0464640  53.3815718
  40.4044437  79.1453457  54.2740154  40.4829788  78.1585693  53.1289911
  49.6702147   3.5289344  74.1605663  49.2764759   4.3612048  73.8987875
  50.5383396   3.5373703  73.7574291  86.1964703  25.2547550  46.3114357
  86.3830185  24.3739676  46.6364670  86.5629673  25.8379483  46.9761133
  90.9278297  20.0701833  24.9219275  91.4183044  20.5620050  24.2633104
  90.0484562  20.4474187  24.8968506  65.6564045  14.2734146  26.6538978
  66.3987207  14.8769474  26.6847301  66.0407543  13.4336829  26.4021826
  27.0745444  55.9290886  44.6024656  26.5673995  55.1725149  44.3081427
  26.7289948  56.1249399  45.4733658  22.1883535  57.9184580  38.8197136
  22.6061201  57.1005726  39.0894628  21.9958973  58.3712626  39.6407843
  75.2994967  25.2819562  62.7035236  74.4587994  24.8982048  62.9529142
  75.7519436  25.4280853  63.5342884  15.3247273  51.9097281  40.7088566
  14.6336889  51.4667797  41.2012911  15.0146043  52.8107929  40.6186104
  67.3793793  66.3459778  47.0631409  67.3336172  65.5388117  47.5756073
  66.5752649  66.3459158  46.5438795  69.4277143  16.0064018  47.3524523
  69.4734383  15.0685477  47.1665192  69.2505932  16.4106143  46.5030575
  26.9607711  65.5393124  52.7001762  27.1570301  66.4697886  52.8094006
  26.1629343  65.4012775  53.2107019  34.6586585  76.6408205  52.1800089
  34.5323944  77.4695539  51.7179585  34.3271685  76.8058014  53.0626917
  51.3263035  33.1879663  14.2987084  51.0090208  33.8780951  13.7162268
  50.9239149  33.3847451  15.1446342  29.5772123  85.6029129  47.7464104
  30.0273395  85.0551891  48.3895397  28.6710382  85.6366539  48.0529022
  71.1314201  14.4207156  31.0501385  71.6447163  15.0546050  31.5510821
  71.7677259  13.7600744  30.7764578  85.8833313  76.0729647  20.5300665
  84.9738693  76.1348820  20.8221102  85.8361244  75.6025600  19.6977675
  61.5522146  24.5033002  46.4254332  61.3383198  23.7156725  46.9255590
  62.0367718  25.0535345  47.0408058  14.3154573  12.4569964  27.2506118
  14.8267210  11.6487992  27.2913432  13.5082722  12.2073686  26.8007541
  29.3239975  67.4507046  39.6427584  29.4962764  66.7613316  39.0014195
  29.1236138  66.9803524  40.4519844  87.0464706  61.1568975  68.0368471
  87.7603340  61.6339827  68.4599543  87.2565174  60.2342224  68.1809998
   3.9350721  66.3110971  43.1419230   4.3218839  65.7016373  42.5132990
   3.1819838  66.6829157  42.6827431  74.1622734   8.2338637  19.6199679
  74.6511555   7.4142349  19.6936786  74.7264814   8.8030398  19.0965760
  71.3559341  40.6407022  21.7400289  70.4725838  40.3403759  21.5261889
  71.5343380  40.2653694  22.6023102   8.7532622  73.9570761  58.1009197
   8.1461442  73.8671589  57.3663759   8.9703441  73.0570078  58.3437920
   0.9228873  84.0468121  43.6577511   1.3569383  83.2186413  43.4528923
   0.1223828  84.0338612  43.1331015  23.8334346  12.3513460  61.8055964
  24.6214700  11.8883491  62.0899677  23.4604216  11.7927694  61.1236286
  26.2579799  81.5771008  42.2816229  25.6619906  82.0373631  42.8725433
  26.0354543  81.9080353  41.4114523  62.5158024   7.5073069   5.3350180
  62.3147345   6.6574550   5.7268780  61.6959810   7.9979414   5.3933686
  19.8973238  72.8358126  57.2243786  19.7815585  71.9327974  56.9287443
  19.0733993  73.2685900  57.0005846  50.4447031  37.5336385  28.8336587
  49.9894810  37.0107722  28.1736493  51.0182905  36.9102216  29.2792797
  19.5632577  76.1809349  48.5273361  19.7858191  76.3027859  47.6043749
  19.3853021  75.2439833  48.6091185  24.9665451  81.2840843  19.6538627
  25.4903221  81.6826344  20.3488803  25.5527830  80.6450653  19.2486358
  47.1084356   3.7090996   3.3713177  47.1547556   3.0162704   4.0301609
  47.9542112   4.1533208   3.4310231  23.3892560  67.4754477  36.0748076
  23.4305382  67.1199512  36.9625854  22.9207253  66.8094492  35.5716634
   9.0506035  70.3647375  10.6751597   8.3136690  70.9225988  10.4262674
   9.2549843  70.6245422  11.5734696  35.4178667  73.0352926  18.2682741
  35.9387875  72.2734547  18.0143452  35.8310103  73.3508253  19.0720034
  75.0872612   2.6290432  43.6087227  74.2671490   2.5010332  44.0854359
  75.7699776   2.4917054  44.2654324  88.5174370  47.7975702  66.3789701
  89.1537571  47.3348856  65.8337641  88.1515408  48.4687281  65.8028603
  27.6553297  73.8136339  60.4854822  28.6072087  73.8183975  60.5861568
  27.3469472  73.2008410  61.1530304  39.3875790  70.8472967  51.4506960
  38.8097644  70.3963375  50.8350658  39.5082951  70.2235842  52.1666813
  12.2976196  68.5238838  46.4704323  12.5293541  68.5900831  47.3967934
  11.4539075  68.0718136  46.4663076  90.5663872  51.5195513  63.2796431
  91.1690521  52.2630978  63.2926130  90.2841663  51.4558887  62.3672152
  11.4437342  40.9495020  45.6960917  11.9707465  40.1547670  45.6131077
  11.0827506  41.0899973  44.8207712  12.0706356  42.9796362  29.7159028
  12.7388501  42.4918842  29.2344260  12.3023283  43.8987446  29.5825291
  77.6114750  32.5043154  16.0261536  77.6235342  32.0891356  16.8885422
  77.1684980  33.3407068  16.1691666  25.2054358  82.1487427  53.1023836
  24.7271228  81.3199902  53.1273270  26.1016393  81.9012833  52.8747559
   9.2638361   5.3583813  43.4814787   8.7868387   4.5334989  43.3905172
  10.1622176   5.0948441  43.6807013   5.7204747  60.8375597  51.7200041
   4.7859931  60.7423544  51.5358496   5.8956814  60.1953936  52.4078655
  55.3952169  82.3092651  67.4132681  55.9645557  81.6504288  67.0157290
  55.3359079  82.0509911  68.3330536  32.1265578  61.2625551  46.3279152
  32.8191686  61.6504669  45.7930803  31.3250089  61.6933918  46.0310459
  63.2264471   4.3426418  71.0951519  63.9785433   4.3010238  70.5045223
  63.3011007   5.1980782  71.5181065  40.3620005  85.2488422  40.2402639
  39.8418593  85.8643627  39.7237158  39.7177982  84.7683716  40.7602453
  76.4467764  38.8507605   3.0951744  76.5405226  38.4012961   2.2552782
  75.6329727  39.3476796   3.0113852  42.6130867  64.9630833  51.2259245
  42.1324968  64.3033504  51.7259407  43.0098104  65.5256653  51.8910122
  31.7205000  85.0260830  15.8445013  31.4376950  84.9175167  16.7525029
  32.6061058  85.3832626  15.9105456  61.0104132   5.2871084  57.7559042
  61.1382818   6.1138481  57.2907352  61.7832756   4.7667766  57.5364304
  62.4875021  63.2729435  59.5548582  63.3444023  63.6991072  59.5732069
  62.4689531  62.8083038  58.7182045  82.6775074  17.4241245  19.1991150
  82.5349236  16.5076303  19.4356287  83.4073925  17.7033639  19.7518575
   9.4428170  83.6867619  48.8509035  10.3283036  83.7820911  48.5001135
   9.5044690  84.0129089  49.7487116   5.7111055  18.0701351  64.1483688
   4.8415208  18.4504676  64.2724752   5.7062310  17.7506196  63.2460833
  41.9002771  17.1394086  36.9084024  42.3141432  16.5487838  36.2790298
  41.0614443  17.3670530  36.5074396  71.9254065   1.9994839  23.7670469
  71.3170433   2.6717833  24.0738654  72.3530006   1.6823572  24.5625520
  22.5444055  82.2583771  33.6916399  21.8264318  81.7383289  33.3306670
  22.8159809  82.8253269  32.9698062  49.8222446   4.3135378  48.7864876
  49.4452143   4.6066648  47.9569340  50.7660913   4.2969841  48.6280251
  64.5320320  14.1928685  29.0425754  64.7454977  14.3298376  28.1195879
  65.3266430  14.4461739  29.5123291  16.3248646  66.1278343  64.5066023
  16.3117540  65.8669186  65.4274654  15.4232585  66.0043335  64.2098093
  28.8166571  79.8612690  53.1408119  28.8682914  79.1201973  52.5371742
  28.4390616  80.5693531  52.6190138   3.5821912  35.0041914  40.6250525
   3.3623827  34.7579432  39.7265673   4.4739407  35.3473544  40.5680037
  54.1038465   3.6028516  19.8945987  54.2157698   2.6525435  19.8697186
  54.9485159   3.9356416  20.1979375  52.5939989  69.3377638  71.7486191
  52.4027395  69.2666960  70.8134174  52.5410604  68.4387255  72.0729113
  34.6754360  53.1546021  34.2693400  34.0387893  53.7329340  33.8492870
  34.9326801  53.6196136  35.0654697  26.1176491  59.3964911  57.8945303
  26.4308238  58.4953880  57.8160095  25.1948500  59.3093777  58.1334591
  64.9062014  20.8474326  56.5617609  65.7298994  20.4080272  56.7731380
  64.4964504  21.0098195  57.4114513  68.3491087  69.3814850  52.4736023
  68.7488747  68.6400366  52.0189953  67.6918173  68.9854860  53.0457783
  13.1926203  76.9680119  65.6037283  13.5788727  76.9072628  66.4774275
  13.6420727  76.2926531  65.0956726   7.2362405  68.9791012  58.9380836
   6.9963133  68.1873465  59.4195318   6.5061444  69.5800924  59.0864038
  51.5743542  42.5703764  34.5501518  51.7537642  43.5063219  34.6398735
  52.2517204  42.2528267  33.9530158  89.8125839   2.4023533  40.9862280
  89.9329662   2.9958296  41.7275286  89.8807049   1.5267488  41.3668966
   7.6753404  78.4823438  74.7148115   8.5377338  78.5734816  74.3095983
   7.1736934  77.9538627  74.0940948  47.2251463  55.0454330  10.0998461
  46.8329573  55.5188847  10.8335078  48.1606531  55.0239229  10.3013301
   6.2188452  68.1250906  32.4469423   6.9110203  68.7368107  32.6977992
   5.4431969  68.4367371  32.9132891  33.0751228  66.1673117  54.4555235
  33.2243156  67.0890665  54.6661091  32.1459556  66.1204147  54.2303944
  68.1528425   9.5378315  36.8909955  67.3841047  10.1035976  36.9630146
  68.8320780  10.1024759  36.5221500   5.3519690  73.5620117  72.1982574
   4.8202106  73.9795399  71.5206671   5.0194639  73.9230680  73.0200291
  78.5201788  50.9867525  46.6471672  78.8476515  50.4653406  45.9142780
  77.5674105  50.9326410  46.5727615  20.0686216  16.1158288  12.0350909
  20.7932973  15.5289888  11.8190002  19.3426049  15.5305159  12.2508276
  80.7031822  49.0054512  31.0801506  80.1640701  49.7016430  30.7047701
  81.6038036  49.2852736  30.9164143  32.4505711  85.5218315   9.4533700
  33.2900500  85.7143307   9.8710430  31.8501997  86.1769295   9.8092288
  45.8091450  57.0359087  49.0027905  45.9864426  57.9671097  48.8699150
  46.4737511  56.7527723  49.6307755  30.1306033  85.7996750  29.4406390
  29.7802138  85.8700466  28.5526609  30.1109242  84.8620701  29.6322846
  90.9875584  72.9899120  74.2610312  90.1679802  72.9901791  73.7665367
  91.3929462  72.1482897  74.0523052   1.4225593  26.1673260  52.3129129
   1.3298008  25.6181955  53.0914259   2.3681067  26.2449813  52.1858644
  18.3220267  45.0435638  41.9369698  17.9654419  44.5160103  42.6516533
  17.6860905  45.7493258  41.8198538  80.6441498   9.2131913  42.8638315
  81.5555096   9.0897328  42.5984716  80.6500530   9.0772468  43.8113117
  89.9786186  77.0065069  28.1862450  89.3283653  76.6986895  27.5548649
  90.7261372  76.4210844  28.0648947  33.3739877  55.4116297  47.6393557
  32.6385808  54.8016453  47.6970243  33.7198377  55.2869558  46.7555714
  20.6187892  60.2400732  51.6255665  20.9505081  60.5159998  50.7711315
  20.3364778  61.0520744  52.0465040  36.1034846  82.0092964  44.8365545
  36.3671112  82.8817463  45.1290798  35.6941867  81.6123962  45.6054354
   0.4213413  80.8855057   7.3280090  -0.1218279  80.1305676   7.1016026
   1.3061891  80.5289936   7.4065739  79.6280909   5.4461944  32.5522399
  80.2140045   6.0323828  32.0733595  78.7812662   5.5462611  32.1173811
  49.8564339  62.7018595  26.7496991  50.3112507  61.9983959  27.2128558
  50.5544615  63.2919979  26.4655733  63.6027431   2.7850902  14.5634890
  63.8990879   3.6267090  14.2169511  64.3839884   2.2321790  14.5503330
  21.5749216  82.3734188  19.2252028  20.7488775  82.1108341  18.8190866
  21.8357158  81.6159153  19.7490466  66.6348219  21.0118818  46.4511013
  67.2668314  20.5820441  47.0273304  67.0872307  21.0837150  45.6106234
  36.4980650  79.0562248  44.7170639  36.2066174  79.7962427  45.2496672
  37.4344826  79.2075491  44.5887804  71.0004139   2.2526419  30.1148605
  71.5411711   1.5132439  29.8371911  70.1083183   1.9058564  30.1266170
  43.9393330  80.0942993  40.8362246  43.1476498  80.5824280  41.0625029
  44.0875864  79.5176458  41.5857029   6.7168891  52.6063061  49.8186255
   6.0270810  53.1578112  50.1877308   6.2469900  51.9105005  49.3589735
  38.5874391  61.2193537  40.1995659  39.1136146  61.8903446  40.6344748
  37.7216792  61.2967587  40.6004381  49.7255898  84.6372700  51.1817884
  50.4284334  84.4094944  51.7903566  49.9623775  84.1955662  50.3662777
  64.5213127  84.6320915  29.6361637  64.3815279  85.4338169  29.1322613
  64.0280151  84.7685146  30.4450369  54.0720415   4.0239990  46.5283918
  54.8497105   4.0256032  47.0864725  54.3507624   3.5746586  45.7304955
  17.8694248  73.6788273  15.4479313  17.8607082  73.7541723  14.4937408
  18.6786997  74.1145658  15.7152128  39.8115873  57.6816511  43.7622499
  39.9017215  56.7343855  43.8661623  40.3585434  57.8927183  43.0056000
  29.0012288  78.9551020  64.9249458  29.2722917  78.1836224  65.4225206
  29.1862249  79.6924353  65.5066299  25.9221888  20.4892802  14.2042899
  26.0458899  21.0267854  14.9866068  26.0549212  21.0943270  13.4745407
  90.2632999   2.4647963  62.2919369  89.8940182   3.3256963  62.4886894
  90.1048565   2.3445185  61.3556337  80.1590287  -0.1048214  62.5303745
  80.5216490   0.0370948  63.4047890  79.2414795   0.1570766  62.6061869
  70.7485485  78.7805223  12.0231068  70.8293867  79.1725206  12.8926098
  69.8071051  78.6559486  11.9031274  70.6652784   5.5219340  16.8057382
  70.0724649   5.0238466  17.3685086  70.1031303   5.8682573  16.1127162
  32.5964308  73.6443567  44.7564220  33.0205631  74.4457960  45.0630808
  32.5778151  73.0740738  45.5249691   7.1026754  39.5425344  23.6296701
   6.3958108  39.6006966  22.9868698   7.7846229  40.1213074  23.2887864
  45.4245424  83.5760403  57.1161413  45.6027031  82.8552914  57.7203083
  45.7520390  83.2670212  56.2714577  62.3812819   2.4423300  34.7925019
  61.4502287   2.5105092  35.0039864  62.4321365   1.7215565  34.1647029
  54.4945860   9.8088604  13.9456058  54.8815536   9.4486892  13.1476295
  55.2356339  10.1792085  14.4251084  51.2999487  86.1937523  29.2598176
  50.5268049  86.4556217  29.7597241  50.9701777  85.5591297  28.6236310
  60.8666468  80.1776028  22.5427198  61.3005447  80.3379917  23.3807158
  61.5232515  80.4072952  21.8851948  55.6146812   2.1936634  71.8378925
  55.0924158   2.2980863  72.6332331  56.2552738   2.9038346  71.8770409
   1.8728115  73.4078026  10.8582771   1.8673678  74.1415167  10.2435672
   1.0232130  73.4562111  11.2965369  50.0102139  63.6710835  42.9856968
  49.5841885  64.5279312  43.0090570  49.5570850  63.1599426  43.6562490
  25.5308318  70.7305002  33.9113832  25.6265616  69.7787809  33.9474440
  25.8659506  71.0370255  34.7539783  67.9806423  20.2213335   2.6991338
  68.7003803  19.6563947   2.9802877  68.4106207  20.9634423   2.2741365
  74.6717596   3.4917688  30.8287883  75.0552464   3.7961602  31.6512918
  74.5895100   4.2825511  30.2957487  25.5420303  82.2978115  55.8336115
  25.4435468  82.5337029  54.9111748  25.4324341  81.3470650  55.8507252
  85.0462341  43.6759281   2.9453844  85.7100964  44.3058729   3.2259047
  84.2581844  43.9281845   3.4265971  52.2846842  84.5520401  74.0388680
  52.5797510  85.1366520  74.7370052  51.5444517  85.0095749  73.6401892
  39.0647221  16.9530261  36.2039208  38.6687255  16.1400688  35.8900428
  38.8888216  17.5885868  35.5101252  68.0044842  62.8184175   7.7133256
  67.6770592  62.3386383   8.4741384  68.9471960  62.6525068   7.7130699
   2.5073847  80.9340477  14.9102557   3.2423967  80.7954311  15.5075622
   2.8023982  81.6319847  14.3253732  62.9877996   0.4495352  47.2927952
  63.2207108  -0.3587908  46.8360758  62.0366859   0.5096366  47.2033644
  91.5071774   0.9092941  36.3295460  90.8419323   1.3301362  36.8741250
  91.4498520  -0.0189908  36.5558910  15.8971274  65.5569696  47.8956223
  15.5606258  64.6612453  47.9217052  15.5243003  65.9297180  47.0966911
  61.2126970  17.3819005  54.7500658  60.6431675  16.6310441  54.9176359
  61.6637135  17.5306118  55.5811501  25.6504215  85.8350173  40.5183077
  24.7689308  85.8186389  40.1455641  26.2025798  85.4374459  39.8450398
  26.6907167  27.5345778   6.3276869  26.8409157  28.3616257   6.7855769
  27.5009227  27.3789549   5.8423203  27.6466489   1.9481103  54.9617720
  27.3514986   2.0052209  54.0530062  27.3678970   1.0789287  55.2499580
  22.0955777  80.8668327  66.1145306  22.9864764  80.8152199  66.4607525
  22.1161771  81.6086102  65.5099154  13.5986924  44.0471029  38.6984062
  13.2609200  44.9103594  38.9369941  14.5360422  44.1857576  38.5628247
  29.2947459  56.0272503  29.7323871  29.8106956  56.5568829  30.3402638
  29.0760303  56.6265106  29.0187478  89.7797108  63.4838343  32.2896314
  90.5130386  64.0865946  32.4127173  89.7655773  62.9574537  33.0889773
   8.1481534  46.5255356   3.1701237   7.7591842  47.1669769   3.7646741
   7.9734677  45.6797028   3.5827768  48.6770201  58.4657097  68.3931780
  49.3288136  58.8089371  69.0044022  47.8381634  58.6124182  68.8302469
  28.2653403  55.8241367  51.9124746  27.9411983  54.9570847  51.6687822
  28.7522507  56.1224365  51.1442518  14.8131418  61.6340494  67.9382706
  14.2478704  61.3559961  68.6589575  15.6047499  61.1050415  68.0369520
  33.4326792  83.0173016  65.6006193  32.8053069  83.3996487  66.2141657
  33.6746073  83.7413216  65.0231314  11.7349124  81.8850040  40.6894207
  11.6008401  82.3951054  41.4882040  12.6675081  81.9821358  40.4969072
  28.0135989  80.7075119  32.9274321  28.4718966  80.3512287  32.1663427
  27.1713781  81.0041714  32.5826311  72.0282269   1.3652964  58.6043692
  71.7905569   0.7990701  57.8701115  72.6739264   1.9710180  58.2404900
  43.4152460  44.6868753  37.1825981  43.3217812  45.5043507  37.6717091
  43.3456039  44.9478960  36.2643099  75.9003305  23.2945800  47.4793911
  76.3435078  24.0500879  47.0933390  76.1753464  22.5537777  46.9391918
  48.3169794   0.8568936  35.7662129  48.8733673   1.4808574  35.3000259
  48.9262009   0.2046035  36.1120415  19.3827927  69.4657898  72.9389334
  19.3943715  70.3825045  73.2141304  19.4745386  68.9702463  73.7527180
  67.7251387  34.0324354  52.1922350  67.0883751  33.8085890  51.5135193
  68.5014534  34.3146968  51.7086029  69.9997139  13.7707710   3.1123155
  69.9907446  13.7299860   2.1560270  69.6006298  14.6157134   3.3197647
  36.3424230  28.9884853   0.7257926  36.6436434  28.1148267   0.4763555
  36.1046362  28.9052606   1.6492447  47.9680300  25.5282879  59.0727997
  47.8024769  25.5790877  58.1313944  47.0966911  25.5126095  59.4687176
  40.6729889  23.6091924   8.5598880  41.4430714  24.1737866   8.6265212
  39.9684262  24.1964388   8.2860929  15.5366278  80.2740288  67.6495171
  14.9688268  79.7054052  68.1696129  16.4230573  80.0542736  67.9361916
  24.5004964  65.8217955  54.2244005  24.3514276  65.3470373  55.0420856
  24.3414831  66.7389393  54.4475365  52.5131464  13.3263612  59.8853874
  52.0139074  12.9152226  60.5910540  53.3780432  12.9192948  59.9352264
  30.6131935  84.3809891  55.5496025  30.6267834  83.5151863  55.9575748
  29.8319292  84.8023224  55.9078407  67.2436810   7.2591543  12.3927379
  66.5029049   6.6531473  12.4081087  66.9522524   7.9795331  11.8338513
  33.6006951  66.9041586  34.2895269  32.6882482  66.6870117  34.0984344
  33.6622667  66.8614674  35.2437901  28.0597663  25.8921838  27.3792624
  27.7144241  25.3184342  28.0632067  28.3153462  25.2974176  26.6741657
  67.9826593  22.0756364  32.3595476  68.2802486  21.5030408  31.6525769
  68.6112833  21.9298553  33.0665183  34.7596025  81.5452194  25.2305055
  34.0377951  80.9454536  25.0420833  35.3275704  81.4852524  24.4623590
  52.6598692   3.1267670  40.1771545  52.7060032   2.6097193  39.3729377
  51.7316294   3.1239158  40.4108143  75.3307056  68.8058329  68.6944485
  75.9344196  68.6004210  69.4082880  74.6469164  68.1392002  68.7597513
  45.5418825  49.5423460  30.5716801  46.3220835  50.0915051  30.4946184
  45.2988100  49.3433285  29.6675014  19.8210216  68.6711931  34.7694778
  20.5149555  68.0247593  34.6398187  20.1715612  69.2698669  35.4289794
  57.9650736  66.8184900   8.5869783  57.6651525  67.2497368   9.3871683
  58.5792160  67.4398184   8.1958073  70.5823612   7.9299796  25.7549739
  70.1673317   8.0417198  26.6102505  71.2339783   8.6298037  25.7116914
  64.9931002  14.5828509  68.6330557  65.8785439  14.9386358  68.7081671
  64.7069120  14.4596326  69.5381260   6.7365867  57.1934700  22.1678448
   7.6587218  57.3194170  22.3915315   6.6917896  57.3701000  21.2281489
  37.4049282  13.5386074  61.3340425  38.0628157  12.9825819  60.9166098
  36.9685745  12.9630554  61.9621897  22.3862505  60.9110689  18.4354043
  23.0583453  60.5330515  19.0025234  22.0339704  61.6454792  18.9381647
  64.8072577   9.7964299  24.1076446  64.0330505   9.2361605  24.0535164
  64.6900463  10.2891290  24.9198890  89.4488621  40.5799580  68.4618282
  88.6933804  41.1638880  68.5289145  89.8833752  40.6518745  69.3116856
  26.0618496  10.7719147  28.7337279  25.1890445  10.9806597  29.0666986
  26.0613632  11.1037505  27.8358889  64.7260904  41.1031103  35.1173377
  64.7673130  41.9731951  35.5141735  63.8210630  40.8215284  35.2510047
   0.3454412  27.8023720  50.6004763   0.7065214  27.2440886  51.2890768
  -0.2334391  27.2248650  50.1028728  24.5285273   8.2631081  37.7866626
  23.8925672   8.2423478  38.5017538  24.0661287   8.6931777  37.0673156
  35.4600787  52.4769783  42.9167652  36.0985160  51.7671061  42.9854250
  35.5161524  52.7621603  42.0047569  89.8283863  46.7594767  18.3671749
  90.5418301  47.2973537  18.7105584  89.0690517  47.3422575  18.3643126
   6.5178275   9.6619385  12.9378033   7.0398259   8.9903343  13.3767772
   5.6107521   9.4225007  13.1278467  31.6725349  51.3170815  69.7707367
  31.4221191  51.6092110  70.6471968  31.2316155  51.9274473  69.1797400
   2.9538229  50.8170986  50.6523180   2.0926277  50.7839966  50.2358103
   2.8269622  51.3734341  51.4208412  78.9388990  49.6017265  56.0293150
  79.1662073  50.4919958  56.2976122  78.0066586  49.6462917  55.8167696
  75.6646776  40.3759766  46.9337177  75.7069349  41.2935400  46.6644144
  74.7744226  40.2650690  47.2674561   7.8529286  25.1430559  57.0993853
   6.9979620  25.1914692  57.5270748   8.1739199  24.2649007  57.3044205
  55.4505205  22.1567249   7.9743230  55.2440119  22.2241306   7.0420986
  54.9866724  21.3719630   8.2662618  86.9380569  49.7178936  37.5667000
  86.3056850  49.0356302  37.3411942  87.6838017  49.2419243  37.9321527
  88.2775879  21.1252046  61.8179464  88.2369995  20.1883388  62.0099592
  88.5174084  21.5303349  62.6513672  25.2637649  52.5239420  73.1169033
  25.6921816  51.7788172  72.6956224  24.3307543  52.3889399  72.9510784
  28.0242586  27.6531863  32.7883792  28.1952858  27.8126049  31.8601727
  28.8883615  27.4904752  33.1666422  85.0634670  12.4479175  27.1189356
  84.1538334  12.1530104  27.1618009  85.0208282  13.3847153  27.3108292
  70.6428909  45.5751276  27.2293329  70.3305292  46.4092636  26.8787909
  70.1221180  45.4378128  28.0206442  55.1465130  47.5392532  18.4002948
  55.8083487  47.9920435  18.9229667  55.4010725  46.6172934  18.4380198
  68.3170462  33.7036753  29.7120523  69.1109419  33.4777451  30.1967359
  68.4028673  34.6404600  29.5351410  87.3612976  37.1969986  19.7481239
  86.9970322  37.0925140  18.8691294  88.0943012  37.8017712  19.6332955
  68.2832432  22.9672337   7.6754177  68.3590794  22.1059132   8.0860382
  68.2953215  22.7863955   6.7355329  73.1419134  52.0224762  23.5917425
  73.5671520  52.3546219  22.8011179  73.5400057  52.5210762  24.3052936
  26.3755941  14.5960999  35.6949997  26.8846369  14.6313167  34.8851442
  25.4927111  14.3571651  35.4127550  70.1806259  72.6722240  38.9535618
  70.8539629  72.8824091  39.6006107  69.6215248  72.0293665  39.3898797
  18.7207174  34.6044016  48.7140942  18.3646679  33.9827776  49.3489504
  18.1789613  34.4866085  47.9337978  34.1489744  16.6781557  17.9893970
  33.9962482  15.7401717  18.1038213  33.3087945  17.0224094  17.6863778
  69.7554541  54.4672728  56.6069078  70.2935839  54.3124104  55.8305931
  68.8888693  54.6782732  56.2594271  22.2833800   8.2736045  39.3842578
  21.4490533   8.7362742  39.4621634  22.0952129   7.3869562  39.6919584
  10.0182271  74.7019672  47.8052044  10.2037668  74.5179701  48.7260485
  10.5300093  75.4869461  47.6099634  26.8601656  46.7436361  34.4486189
  26.5456390  45.9905338  34.9487638  27.7291656  46.4826488  34.1437316
  83.3119106  33.4611344  48.7278128  82.7201653  32.7436399  48.5013771
  82.7577782  34.2415333  48.7155819  38.7648296  25.1231909  53.3283138
  39.2618752  25.5196476  52.6127720  37.8855586  25.4915214  53.2420158
  48.0968189  54.0386009  29.3971443  48.0101919  54.6755934  30.1063442
  47.1985006  53.7682152  29.2070079  13.5316718  24.8409915   3.1907654
  14.4161201  25.1474118   2.9905376  13.1675410  24.5892572   2.3420781
  90.3467083  16.6168547  52.9962397  90.2836037  16.3088763  52.0921373
  89.4377899  16.7196488  53.2782412  14.6334016  23.7450862  34.7749090
  13.9105606  23.9691377  35.3610277  15.3770351  23.5943961  35.3584623
   7.1593678  29.3644285  36.4552522   6.4595979  28.7123656  36.4182496
   7.9443377  28.8890624  36.1830688  60.8960915  23.6390734  52.1669388
  61.5924644  23.7801790  52.8083277  60.4644299  22.8347969  52.4551010
  82.8770447   4.0377793  31.6517162  82.0238781   3.6511880  31.8489218
  83.4239960   3.2943344  31.3980031  80.1404476  15.9255648  22.8661370
  80.2782154  16.6200936  22.2220230  79.7237492  15.2196980  22.3718238
   3.1378213  42.0420837  22.2443748   2.8799736  41.9248104  23.1587005
   3.5403287  41.2086487  22.0002413   8.6782914  70.5570030  26.4978576
   9.4614333  71.0941696  26.3779783   8.1549990  70.7178926  25.7126737
  37.1052766  64.0952826  15.2278566  37.8405499  64.1209888  14.6155310
  36.7342973  64.9770117  15.1938140  19.3300641  36.8659258  54.4220257
  18.4017086  36.6680813  54.2985535  19.6430421  37.1012187  53.5485744
  16.7724741  77.9521227  63.1037951  16.7809355  78.6605453  63.7474585
  16.4254117  78.3555460  62.3081636  81.7776585  22.2979355  35.6591868
  81.5414524  23.1574726  36.0079479  80.9513855  21.8155265  35.6311393
  17.6998663  41.5360117  56.9676352  18.3156323  42.0629358  56.4583063
  18.2525885  40.9206724  57.4493933  12.7963114  42.3577213  36.5667725
  13.0781591  42.9267454  37.2830153  13.6017406  42.1546173  36.0910964
  82.5269222  36.4282727  28.3496404  81.7528152  36.8373084  27.9627514
  82.2933960  36.2947297  29.2682624   2.1104994  41.4888954  60.2425051
   2.8326723  41.8803740  59.7511339   1.4208536  42.1524382  60.2241421
  68.3758020  26.4513373  59.9818277  67.4232674  26.4419866  59.8878860
  68.5693216  27.3021698  60.3753614  12.2348166  31.5156817  27.0195532
  12.3611641  32.2169375  26.3804054  12.7870893  31.7647028  27.7606440
   8.5167789  39.2938709  49.7127008   8.2728916  38.4742856  49.2825508
   8.6585492  39.9090409  48.9931870  81.8301487  43.6436653  56.7758226
  81.1880779  43.5821152  57.4830580  82.0054817  42.7348661  56.5317488
  28.0156708  11.8365037  61.0056067  27.2832847  11.9785070  61.6053391
  28.2902050  12.7171659  60.7500744   5.4492074  19.6959984  36.3757825
   5.5881345  20.6076312  36.6324139   4.8863280  19.3371701  37.0618153
  28.3596611  28.5605597  47.6332283  28.9561033  28.0497074  48.1805086
  28.8853192  29.3023896  47.3338890  88.2196331   3.6882961  65.4138279
  88.9882183   4.1800085  65.7031965  87.7415752   4.2992669  64.8531103
   8.3939773  78.5325480  66.2770796   8.1748474  79.3815184  66.6610909
   9.3174303  78.6093760  66.0371590  82.2375965  70.4418468  16.0893786
  81.3689137  70.0436878  16.0337389  82.5908852  70.3707886  15.2026033
  27.8247237  51.0553932  74.3339539  28.1660318  51.7173243  73.7326336
  27.2898293  51.5493441  74.9553537  80.1058102  73.3689594   1.6193417
  80.4591942  73.6775398   2.4536833  80.2986908  72.4314451   1.6096014
  20.1802564  22.8190970  46.3611698  20.5802131  21.9509029  46.4112377
  20.7369781  23.3045220  45.7523584  29.1467643   9.3108511  13.7291455
  28.2854676   9.6644282  13.9513695  29.2855668   9.5726198  12.8189564
   6.0115290  22.1583176  37.3036122   6.7352742  22.4175334  37.8739047
   5.2453911  22.1506596  37.8773785  89.8602009   7.7170998  18.1106567
  90.3317833   6.8844259  18.0883300  89.5333672   7.8312582  17.2182560
  16.9004798  13.1029284  14.7081566  16.0847652  12.8120744  14.3004251
  16.8412924  12.7911842  15.6112313  65.9835720  30.4917264  16.4250350
  65.2477455  29.8812771  16.4713597  65.6490421  31.2321186  15.9189296
  52.2028971  84.2143250  20.8122897  52.7856922  83.4700680  20.6617785
  51.6507483  83.9418030  21.5451550   8.7303442  36.9435620  30.3559136
   9.6497029  36.8242097  30.5941701   8.2726425  36.2317729  30.8032346
  13.2547367  47.9303980  67.0344400  13.3883369  47.8609514  66.0891581
  12.6883912  47.1898270  67.2513342  15.7464755  47.8829050  29.1927314
  15.4312503  47.3965263  28.4309602  15.8232057  48.7861204  28.8852429
   0.9780748  21.9690442  45.6856108   0.8947470  22.2940993  46.5820646
   0.5301816  22.6243401  45.1506281  10.6346428  30.2699685  12.9380023
  11.5813124  30.3314567  13.0655420  10.3008461  29.9456239  13.7744308
  64.5936775  33.4968448  26.8197370  63.6611128  33.6473274  26.6651177
  65.0359201  34.0939283  26.2162900  16.8600833  32.1078157  38.9219642
  16.1340022  32.1433544  39.5446801  17.5519049  31.6376185  39.3872929
  52.2538805  44.1686058  19.6381700  52.4959898  44.9557352  20.1260638
  51.4395809  44.4035816  19.1932666  31.5160489  43.0227852  39.7604537
  32.4371839  43.2818127  39.7859240  31.2829971  43.0576849  38.8327146
  81.1437416  26.9839454  24.1554594  80.8187103  27.5150704  24.8824358
  80.8735561  27.4609542  23.3707976  11.4519119  70.2749681  18.1575322
  12.0217693  71.0073662  17.9228210  11.9195676  69.8231792  18.8599694
  26.8615389  37.5536299  25.0277185  26.7281413  38.0952477  25.8055925
  26.8401933  38.1729007  24.2981458  42.2258472  50.5373383   9.5643055
  42.5383139  50.3026676  10.4381049  42.3808193  51.4796925   9.4995993
  58.9706564  58.3849239  32.2280264  58.6879063  57.7114391  31.6093993
  59.1952753  57.9010248  33.0227709  10.5385351  49.3261480  41.0105848
   9.6142817  49.1053534  40.8955288  10.9953833  48.4877968  40.9420776
  20.8371830  45.4292154  18.3668947  21.6074586  45.8732510  18.0123019
  20.6786180  44.7047186  17.7617526  70.9181547  43.3832359  35.6060243
  71.7613935  43.6633682  35.9619832  70.8397627  42.4662924  35.8692789
   6.0985255  24.0042233  28.1544971   6.6890812  24.3509150  28.8232875
   5.5021304  23.4306240  28.6356711  36.2081122  36.3486028  25.3928542
  35.8879280  37.2086978  25.1209188  37.1525240  36.3857365  25.2413964
  44.4678259  66.5595341  12.1548498  45.0460529  65.8145761  12.3189294
  43.8632679  66.2495279  11.4805818   1.1681394  33.8944483  51.0872555
   1.6833586  33.2312489  50.6279659   1.2751564  33.6812878  52.0142651
   7.9295212  54.3138695  46.5056705   6.9926560  54.5063829  46.5438032
   8.1970507  54.2434168  47.4220228  21.0000110  60.0135803  33.4839988
  20.7796192  60.1860428  32.5686216  21.9475889  60.1408148  33.5302806
   5.7602501  40.7611609   5.9923226   5.4882163  41.3656378   6.6828579
   4.9932835  40.2085590   5.8419085  30.6257010  54.5695543  32.5977087
  30.3415823  54.6087646  33.5109282  31.5262747  54.8935413  32.6129365
  33.3439016  37.3016763  40.9449816  33.2805920  38.2539725  41.0181665
  32.8452110  37.0883918  40.1562834  13.3323741  53.1546783  21.7071486
  14.2611742  52.9923534  21.5421796  12.9498982  53.2634449  20.8364511
   6.2800550  57.3559141  18.9365220   6.2129271  56.4091301  19.0603101
   7.1002448  57.4773741  18.4582257  22.5763559  24.4077468  41.5454388
  21.9712162  24.9477768  41.0371017  22.8663611  24.9782252  42.2572565
   8.9049828  24.9536610  17.1937728   9.8524386  25.0012422  17.0661211
   8.7346965  24.0306926  17.3818243  16.6364896  19.4007707  35.8815074
  16.5198171  18.8664126  36.6670537  16.0527444  19.0054572  35.2340508
  84.2086887  41.7142773  47.5579500  84.8177242  40.9833241  47.4530220
  83.4774303  41.3473129  48.0547714  16.7993093  18.1513560  20.0705552
  16.6459095  17.2518539  20.3596830  17.6098180  18.1050074  19.5634449
  17.1109211  55.9587574  37.4325180  17.9413700  55.5140591  37.6023102
  16.4977789  55.2520800  37.2302961  18.3468211  41.7070484  39.5942068
  18.1618547  41.7120171  38.6550617  17.4873829  41.6229010  40.0071478
  83.3478546  34.1813254   5.8931744  83.6436081  33.6026096   6.5959156
  82.9479885  34.9235439   6.3464499  74.0172529  33.2643652  28.3047915
  73.0772495  33.1031370  28.3862472  74.2352009  33.8007283  29.0670538
  89.7820377  68.6182833   4.9029624  88.9450455  69.0225554   5.1315200
  90.4390812  69.2626143   5.1663411  84.0433407   4.2416853  49.7496748
  84.9000263   4.4224414  49.3628216  84.2418003   3.8908517  50.6178713
  16.4692438  67.3061991  49.8177910  17.1982300  67.0719242  50.3921795
  16.4063489  66.5769100  49.2010164  18.0730247  39.4809246  34.6182656
  18.2042098  40.4104853  34.4313359  17.4749196  39.4689655  35.3655005
   8.5689205  70.7393885  41.8410635   9.2121154  71.0097408  42.4963808
   8.8289309  71.2027359  41.0448647  38.1572390  52.3842907  48.2197905
  37.8912973  52.3912525  49.1392803  37.9334903  53.2579851  47.8991222
  76.3332272  16.4290965  64.6995211  76.5590096  16.6762733  63.8027763
  77.1770620  16.3310122  65.1406050  24.0973544  64.1373014  71.8558550
  23.1716585  64.2243719  72.0833158  24.5392370  64.7930622  72.3952579
  67.4137306  57.6417351  25.0242996  67.8163576  57.9426432  24.2096972
  68.1283665  57.2234154  25.5044341  80.3424358  85.0585938  65.2780390
  79.8338699  84.2478085  65.2631235  80.0125504  85.5342579  66.0403681
  32.0879865  42.7740002  19.2903924  31.5152264  43.4065008  18.8566685
  31.4923477  42.1092176  19.6361017  39.7631598  15.7840168  39.7642946
  39.4229913  16.0718024  38.9171243  40.7069540  15.9328282  39.7064996
  18.6464810  57.6575136  32.0517564  18.6171138  58.6123657  31.9915462
  19.2473137  57.4815512  32.7758193  82.4177837  47.2996092  58.2789230
  82.7005482  48.2117605  58.2136965  81.4625931  47.3472118  58.3186865
   5.0504631  25.0387025  68.7156439   5.2485311  25.6963420  68.0489254
   5.7731354  25.1051950  69.3397856  38.5241199   9.5257890   9.8607296
  39.1139793   9.1996765   9.1810614  38.9673138  10.2979982  10.2121603
  60.8475351  76.2817764  68.9667273  60.8578873  75.3404856  69.1402054
  61.7539167  76.5596676  69.0989399  89.2516708   4.5193240  42.7343464
  89.0045166   4.6054611  41.8136263  90.0385952   5.0571221  42.8224182
  70.6356955  37.0698595  23.6349082  69.7338820  36.9016457  23.9081621
  70.7645988  38.0044484  23.7966537  49.9304056  20.0983596   5.6138062
  49.6006298  19.9713576   6.5033841  49.4350672  20.8459568   5.2791911
  41.9131708  65.1593781  68.9700222  41.7311192  64.5734406  69.7047091
  41.2712812  65.8636570  69.0606022  50.2132845  70.8053541  52.1060276
  50.6332445  71.6551352  52.2391987  50.3770638  70.3272343  52.9189301
  62.8124332  83.9865398  64.7651052  63.5196209  84.3668365  65.2861500
  62.0120239  84.3386650  65.1544428  42.9956293  40.8336353  14.4866514
  43.6901426  41.4886475  14.4170332  43.3948374  40.1119900  14.9725509
  12.6916957  45.3251028  53.6686563  13.2887590  45.7788849  53.0738211
  11.8265414  45.4447603  53.2769632  64.5878506  46.8701410  40.8516693
  63.8123035  47.3686314  40.5942535  65.0048304  46.6314554  40.0237846
  60.6951714  26.1223483  15.0682890  61.2280178  26.2758446  15.8485126
  59.8258448  25.9123445  15.4094601  31.4048219  58.4245157  39.9404192
  31.7928863  59.2368650  40.2655697  31.2882829  57.8849649  40.7224274
  12.1609151  67.5640440   0.1912448  13.0950260  67.7120543   0.3387628
  11.8981183  66.9715881   0.8956334  51.2687540  79.4558573  55.5954885
  52.0842695  79.0221453  55.3443623  51.1018372  79.1536713  56.4882708
  83.5148621  74.5356703  38.9179397  83.2819653  74.6694040  39.8366904
  83.0509090  75.2297783  38.4497571  20.6314325  27.6179767  15.9701049
  21.1312222  27.6443219  15.1541722  20.9510088  26.8367934  16.4216137
  33.5617352   6.2613612  45.9372425  34.3818188   6.7548013  45.9517622
  33.2875514   6.2794101  45.0203276  41.4583254  80.0712013  56.8264437
  40.7252121  79.5027494  57.0623255  42.1724606  79.7910786  57.3989534
  81.4978790  40.1537180  29.5513701  80.5657959  40.1270485  29.3351746
  81.5502453  39.7820020  30.4318929  78.8820696  39.6163011  58.2380009
  78.5836172  39.3321943  57.3740339  79.6522045  40.1560926  58.0598164
  66.8230486  73.3013773  63.3183432  66.8538237  73.4973335  62.3819208
  66.6418982  72.3624325  63.3607340  33.0905843  37.2728920  21.5977144
  33.2037401  36.9050097  20.7213068  32.7047706  36.5610695  22.1082902
  23.3682919  33.3913040  15.4956794  22.6902199  33.9345813  15.8972991
  23.0001092  32.5077510  15.4984152  32.0161366  81.2906075  71.8518829
  32.2849989  81.8899632  72.5480986  32.3431706  81.6948986  71.0482454
  80.3164577  54.3565989  46.9516087  79.4461823  54.7541761  46.9795132
  80.3315449  53.8708448  46.1269617   9.9651772  22.2425556  53.8560486
   9.1723216  22.7216578  54.0970278  10.6664336  22.8905606  53.9235735
  47.4224329  54.0086317  21.8766236  46.6533279  53.9818573  22.4458265
  47.1114492  54.4259453  21.0732746   8.7115890  41.0085535  47.6847267
   9.3230313  41.2363958  46.9844007   8.5626334  41.8317699  48.1498671
  15.0668478  47.0061445  26.3747978  14.4663846  47.6736116  26.0428810
  15.7691729  46.9715357  25.7253575  45.8222485  44.6059322  18.4319186
  46.3458776  45.4063034  18.3937430  44.9155521  44.9112368  18.4015834
  29.9444127  24.9414611  47.4791241  30.7770395  25.3045321  47.1772242
  29.5003510  25.6779027  47.8994703  24.5360994  17.9148698  16.0414922
  24.2440748  17.0136404  16.1783767  24.2271638  18.1359148  15.1628971
  34.6049094  52.7143621   6.5784109  34.6059656  53.0586338   5.6852657
  33.8468647  52.1307087   6.6092288   2.3841968   7.1283787  54.3138981
   2.7084607   6.5305382  54.9874496   1.8715483   6.5725511  53.7269735
  16.4399433  34.8402858  52.9573488  16.4429700  35.3062391  53.7934780
  16.7495990  35.4859900  52.3222017  25.5947161  16.9726324  49.4490767
  26.4511919  16.6348076  49.7109079  25.6573057  17.9176259  49.5879984
  90.8278656  63.5474062  28.6383247  90.9872818  64.2633629  29.2533207
  91.3884544  62.8361320  28.9482617   9.3308055  54.9196529  30.9864998
   9.4741774  55.5497503  31.6926575  10.0670445  55.0564623  30.3902888
  21.7206430  27.4700475  46.5672398  21.3609815  26.5835285  46.5981770
  21.3975072  27.8876162  47.3656416  51.5089035  54.0117073  19.7868264
  52.1953154  53.7131214  19.1902351  51.8802691  53.8879442  20.6603265
  70.9026098  41.9789648  25.7414985  71.3176441  42.6718712  26.2551689
  70.0507021  42.3400831  25.4963827  83.3044434  24.0872407  47.4637508
  82.8330994  23.4800243  48.0341530  82.9590702  24.9496293  47.6944780
   9.4773716  35.2483249  12.3085797   8.9965332  35.3039813  13.1343699
  10.0017202  34.4516659  12.3899615  29.5207620  52.8873730  11.2302339
  29.5043135  53.1792355  12.1417034  28.6962581  52.4149656  11.1150968
  18.4879375  18.7727761  25.4910779  17.9294193  18.4958935  24.7646999
  18.1577742  19.6387517  25.7304716  88.1656647  35.6934929  55.0630522
  88.9343071  35.3156829  54.6356440  88.3482170  35.6126690  55.9991980
  88.7115669  22.3716283  19.0237701  88.0665684  21.9129515  18.4854162
  88.8359070  23.2127094  18.5840511  14.3273616  23.7620473  29.5054221
  14.1176760  23.7098098  30.4379129  13.5353160  23.4550118  29.0642595
  81.6657639  32.1301842  24.6210456  82.3956680  32.5040412  24.1273785
  81.5336418  32.7368689  25.3495431  68.5720396  56.6980791  51.6034174
  67.9054832  57.1958208  52.0769072  69.0279150  57.3520231  51.0735416
  60.4599047  55.1509619  61.0169458  60.1624632  54.3342352  61.4178467
  61.4148378  55.1086235  61.0673285  51.5401411  69.6042252  20.2106380
  50.8601570  69.8259830  20.8467817  51.5489340  68.6472225  20.1932502
  77.3235750  63.1598330  25.3145480  77.4856520  63.8712931  24.6950436
  77.9835796  62.5005436  25.1001501  33.2515669  55.5634832  33.2440686
  33.7204599  55.9880781  32.5256753  33.0190158  56.2798500  33.8348079
  91.0776838  45.7764196  26.2604976  90.1621874  46.0185432  26.1209512
  91.5298649  46.6108847  26.3847256  34.0739322  43.4610701  40.2035856
  34.7886848  42.9800844  40.6207323  33.9624047  44.2420816  40.7456350
  82.7675915  78.7516689   7.1566373  82.7829838  79.3957090   6.4486790
  82.6800442  77.9086971   6.7117023  90.6167698  43.6972237  21.3514614
  90.4721642  43.1317234  22.1100974  91.4317608  44.1588688  21.5487313
   8.8418049  34.6856952   9.4993097   9.6695781  35.1090217   9.2716742
   8.9462763  34.4331264  10.4166579  18.9017045  38.8573432   1.4348701
  19.6327972  39.0573192   2.0194599  18.8833034  39.5873356   0.8159952
  19.3244219  36.7926860   6.5774059  19.3493617  37.7495122   6.5677315
  20.2384043  36.5282035   6.4729112  23.7775469   3.6001962  39.3648648
  22.9908442   3.1021824  39.1428018  24.4396019   2.9333788  39.5472717
  88.8592052   8.3062130  57.5924301  88.1034660   8.7279123  57.1834660
  89.1299534   7.6375902  56.9632435  56.4201832  53.8201761  37.9259729
  57.1228981  53.4700966  37.3783731  56.2999821  54.7179365  37.6164484
  45.5486488  16.7558324  38.6010575  46.4350319  16.8823993  38.2626200
  45.4452181  15.8056128  38.6522198  76.9870043  41.7207479  72.3072863
  76.3039207  41.1714077  72.6918030  77.6846361  41.7293215  72.9626226
  58.2553482   5.4383886  74.1805267  58.8373089   6.1769116  74.0012550
  58.8437080   4.7227645  74.4212580  21.3786983  45.2826786   9.5995247
  20.8845735  45.0598526   8.8105881  21.9162488  46.0316133   9.3419141
  75.9188366  51.8234110  46.1278152  76.4781761  52.5797892  46.3046217
  75.0270796  52.1668577  46.1830187  70.9528589  27.8488874  25.7050323
  71.0154009  27.8102541  24.7506595  71.8307304  27.6222277  26.0119581
  82.4731255  41.1834812  38.3466887  83.1864357  41.1049271  38.9801288
  81.7245770  41.4798450  38.8644481  11.4649546  80.3593826  59.5427942
  12.0194530  79.8016644  58.9971638  11.8567133  81.2298203  59.4713736
  60.4621029  33.4707808  41.0098696  60.8859825  34.3230939  41.1104631
  60.1118135  33.2734799  41.8785477   2.5678721  48.2761431  21.7588091
   2.1958385  48.4220409  22.6286006   3.1053478  47.4901915  21.8569541
  24.7428060  44.5030308  44.2853117  25.5826855  44.4926548  43.8262606
  24.3467212  43.6563492  44.0791988  55.8697653  27.5832534  69.6013880
  55.4661465  28.4406400  69.4664431  56.8097019  27.7458310  69.5218849
  31.4820457  48.0968475  39.9050522  31.9916010  47.5411224  39.3153429
  31.1531234  47.4971819  40.5747128  28.1896281  86.3861561  51.6106129
  28.8196325  85.8355427  52.0755339  27.8566313  85.8280945  50.9078169
   9.5737636  35.5419540  40.4674101   9.8477471  35.5372214  41.3845491
   8.6418968  35.3249002  40.4946995  43.7017632   0.2051305  27.5957346
  43.8885927   1.0219128  27.1329236  44.5615816  -0.1232935  27.8585768
  58.7770033  13.2890868  44.7936153  58.8509846  13.3105147  43.8395214
  57.9122353  13.6571431  44.9751139  29.3451905  32.0779061  11.5425372
  29.1353202  31.5409350  12.3066366  30.1557350  32.5276732  11.7811990
  11.5921354  49.0325832   8.7612975  11.4379609  48.4689713   9.5194560
  12.0471907  48.4708834   8.1338799   1.0978193  16.5238976  50.3086472
   1.8895921  16.7613232  49.8259926   0.4881587  17.2414744  50.1365137
  44.6070576  14.1996479  72.4140024  44.8551607  13.5959077  71.7138767
  44.0372086  13.6837494  72.9843998  16.7163420  56.2745667  50.1194811
  16.5724909  56.7536545  49.3033838  16.4877331  55.3691673  49.9091864
  41.0859251  82.1865749  68.3452415  40.5772448  81.9789410  69.1290522
  41.9572306  82.4048328  68.6760283   4.1915211  12.7936423  28.8975716
   3.6970738  13.5913646  29.0857005   4.8664010  12.7646172  29.5757484
   6.6617799  16.0403717   4.5670390   6.9657958  15.7841837   5.4377711
   6.8459868  16.9782579   4.5153731  48.8506365  52.4542093  23.3872390
  48.1752205  52.9593754  22.9346371  48.3774757  51.9808674  24.0715623
  48.3426523  30.9082246  15.7960868  47.3938799  30.8250785  15.8917248
  48.5854149  31.6014338  16.4098942  16.4281368  58.6624050  43.8917971
  16.2981212  59.1850233  43.1004715  16.6235769  57.7828932  43.5685444
   8.3825785  43.1524181  21.2933946   8.2750654  42.7489996  20.4320431
   7.5710905  42.9463625  21.7573547  91.2737274  18.9306200  20.2585864
  90.3488541  19.1452765  20.3801513  91.3337612  17.9997206  20.4731894
  89.4665051  11.1409748  10.1146019  89.7177982  10.4826510  10.7624388
  90.0938320  11.0262394   9.4007874  22.2873497  44.2357349   5.3538716
  23.1212401  43.9349651   5.7149810  21.6341305  43.9578485   5.9959900
  71.9448233  65.5254793  11.6669536  72.2510004  65.3226089  10.7830262
  72.4953508  64.9914026  12.2395909  23.2193446  39.0530610  33.1951118
  22.4939179  39.0474391  32.5706482  24.0052652  39.0230751  32.6495266
  14.9198675  34.1735840  19.9086642  14.4446933  34.9686313  19.6671236
  14.4173980  33.4635425  19.5091677  71.3193464  55.1314211  15.3928053
  72.1638489  55.3149414  15.8043468  71.2588120  55.7646656  14.6775627
  21.7782545  33.5771799  44.9357605  21.6763163  33.1370330  44.0918922
  21.3673306  32.9852366  45.5658197  36.3354635   1.7662744   0.5675419
  36.3898706   2.3413822  -0.1956898  35.9431171   2.3106483   1.2501499
  34.1443992  47.1797228  28.2407761  34.3661618  48.0211163  27.8418851
  34.2233181  46.5476990  27.5262499  19.2653990  60.1503134  40.1576519
  20.1469922  59.7896814  40.0629616  18.7042832  59.3836784  40.2744770
  29.5763469  54.8093653  35.1714921  29.0945101  55.6100988  35.3785944
  28.8967204  54.1488600  35.0370717  89.2270660  24.0437794  15.2261102
  89.0564919  24.6433735  14.4997334  90.0225258  23.5771441  14.9697495
  29.5920801  35.6105280  26.2043595  29.1145897  34.8752952  26.5886354
  29.5673132  35.4457808  25.2617693  90.4636478  28.5371232  45.6577778
  89.7461414  29.1279054  45.8866739  90.1721478  28.1063581  44.8542261
   4.9675092  52.3725653  40.4419041   4.6319032  52.8792524  39.7024012
   4.8906571  52.9630184  41.1913633  65.2432013  53.0882740  33.8589478
  65.7526493  52.5531340  34.4674873  65.8698702  53.3432722  33.1818271
  62.6422548  27.2838068  28.6936164  62.1550465  27.8939342  28.1398964
  63.5338402  27.3044777  28.3459401  88.5121441  21.7045355   7.2614908
  87.8876114  20.9855270   7.1654516  87.9868412  22.4364829   7.5848210
  57.2725487  58.7228632   1.3947645  57.7383137  58.0198765   1.8476453
  57.2011280  59.4210148   2.0456985  13.4742033   9.9439919  25.7681251
  14.3201327   9.9929744  26.2133622  12.8926444   9.5272231  26.4039898
  54.6852112  33.8545132  24.9631119  54.4348907  34.6080542  25.4976654
  55.4740047  34.1395378  24.5018125  32.1974301   2.7595261  54.6807480
  31.3908458   2.8565857  55.1869440  32.2864914   3.5886356  54.2107725
  17.3570871  49.6439409  34.7189832  16.6599846  50.2880192  34.5947242
  16.8968439  48.8268614  34.9107909   8.6052406  25.0241494  23.0960274
   8.2722026  25.9080315  22.9408813   8.2690966  24.5093417  22.3623991
  14.1255903  64.5706367  12.7429068  13.9075935  64.0104246  13.4878051
  13.3387327  64.5614290  12.1979284  40.6802368  31.9841409  12.7550983
  40.8077478  31.0708213  13.0116546  40.6228685  32.4599099  13.5837018
  21.8162298  36.3984966  44.1489935  20.8790350  36.2078309  44.1097116
  22.2148800  35.5803251  44.4454861  15.8862603  11.3270068  16.9633555
  14.9638689  11.2258899  16.7284071  15.9210479  12.1519971  17.4475169
   5.3172851  46.2007904  62.3193932   4.9471211  46.1223984  63.1986380
   4.6966299  45.7384634  61.7561293   6.3623685  38.1979489  20.2933645
   6.4029455  38.1489277  19.3382835   7.2448474  37.9662299  20.5827951
  36.5961146  83.6008644  69.2055035  35.6708860  83.6291218  68.9618158
  36.6143823  83.9065647  70.1123905  89.7429180  30.2251911  50.3073454
  89.8447037  30.6054211  51.1798668  90.3921509  29.5225549  50.2750492
  76.9788551  23.2304311  16.2637782  77.7665377  23.3405256  15.7311726
  77.3014688  23.1965137  17.1643353  22.9056263  28.7898326   4.2081103
  22.6120591  28.7916183   3.2970417  23.8188100  29.0736651   4.1660559
  73.3944035  22.2046041   3.6117917  73.9279652  22.6223063   4.2878586
  72.5585270  22.0260596   4.0426821  86.6905785  50.0605249  51.0985279
  86.4140797  49.5572281  51.8643427  86.2535858  50.9064054  51.1973047
  86.5452099  29.7717333  33.4552169  86.8389988  28.9274764  33.1129408
  86.1281300  29.5596099  34.2902470  15.4270756  80.7475948   2.3890972
  16.2869978  80.9781742   2.0375249  14.9846435  81.5877533   2.5100389
   3.1724310  41.6567802  43.7183094   2.5015023  41.6202211  44.4000340
   3.4161192  40.7426262  43.5728168  69.0892601   0.8472258  38.9386702
  68.7316895   0.1872831  38.3446574  68.8170719   1.6830732  38.5598469
  90.5295563   5.5270219  53.1915092  91.2962532   4.9633583  53.0880976
  90.4606819   5.9929478  52.3582029  45.4571533  23.0966949  72.6718378
  46.1799526  22.9377532  73.2789040  45.8824062  23.2513666  71.8283510
  82.2605515  52.4623585  24.8632812  81.7460823  52.0342731  25.5476022
  83.0867577  52.6881409  25.2906394  38.1506300   8.6472684  16.3160634
  38.7062001   8.1383538  15.7256579  38.7657404   9.1522878  16.8478775
   8.5878623  51.2549543  36.4857531   8.9773893  50.9387875  37.3009467
   8.1231970  50.4963875  36.1323500  63.8438177  65.8920527  63.9128542
  63.0025101  65.5236197  63.6432457  64.0601921  65.4282904  64.7217655
  27.7580142  40.2570057  31.3175726  28.2798576  39.8199129  30.6446218
  27.8867531  39.7256064  32.1032381  90.1502895  62.4786425   0.3901240
  89.2940617  62.7219439   0.0381139  90.6617355  63.2870340   0.3561129
  14.5402932  60.7853317   7.5439471  13.6293745  60.5179882   7.6663619
  14.9210870  60.0961733   6.9996238  13.4721982  19.5183253  11.4677584
  12.6320088  19.6283269  11.0225487  13.7123871  20.4016089  11.7476726
  13.2052517  32.4129510  46.3427401  14.1246748  32.6683688  46.4179373
  12.8165364  33.0808902  45.7779503  16.4536452  31.5588045  44.3808699
  16.3025761  30.6747770  44.7153950  16.0589838  31.5555930  43.5088253
   9.7383797  30.1878834  27.3035121   9.1194355  30.7851315  27.7235508
  10.5771065  30.6477261  27.3397565  82.6630306  41.1955404   7.9837805
  83.3870411  40.7942486   8.4644085  82.9491615  42.0954323   7.8270978
  20.8349514  43.4060192  16.3738561  19.9139643  43.2062244  16.2062395
  21.2115169  43.5464764  15.5051196  75.2867985  47.0225096  68.3250856
  76.1753321  47.3749256  68.2746363  74.9443722  47.1079397  67.4353218
  81.8256569  21.1485028  26.1286950  80.9384727  21.1679912  25.7698560
  81.7100334  20.8747315  27.0385909  12.1962214  79.9408245  19.3156087
  11.5538847  79.9061584  18.6067832  11.9869268  80.7458115  19.7893405
  11.9563961  37.9480410  51.5207958  11.0042048  38.0077863  51.5982151
  12.2076976  38.7373590  51.0411549   7.7778840  53.4247255  35.3053498
   8.0625868  52.6673031  35.8167100   6.8620384  53.5507059  35.5535173
   8.0201584  59.6982098  37.4091458   8.3059329  58.9959478  37.9934359
   8.1080317  59.3292189  36.5303063  32.2891212  62.0764017  32.1662164
  32.7810049  62.0129490  32.9849076  32.8888655  61.7409897  31.4998531
  80.8270741  82.4738216  29.2741871  81.3650417  82.7122974  30.0291371
  81.0948563  83.0839443  28.5869622  23.5850096  56.2992287  29.5486021
  22.7624702  55.9337854  29.2228508  23.9098954  55.6444407  30.1666117
  44.9421406  50.0364256   7.1858793  44.2821121  50.7289839   7.2168589
  44.6140432  49.4220781   6.5292531  68.2719660  60.8436441  35.3918028
  68.5533285  61.6637993  35.7972836  67.5790691  60.5178213  35.9662247
  75.8742571  59.5648241   5.1868773  76.7479324  59.9558687   5.1862222
  75.3319979  60.1908684   5.6667262  47.9024982  32.9312062   3.1394193
  47.6039314  32.8411078   2.2344485  48.2792234  33.8101745   3.1809562
  31.0803771  61.2797070  37.4262452  31.7876840  60.6435442  37.5322914
  31.1861539  61.8806410  38.1637573  22.9588199   4.5014182  14.3499839
  23.0744553   5.0365371  15.1351643  22.1086264   4.0787053  14.4712985
  50.3910494  81.2640667  40.3246593  51.2234116  81.2985134  39.8532581
  50.4351234  81.9941139  40.9421682  26.2514830  66.8853521  18.5438585
  26.4534712  67.6231337  17.9684401  26.8000007  67.0262957  19.3155420
  27.0322204  76.6293478  25.1635194  26.7864394  75.8796740  25.7055664
  27.9765296  76.7185783  25.2921557   2.7682465  30.5307364  46.9036865
   3.2835516  30.5159140  46.0971689   3.0492890  29.7506046  47.3818493
  36.4385486  67.5648975  19.2702568  36.9855928  67.8377342  18.5336876
  36.0660338  66.7273521  18.9946067  35.0834441  29.4789553  21.6686249
  35.6426811  29.8734760  22.3378325  34.4473839  30.1616478  21.4551067
  15.7961047  31.1869073  24.9752855  15.9725702  30.5481815  24.2845464
  15.4673433  30.6641269  25.7066178  88.2750034  13.4576178  67.7056789
  87.6201248  12.8091490  67.9642344  87.8406048  13.9814579  67.0325327
  56.3186312   6.7725766  48.9477015  56.1883640   5.9254730  48.5214663
  57.0035124   6.6113466  49.5966864  14.6260619  31.7081189  10.5394709
  15.1690865  31.5328479   9.7709429  13.7524450  31.4075994  10.2890432
  38.8208604  49.9849272  41.3616848  39.2581153  49.2053843  41.0191250
  37.9266787  49.6968317  41.5451765  12.4355650  50.0752878  18.1712437
  12.4855471  50.7588530  17.5030589  11.6119170  49.6226597  17.9896903
  86.0281372  25.2504063  57.6710367  86.8418312  25.7170463  57.8617525
  85.4840660  25.3911400  58.4459019   7.0130193  55.4463291  39.7702289
   6.0727143  55.2732277  39.8159981   7.1744740  56.0788345  40.4703045
  15.9852707  29.3532252  23.2249475  15.5501151  29.4292855  22.3757792
  15.4370129  28.7456775  23.7214661  37.6502919   6.1688960  42.1661282
  37.1774840   5.7189018  42.8662586  38.3892322   6.5880924  42.6071167
   7.5002134  52.6263380  28.2046819   7.6929682  51.7462683  27.8813267
   7.6355422  52.5689554  29.1505289  16.9039214  76.5894651  70.5936623
  17.7314258  76.4052439  71.0381079  17.1439743  76.6899252  69.6725130
  26.9639468  71.4742136  36.3152289  27.6966405  71.8660402  35.8399773
  27.3029423  70.6358719  36.6290736  10.5988669  11.4379942  41.1782503
  11.1466265  10.8114755  40.7053185  11.1838746  11.8227077  41.8309307
  89.6936226  59.7823286  40.0386286  89.6479893  58.9044428  39.6598673
  90.6280136  59.9896955  40.0507212  15.4365349  45.1165247  29.9550724
  14.4967508  45.1388264  30.1354599  15.6642818  46.0251808  29.7583246
   1.7203754  56.3792562  32.6995063   1.7148954  57.0402765  32.0072246
   0.9638640  55.8251143  32.5075412  72.6799488   1.6466634  71.6665983
  72.5015068   1.8161422  70.7415771  72.7111530   2.5152734  72.0675659
  22.1282482  44.7328043   0.9887749  22.1176481  45.6397390   1.2947014
  22.4373698  44.7886324   0.0845849   7.8527766  24.8780942  20.1670861
   7.5706905  24.1685987  19.5897853   7.0939630  25.4590678  20.2209830
  32.0709610  29.0006852  11.3951981  32.6640749  28.2793975  11.6054201
  32.4314880  29.7521687  11.8658614   7.0156938  65.5002213  41.5272951
   6.2344790  64.9543762  41.4379168   6.6986394  66.3945913  41.4015579
  33.8994408  52.9224586  29.7608972  34.2291188  52.0719576  29.4707322
  34.6637368  53.3605576  30.1352668  79.4629383  25.9688330  28.6900544
  79.4657564  26.3288283  27.8031349  78.9208174  25.1824236  28.6276245
  86.2880230  22.1270299  72.7478409  86.4243793  21.9821239  71.8115520
  85.3406239  22.2288179  72.8389740  23.8938594  41.5986872  39.0744305
  23.2169390  42.2750425  39.0509462  23.4085059  40.7736969  39.0667367
  33.2082009  63.6990690  16.4108884  32.8989697  64.3482924  15.7791293
  32.4143457  63.3978510  16.8528092  80.1517582  34.9979830  40.9276199
  79.5943546  34.2241383  40.8457804  80.4088116  35.0115824  41.8495607
  35.6439447  42.0967340  30.3127241  35.5214119  42.5520706  31.1457229
  36.5601540  41.8198347  30.3236318  83.7885189  27.9530311  69.4809008
  84.3557644  28.7228131  69.4371986  83.9933872  27.5522041  70.3256512
  23.3322525  48.0418062  35.6182337  22.3846912  48.0204058  35.7520413
  23.6974144  48.1045198  36.5008187  20.2031660  76.2760544  66.4727879
  21.1217952  76.0374975  66.5970469  20.2250051  77.2080088  66.2555027
   4.5667195  64.2341328  41.3037062   4.3466377  64.1454029  40.3763866
   3.9435831  63.6634493  41.7534351  83.3106422  56.5343952  39.5572972
  83.6457062  57.1233797  40.2333593  83.0027485  55.7669258  40.0394011
  50.0427437  82.2294712  59.2915106  50.9189510  82.2621155  59.6754742
  49.6169996  83.0301571  59.5978975  42.2185707  73.9532232   7.1885329
  42.3710918  73.5489750   8.0426729  42.4490070  73.2721615   6.5566415
  22.7375054  19.8254752  26.1475062  22.7650785  20.1821995  27.0353246
  23.4756660  20.2392197  25.7001090  34.0551448  54.1525698  37.8834581
  33.3468103  54.4178438  37.2968364  34.8531651  54.4439316  37.4424386
  12.7086401  63.4429836  42.9835987  12.1452904  62.6700497  42.9455805
  12.4875045  63.9395189  42.1957016  84.7588921  67.4234819  53.6944532
  85.4125309  67.8007746  53.1056881  84.0433598  67.1556139  53.1178284
  19.4531822  39.2519045  10.6408238  19.3667412  38.5607028   9.9843186
  18.5555911  39.4278717  10.9229553  18.2347429  75.4757261  45.0283051
  18.2499027  74.5220375  44.9478292  19.1365969  75.7121658  45.2450800
  15.7084596  47.1938419  49.4412136  14.9990904  47.1971846  48.7985516
  16.2628615  47.9325485  49.1898489   4.7934780   3.1709689  61.4844656
   3.8540858   3.0739442  61.3283873   5.0321853   2.3984870  61.9968367
  53.0199051  48.9505005  36.6769385  52.7626944  48.1326342  37.1025848
  52.6374578  48.8953257  35.8011985  24.4145608  54.8343611  21.7904496
  25.1032209  55.3984404  21.4386106  24.8111105  53.9637566  21.8224525
  83.9942265  54.7339153  65.8232450  84.2877197  54.3368673  66.6432714
  84.4962311  54.2818451  65.1451111  27.5599289  64.6793222  45.6763363
  26.6209316  64.4987535  45.6326628  27.7780366  64.5903683  46.6041040
  50.6873703   1.3280535  28.1524730  51.0641718   2.1898401  28.3301783
  51.1977339   0.7269804  28.6951280  63.1024933  51.8600941  31.8710756
  63.8487720  51.2641668  31.8064308  63.2738447  52.5310707  31.2102699
  18.9276052  55.5211163  30.1540399  18.7998390  54.6492147  30.5277991
  18.9775395  56.1021280  30.9130955  24.3455577  29.2036176  11.8250525
  23.5233140  29.3379354  12.2963309  24.3430614  28.2734132  11.5993476
  36.9610262  65.2948475  41.7261744  37.3184013  64.4107962  41.8096161
  36.1425662  65.2701092  42.2218943  60.7063580  17.0160997  73.7704229
  60.3845930  17.8416431  74.1326046  60.1028347  16.8172157  73.0545807
  86.9954205  71.4030313  21.4377666  87.0536327  70.5628252  21.8926287
  87.0213413  71.1746550  20.5085707  35.5947781  48.6237526  40.5758095
  35.8024120  47.7066660  40.3967428  35.6476140  49.0524912  39.7216296
  20.4215479   8.7897682  10.0736642  19.8576021   8.2580417  10.6353247
  21.0855198   8.1789398   9.7538805  20.4389977  28.4075904  49.0037918
  20.5489016  27.6695633  49.6033478  20.1045656  29.1156411  49.5542908
  75.5700254  14.9253082  73.8186932  76.1090755  15.7162488  73.8269949
  75.6194544  14.5923567  74.7147608   4.1579676  40.3456259  38.6496878
   3.7351465  41.1995506  38.7406182   3.4463257  39.7496629  38.4159636
  80.0070477  75.8006811  45.5146027  80.6629181  76.4952040  45.4537773
  79.8629761  75.6889296  46.4542770   7.7108455  13.1355643  29.6823907
   7.9049093  12.1982431  29.6833611   8.5542119  13.5549438  29.8529387
  40.3995752  82.0944214  43.9002085  41.2158728  81.7510319  44.2634964
  40.1423883  81.4515018  43.2393456  10.5737221  28.2726669  49.7765207
  10.2166355  27.3853946  49.7382402  10.7478726  28.5003686  48.8632536
   3.0925679  28.4158635  49.8750544   3.2769188  29.1110253  50.5067158
   2.1457899  28.2864952  49.9307966  88.6077785   4.3220958  72.9175282
  89.0431499   3.4719202  72.9798603  88.7165356   4.7110790  73.7853384
  30.8722687   6.2675709   5.9141022  31.6517687   6.1250871   6.4510483
  31.2082505   6.6366100   5.0973046  27.6631927  51.5981674  27.8207111
  27.0970321  51.1515903  27.1912169  27.5384212  51.1168098  28.6386108
  50.7261133  70.4701757  49.3509960  50.2969646  70.4545927  50.2064610
  50.0106478  70.3745985  48.7223387  78.7588930  46.8367958  71.2635374
  79.5464563  46.6989279  70.7372570  78.1114912  46.2410831  70.8864021
  12.1088493  47.5311565  31.5600586  11.6840959  48.3838892  31.6531348
  13.0436337  47.7186251  31.6453004  88.9058399  21.0072446  47.8083467
  88.6699581  21.0841250  46.8838549  88.8225460  21.8969035  48.1515694
  76.6696405  45.1215506  70.7387972  76.3087177  45.4395723  69.9112558
  76.5377092  44.1739464  70.7092142  37.1438146  79.2788744  69.2850161
  36.9854283  80.0419998  69.8407030  37.1442509  78.5375786  69.8905849
  18.5059023  28.5841775  22.7804589  18.3738220  27.8482080  22.1828485
  17.6371205  28.9746475  22.8752303  11.7319643  31.6172433  21.9506955
  10.9883535  31.4319062  22.5242162  12.4010050  30.9854555  22.2142434
   9.4369394  59.3521261  65.4440546  10.1770067  58.7455177  65.4203653
   9.6430564  60.0075579  64.7776031  14.6139419  18.7855089  40.6561995
  14.3374753  18.8840556  41.5672922  14.3294740  19.5943999  40.2307510
  17.7120125  57.6720572  25.5118465  17.9474330  58.1293821  26.3191032
  18.5288572  57.2686291  25.2181792  33.1058884  60.8204699  19.0532649
  32.1685600  60.8492708  18.8613832  33.1525803  60.6890106  20.0002456
   7.1687013  43.4454584  36.2975383   6.7825770  42.6967049  36.7519689
   6.6124016  43.5720539  35.5289435  18.6620307  55.7420588  55.3334045
  19.0055752  56.5859795  55.6266737  19.4406307  55.2265882  55.1229143
   5.5458361  48.0930996  14.0083432   5.2701241  48.0680990  14.9246347
   5.6097716  49.0257883  13.8028276  61.1093664  49.8705101   5.1895303
  61.5001869  49.2184448   4.6078888  60.2148771  49.5602608   5.3304744
   1.1091668  44.5803833  39.2887902   1.4288172  44.0779018  40.0381708
   0.2073247  44.8048067  39.5180202  71.9716501  70.0099564  37.3659825
  72.0298243  69.3042707  36.7218900  71.2334442  70.5431557  37.0710635
  37.4845552  61.8182802  57.5742626  37.3348498  60.9025288  57.3392868
  36.6385198  62.1227026  57.9025698   2.3258290  65.2438927  48.8625956
   3.0760184  65.8382082  48.8780451   2.6698735  64.4151878  49.1959333
  43.5662794  54.3319273  44.3012857  43.6376905  54.4039011  43.3494711
  43.7275267  55.2194977  44.6213675   7.6064235  48.3783054  53.9748859
   8.4224284  47.9934406  54.2946434   7.8550142  48.8318968  53.1694698
   1.4508785  66.3222885  29.4410849   1.7279118  65.4264593  29.6333838
   0.5439160  66.3628435  29.7444105  47.5466442  58.5922241  52.6144552
  47.6959085  59.2508650  53.2927942  47.7274179  59.0491772  51.7930222
  20.5709291  26.6421795  73.8778925  21.0123897  26.9275165  73.0779362
  19.6415937  26.6341376  73.6487579  25.8290029  41.4518023  41.4891005
  26.5443659  41.6482067  40.8841944  25.0433445  41.4623833  40.9424162
   5.8359373  52.2115326  45.3823900   5.6353766  51.4135456  44.8932838
   5.1360726  52.2764730  46.0321617  34.4763827  40.5883169  39.0919685
  34.7598815  39.8251462  38.5885501  33.8738203  40.2336550  39.7457004
  12.7298987  77.0075655  44.1574717  12.1662652  76.2758780  44.4088221
  12.5122750  77.1734428  43.2402182  10.4501605  69.9902821  52.0675373
  11.1619520  69.8185444  51.4510202   9.8662764  70.5868435  51.5991068
  36.4776325   7.6718295  21.7429090  36.0388303   8.4216559  22.1447134
  37.0446563   7.3280030  22.4331999  56.6174412  86.1121655  41.9374704
  55.9624720  86.1010456  42.6354122  56.9995213  85.2346802  41.9535685
   4.9704260  80.9741402  41.4030695   5.4354441  81.6361046  41.9147301
   4.1928962  80.7718277  41.9234037  35.4445934  39.1587782  24.5863986
  35.3017616  40.0938225  24.7331190  35.7063341  39.0977287  23.6677051
  23.5713291  26.8150926  36.2226391  23.7537766  27.3916101  35.4806352
  22.8745580  26.2372971  35.9113598  75.2161837  41.5206480   1.9700545
  74.6133137  41.7187166   2.6866809  75.9042835  42.1816587   2.0463170
  75.6934547  37.7565765  50.3241825  76.2148333  37.8740501  49.5300817
  75.2398252  38.5916591  50.4385900  33.6936617  43.9516163  37.4993539
  33.9606500  43.6924553  38.3812761  33.7708735  43.1508255  36.9807029
  41.6319704  48.2120323  44.8915911  41.4318848  49.0291262  45.3482676
  41.4625406  48.4052944  43.9695406  40.1491404  51.2062836  13.4953332
  40.3976107  50.4048061  13.0347610  39.9100423  51.8182325  12.7992141
  86.8433666  41.1789417  35.3726506  85.9939098  41.5298510  35.6400752
  86.6842461  40.7988691  34.5086718  35.5151296  43.4514046  32.7908802
  34.6391201  43.5903549  33.1507874  36.0943484  43.4807158  33.5523772
  35.1475787  69.8695707  11.6417813  35.2253842  70.6285858  12.2197723
  35.7353997  69.2171955  12.0227027   7.9350096  53.2200909  69.6193838
   8.1320292  53.7375927  70.4001570   8.7441945  52.7417994  69.4385767
  73.0154800  66.4441729  33.6087513  73.5761881  67.2153234  33.5240841
  73.2652760  65.8845186  32.8734827  91.0334873  51.2759399  13.6451924
  90.1520348  51.1436224  13.9941418  91.1253548  52.2265387  13.5806906
  90.0232983  44.2061234  32.2719765  89.1672993  44.1059351  31.8554902
  90.0386333  45.1148558  32.5723147  17.8614223  35.0533152  35.1535106
  18.6982608  35.5179358  35.1456976  17.7738500  34.7327042  36.0511589
  12.6212883  59.3847466  66.9437647  13.0656922  59.7535896  66.1804247
  12.2314787  60.1408958  67.3825359  42.1035242   3.2057735  16.0619509
  42.4043179   4.1063789  16.1830497  41.9286251   2.8903997  16.9486201
  23.9756203  66.4516497   7.2008204  24.8185205  66.3604403   7.6451528
  23.5609317  65.5941534   7.2954953  76.7569685  37.5137973  62.1346807
  76.7340040  38.1310868  61.4034748  77.6561975  37.5604844  62.4593925
  84.9644089  44.8565054  24.6792293  85.4196835  45.5888987  25.0946307
  85.3559875  44.7942019  23.8080144   1.4753142  54.4938707  28.2664728
   1.8830207  55.0767374  27.6259446   0.7273903  54.9897432  28.5995626
   0.9022027  14.7847402  41.2541342   0.0434631  15.1668561  41.0730648
   1.5011711  15.5313778  41.2552595  47.3437643   7.7206302   4.6474713
  46.8283367   7.6119745   5.4466951  47.8893042   8.4886968   4.8168620
  13.7751424  51.2528229  23.6715698  14.6202826  51.5493250  24.0092897
  13.5408390  51.9024277  23.0087376   4.4455853  38.5800695  54.8707199
   5.0596213  38.5247350  54.1385126   3.5825559  38.6102676  54.4578028
  39.6370840  63.1477261  22.5300050  40.5807734  63.3078527  22.5361276
  39.3502665  63.4394073  21.6646194  18.0845177  62.5014257  31.8221211
  17.8635597  62.5237417  32.7532005  18.3808422  63.3899832  31.6249180
  31.5318322  54.9325371  26.8776369  30.5751157  54.9298048  26.9079733
  31.7453980  55.4517698  26.1023831  70.9688044  66.5760231  30.4953408
  71.1171103  67.1959686  29.7812676  71.1209106  65.7167435  30.1019788
  10.7921982  80.7835960  63.2946301  10.9782076  80.2524662  62.5203419
  11.2878227  80.3638172  63.9977455   4.0267766  47.2542238  43.5225439
   3.2862318  46.7566204  43.8692713   3.6546698  47.7705479  42.8075790
  12.2421765  69.0076256  41.7230797  11.5953946  68.4016275  42.0845604
  12.5197995  69.5360088  42.4713850   7.9198837  48.7248421  58.0794048
   7.9556656  47.9682255  58.6646223   7.1485209  48.5697317  57.5342703
  44.7941351  48.2477427  23.0308747  44.8020077  48.4296989  22.0911622
  43.8974571  47.9665565  23.2128882  55.9174585   4.5382699  31.0471487
  55.3672743   5.2738577  31.3162923  55.3179407   3.9426595  30.5976391
   3.5306162  37.7578115  18.0580235   4.1618362  38.3291268  17.6205385
   3.1093568  38.3198953  18.7082815  20.5599284  75.2159071  31.8637848
  19.6685410  74.9551678  31.6321063  20.7114768  76.0193491  31.3660455
  32.5047517  47.8130150  25.3165483  32.8164244  46.9438267  25.5687475
  32.1767259  48.1953192  26.1304736  40.9240532  43.1777811  34.8723698
  40.2176809  43.7354183  34.5463109  41.6699743  43.7694168  34.9713659
  31.8470836  16.0684848  45.6466722  32.6514196  15.6439912  45.9451342
  31.8928981  16.0238659  44.6916103  30.7169604  42.7094889  36.9249201
  30.4182506  41.9243526  37.3837900  31.2959170  42.3796034  36.2377405
  44.6719694   5.1267499  26.1704946  44.7046137   5.3486949  25.2399540
  44.9770451   5.9170771  26.6160727  20.5070782  70.2689171  45.5056858
  20.1805425  69.3742180  45.6011724  20.8310485  70.4998398  46.3762903
   6.3822556  48.1554317  22.5782728   5.5401915  47.7018166  22.6156044
   6.1747503  49.0640116  22.7965879  60.3187704  80.6512070  32.5873351
  60.2835560  81.1350441  31.7621732  60.4869032  81.3206482  33.2505250
  16.8081439  23.6911774  24.0530443  16.4931321  24.0184069  24.8956132
  16.0313213  23.6826110  23.4938455  16.1880064  59.1308928  49.6761322
  15.5216169  59.6306229  49.2045069  16.8825591  58.9908981  49.0325260
   7.7901357  55.8687782   6.8153888   7.5719297  56.0276842   7.7337384
   8.5184836  56.4633608   6.6359198  57.9469967  32.2680998  25.1054072
  58.8640594  31.9943190  25.0888801  57.9585505  33.1644583  24.7697878
  25.1357317  19.5864224  10.0601220  24.4723058  20.1162124  10.5021870
  25.4575586  20.1462626   9.3535537   7.4696326  81.2182617  31.9139528
   6.6964167  81.7692089  32.0357132   8.1687301  81.6812420  32.3756266
  83.8591862  65.2131414  18.4880447  83.1840801  65.3243828  19.1574359
  83.4044266  65.3709412  17.6606846  26.6068506  36.2651753   5.7953709
  27.1899247  36.8181539   5.2753001  26.9780803  36.2886357   6.6773409
  10.8575940  21.0695410   7.7764750  10.1670432  21.7152548   7.9262286
  11.0052311  21.0916567   6.8309879  16.2793660  40.6059551  17.0655763
  16.1069047  39.6702337  16.9610763  17.2292435  40.6856394  16.9783139
  23.2029891  31.6648626  33.6943555  22.9111695  31.1923337  32.9147482
  23.2684016  32.5768709  33.4111667  89.9704266  60.4867220  26.9974709
  89.9496555  60.1028061  26.1208820  90.8274460  60.9093237  27.0536160
  19.7774017  42.2909307   3.1295332  19.5363200  43.1226969   2.7217689
  20.7334638  42.2715807   3.0870536  21.5753889  67.9888582  30.3420019
  21.5967846  67.1791363  30.8520269  22.2578120  67.8735304  29.6807694
  11.3409352  83.2659435  42.9954100  11.4274502  82.4614143  43.5067606
  10.4502058  83.5680485  43.1730747  29.3161035   2.7868244  35.8889580
  28.9874196   1.9236329  35.6377625  30.0985980   2.6031929  36.4087772
  14.1400313  41.5507078  21.8237829  14.5053160  42.4091339  22.0380306
  13.4230149  41.7398119  21.2185073  14.4464445  65.4759407  33.4871125
  14.2722142  65.8456421  32.6215506  14.7265029  66.2237024  34.0149903
  14.3004930  55.0096321  15.2148092  13.9977694  55.6652069  15.8431506
  15.0513458  55.4188681  14.7847188  32.4375010  79.4219828  27.3720288
  31.8909335  79.7832918  26.6742086  31.8250585  78.9487839  27.9352570
  27.0498204   2.8414291  21.4857602  27.9780340   2.8490800  21.7194200
  26.5974188   2.6527533  22.3079300  23.9524555  66.2140846  23.4068942
  24.6859908  65.8177090  22.9367399  23.9049053  65.7280159  24.2301250
  86.9608498  60.6900692  52.2192764  87.7382851  61.0799646  51.8195152
  87.1070480  60.7763958  53.1612968  53.9472342  52.8508663  14.4951403
  53.4490204  53.4863186  13.9811146  53.4980536  52.8212357  15.3398824
  85.4495335  51.6378832  54.4611740  84.7418213  51.0202265  54.2771006
  85.1908016  52.0616150  55.2795506  89.0960312  11.5499318  65.0671721
  89.0458012  12.1445096  65.8156252  89.6186924  10.8123517  65.3818703
  15.9623528  52.7895498  20.7197452  16.4038050  53.4641027  20.2036715
  16.2537158  51.9635773  20.3336000  38.0407619  58.1131697  36.0630941
  38.6453199  58.8482475  36.1650825  38.2228756  57.5474024  36.8134117
   0.2847684  79.3522120  22.8860021  -0.0448023  78.5700035  22.4435520
   1.2008108  79.1510677  23.0774355  33.7687707  51.3074732  16.0448813
  33.8001251  50.3580761  16.1627364  33.7146854  51.4295053  15.0970340
  17.8088212  67.8466415  41.6293764  16.8872201  67.9206133  41.8771935
  18.1558740  68.7329769  41.7303276   6.3335204  28.8079786  64.1026974
   5.4057318  29.0397406  64.1442490   6.7627746  29.4322729  64.6877003
  81.6734695  24.0696216  26.5451956  81.0335064  23.3717561  26.6854405
  82.5182533  23.6616397  26.7352343  18.2006061  61.0533571  46.5323925
  17.9299188  60.1417828  46.6419268  17.6588833  61.3793612  45.8137226
  56.9632196   1.8032022  57.5670624  57.2767830   2.1094723  56.7161179
  56.4699030   1.0073711  57.3682690  19.3207586  65.6259108  50.2614069
  20.0343060  65.7447433  50.8882713  19.5753479  66.1551619  49.5055580
  53.0000257   2.9872721  30.4448986  52.9855919   3.0557692  29.4902635
  52.0775843   2.9361123  30.6953311  51.9828892  80.1626396   1.7512926
  51.2516212  79.7289419   1.3115434  52.7056885  80.1062393   1.1263041
  90.9791374  69.0517855  23.9176846  91.0560226  69.4680452  24.7762012
  91.6052246  69.5216179  23.3667707  25.1873589  23.3945084  21.7542982
  25.0573277  24.0667009  22.4232388  25.7822561  22.7642155  22.1605730
   1.3147919  31.9913292  28.6858606   0.3949649  32.0920849  28.9308071
   1.3998476  31.0677576  28.4491968   2.4229047  61.2034559  10.7014549
   1.9489515  60.6474733  11.3199079   1.8935467  61.9985819  10.6398869
  59.3576956  53.1704426  33.5299039  59.0450430  53.1083727  32.6273370
  59.9975491  52.4631548  33.6109114  12.3875713  43.8285637  55.8416224
  11.9405675  43.0185795  55.5959797  12.4415851  44.3287611  55.0273037
  22.2629595  63.8179922  45.5479288  21.9042635  62.9403496  45.6794977
  21.9663477  64.3147564  46.3104773  63.6222363  83.5340977  33.7163973
  64.1191721  83.1355667  34.4308639  64.2652321  84.0615559  33.2425117
  61.1033249  43.1036997  25.2657676  60.5531883  43.8402939  25.5322456
  60.6679201  42.7474260  24.4913483  41.5123463  72.6210403  17.1546161
  41.6535234  72.6931858  18.0985951  41.0371161  73.4186697  16.9218636
   1.6515016   0.2761047  40.3406572   1.7578602   0.6386535  41.2201309
   0.7049322   0.1835792  40.2325916  54.8074389   1.6473281  28.0245137
  54.5484257   2.2728208  27.3478293  55.6282091   1.9964737  28.3718801
  31.2179756  69.2063856  31.6101122  32.0057559  69.1422939  32.1500444
  31.0829163  70.1468897  31.4941931  67.7821589  14.6785855  40.1291418
  68.0006886  14.5465827  41.0516691  67.3453331  15.5299819  40.1059294
  78.1921196   3.6586088  37.4925280  78.6610460   3.8004246  38.3148575
  77.4016762   3.1823003  37.7466202  23.3409286  60.9522772  67.4291992
  23.7546992  61.6427755  67.9471159  23.8844490  60.8832741  66.6443062
  81.7256260  49.7099447  38.8459492  82.2830486  50.4100227  39.1856551
  80.8987808  49.8121357  39.3172407  71.6390944   8.0394799  18.4676802
  72.5617409   7.9589695  18.7094986  71.4734411   7.2861564  17.9008520
  47.4721861  13.2741499  35.0068069  46.6396856  13.7299836  35.1308632
  48.0041885  13.5385537  35.7573366  29.7032070  78.1302738   9.3238896
  30.1722550  77.3923445   8.9344162  29.1461229  78.4592009   8.6184144
  69.1113912  50.7317328  -0.3260159  68.5482394  50.6574832   0.4444290
  69.9272334  51.1040758   0.0086332  29.8398590  63.8249540  55.0159836
  30.3650928  63.5079336  54.2812300  28.9538503  63.5151005  54.8283434
   7.0924616  32.8190660  72.1029568   7.0987886  32.5238061  71.1924553
   6.6132641  33.6474347  72.0827961  18.4816563  53.9594460  25.4668307
  18.2089102  53.9446354  26.3842297  19.0616965  54.7180843  25.4016256
   6.3593823  63.6987495  48.7761164   5.9505457  62.9280472  48.3822823
   6.5365922  64.2800999  48.0366182  37.3146987  46.5968513  38.8762450
  36.5473843  46.7119551  38.3156967  37.3150921  45.6645823  39.0932703
  63.1435728  11.7735970  41.4711571  62.2336245  11.7144322  41.1800814
  63.2928181  12.7100086  41.6018963  58.5912991  74.1442585  41.9962645
  59.5001411  74.4424963  42.0321751  58.4897375  73.7914658  41.1122656
  16.5466750  78.7584782  30.0791717  16.6187084  78.4217978  29.1860390
  15.9881115  79.5316935  29.9993396  69.1911030  57.1150208  54.4156456
  69.3131876  57.7610397  55.1113367  68.2688904  56.8664742  54.4787407
  66.2643290  53.5095692   6.4504617  66.8694210  53.8982773   5.8187932
  65.4697323  53.3363390   5.9456438  16.8114126  80.1839161  27.0791483
  17.1425664  81.0680580  27.2368383  16.2810767  80.2646446  26.2863946
  20.7328868  79.1697741  17.6526630  21.3319874  78.6460066  17.1207082
  20.8621764  78.8489199  18.5451686  86.4442062  39.2772388   7.4681675
  85.8586597  39.8090553   6.9291443  87.1398735  39.0053606   6.8695414
  21.1210561  58.5927200  22.5552273  21.6449261  59.1296625  23.1497717
  21.7456603  58.2821226  21.8997645  38.6396217  77.6299715  41.1587572
  38.8789439  78.5515833  41.0608292  37.6826096  77.6317310  41.1776352
   7.7976125  83.0311108  70.3909492   7.2685128  82.7984142  69.6279716
   8.6827028  82.7452469  70.1648331  18.9660931  52.8892756  31.7249250
  18.7200332  52.2184134  31.0880351  19.7991848  52.5842667  32.0843124
  24.2142153  77.0838022  53.7396002  23.3626223  76.7065573  53.5188961
  24.2060852  77.1512938  54.6943855  86.4915752  67.3760796  28.9822888
  86.2688351  67.8233814  28.1658697  87.2223377  66.8031979  28.7498593
  22.2180128  84.1942120  65.7404137  22.0114756  85.1000881  65.5102825
  22.2846889  83.7425995  64.8990870  11.3317740  73.1624365  21.5703344
  11.4523733  73.1869221  20.6210780  10.6967580  73.8560104  21.7490602
  33.1556320  75.9991312  46.2192774  34.0115809  76.3538361  46.4596319
  32.8606749  75.5340576  47.0021820  82.3987865  44.8210478  59.6676970
  82.5031376  45.7386017  59.4158268  81.4767742  44.6290779  59.4965982
  57.8474045  49.2176247  16.0008740  57.8142262  48.4088612  16.5117919
  58.0666780  48.9318562  15.1140320  46.5403461  81.4998817  58.4494114
  47.0345163  80.6842041  58.5312700  46.7821980  82.0053577  59.2254543
   4.3681264  73.5731363  46.1103868   5.0187892  73.2708263  45.4767609
   4.4676629  74.5250940  46.1202288  32.1202636  69.2253351  64.5954943
  32.0926237  68.2943106  64.8160982  31.3064456  69.5804548  64.9530172
  23.9039898  62.2433758  50.8865070  24.0261674  62.5333691  49.9825096
  24.1365027  61.3149309  50.8737040  32.3551273  68.9700270  17.1210933
  31.8854642  69.8017359  17.0585728  31.7041016  68.3090353  16.8855381
  21.1018491  54.7118711  28.8062239  20.4087734  55.2590704  29.1756177
  20.9306216  53.8383818  29.1582537  11.6048932  49.0823174  64.1818714
  11.3545167  49.7089958  63.5030365  12.1230805  49.5952797  64.8020220
  71.7841148  64.6360254  18.7295103  71.6665888  63.9893579  19.4253874
  71.7949629  65.4781342  19.1844440  28.0265594  12.1837270  47.7636242
  28.4997797  12.0103526  46.9498444  27.2253394  12.6271510  47.4849606
  58.6342621  75.0187016  62.8691006  58.0719805  74.4566202  62.3360586
  58.7142420  75.8269453  62.3625612  83.4502602  49.1654301  23.2802892
  83.5256958  49.1106033  24.2329359  82.7962589  49.8481798  23.1307173
  41.0799599  80.9217930  11.8018520  41.0888052  80.4855633  12.6538241
  41.1632681  80.2099228  11.1673987  21.2340689  80.0576115  27.7089477
  20.3670597  79.9564743  27.3161387  21.8202829  80.1915836  26.9642091
  16.4535618  75.5247784  22.1116543  16.3171184  75.9325075  21.2564516
  15.6317854  75.0688648  22.2934794  11.5643322   5.0904667  40.9115124
  11.4645243   6.0194546  41.1194801  11.6250801   4.6593690  41.7639780
  23.6682916  37.1738505  42.3442507  22.8664899  36.9326591  42.8081179
  24.3369746  37.2161698  43.0278444   2.6437572  54.4592047  17.8015339
   1.8085271  54.8932743  17.6277339   2.8810975  54.0537977  16.9675398
  42.2513771  85.3086472  42.3169851  41.6777515  85.3160858  41.5507364
  42.6891899  86.1596107  42.2966909   8.1389415  65.3314543  35.0314593
   7.6325595  65.2943993  34.2200208   8.9069295  64.7865725  34.8596120
  35.0927496  76.9631815  29.3522024  34.4419551  77.4343872  29.8724556
  35.1020622  76.0805845  29.7225714  67.5367022  23.0017614  24.6510077
  66.6657019  23.3096647  24.9015903  67.4360418  22.7097678  23.7450051
   8.8084733  19.4040656  58.1695986   8.9726633  19.7222424  57.2818851
   9.6801698  19.2905867  58.5484123  17.6328291  31.7612828  74.2955343
  17.4010719  31.5852917  75.2074252  18.2936205  31.1016215  74.0847503
  36.9540334  76.8267870  49.7258949  37.5379038  76.0770464  49.8408222
  37.2436547  77.4589586  50.3837013  65.6506824  69.6329212  48.6443853
  65.6701708  70.3951979  49.2229891  66.4164257  69.1185808  48.8999796
  87.7187157  60.4085350  14.9411523  87.7823067  61.0413933  15.6564677
  88.6123085  60.3353500  14.6059465   3.3928600  50.5110836   2.5634217
   4.2551991  50.5322504   2.9783371   3.5160249  50.9683323   1.7315644
   3.7936679  55.7663631  70.7079458   3.6512196  54.8276663  70.5863142
   3.7823433  55.8893156  71.6571522  74.2956877  13.5150230  11.8967617
  75.2459908  13.4192336  11.8336570  73.9639282  12.6171541  11.8967235
   1.4480664   8.4148854  70.6165361   1.7922521   7.5401235  70.4360962
   0.7430506   8.5309619  69.9795818   0.8061237  11.7598939  18.3985877
   0.8179604  10.8797503  18.7746716  -0.1228277  11.9555461  18.2761061
  32.8867292  62.3212671  35.0557089  33.7662530  61.9942617  35.2447462
  32.3010659  61.6776466  35.4544353  36.7017436  54.9569511  74.2428780
  36.4876842  54.0792274  73.9266300  37.6545119  54.9526787  74.3347788
  19.7913277  55.9783411  19.3517840  19.4428957  56.2973309  18.5192752
  20.4329801  56.6392994  19.6118772  78.9304686  35.9051776  66.2419367
  79.1844654  36.0174942  65.3259134  79.7546577  35.9518313  66.7264652
  10.8271110  84.3428040  19.1631246  10.5051589  84.2043304  18.2723916
  10.8586621  83.4658337  19.5454335  46.6835213  65.1219606  29.4580507
  47.1670389  65.1080990  28.6320639  46.9827890  65.9179544  29.8974395
  27.0384240  44.5777178  26.5140772  27.7614498  45.1784897  26.3336754
  26.4425159  44.6909285  25.7735968  15.4686058   7.4120581  49.5803499
  16.3714457   7.7296132  49.5968008  15.1840734   7.5459015  48.6762667
  52.7412891  73.7612677  44.6321964  52.5012112  73.7134600  45.5575657
  52.2263622  73.0704927  44.2151690  19.6325147  62.3650837  28.3126450
  20.0146103  61.7653131  27.6719332  18.7197363  62.4574709  28.0396366
  83.8667107  52.0742321  47.7560234  83.0644512  51.6912746  47.4011374
  83.7309647  53.0193853  47.6889944  66.8025028   0.3650348  45.5485153
  67.0177685  -0.4231675  46.0471392  67.2196804   0.2314346  44.6974277
  85.5531311  30.6095934  47.0534372  84.8158741  30.3759623  46.4894390
  85.4170227  31.5355301  47.2542953  34.1614103  54.8148680  18.8953090
  34.3497777  55.4129744  18.1721091  33.5939574  54.1462946  18.5115886
  20.6812882  62.5159979  70.0595427  21.1472344  62.2012329  69.2849159
  20.6936216  63.4694242  69.9755049  80.2649498  30.4242873   3.4702653
  81.1188412  30.0147581   3.6095133  79.8099422  30.3195024   4.3058592
  19.4986022  71.8170977  74.0435791  19.8492086  72.6945257  73.8905144
  18.8970804  71.9246912  74.7803450  24.0311885  42.5458050  70.3734064
  23.7400317  43.3143663  70.8640909  23.7124276  41.8011427  70.8834076
  22.9821992  38.1634760   8.9192683  22.9721618  39.1158032   9.0152073
  23.4503126  38.0103564   8.0985039   5.2475750  63.1664133  27.0897484
   5.2973032  62.6598549  27.9004002   5.8734876  62.7417135  26.5031552
  43.8854361   0.9279787  56.0271263  44.3801546   0.2501891  55.5665970
  43.2352829   1.2244295  55.3902197  30.7521629  61.9738340  53.1602430
  31.3729930  61.7337608  52.4723721  30.2887011  61.1602879  53.3591795
  38.6437201  58.4532928  40.0353098  37.7444935  58.1304264  40.0934124
  38.5808158  59.3801069  40.2661514  65.5686474  44.4747782  12.1687889
  66.3934326  44.3823338  12.6456690  64.8995781  44.1853380  12.7891123
  74.5350599   1.2384032  32.7782297  74.6978474   1.7597114  33.5643411
  74.8665762   1.7777379  32.0602822  32.5158525  27.4056959  15.4028881
  32.6974654  26.5960073  15.8800161  31.7123795  27.2218347  14.9162078
  73.5956335  25.1153350  16.3920641  73.9940834  25.8520079  16.8555105
  74.1723251  24.9632049  15.6433880  70.6443024  31.1701274   4.2265773
  71.1485052  30.5636215   4.7689408  69.7362375  30.8855271   4.3297869
  22.4558640  74.5817852  37.6750088  23.0883145  73.9347506  37.3626208
  22.7643228  75.4124308  37.3129201  51.6013002  50.1524878  16.4001977
  51.2470770  50.4105282  17.2511816  52.5441933  50.0762510  16.5463877
   5.5787790  61.5548229  38.7153792   5.7680738  61.3785696  37.7937865
   4.9900079  62.3093510  38.6989069  35.1984859  76.1956120  11.8430591
  35.4042053  75.4807234  11.2406921  34.6291518  76.7771006  11.3391125
   5.7109123  69.2461157  53.9548874   6.5849942  69.0116453  53.6430550
   5.6036443  68.7470961  54.7646427   2.7537289  28.2903028  13.9497483
   2.8400296  27.5283241  14.5226121   3.6284757  28.4130025  13.5809731
   6.2821531  74.1594934   3.8676423   5.9094667  73.3805895   4.2807332
   6.1421996  74.8591757   4.5056778  76.2728310  25.6100845   8.9552391
  75.7107973  24.9162769   8.6103082  77.0720482  25.5534744   8.4315187
  25.8753681  68.4828186  35.5526280  24.9730897  68.3173800  35.8260417
  26.3799548  68.4604216  36.3657236  14.5598519  49.1025543   7.6301199
  14.0536439  48.5189581   7.0649636  15.3812838  48.6353588   7.7824646
  80.6205845  40.7133198  15.2177751  79.7457790  41.0781050  15.3515077
  80.5977058  40.3553295  14.3303335  26.9391870  58.6406851   4.8328194
  26.0837221  58.5375786   4.4159514  27.5682712  58.4142923   4.1478145
  87.8934765  59.0949726  29.4101095  87.8500843  58.9010048  28.4737730
  87.3643208  59.8855877  29.5157051  40.5455637  73.3787251  56.3221979
  40.1544476  73.0130577  57.1156359  39.8081231  73.4942150  55.7229662
  36.3071108  51.3255596  23.4262729  35.7574368  50.7598495  23.9685464
  35.8448529  51.3780975  22.5897360  19.2351627  57.4278021  68.0624676
  19.0891731  57.5412273  69.0016460  20.0626731  57.8779316  67.8926325
  90.6979179  58.5396671  36.9685340  91.4668083  58.7037611  36.4225292
  90.3153896  59.4056273  37.1099901  60.2171183   5.6633019  30.5962777
  60.7156038   5.7052332  31.4123559  59.7585869   4.8241395  30.6385493
  27.8355765  62.8717709  30.5413532  28.2570243  63.7286615  30.6073356
  28.2738471  62.4453735  29.8049188  37.8185582  75.5030346   5.2825749
  38.0257344  75.2985954   4.3707010  38.3982134  74.9372053   5.7925463
   9.1189742  73.8562393  23.4416151   8.6236459  74.4214487  24.0344214
   8.9718729  72.9713583  23.7756538  65.5567598  77.2486973  48.2049513
  64.9878454  77.9552603  48.5104609  65.6421995  76.6665554  48.9599657
  44.4088125   7.1095604   3.9775583  44.7942638   7.9821062   3.8980463
  44.5541286   6.8659246   4.8917556  47.0039034  51.8970490   7.1117860
  46.2178087  51.3538933   7.0546246  46.7107725  52.6975727   7.5470650
  64.1331816   4.1693842  41.9755936  63.6458683   3.9858308  42.7787542
  64.8094654   3.4926364  41.9458151  55.0591087  70.8141470   7.9648614
  55.6886196  70.8762741   8.6832523  55.5922842  70.8810806   7.1727288
  70.4393911   4.6302682  23.3951306  70.7039547   3.9988622  22.7261281
  71.1654472   5.2525824  23.4376025  22.4701905  58.8253689  29.4359159
  22.8136849  58.1180000  28.8901424  22.2362781  59.5151043  28.8148046
  19.2609036  73.6201620  52.1155071  18.6730123  73.0520964  52.6134205
  18.9117467  74.5014620  52.2482777  33.5513473  47.4613047  43.3702612
  33.4153891  47.1148682  44.2521524  33.4421849  48.4075117  43.4651709
  34.5372319  79.3895197  50.4799461  35.3851652  79.3556738  50.9227753
  34.5355296  80.2344036  50.0300598  30.2410460  68.1525183  36.6010904
  30.1986694  67.2483587  36.9124269  30.4734540  68.0765247  35.6756496
  86.2344170  84.2210579  34.9778652  85.4811668  83.7564754  34.6131706
  86.6897392  84.5757389  34.2142415  53.8539553  73.9879847  19.6910048
  53.6902237  73.1383562  19.2816722  53.3915949  73.9436960  20.5279589
  87.5589848  81.7848969  34.2666030  88.1757164  81.8403912  33.5366821
  87.0301533  82.5794697  34.1942692  70.4038048   4.1821843  35.1952219
  70.7243061   4.2930055  34.3001080  71.1792660   4.3007973  35.7436943
  41.5626907  62.1999264  29.7802138  42.1841002  61.6240549  30.2256942
  41.9292402  63.0774832  29.8886895  73.8852215  33.1780863  62.0566988
  74.3442106  32.4562001  62.4861670  74.5751286  33.6683226  61.6095686
  81.7608166   8.4871268  14.2895699  81.6518784   7.6169932  14.6732771
  82.0055962   9.0453994  15.0275707  27.3776126  78.7125206  68.2154179
  27.1184444  79.5989990  68.4668446  28.1753325  78.5448122  68.7171602
  34.3802476  44.0286827  19.7165525  33.5146642  43.6625528  19.5350385
  34.4771695  44.7397470  19.0831304  24.8239827  74.2832184  39.5821524
  24.0683365  74.4878960  39.0313888  25.5810094  74.4369507  39.0169001
  33.6121607  41.6044426  35.9402657  33.2635713  40.8735037  36.4506078
  34.4461441  41.2818861  35.5987072  15.8198380  59.7963619  27.5653481
  16.1596000  60.2111197  28.3582973  16.3404906  60.1732063  26.8560243
  20.5758214  52.0633268  25.1192355  20.9917974  51.9848251  25.9777427
  19.8349941  52.6516962  25.2649474  89.6619987   8.5177851  34.1672230
  90.1461029   8.2868350  33.3744168  89.6793079   9.4745976  34.1882372
  22.6164055  48.8760614  33.1885910  23.2384944  48.5164261  33.8209677
  21.8058681  48.9857864  33.6858058  35.8333015   9.1732770  19.1580141
  36.0879111   8.4832597  19.7706163  36.0743690   9.9871916  19.6003497
  35.9146786  58.4646416  34.2243862  35.8500576  57.7119923  33.6365271
  36.7340016  58.3274841  34.6999192  68.1504965  67.7002001  19.0305567
  67.8787279  66.7873669  19.1260064  67.4976158  68.0845594  18.4455419
  48.8601828  72.5443220  46.7458630  48.7354851  71.6197634  46.9600487
  48.4526825  72.6480436  45.8859682  44.5861244  49.4509745  20.6496954
  44.9453735  49.9119663  19.8916328  44.4430542  48.5564995  20.3403807
  59.0308094   2.6050371  10.3447723  59.1147232   3.0572364   9.5053041
  58.4072685   1.8988825  10.1751566  25.7384562  79.1772366   4.5261115
  25.4202604  78.5461617   5.1716524  24.9665475  79.6944094   4.2960685
   9.4500309  32.4001908  11.9002330   9.8042482  31.5793419  12.2422397
   9.7397256  32.4245191  10.9882486  84.4189930  19.4103634  67.3408651
  85.3597450  19.3855155  67.1659565  84.2497349  20.3122854  67.6131153
  90.6879139  48.5840511  56.5327263  90.0155830  48.0535316  56.9602203
  91.4871025  48.4016085  57.0269299  19.0678990  74.9572086  22.8276849
  19.3160415  74.5050001  22.0213580  18.1568503  75.2149868  22.6870728
  31.0340953  45.9075880  30.2573228  30.7885838  45.0220871  30.5253553
  30.2003431  46.3470030  30.0899792  44.7517300   0.2475089  73.7333059
  45.4469681   0.4219954  74.3676805  44.1735363  -0.3734686  74.1763735
  53.4988213  77.8898478  55.0159788  54.0304470  77.7785397  55.8041525
  54.0880728  77.6651049  54.2959070  20.6066680  68.0884409  52.0668364
  20.3913164  68.3578062  51.1739206  21.4197612  68.5520220  52.2673416
  89.3757153   1.3257736  64.7517729  89.7575855   1.4606091  63.8844633
  88.7644577   2.0543602  64.8602438  31.1380816  73.6473703  67.5296450
  31.7697954  74.0481472  68.1267548  30.3196335  73.6265182  68.0255651
  30.1531243  67.2827387  16.3135672  30.8041358  66.6428900  16.0254478
  29.4279528  66.7536116  16.6458094  31.9282866  74.2438030  23.2527089
  31.4067888  73.7707424  23.9011550  31.4417005  74.1433668  22.4345541
  20.5765510  51.0677195  38.4204125  20.7365274  51.2390137  37.4923515
  21.2929296  51.5128231  38.8730860   2.6429132  31.9115758  15.5473769
   3.4321821  32.1591043  15.0656962   2.1654302  32.7330709  15.6630969
  25.0596619  68.7611532  23.2221007  25.5469847  68.5356426  24.0144968
  24.5549130  67.9736042  23.0190611  21.2977362  49.1867161  65.7070971
  20.7240438  49.9440813  65.8233118  20.9687304  48.7558413  64.9182129
  80.8063126  37.7074456  34.9391055  81.5676880  37.3149419  34.5119286
  81.1052608  38.5750103  35.2114868  66.5055132  18.4798777  42.0603943
  67.2928047  18.6301041  41.5370989  66.2936306  19.3386436  42.4262571
  87.2217655  24.8466063  70.8756399  87.9459858  25.0318313  70.2777767
  86.8810081  24.0008831  70.5843210  45.7274723  34.0190458  10.0758278
  44.9832153  33.8249540  10.6455958  46.0885811  33.1610656   9.8528785
  39.5209002  68.3202457  13.9520800  39.9761224  68.4150839  13.1154144
  39.7053242  67.4213696  14.2245519  19.7227991  69.0849543  18.6257803
  18.9728415  68.6976671  19.0772283  19.3741190  69.3659878  17.7798057
  40.0900412  55.5288172  41.5387821  39.9798107  55.2109528  42.4349070
  40.7026196  56.2600851  41.6176844  68.9750624  79.6933317  26.4111805
  68.6779165  79.8666239  27.3044348  69.8882771  79.4242477  26.5105081
  81.0972691  51.7435837   9.2638481  80.9233665  51.2742996   8.4479058
  80.7863998  51.1535263   9.9504501  30.9021783  70.5101919  58.7504625
  30.9766841  71.4120817  58.4385633  31.4985776  70.4651690  59.4977999
  40.0637579  71.9451284  22.2524118  40.2982283  71.1317492  22.6992631
  39.4581676  71.6734982  21.5626907  37.2936440  68.5629749  45.4169559
  36.6984701  67.8484249  45.1901960  36.7350030  69.3396711  45.4467773
  28.0788612  52.1551037  43.3621645  27.5033545  52.7858877  43.7947607
  27.9948306  51.3570881  43.8840294  33.2383299  84.1871643   6.8336654
  33.3551407  84.4870949   7.7351260  32.3035431  84.3015289   6.6624206
  36.1500978  65.2626991  49.3461990  35.2041507  65.1713848  49.2318487
  36.2956548  66.2076378  49.3923903  37.3531437  69.7591925  41.5428209
  37.0841742  69.8868608  40.6331015  36.5312481  69.6709251  42.0254469
  52.9805946  42.4302530  17.6672721  52.7549982  42.9271460  18.4536767
  53.4500360  41.6631842  17.9950881  23.6945271  63.3301926  40.2101564
  23.2289267  63.0995274  41.0140467  23.9469886  64.2451906  40.3337336
  40.0166750   1.7622352  44.8884153  39.4959354   2.5130022  44.6030903
  39.3697691   1.1139330  45.1667166  89.7698212  68.1111097  27.7132106
  90.3702164  68.8557434  27.7490020  89.6664333  67.8427029  28.6261725
   1.7604357  81.9707870  18.7472284   0.9147738  81.6754818  18.4097672
   1.8996212  82.8222656  18.3326840  40.5944252  64.0049744  40.4416323
  40.7956982  64.8430824  40.0253487  41.3176250  63.8608837  41.0519218
  35.9333467  33.4311414  25.9711051  35.9631729  34.3315768  25.6477499
  36.8291664  33.2487178  26.2547565  17.1593940  64.1833639  50.9141874
  17.9416859  64.7055674  50.7365513  17.2217965  63.4448147  50.3084755
  43.9465570  57.1587324  42.4984741  43.2033873  57.5248766  42.0190287
  44.0066910  56.2537956  42.1923590  32.3083854  55.2328777  39.7590446
  32.4093390  54.6431541  40.5062151  32.9167223  54.8938084  39.1023946
  71.3510180  36.7105651  55.3075790  72.2597265  36.8765497  55.0567245
  70.8372307  37.0064592  54.5561123  55.0600719  85.1786232  31.0388422
  54.4789648  85.9330082  31.1360574  54.7548246  84.7420692  30.2435589
  22.0418382  43.7959623  38.3528876  22.4676657  44.2580318  39.0749669
  21.1131477  43.7933302  38.5847449  13.0684042  64.0141726  54.0304947
  13.8621914  63.6360550  53.6521244  12.7802956  63.3692455  54.6764803
  20.0864315  68.7719154  24.7260118  20.6663418  69.2991066  25.2755618
  20.6067395  68.5772610  23.9465117  70.3738308  82.4996281  63.9077330
  71.1486197  82.1538067  64.3508434  70.0975943  83.2384777  64.4499683
  26.7033219  77.4434328  39.5702362  25.9945035  77.9418373  39.9769354
  27.1387982  77.0058489  40.3017521   9.0268719  71.3074875  17.6058471
   9.9159402  70.9551334  17.6462972   8.8179100  71.5348911  18.5118556
  52.2760248  74.1828299  25.8227181  51.5662050  74.0100765  25.2042174
  52.8039789  74.8592710  25.3985500   9.5110339  57.0220375  21.6562843
   9.9844134  56.4575148  21.0451722   9.7299010  57.9117107  21.3791347
  43.6864948  66.3801193  25.8968997  43.5449600  65.7991648  26.6443563
  43.6146975  67.2620201  26.2620354   7.9017431  71.2078190  46.7929697
   7.3289031  71.1139584  47.5540686   7.7342421  70.4244280  46.2690639
  27.0271444  60.4694510  31.8378234  26.6946077  60.1576328  30.9961462
  27.2589779  61.3845730  31.6795874  73.5493851  54.3926239  72.3387766
  73.2567072  54.0477657  73.1823683  74.3310499  54.9042225  72.5473404
  77.6830912   2.4859990  51.3164759  77.2615290   2.2682835  52.1478081
  77.2140884   1.9633654  50.6659985  13.0938983  79.1854477  50.2315760
  13.8566875  79.0380478  49.6724176  13.4376788  79.1361761  51.1235523
  48.9617920  52.7456808  19.8491359  48.3732557  52.9990339  20.5602407
  49.6756744  53.3819723  19.8908710  45.0852013  36.1404252  73.3131838
  44.2593527  35.6958914  73.5044718  44.8233318  36.9818354  72.9394436
  67.0023346   3.8981491  28.1279397  67.5077868   4.0732008  28.9217329
  66.1307096   3.6629283  28.4460068  42.4259186   6.8204802   2.0434979
  43.2897425   6.6778612   2.4304067  42.0369816   7.5148737   2.5752661
  34.4184375  52.3012638  45.8787966  34.5678186  53.2332754  45.7198238
  35.2778888  51.8971539  45.7593346  24.0815401  58.3611584  43.4939766
  24.2471457  59.1495323  42.9769897  23.5766006  58.6697817  44.2463160
  75.8374166   2.7376392   2.7764732  76.2950516   2.7694947   1.9363615
  76.4216948   2.2403330   3.3487830  59.7863197   4.2332518  24.7098351
  60.5034256   3.7954307  25.1684284  60.1836395   4.5637384  23.9041376
  33.3567739  12.4247265   5.4948360  33.3783841  11.4705002   5.4226083
  32.5393534  12.6788926   5.0665200  46.3893175  52.2669077  36.3294816
  45.7227135  52.8678703  35.9967518  46.9841623  52.1363688  35.5909991
  85.2622128  84.0056801  24.3718863  84.4613457  84.1252613  23.8614511
  85.9696102  84.1096592  23.7354875  71.2107849  63.1384611  14.0941024
  71.8619919  63.0127192  14.7842824  70.5247068  63.6644077  14.5050883
  15.9904492  85.4305649  34.6795774  16.4197457  85.1728725  33.8637757
  16.6290295  85.9918690  35.1193380  57.5746393   4.0840349  71.8620205
  57.5536442   4.5081383  72.7198792  57.4208164   4.7948042  71.2396240
   9.0374523  67.9023695  27.3229218   9.0828693  67.2966385  26.5831542
   8.9850986  68.7690449  26.9199705  56.6530228  17.0156038  63.4516811
  56.7706251  16.2868178  62.8423595  56.9147921  17.7894795  62.9528570
  81.6690731  31.0515976  52.7627802  81.8600655  30.2354574  52.3005390
  82.3476315  31.6586399  52.4673271  76.1137486   7.2175002  45.1990032
  76.4000607   7.9905641  45.6854439  76.2958336   7.4295610  44.2835188
  40.2001572  80.6165600   1.4496954  40.5317783  81.3982105   1.8916164
  40.9864378  80.1482296   1.1692443  75.1220798   2.7873996   7.7108645
  75.2054024   3.5212630   8.3197439  75.4168129   3.1386623   6.8706375
  40.8163357  73.6371994   0.5489122  41.5640831  73.0624914   0.7126782
  40.1800776  73.4005880   1.2237633  31.8143988  49.0953302  13.1390202
  31.8481255  48.4981585  13.8863361  32.3338652  49.8512459  13.4128404
  18.2434094   5.3610408  48.0411291  18.5679138   4.6612400  47.4743795
  18.7203240   6.1405367  47.7562237  39.3450403   1.1690435  35.8922243
  39.0658331   0.6539229  36.6491437  39.6509290   1.9959438  36.2649179
  53.9251184   8.0377972  33.5662723  54.2302942   8.9372373  33.6850405
  53.1705856   7.9617894  34.1503406  61.3232374  77.1719170  39.9283552
  61.4198589  76.9672346  38.9983010  62.1683884  76.9405079  40.3135824
  12.5230956  62.3947668  65.8800745  12.4939513  63.3453894  65.9882641
  13.2998824  62.1218491  66.3682842  27.8075600  69.0419817  72.7900362
  27.8979945  69.7481632  73.4298515  27.5289774  68.2854605  73.3060789
  26.8309951  78.8776445  30.2077341  26.3850427  78.3751440  30.8895350
  26.3556647  78.6657190  29.4043779  35.0215244  69.3263531  42.8764915
  34.6776724  69.5045137  43.7518549  34.4149327  68.6847305  42.5068998
  30.2647662  60.4660988  72.8312683  30.8170938  60.3009748  73.5953999
  30.5674982  59.8369551  72.1764660  79.9562263  50.6181908  51.8720913
  80.9130192  50.5987072  51.8521452  79.7146559  49.9104548  52.4695683
  18.5650611   8.7797713  55.5173826  19.2498159   9.3653911  55.1942825
  18.9270532   7.9012334  55.4017735  47.0872784  74.5243788  12.9085088
  46.2196350  74.3702602  13.2822359  46.9308186  75.1242685  12.1792078
  65.7613754  22.6697874   0.7899227  66.3786221  21.9544435   0.9432886
  66.3083744  23.4544492   0.7534593  13.6290359  58.0493021  20.6861567
  13.5010767  58.6837959  19.9809778  14.2842710  57.4407244  20.3447914
  83.6275673  11.1309016  44.9382210  83.7931824  11.4673722  44.0575457
  83.9490891  11.8182790  45.5216265  49.7368288  60.8432627  18.6821687
  50.5025911  61.1577320  18.2015991  49.7786760  61.2979412  19.5234466
  40.5651522  53.0779123  57.3805380  40.3560543  53.6092377  58.1487846
  40.7136536  53.7151098  56.6818523  69.0319967   3.2347018   0.8418036
  69.6214485   3.4808201   1.5546888  68.9218807   2.2887199   0.9378493
   6.5582353  42.3362780  70.8480120   6.7659581  42.9336023  71.5665436
   6.1891317  42.8993225  70.1675892  44.6227264  13.9358079  42.3066282
  45.0157690  13.2072544  41.8260431  44.6560287  14.6716654  41.6953659
  37.7741790  70.6759501  26.8711925  38.5218978  70.1579380  27.1692109
  37.7027678  70.4782057  25.9373665  69.5848131  58.1996202  39.2360091
  69.4530678  59.1178226  38.9998436  68.9921665  57.7167368  38.6599660
  58.4084558  61.1769295  27.4834919  59.3574095  61.2533188  27.3840570
  58.1613207  61.9350624  28.0130100  90.1103878  33.5631561  71.5822077
  90.0872135  33.1735706  70.7081842  90.8945370  33.1938291  71.9883394
  48.7231112  11.5485609  27.1880603  49.5564556  11.1490202  27.4373269
  48.7618065  11.6075182  26.2334609  73.2887650   3.8164863  53.2969093
  73.9535570   3.5044810  53.9108610  73.7874699   4.2447951  52.6011515
  31.1647773  28.9597249  44.0046406  31.6836739  28.2863998  43.5646296
  31.4588189  28.9318228  44.9151278  13.2625854  36.0447359  65.2623272
  12.5286067  35.7555723  65.8044434  12.8919137  36.7254376  64.7006512
  46.4047766   2.5800514  54.5746374  47.1516943   2.2438630  55.0699425
  46.0572815   3.2884049  55.1165915  46.3075447  58.9164448  30.2901864
  46.2541723  59.6047640  29.6271682  46.8123722  59.3087196  31.0025787
  32.9992008  84.0442181  12.5728238  32.1479416  83.6742020  12.3390031
  32.9559779  84.1637325  13.5215497  43.8221550  52.5308800   6.9034618
  44.3875122  53.0274534   7.4950838  43.0625916  53.0970526   6.7665756
  46.8570852  70.2832794  51.1798286  46.1595345  70.2412081  51.8339586
  47.6482201  70.4706144  51.6850424  91.0862702  36.0171795  17.9876876
  90.7313727  36.1624146  17.1106541  91.7753940  35.3648043  17.8622007
  66.3145351  13.3981156  56.2513447  66.2385559  12.6955581  56.8970013
  66.6215277  12.9611766  55.4569435  30.1961732  77.5582933  57.9742336
  29.3653655  77.2237825  58.3120108  30.8453059  76.9120502  58.2521296
  36.3761091  62.6692533  32.7495980  36.9199252  61.9403505  33.0482650
  36.5684295  62.7442837  31.8149233  65.7018995  20.2417302  38.2336879
  66.6311502  20.3720617  38.0446219  65.5511570  20.7308435  39.0425611
  56.7490530  77.6386166  30.2805495  55.9839916  77.6264811  30.8556700
  57.0082712  78.5594082  30.2461767   7.6982588  47.9245424  61.5482903
   8.4726298  47.5736046  61.9880915   7.4755967  47.2641706  60.8921194
  84.5830250  10.7762253  72.6880407  85.1879787  10.5944514  73.4072208
  83.7761784  11.0579288  73.1191635  30.5604267  57.8573418  31.8542242
  30.9545422  58.6015606  31.3992047  31.1893463  57.6361799  32.5410867
  75.5787134   7.4407989   8.7318015  75.8158112   8.2998663   9.0811116
  74.6894360   7.5555891   8.3967811  68.4985447  34.4620585  17.7276897
  68.9969254  33.8599277  18.2802236  68.6033535  34.1162038  16.8413305
  80.7897568  83.5359955  61.5514374  81.6671467  83.5182476  61.9336700
  80.7924366  84.3047905  60.9811926  61.0158205  76.7699242  11.8780756
  60.4899931  77.2358131  12.5282180  61.8175411  77.2874546  11.8030024
  90.9014017   9.9736935  57.1431541  91.1058328   9.8653531  56.2143373
  90.2483757   9.2979038  57.3250818  28.3985901  78.0365944  37.3241687
  27.6545954  78.3672762  36.8208265  28.0050254  77.6436567  38.1032300
   1.7246462  76.9546366  24.9158740   1.7377271  76.7307997  25.8464432
   2.2670378  77.7406549  24.8509502  12.2841060   9.1595191   1.9803768
  13.2256484   9.2407000   1.8282580  12.2149789   8.6497182   2.7875674
  64.3952274  75.1415157  27.1599126  63.8447285  75.9088945  27.3158240
  65.1646852  75.4867315  26.7071533  34.5505452  50.2982092  72.7438879
  34.4649673  49.4899654  72.2382641  33.6977649  50.7247448  72.6598263
  88.6873341   7.4449033   9.2525542  87.8487682   7.8548133   9.4647151
  89.1753960   7.4579066  10.0758791  51.4617491  25.3129792  17.1044314
  52.2357798  25.1089263  16.5795815  50.9039879  24.5397472  17.0192969
  75.6774426  25.3583956  32.5908732  76.2945318  25.4735661  33.3134866
  76.0622931  25.8515453  31.8663549  77.2896481  49.3679571  12.3077583
  77.3940706  48.9639139  13.1691980  78.1112719  49.1802168  11.8539739
  64.3794584  51.1677074  51.8875265  63.9781761  50.3298092  52.1180391
  64.2181253  51.7275238  52.6470089  43.5013533  43.9059973  31.7432761
  44.2195272  44.5265818  31.6194510  43.6020088  43.2774496  31.0284162
  29.7673988  38.5644412  26.3651991  29.4998050  37.6531053  26.2464905
  29.0092254  38.9859152  26.7698789  83.9306545   3.8724115  38.2409215
  84.3906116   3.5013890  37.4879146  84.0779495   4.8155946  38.1706262
  52.2617435  67.7854776  30.9737873  51.3740921  67.8630304  30.6240797
  52.4246979  66.8428230  31.0066915  77.9359579  16.4129758  24.8043609
  77.8056908  17.3534954  24.9255443  78.6945200  16.3490486  24.2240787
  15.4934764   2.0344239  51.4099789  15.8095849   1.1859502  51.0994959
  15.5375171   1.9718857  52.3641205  73.2906437  57.4560928  19.9643195
  73.6093330  56.5981054  19.6841013  73.3926868  57.4503708  20.9160471
   1.2394555  19.9315441  10.0897396   2.1374959  20.1344752   9.8278725
   0.7050087  20.2047253   9.3441057  18.6875105  68.1324005  66.5057564
  18.0130672  68.0246401  65.8351231  18.2217479  68.0189228  67.3342609
  67.3682117  67.2290802  41.8781137  67.8107738  66.4554262  42.2271442
  68.0219698  67.6462746  41.3170624  57.3747015   1.6907957  25.6876349
  57.8348732   1.3818385  24.9072361  57.1487617   2.5993758  25.4884744
  18.2879376  80.0880241  44.4222879  19.0485275  80.1672459  43.8465595
  18.1460214  80.9742641  44.7549677  11.3831043  54.9979544  40.2481937
  11.0493457  55.5202866  40.9775782  11.0103011  55.4095316  39.4685411
   3.3522451  71.5383863   9.4748318   2.8289312  72.1250916  10.0208616
   3.5871372  72.0669413   8.7121493   8.9871901  63.0374622  23.8433576
   8.9451444  63.4984779  24.6811676   9.5008332  62.2511721  24.0281582
  62.6420689   6.9965547  15.0288188  63.5431528   6.7239338  14.8557353
  62.6838684   7.4366570  15.8778155  48.8589954  73.9762115   7.2689092
  48.1097507  74.2980433   6.7676175  49.4890547  74.6964741   7.2469509
  78.3077335  16.0425150  10.0927854  77.5987291  16.0319912  10.7357764
  78.6682940  16.9274724  10.1482916  21.4928126  72.7015972  50.9134722
  20.6123495  72.8310061  51.2659883  21.4379120  73.0153465  50.0108194
   3.1196275  83.4249592  34.4505548   3.3158720  82.6099491  33.9885092
   3.8619077  83.5497475  35.0418901  30.5226040  67.3914909  33.7760592
  29.5767117  67.2449160  33.7700772  30.7136130  67.7582121  32.9127741
  86.4858150  67.6949120  42.9986238  87.3672581  67.3402882  42.8823185
  86.5319061  68.5769653  42.6297188  86.2531281  73.3394527  15.2514040
  85.4334164  73.2552576  14.7643566  86.5188026  74.2492723  15.1177120
  52.6180935  83.1990147   8.5604733  51.9949818  82.5616741   8.9094234
  53.0276060  83.5828781   9.3358320  35.5644131  64.3805552  27.2198963
  35.8386493  63.6509275  26.6643190  35.1703572  65.0080681  26.6139412
  38.4079719  69.2546320  24.4623947  39.2103314  68.7330246  24.4430065
  38.1927085  69.3972969  23.5406899  32.9969215  83.4272003  24.0450835
  33.3133745  82.5245285  24.0807247  33.5949659  83.8669777  23.4407902
  46.4093971  77.1915436  50.9526205  47.3005581  77.5114107  51.0931635
  45.8565569  77.7991438  51.4439631   4.9564630  10.0904989  58.2377672
   5.1432300   9.7577143  57.3599291   5.2429885  11.0034943  58.2137823
  40.8840942  39.2131400  27.1045971  39.9683261  39.0366673  27.3201394
  41.0209751  40.1232481  27.3676538  57.5342131  80.3362274  74.2814350
  57.0836544  79.8346519  74.9608850  58.3913374  79.9173594  74.2031860
  46.4157391  70.1943159  19.3882918  47.1059656  70.7667875  19.7230971
  46.8297625  69.3339014  19.3211746  70.8428907  78.3830929  35.1435184
  71.4027214  78.9280128  35.6965852  71.4535046  77.8324366  34.6534562
  38.3226991  71.7392683   1.2270391  38.4769249  72.3674822   0.5214981
  37.5462365  71.2531853   0.9494416  61.7773151  13.1762362  29.3436146
  62.5121403  13.5110843  28.8296700  61.7969322  13.6888659  30.1517320
  21.1577559  60.5409193  48.5741806  20.7107234  59.8956680  48.0264187
  21.9496441  60.0938940  48.8730383  78.2593250  30.0305223  21.4265609
  77.4496937  30.1738858  21.9166446  78.9229345  30.5210543  21.9115663
  44.0748644  62.3448133  70.4450655  44.2014027  62.7293873  69.5776987
  43.9488745  61.4109516  70.2769470   4.6945301  11.6564393  10.1237535
   4.3814239  12.5327277   9.8994434   5.6451952  11.7093205  10.0254107
  76.7701721   5.9841710  31.4206576  76.7989826   5.8217984  30.4777694
  76.3947201   6.8609595  31.5013433  48.5811710  72.4914503  64.7018385
  48.0147934  71.8611908  64.2566156  48.5803604  72.2097063  65.6166363
  56.2698078   1.8924730   7.8062749  55.6831598   2.0229229   7.0612514
  55.7045984   1.9780248   8.5740334  81.1727047   2.5297880  38.3393455
  80.7248974   3.2487327  38.7852454  82.0889664   2.8042901  38.3027697
  18.4860241  64.9748898  57.1951056  18.8814485  64.3669319  57.8198147
  18.3322406  65.7724142  57.7015972  40.9746742  74.4451427  22.0197725
  40.1899242  74.8678446  22.3686647  40.7694006  73.5103130  22.0335484
  40.1340628  70.0290585  64.0578556  39.9028444  69.2189264  64.5122290
  39.8492527  70.7253122  64.6497536  23.6182642  68.0617523  61.0099936
  23.6397266  68.3186293  61.9318295  24.5168209  68.1879663  60.7052040
  67.6248598   2.9357633  15.7332289  67.1963406   2.9747954  16.5882611
  67.8808880   3.8401324  15.5521274  42.1091986  60.1884460  64.3737030
  41.6664982  60.8956289  63.9045095  41.9655609  59.4137335  63.8301802
  33.8604021  80.3565788  37.4484038  33.8651419  81.0228920  38.1355953
  34.5778847  79.7672987  37.6812124  85.3687096  19.6638358  36.9013834
  84.6760941  19.1740370  37.3447967  85.6119537  19.1138029  36.1567163
  57.2025537  13.9027882  50.5639791  56.9638872  13.0769014  50.1430511
  58.0917883  14.0798044  50.2571201  44.0278196  54.0782881  67.0775509
  44.8998404  53.7263298  66.8988419  43.7013388  53.5506916  67.8064442
  67.6618385   3.2768321  48.6032963  67.5343275   4.0945619  48.1223679
  68.6107969   3.2047313  48.7058067  37.0934153  60.3366423   0.9788425
  37.2429109  59.8429155   1.7851412  36.8910718  61.2239790   1.2753682
  32.9888892  12.0883417  50.6739855  32.1568513  11.8452120  51.0799837
  33.4596848  12.5634968  51.3586855  35.9083819  67.8703308  24.7251391
  35.3802872  68.6467266  24.9110341  36.8100023  68.1506681  24.8823738
  32.7670884   3.2562494  35.1870394  33.5173464   2.6644450  35.2428508
  32.6655507   3.4266075  34.2506099  11.7609203  51.1303473  47.4147654
  12.1287608  50.6016350  46.7066765  10.8269322  51.1850357  47.2125149
  86.3695526  69.4184494  30.8177066  86.6721058  70.0800085  30.1955891
  86.2007618  68.6441946  30.2807951  45.9332895   1.0623041  37.1828985
  45.7722902   0.1558656  37.4449682  46.8688345   1.0911233  36.9825006
  78.0898094  15.5293989  17.6898301  78.3905602  14.6213067  17.6559305
  77.5098705  15.5613899  18.4506714  82.8731155   6.6152060  50.6584597
  82.1258640   6.9056100  50.1354694  82.8897285   5.6648540  50.5453777
  45.2127314  61.5198660  52.0928431  44.8263645  62.0056820  52.8214979
  44.5273685  60.9089518  51.8221140  13.1848574  84.1540718   6.7738658
  13.6370623  84.1495419   7.6175016  13.4527695  83.3366013   6.3541126
  43.3449888  68.7016773  27.3102927  43.5042381  68.5413933  28.2404423
  43.1360149  69.6344519  27.2603321  79.9199486   4.8461193  10.5563843
  80.7660961   4.7920829  10.1121438  79.3352699   4.3062478  10.0244820
  48.9124298  65.5038357  54.3840075  48.7656307  65.8679247  53.5110140
  49.7004890  64.9685574  54.2908621  31.0838175  73.0706978   9.3980449
  31.4464712  73.0534029  10.2837169  30.4083347  72.3925114   9.4025350
  73.5700512  13.0077493  63.8240290  72.9535055  13.3990669  63.2051849
  74.3920660  12.9473412  63.3373308  83.0902195  27.1352577  13.9456403
  83.3404160  27.5443339  14.7740674  83.5966396  26.3235044  13.9167976
  59.0554810   6.6723943  18.1827986  59.5678043   5.9529561  18.5517991
  58.1602049   6.3355225  18.1477153  23.0870175  68.8669395  68.5611248
  22.4021745  68.2439470  68.3180141  23.0377030  68.9166164  69.5157623
  38.3330727  66.9775438  26.6774893  38.0422974  66.0660124  26.6493607
  38.5998011  67.1159267  27.5863004  80.3671741  11.4228439  48.4714460
  80.8682346  11.3657284  49.2850208  80.7910538  10.7965887  47.8846216
   9.5774788  78.8348198  18.5598540   9.1953135  79.4293070  19.2054248
   9.0686876  78.0286217  18.6459386  45.7386923  63.7506199  41.0956478
  45.0145292  64.1688681  41.5613604  45.3264570  63.0473518  40.5939484
  57.2794867  18.4494209  53.5488939  58.0469513  18.3363748  52.9881382
  56.9778633  17.5581408  53.7246037  89.3402195  38.3025408  47.4026728
  89.9504280  37.7388573  47.8782177  89.2837429  37.9122901  46.5304661
  33.1712437  83.3824730  29.3672371  33.2865739  82.4355793  29.4468212
  33.6650562  83.6187458  28.5820246  84.6078491   8.3012873  32.6889515
  84.1894627   7.5718760  33.1462741  85.5449104   8.1671053  32.8309011
  25.3231931  60.7362556  37.0062518  25.7957935  60.1899242  37.6342678
  25.8323574  60.6679249  36.1985922  53.8171053  61.3032913  60.2110910
  54.3085480  60.5649805  60.5711126  54.3169308  62.0755482  60.4757023
  72.7527809  13.5597777  27.4462318  73.1945944  12.9723847  26.8330431
  73.0683947  13.2878458  28.3080149  70.7384062   1.1224391  35.3806090
  71.0486364   0.9016287  34.5024133  70.4577589   2.0350757  35.3130579
  76.7317581  58.5724449   2.7428290  77.5936842  58.1969070   2.9225180
  76.4449692  58.9273214   3.5842839  62.4900723   1.4939903   4.6902657
  62.7767658   1.0368717   5.4808867  61.5344906   1.4465573   4.7193766
  37.2282100  71.9961023  14.9921131  37.5815368  72.3547077  15.8062363
  37.2908068  72.7171755  14.3657231  55.7574987  84.7230434  26.7900062
  55.0426149  84.7443104  27.4261856  55.8111382  85.6199265  26.4599252
  69.0762377  82.5762749  41.7541456  69.0899849  82.3079681  40.8354187
  68.3259535  83.1670189  41.8199348  16.3711214   3.5241950  49.2159939
  16.9356072   4.2967734  49.1893244  16.3383770   3.2833320  50.1418161
  22.0119190  13.8529503  47.1796322  22.2125340  14.0488434  48.0948448
  21.8069410  14.7037840  46.7919493  70.4469347  14.3037915   7.9693222
  69.9316406  13.9568174   7.2410965  70.0927782  13.8659716   8.7433505
  87.0336151  34.5604515  10.5833614  86.8977261  35.1793718  11.3007891
  86.6693115  35.0003886   9.8152655  56.0195017  71.5703583  13.0967069
  55.7717562  72.1535015  13.8142025  56.9411564  71.7702675  12.9329443
  37.3435712  24.0348220   5.0698954  37.0610762  23.1458592   5.2847660
  38.0147409  24.2369890   5.7217330  56.6547060  72.6558161   3.1099868
  56.4647341  73.5501051   3.3935282  57.6044464  72.5737715   3.1965232
  36.9291234  57.5987959  43.8184214  37.8395152  57.4637032  44.0814161
  36.4911437  56.7772388  44.0407991  71.1679268  73.9889145  50.8011818
  70.4116631  74.4687319  51.1389208  71.6659212  74.6420431  50.3095913
  80.3382015  27.2619724  42.9161787  79.9471760  27.0988011  43.7744904
  81.2190628  27.5818205  43.1111765  42.4704170  80.5716896  47.9641676
  41.7203093  80.4178524  47.3897934  42.2571754  81.3834572  48.4243774
  69.9963665  25.5784106  67.7524471  69.3561983  25.6146407  67.0417404
  70.8421040  25.5084348  67.3096609  73.6607218  49.6516180  68.6776972
  74.1883802  48.8851500  68.9020634  73.9152002  49.8629856  67.7794790
  47.2657537  79.8879290  36.8054748  46.9526577  79.7283936  37.6958418
  48.1505966  79.5230436  36.7937565  29.3556070  70.5916119  52.7614784
  28.7348986  69.8794603  52.6072216  29.2418146  70.8124924  53.6858654
  65.5610371  11.8618357  18.1819379  65.8756924  12.0501268  19.0661156
  65.6342793  10.9110475  18.0990565  36.2184429  57.4721718  41.0382986
  36.2413454  57.4751997  41.9952202  35.8532166  58.3255768  40.8047628
  85.2842712   2.2428524  23.1726360  86.0570717   2.2228388  22.6081800
  84.7212601   2.9124671  22.7842283  79.8443127  31.8620706  -0.1103133
  80.7116318  31.5902758   0.1898850  79.4157648  32.2044611   0.6741265
  26.1561275  44.7710180  41.1175537  26.8324304  44.7185230  40.4422092
  26.4308286  45.4986191  41.6755581  49.6219110  20.7196355  72.8876686
  50.2336884  20.9223318  72.1799421  49.8009109  19.8046076  73.1042671
  46.2826300   7.0995730  14.6636188  46.9211626   7.0542610  13.9519608
  46.5976238   6.4664286  15.3087080  42.1440554   6.8417501  15.7352436
  41.2913132   6.8891215  15.3030264  42.6101732   7.6206297  15.4314101
  21.2344360  79.2938948  30.4695010  20.9037161  79.2308235  29.5734668
  20.8827925  80.1217842  30.7968807  40.2785826  59.2253542  66.6704082
  40.3776217  59.2874336  65.7203722  40.5535936  58.3332872  66.8821049
  18.5627162  25.0170422  69.4857931  18.1762123  25.2884340  70.3183746
  18.1771791  24.1584659  69.3113232  13.6534894  42.8220272  12.0585573
  14.3222046  43.3983469  12.4285698  12.9436398  42.8357029  12.7005529
  78.8010359  15.9054530  37.5165296  78.4049034  15.0544572  37.3291278
  79.6179819  15.9044242  37.0176983  77.5794220  25.8342385  70.6519747
  77.4412966  25.7947946  69.7056150  78.3264732  25.2568269  70.8092594
  50.6476688  82.6438427  22.5557590  50.3982878  81.7712593  22.2513866
  51.3962555  82.4914551  23.1325030  73.0118513  42.9156351  21.6322446
  72.9496479  43.7996006  21.9941401  72.1787071  42.5038290  21.8614197
  10.6165087   4.4392651  51.3504744  11.0108018   5.3079432  51.4289808
  11.3468003   3.8646084  51.1209631   6.5126634  17.6763010  60.0935173
   6.9502532  18.4933543  60.3326273   6.5141815  17.6750124  59.1363192
  77.3309517  56.5554142  57.0611906  77.4712420  55.6095314  57.1042633
  76.7622471  56.6788340  56.3012075   0.2570926   5.6213009  18.2458162
   0.1461898   4.7656384  17.8313589   1.1754668   5.6398028  18.5150337
  68.6260843   0.6567832  29.5357990  68.1270742   1.1171381  28.8610435
  68.1555462  -0.1672736  29.6613336  74.6549654   6.5423203   3.4900826
  74.1840124   7.2009265   2.9795235  75.0676870   5.9807140   2.8339618
  33.9711261  74.5146704  42.6474237  33.8605356  75.4565763  42.7770901
  33.2702160  74.1177845  43.1645679  35.2171087  69.6279478  36.2744427
  34.4766712  69.0352678  36.4037323  34.9815202  70.1403809  35.5010438
  53.2116699  70.4156494  32.3438001  54.0085268  70.6945133  31.8927050
  53.0709982  69.5163679  32.0476031  39.0173411  79.9885511  30.4987407
  38.1490016  79.6237898  30.3279662  39.0807056  80.7413960  29.9109960
  79.4744825   7.0965648  22.5434184  79.5933342   6.5664065  21.7553592
  78.5319424   7.0722848  22.7085233  15.3834307  33.1255722   5.2635181
  16.2003708  33.5663486   5.4970908  15.6547320  32.2519612   4.9816793
  79.4607210  67.7904701  45.4422951  80.1302242  68.0096626  46.0903358
  79.9449921  67.6872873  44.6231079   5.6103051   9.9500930  73.4205532
   5.8274078  10.1726520  72.5152540   4.9305063   9.2803431  73.3461189
  57.9483700  41.8202829   1.6893749  57.1114922  41.4226246   1.9296652
  57.9873419  41.7389584   0.7364320  13.1548929   0.2722137  65.3577805
  12.8178072   0.8856266  64.7048426  13.3129167  -0.5352909  64.8686981
  72.5120163   9.2742735  64.9414253  72.9397106  10.1123309  65.1174021
  72.1391487   9.0141273  65.7837582  18.3524358  16.6329217  27.3937392
  17.4263299  16.4365327  27.5351334  18.3503091  17.3752654  26.7894602
  19.0765178  60.6562710  67.0994186  19.2513764  60.0647306  66.3674784
  18.3309567  60.2626467  67.5526571  89.4529343  10.6133676  46.1437321
  88.9828396  10.9591424  45.3849936  90.3293133  10.9922373  46.0755682
  21.8765020  85.4098701  24.7416258  22.2046638  85.0744343  25.5759025
  22.5044227  86.0880280  24.4925022  79.0532255  11.0977566  35.6293941
  78.3735514  11.0471559  36.3014913  78.5729218  11.2352729  34.8129201
  13.9564443  41.8705225  28.3407259  14.6723950  41.9874430  27.7162457
  14.1135120  41.0087299  28.7265706  86.5384674  12.9128289  21.2832189
  86.1666679  13.6701965  20.8311200  86.0385418  12.8505504  22.0971179
  77.8938675  48.2993269  67.7169657  78.4676313  48.6401129  68.4031820
  77.9712439  47.3481035  67.7905703  80.2051735  27.1947479  19.0670776
  81.0412979  26.7854118  19.2897201  79.8889208  27.5586271  19.8940063
  26.5580916  56.2136841  20.3223300  27.4069095  55.8554983  20.5820322
  26.6175890  57.1459818  20.5309296  17.6812971  73.6475515   5.5747384
  18.4879971  73.1423378   5.6758773  16.9819260  72.9969025   5.6361061
  25.3285956  84.9908733  24.6617866  25.8882284  85.4306316  25.3018260
  24.8585892  85.7018375  24.2260575  91.1014271  36.8967962  67.0539761
  90.2086544  37.0144701  67.3785448  91.0542488  37.1404457  66.1295080
   8.8542312  21.8195939  36.4084411   9.1826904  20.9242964  36.3260245
   8.3573794  21.8180680  37.2265911  68.5927105  12.8690374  18.6231887
  68.9399147  11.9798768  18.5519397  67.9340267  12.8141916  19.3155432
  65.9147596  35.7512689  56.6035891  66.5325737  35.4160333  55.9538555
  65.1870918  35.1296616  56.5852451  53.6591434  78.7071180  39.1961193
  53.9539623  77.9550409  39.7096276  52.7226019  78.5569334  39.0673923
  42.2438431  85.0509071  37.8432655  41.5249252  85.0452423  38.4752131
  42.8634167  84.4033813  38.1795192  81.7241001  31.4877391  48.2789326
  80.8592415  31.8933105  48.3401728  81.6443539  30.6766129  48.7808752
  34.1319942  57.1058083  31.2361407  33.4939194  56.6089725  30.7240391
  34.8281217  57.3151159  30.6133842  55.5501556  84.4224930  38.6432862
  55.1306343  85.1423073  39.1145539  54.9662161  84.2466927  37.9054928
  13.4526455  12.8597093  45.8286810  14.1450119  13.5051465  45.6863022
  12.6507699  13.3786011  45.8917570  58.5515499  84.5448875  10.0755227
  57.8664398  85.1099110  10.4327464  58.3172941  83.6662006  10.3742886
   0.5855955   5.8958173  61.1481571   0.4395021   5.7605761  62.0844221
  -0.1477896   6.4434230  60.8679581   1.1540556  12.5385451  49.5080757
   0.5308973  11.9877315  49.9818993   1.5825665  13.0562878  50.1896572
  71.4587975  28.7021160  13.0826402  70.7776546  28.4345865  12.4656272
  71.0666752  28.5675979  13.9454114  90.5984974  23.7734461  44.5952559
  90.9833241  24.0404701  43.7604904  89.6580124  23.9089990  44.4796896
  28.9206553  77.2095013  34.6039152  28.8868284  77.4298048  35.5348039
  28.0828929  76.7809486  34.4286132  74.9336100   3.4585512  22.2446203
  74.3874741   2.7330142  21.9420218  75.1197386   3.9643538  21.4535761
  35.3440952  82.8676510  12.5381577  34.4694710  83.2565689  12.5367105
  35.3765225  82.3540974  13.3452797  50.1292467   2.9796228  31.0580492
  50.1985550   2.3095259  31.7380476  49.3302155   2.7551869  30.5811739
   0.7526339   5.5922449  10.0358677   1.4028583   6.1186314   9.5707250
   0.4202227   4.9839982   9.3757385  59.4502544  83.8790131  53.2137585
  60.0018311  84.4938564  52.7300501  59.5362473  84.1484261  54.1282272
   3.3099237   7.8806955  41.4170218   3.6290613   8.7572724  41.6314888
   3.8741922   7.2912836  41.9174480  77.3194122   1.3210194  21.3442898
  77.4920511   0.8047949  22.1316528  76.3884020   1.1852106  21.1682105
   9.5740187  23.4974504  43.6963940  10.4796982  23.4245276  43.3952999
   9.0799201  22.9240537  43.1104660  86.8446922  80.3825188  67.9443455
  86.1192417  80.3280830  68.5664225  87.4062538  79.6396255  68.1656742
  78.7303352  12.4713242  46.4937830  79.0584469  12.0612705  47.2940540
  79.4392776  12.3611009  45.8601618  52.3674393  73.1360626  41.2484789
  52.6860619  72.4608707  40.6494617  51.9168568  73.7639952  40.6837559
  29.4021153  19.0660048  31.5434837  29.7350502  19.2598784  30.6672430
  29.1980577  19.9232566  31.9172645  72.0648432   4.4711310  27.0277953
  72.2634745   4.0982246  27.8867006  71.1340714   4.6902344  27.0712495
  13.8108850   3.5929990  33.1559086  14.3387294   3.8625145  32.4042630
  14.0352643   4.2201325  33.8433599  85.7448483  70.5636549  54.2299652
  85.4078197  71.4191866  54.4958687  85.8882523  70.0963783  55.0529575
   5.6161380  41.2097979  42.3273182   5.4919153  40.4706526  42.9226923
   4.8719171  41.7858315  42.5021076  69.6411800  18.0606067  36.7417049
  70.0207186  17.2742856  37.1339822  70.3448153  18.4233582  36.2036180
  11.1627829   0.8559177  24.9788547  10.9519267  -0.0043526  25.3417683
  11.5754092   1.3267417  25.7029390  19.0155351  30.9657645  29.4892001
  18.0968678  31.0644007  29.2390943  19.0388811  30.1574135  30.0013113
  38.6724377  70.5589151  43.9355850  38.1663275  70.3065586  43.1633139
  38.4882522  69.8729753  44.5772982  59.2329216  11.5780795  33.2320166
  59.7839499  10.8040345  33.1160212  59.2011690  11.7096591  34.1795993
  52.3190355  64.4518042  28.9757895  52.7602148  64.8179054  28.2092619
  52.8235865  64.7778702  29.7210050  15.3109872  27.8546548   9.0279567
  16.1790156  28.2545280   9.0814424  15.4515338  26.9423437   9.2812735
  45.0373363   7.9753453  53.7794161  44.9063873   7.0949602  53.4272718
  44.3229818   8.4914440  53.4058189   8.4766287  80.9007645  26.1945987
   8.7660331  80.0191593  25.9595323   8.3334357  81.3376617  25.3550482
  47.0458984  62.5831556  22.5295854  47.9521132  62.6612997  22.8277493
  46.5738153  62.2360325  23.2864690   8.9200759  25.2506232  45.6549883
   8.1912804  24.8142648  46.0962152   9.2718142  24.5877218  45.0607872
   8.2315618  13.8494062  58.0311537   8.4190512  13.5632288  57.1371841
   8.2585567  14.8052192  57.9872942  60.0917482   5.2522713   9.0925258
  59.6555233   5.9842014   9.5286620  60.6377745   4.8588747   9.7732067
  49.5740795  74.1290951  36.9066286  49.1379309  74.8833275  37.3030424
  48.8582706  73.5688591  36.6066623  75.2385569   0.3957400  60.7820797
  74.3024254   0.5915946  60.8211184  75.4653835   0.4936558  59.8573112
  59.5427370  16.3282359  57.6953793  58.9971304  16.0642946  56.9545174
  59.4667292  17.2820687  57.7209902  64.6844673  68.2360554  25.1493502
  65.4436111  68.7976837  24.9928141  63.9959574  68.6041355  24.5955420
  19.5223927   8.3597672  37.0516086  18.8113296   8.6225635  36.4671779
  19.1848397   7.5890744  37.5080323  90.7048321   0.9314112  45.7866669
  91.4039612   0.6838384  46.3917875  90.7206726   0.2527416  45.1118422
  88.4552193  12.7723849  36.4579630  89.1581154  13.2783425  36.8656111
  87.8394222  13.4319949  36.1386776  72.1870613  10.6229913  31.2376690
  73.0083323  10.1761949  31.4428854  71.8641329  10.9314036  32.0843291
  85.8266354   7.9349011  39.0472937  85.7354736   7.0533776  39.4090104
  86.7290497   8.1836993  39.2472339  38.0288196  74.3584633  54.1101170
  37.4098420  75.0606585  54.3101740  37.6338935  73.5748863  54.4925690
  88.9876842  38.7656498  37.1789384  88.4198570  39.5287132  37.2863698
  88.4096432  38.0154800  37.3180628  19.5384455   2.6741058  40.3587484
  18.7036085   2.2347289  40.1968002  19.4270718   3.0929250  41.2122250
  35.9029126  61.5683794  71.8540096  36.4743090  61.4384127  71.0971451
  35.1603365  60.9852982  71.6964340   2.5698194   1.1675100   6.4287060
   2.8767663   0.2960849   6.6789728   1.7577046   1.2860134   6.9213098
   5.1409143   7.4678588  48.1152582   5.6239945   6.6419721  48.1431246
   4.4643712   7.3273742  47.4528456   6.0999477  20.7200480  27.2255445
   5.4788274  21.2288761  26.7044520   5.6290448  19.9149275  27.4406314
  68.1141996  84.0295029  36.5527296  68.1685925  84.0571976  37.5079823
  67.5824690  84.7909260  36.3209319  67.8897667  76.0066175  59.4878483
  67.5504589  76.8891668  59.6368694  68.8303757  76.0812902  59.6488285
  45.3066206  71.7796087  17.1985829  44.8462439  71.1425829  16.6522419
  45.7189989  71.2537336  17.8838813  57.9535103  34.2733312  61.7010069
  57.4164677  34.6693373  61.0147190  58.8257694  34.2046118  61.3128424
  77.6983023  66.4902878  28.7028122  77.0088339  67.0302916  29.0891576
  78.4887600  66.7283440  29.1873145   4.7993574   6.1152124  22.0018840
   4.0419120   6.5819830  22.3549199   5.0948817   5.5586559  22.7223992
  61.7914438  73.6242294  68.0473995  61.8428469  73.1273127  67.2309065
  60.8536768  73.6964607  68.2251883  43.1294107  76.1693621  21.3786507
  43.4491587  76.2200069  22.2794437  42.4459648  75.4996824  21.4043880
  33.8232279  11.9375777  16.5721881  33.8299346  12.4515474  15.7647097
  34.6180415  11.4063203  16.5245593  90.5808830  45.3766155  41.4840937
  89.7412491  44.9486923  41.3163757  90.5689621  45.5682135  42.4218464
  26.0795045  14.7539461  16.9304085  25.2458596  14.9139643  16.4880693
  26.7431760  15.0225198  16.2950838  67.4159193  36.5953088  21.5042496
  66.4792633  36.5099168  21.3264322  67.4641609  37.1864152  22.2555804
  81.9147301  10.6078160  50.6797457  82.7788258  10.1975381  50.7149935
  81.3120651   9.9220455  50.9674120  59.9391127  73.1510448  17.5995421
  60.0431108  73.9518642  18.1134570  59.3957281  72.5841045  18.1468415
   8.9541286  22.7413034  57.7281380   8.4783149  22.1819186  58.3420753
   9.4382173  22.1300364  57.1729422  53.9266586  80.6667709  17.4447310
  53.4636450  81.3277721  17.9594445  54.6707630  80.4152012  17.9917622
   6.5129757  76.9112301  72.4151373   6.9961077  76.1155033  72.6379347
   6.2236011  76.7712021  71.5135336   9.5552951  20.4489732  24.0325689
  10.2543533  19.8329628  23.8132977   9.1848671  20.1106048  24.8477507
  89.3695354  44.0344524  71.1131620  89.4135094  44.7908306  70.5281925
  90.1611137  43.5334063  70.9167147  76.4033270  40.1931715   7.6352888
  75.5086803  40.3978443   7.9072183  76.4736080  40.5542946   6.7516124
  86.0577965  73.8432884  37.6575899  85.9315205  73.1048346  37.0617914
  85.1866341  74.0137720  38.0157065  23.7108660  63.1944609  69.2051220
  24.4748783  63.3370686  69.7638512  22.9666805  63.4632683  69.7437859
  70.2497959  79.7998047   8.4666049  70.2410364  80.3014660   7.6514405
  69.4568157  79.2651367   8.4273332  89.9622726  24.2204237  21.2641144
  90.0838470  23.3064032  21.5210485  89.8496246  24.1892076  20.3140783
  24.0516353  35.8791232  36.7550731  23.2958889  35.9080982  37.3417926
  24.4624805  35.0335693  36.9352841  87.1579266  10.8001506   8.7856370
  86.9749451   9.9477518   9.1808182  87.9640770  11.0930598   9.2105609
   2.2988746  21.9697380  35.4021597   2.6838169  21.9154406  36.2768626
   2.9717082  22.3948240  34.8703432  34.6184707  80.6456947  66.2423897
  33.9310288  80.0969219  65.8648825  34.3358779  81.5421009  66.0612106
  52.1809864  47.1035480  24.3201184  52.7983284  47.8336430  24.3657303
  51.7613602  47.0906162  25.1803374   1.4465497  10.3469110  29.5276690
   1.0613652   9.4767100  29.4246411   1.4976986  10.6932056  28.6367726
  77.7678108  35.0495243   9.8731428  77.3417664  34.7032523   9.0890408
  77.3695183  35.9103632  10.0017834  51.0008049  77.4838305  72.1917057
  51.5929985  77.2664356  71.4717913  51.4959908  78.1000614  72.7314138
   1.4675170  49.5662737  29.0873098   1.7024626  50.4717875  28.8846302
   1.9822453  49.0421820  28.4736228  12.7749085  10.3344440  39.4871855
  13.4510958  10.8559465  39.9196649  13.0999923   9.4353056  39.5330262
  73.8785219  20.5036545  46.8876123  74.5580864  21.0987687  46.5709639
  73.0568171  20.9105873  46.6129541   3.8055483  22.1381521  26.4351654
   2.9017964  22.2535849  26.1416698   3.7807098  22.3372555  27.3710990
  41.2196779  50.6184053  23.2041478  41.3343906  50.3759623  22.2852921
  40.5963087  51.3445234  23.1842422  54.1365242  68.3927679  24.6845865
  53.3852482  68.2839060  24.1015196  54.8838806  68.4961367  24.0955186
   6.3544345   1.6755143  23.3137488   6.4809120   1.0065026  22.6409507
   7.2339714   2.0120309  23.4852242  84.4253731  25.2563596  59.8524046
  84.0430641  26.0753036  60.1676798  84.5205784  24.7182965  60.6383133
  74.1056395  55.1551104  17.5044942  74.1080523  54.2117310  17.3424602
  74.6770811  55.5160141  16.8266749  54.0441275  67.8098679  10.9789801
  53.1066799  67.9976225  11.0256362  54.0922117  66.8649721  10.8337545
   6.3735402  56.9724226  32.6132441   6.9197863  56.4476347  33.1984305
   6.1146909  56.3660526  31.9193101  34.0544105  14.1981173  52.2523785
  33.2621574  14.6906197  52.4668789  34.3491769  14.5690262  51.4206505
  36.3409019  79.7818327  18.0178523  35.7161903  79.5940065  17.3173606
  36.5302968  78.9273167  18.4053588  23.6018348  27.6843166  24.6551228
  24.3552089  27.8699422  25.2156591  23.1958032  28.5387087  24.5088983
  27.2841907  65.7808161  64.2873192  27.6664257  65.9846878  65.1408815
  26.9566822  64.8860836  64.3790913  79.2676544  77.9117346  54.8252487
  78.3303833  77.9428196  54.6334362  79.3297195  77.4053383  55.6351519
  18.5706246  47.6628494  26.6160917  17.8021097  47.4296713  26.0952783
  19.1422498  46.8974733  26.5554643  19.6032393  17.2727847  45.2896500
  20.4530311  16.8494642  45.1676512  19.5588219  17.4546623  46.2283611
  17.8693748  10.7347667  25.5365849  17.6348341  10.9364045  24.6307349
  18.7101746  11.1725366  25.6694198  25.1753259  85.2095795  33.8919711
  26.1129379  85.0908089  33.7402964  25.0187373  84.8106766  34.7478867
  91.3042831  84.9864674  31.4987898  90.5510235  85.5607510  31.6367412
  91.8702221  85.1482391  32.2536230  27.8283215  30.0821543   1.1373413
  27.0506287  30.6391931   1.1037049  28.1943417  30.2342033   2.0086294
   5.2505553  29.4897580  13.2413828   4.8836860  30.3536654  13.4292662
   5.0031096  29.3168497  12.3330295   9.0114391  27.0421147   6.6346377
   9.1850227  27.3253107   7.5323570   9.3814367  26.1606693   6.5857756
  15.3616261   7.2744036  13.5791826  14.9309123   7.8375399  12.9360688
  15.5003428   7.8405076  14.3384683  28.3323836  32.8456402  16.7418540
  27.9890704  32.7363491  15.8550489  29.2833710  32.8282714  16.6343582
  22.0600128  56.9940615   8.8574553  22.5604987  56.2663126   8.4884959
  21.9481754  57.6024961   8.1270236  80.8049679  10.4990721  64.9503756
  81.1888695   9.7163743  65.3456354  81.0224056  11.2056744  65.5583763
  78.2195234  23.8815856  19.9613237  78.7397385  24.4953012  20.4799342
  77.8265190  24.4209886  19.2751551  91.0835934  15.3109193  30.6723666
  90.7915115  14.8151278  31.4372945  91.0105038  16.2273932  30.9387612
  84.9221230  49.7515726  16.5039277  84.1767979  49.1581345  16.4114344
  85.2248096  49.8974466  15.6076372  21.1592126  46.7994499  29.5352316
  22.0405149  46.9426298  29.8802519  20.7049942  46.3216829  30.2292442
   0.1792921  30.1056385  21.6732001   0.1343072  31.0583282  21.7543936
   0.8293546  29.9541545  20.9871244  81.0564327  46.6361189  20.7867789
  81.6506958  46.4208984  21.5056372  81.4307690  47.4249649  20.3945732
  50.8800888  71.1559296  58.4265232  51.1710119  70.3745222  57.9564142
  49.9249649  71.1275244  58.3703375  50.6693888  27.4995899  60.5273438
  50.5234289  28.4308267  60.6938648  50.8663511  27.1303344  61.3882065
  75.9141541   4.6482724  47.6498652  75.6118965   4.7660050  46.7493057
  76.8638134   4.7572979  47.5999546  55.9976673  10.8462119  52.7907705
  55.6986856  11.1922419  51.9498730  55.3553391  10.1727760  53.0146646
  43.3525944  33.0481577   7.4498582  43.1353283  33.0439758   6.5176505
  44.1591883  32.5362945   7.5100994  15.6465101   8.4918994  42.4040079
  16.5899611   8.6504662  42.4354553  15.4383194   8.4700292  41.4699793
  81.9199562  17.8628516  45.2312708  81.9809341  17.4294972  46.0825729
  81.1946297  17.4215293  44.7892618  80.8854485  28.5021901  72.7752066
  81.3276005  27.9430938  73.4140730  81.2875271  29.3630362  72.8914404
  26.5014267  41.5362453  20.9362555  27.0519829  41.0655308  20.3105187
  26.7155194  42.4587488  20.7970524  22.1819353  27.5518703   9.1578710
  22.3406839  28.4841084   9.0096623  22.0462799  27.1898341   8.2822233
  24.5456433  29.2307973  50.2494478  24.7548532  28.4960246  50.8261347
  24.6116281  28.8682437  49.3660259   0.2192587  50.5202436  68.7594271
  -0.5560452  49.9934769  68.5653877   0.9210772  49.8797655  68.8754940
  59.8911524   0.0570217  67.9222107  58.9846373  -0.2259976  68.0420589
  59.9443960   0.8928222  68.3857107  51.6548157  30.2590632   9.0611964
  50.9644222  30.3629351   8.4063727  52.2069883  31.0332727   8.9519471
  22.7859282  29.2311883  21.4768624  23.0241489  28.7788272  20.6676340
  21.8606949  29.4498086  21.3655901  11.8570650  38.4404111  43.8331509
  12.4124146  38.4335113  43.0535507  11.0243773  38.8030076  43.5308456
  87.9681587  69.4844961  22.8656030  88.9208221  69.3941545  22.8431010
  87.7627182  69.6256018  23.7897873  67.6530123  16.6427946  13.7696767
  67.0719433  15.8881867  13.8653493  68.0818939  16.7243576  14.6215224
  26.1107016  47.8080082  32.1123147  26.6233397  48.6157751  32.1431112
  26.3434958  47.3457479  32.9175186  89.5587063  28.5478544   5.7613331
  89.9086285  28.1100488   6.5372908  89.4781685  29.4658709   6.0201567
  40.1353979  30.6392837  15.8971250  39.2422318  30.8322883  16.1821461
  40.4614019  31.4702988  15.5516338  47.8806162  52.1670723  33.8631344
  47.5468159  52.3663902  32.9884481  48.1161165  51.2401152  33.8241363
  84.6435738   2.7457821  56.3377285  83.9021778   2.9888088  55.7831955
  84.6169567   1.7894188  56.3676071  91.2344933  34.4567990  37.5672770
  91.7644310  35.1461720  37.1670794  90.3459167  34.6253419  37.2538185
  16.5748060  35.0924826   9.4592839  16.7516267  36.0262537   9.3451011
  15.6199396  35.0265074   9.4489038  86.5275574  23.3726144  11.7660451
  86.1166763  24.2366505  11.7951047  86.2863064  22.9645824  12.5976324
  74.3294573  71.7094088  26.7045522  74.5439196  72.4890471  27.2168016
  73.9921284  72.0519686  25.8768487  24.4280910  46.0969353  21.1278892
  23.7154126  45.4600525  21.0759068  24.3579292  46.4634752  22.0093417
  38.6402082   6.3970977  28.7999368  38.5824752   6.2393105  29.7422743
  37.9675317   5.8314681  28.4207249  41.2489510  69.7534704  23.6005592
  41.8392038  70.0555944  24.2908883  41.0150433  68.8618946  23.8586569
  90.3149509  33.6764026   4.8738372  90.1044369  33.8273382   3.9523530
  91.2671661  33.7626910   4.9192280  62.5874376  59.1673565   3.1681389
  62.3599482  60.0240898   3.5293776  61.7572212  58.6918831   3.1383169
  -0.1490370  54.0327740  13.1004262  -0.3031759  54.9765158  13.0577779
   0.5643496  53.8783741  12.4811733  43.2708406  38.5057545  23.2151604
  43.3278036  37.5793552  23.4491968  44.1692734  38.7532449  22.9965377
  20.2287102  20.9003806   8.1842881  19.7346556  20.2348042   7.7055937
  20.8521628  20.4020286   8.7126678  52.2481108  40.3170443  62.0373058
  52.1625948  40.1832628  62.9812431  52.5331831  41.2265444  61.9491529
  12.6893580  33.7378836  25.1894331  13.1972110  33.7026095  24.3788338
  12.3120749  34.6175551  25.1976085  25.4992676  38.7788987  30.7759023
  26.2879634  39.3103528  30.8842826  25.8161330  37.8757000  30.7836270
  30.7155299  10.9894204  20.3374863  30.8200526  10.1861048  19.8275924
  31.0845923  10.7784665  21.1951137  17.7677965  65.3880405   3.2980013
  16.9765639  64.8516846   3.2479510  18.2613325  65.1609564   2.5099093
  31.4692092   5.8277035  35.2784848  31.9775200   5.0786787  34.9673319
  30.5947065   5.6918246  34.9137735   8.9335561  83.9180756   5.1553023
   9.8592591  84.1547775   5.2125549   8.8764685  83.0674839   5.5905885
  29.1732097  48.7769604  32.4046564  29.9321842  49.1489553  32.8538871
  29.1778207  49.1925478  31.5423918  89.4272995  17.4571168  72.1737862
  89.4025993  16.5981984  71.7520285  90.1270485  17.3851550  72.8229427
  66.7156649  26.8882060   7.3965985  66.9638634  27.2309756   8.2551664
  65.7938480  26.6485548   7.4917310  62.9888391  18.9437938  42.9798460
  63.9377308  18.8422763  42.9055119  62.8721142  19.6300972  43.6368036
  69.4837904  36.6928625   2.3458281  69.4186783  36.1220527   3.1114453
  69.1850185  36.1500120   1.6162510  12.3146164  31.6616845  53.8170338
  11.9898307  31.0081983  53.1975985  13.0269730  32.0998335  53.3514071
  14.8806286  84.0190887   9.3953115  14.3962395  84.1854954  10.2039576
  15.3476763  84.8367119   9.2233139  72.7130127  54.5098209  29.4396925
  71.9095945  54.1403818  29.0732694  73.3176231  53.7692165  29.4864106
  78.7604332   7.3900437  29.7786355  78.0781746   7.9036909  30.2109838
  78.4860706   7.3504603  28.8624501  21.4379644  51.1837053  27.5401759
  20.8641386  50.6759930  28.1139207  22.0218992  50.5336761  27.1493888
  16.7373633  11.8325150   3.8537672  17.1891165  12.5121319   4.3540391
  16.0798287  11.4875877   4.4578406  10.6694686  77.8565407  49.8777676
  11.5056419  78.1830597  50.2100754  10.3566301  77.2617960  50.5594158
  32.4580836  77.1084881  70.1966953  33.0204487  77.7097034  70.6850815
  32.4953794  76.2901068  70.6917620  46.6860104  41.3961744  32.3638320
  46.9692707  40.5264235  32.0818162  46.4561081  41.8481398  31.5519810
  65.8823490  31.5594125  42.9879618  65.5810595  30.6539059  42.9136944
  65.6265783  31.9656205  42.1598291  27.7484965  23.2454419  43.9909410
  28.5155535  22.6737595  44.0230513  28.0778575  24.1034245  44.2585564
  10.8244491  34.0714884  21.0894322  11.1862636  34.4607353  21.8855548
  11.1545837  33.1730247  21.0907102  78.3121443   8.9647526  70.2097893
  79.1820526   8.7001210  69.9106979  77.7101564   8.5524213  69.5902491
  64.8622047   0.1818817  34.5835876  65.5676114  -0.4428131  34.4150829
  64.6621596   0.5545967  33.7249303  80.7665730  14.4439924  73.9233398
  80.6661987  14.0093052  73.0764627  79.8749113  14.6814454  74.1778564
  79.0300703  12.7230942  53.4503078  79.9859190  12.7739573  53.4491062
  78.8139009  12.2976899  54.2800856  82.1155262  30.0625634  32.1163821
  82.3770714  29.9941254  31.1981535  82.7063847  30.7190132  32.4854255
  87.4774170  26.9651818  28.9528084  87.8446293  27.0809078  29.8291588
  86.5389633  27.1171093  29.0643764  11.0676539  36.2443757  31.8134880
  11.1807096  36.9341922  32.4674034  10.9684980  35.4422045  32.3262453
  28.1788182   2.3716030  64.8475409  28.4972429   2.4272251  63.9465761
  27.8841305   1.4657989  64.9419308  27.4055791  74.6840954  27.0464396
  26.9980812  74.7273540  27.9114866  28.2602167  74.2828703  27.2040701
  21.9877100  64.5237112   7.0164412  21.2489557  64.9278402   6.5612996
  21.7919374  63.5868025   7.0060295  29.1307092  14.9819446  29.6281695
  29.7406530  14.6229041  28.9837408  29.6543145  15.6044781  30.1326704
  21.0185528  11.0538030   6.7488873  21.4124179  10.6732845   5.9638345
  20.4114389  11.7147231   6.4159775  40.2777576  21.6615939  20.9809995
  40.3150129  22.5669074  21.2896276  39.3424177  21.4715934  20.9084034
  38.9262891  28.7277222  13.7861013  39.1171002  29.1418457  14.6277213
  39.7122979  28.8788390  13.2611370   1.2392062  71.1621618  13.3544111
   0.4967660  71.1088991  13.9562225   0.8748394  71.5487623  12.5581646
  68.2643557  30.0882983  13.8842857  68.7148952  29.2916989  14.1647840
  67.6487637  30.2773046  14.5924902  46.2147903   6.7355675  56.1261272
  45.7975054   7.3167896  55.4902935  45.4895020   6.2492085  56.5180969
  45.7298803  76.6394854  74.4809341  45.1664114  77.4113655  74.5350981
  46.3338423  76.8336535  73.7641621  38.8343835  72.1949720  34.6071362
  38.6202455  71.9213581  35.4990530  39.7829700  72.3227119  34.6170235
  21.3061142  29.1861582   1.5735228  20.4892063  28.6981225   1.6770397
  21.7954993  28.6965346   0.9124590  18.7603772  30.9919357  13.1858468
  19.3092418  31.0595059  12.4045575  19.0847063  31.6801977  13.7666547
  82.5265121  50.8248854   1.5483151  81.9374084  51.3944435   1.0535552
  83.2292938  50.6149960   0.9332751  26.7690778  17.2650921  24.2784071
  27.3956943  17.1708500  23.5609794  27.2654748  17.6945233  24.9751186
  58.0544043  83.0640507  68.9765120  57.5361872  82.4665928  68.4373236
  58.5937166  82.4895573  69.5199585  25.2056646  29.6155953  45.8432102
  24.9498463  30.1167989  45.0688839  25.5398273  30.2724385  46.4540529
  12.5162458  38.8528204  41.3567066  13.3938324  38.5490537  41.1247587
  11.9681537  38.5882187  40.6179142   9.5069128  67.8248930  45.5280352
   8.8495535  68.4722900  45.2731133   9.1668171  67.4442911  46.3377953
  73.1010628   2.0501772  60.9716988  72.4407816   1.9727883  60.2830219
  72.6657343   2.5441629  61.6664648  26.1570883  62.3371983  39.0383554
  25.5007052  62.8036118  39.5559001  25.8051610  62.3381376  38.1481981
  89.0104389  25.5880880   3.1298840  88.3191776  25.3586769   2.5087962
  88.9688492  24.9039149   3.7980220   9.6020883  72.3920012  31.4878750
  10.1547647  72.8981876  32.0833206   9.6320873  71.4998531  31.8334174
  22.1566129  49.2695093  25.0876617  21.9165587  48.7260437  25.8381605
  21.9860744  48.7151432  24.3261957  38.1601977  41.0423231  34.2876029
  38.8372374  41.0694551  34.9637032  37.9051375  41.9570255  34.1672134
  21.6886663  26.5311146  22.9582834  21.5113235  26.0373068  23.7588668
  22.3558760  27.1684957  23.2128572  19.9816108  14.3832099  64.6587372
  19.0680444  14.5719182  64.8732567  20.0506973  13.4306192  64.7222042
  16.1097145  79.1878700  72.0574713  15.5697358  79.7714329  71.5244532
  16.3301182  78.4637642  71.4715338  15.9202528  49.6903467  53.3470678
  15.9568989  50.6302834  53.5243034  16.0620809  49.6188974  52.4031353
  40.6374311  76.8786383  67.4465990  40.4523516  77.7304840  67.8419876
  41.2854815  77.0655680  66.7673874  84.3415737  26.8040133  49.1585970
  85.2293587  26.4946580  49.3385124  83.7730217  26.1484289  49.5625639
  69.5659447  43.9412594  67.2368002  70.3952551  43.8457298  66.7684507
  68.9384651  44.2010307  66.5622425   1.1584191  74.1047716  34.3115664
   1.7701419  74.7417068  34.6808052   0.9779187  74.4295645  33.4294319
  13.3200455  41.4228868  33.3576918  13.9026880  42.0011282  32.8653550
  12.4394512  41.6856480  33.0898476  38.2060814   1.7515703  32.4122834
  37.3124743   1.9394122  32.1252060  38.2188702   0.8046306  32.5514746
  32.7352357  37.2038984  34.0571570  32.3854089  38.0078483  33.6730719
  32.7612543  37.3794246  34.9977660   9.8571336  24.3588352  25.7054496
   9.5747405  24.7325802  24.8707032   9.0675455  23.9562154  26.0669446
  74.6776533  40.8705044  16.9441402  75.3223181  41.5481806  17.1475959
  74.2129755  41.2045956  16.1768818  50.4668188  55.4218388  22.6527596
  51.1249542  54.8383522  22.2750902  50.1529408  54.9582100  23.4291339
  18.2592916  68.5315514  61.7489767  17.8859317  69.2374039  62.2768116
  17.5075114  68.1446791  61.3002110  11.0230756  28.7625360  42.5179052
  11.1861861  29.2152452  43.3453608  10.6070876  27.9391575  42.7733183
  23.6862421  55.5952454  35.1109195  23.2573938  55.9444571  34.3296576
  23.9269662  56.3701820  35.6186175  35.9203243  21.5922904   5.8608729
  35.2980638  21.9640446   6.4860326  35.6673336  20.6718802   5.7896572
  27.0034003  60.5606794  16.1035347  26.1465025  60.1739407  16.2835014
  27.3800063  60.0024700  15.4232383  21.9301963  56.4231539  26.7143774
  22.8319097  56.1030197  26.7400336  21.4022088  55.6743240  26.9913459
  35.7366204  34.5000601   6.6374558  36.3307691  35.0407720   6.1170232
  35.2135563  34.0275335   5.9898812   9.9407661  18.2868493   4.3115517
  10.0944316  17.5841510   4.9430847   8.9890915  18.3877337   4.2923439
  31.2195897  40.2345753  24.5727873  30.8455253  41.1096907  24.6751475
  30.8537269  39.7311449  25.3000641  87.7496719  77.4371052  40.9871960
  88.3059120  76.6581583  40.9779596  87.3803520  77.4781609  40.1050711
  31.6330457  16.3888800  22.6715660  31.8474221  17.2349739  22.2786307
  31.9677949  15.7438016  22.0486307  12.3727286   7.0877534  24.9727178
  12.7476835   7.9155642  25.2733326  12.7294695   6.9688773  24.0924692
  28.2111716  28.8801265  20.9773827  27.5023937  28.9191055  21.6195250
  27.7721000  28.6965847  20.1468658  21.8122411   7.6476693  14.5333982
  21.0999894   7.5671875  15.1677907  21.5629077   7.0627815  13.8178754
  78.0255890  60.0669050  51.5308762  78.1907082  60.9571409  51.8414402
  78.6369228  59.5228004  52.0273161  58.9940405   4.2753419  28.3117270
  59.1710997   4.5104265  27.4008942  59.7600555   3.7687612  28.5815930
   2.8602004  40.6909561  19.4522202   2.2628890  41.4254570  19.5935071
   3.7032202  41.0007000  19.7832894  65.8701324  78.5825729  35.2007341
  65.4115915  77.7845669  34.9377680  66.7736101  78.3024216  35.3473043
   5.5947542  54.7761059  51.5542984   5.9564012  55.0287151  52.4037838
   5.0743556  55.5316687  51.2812805  72.5364399   4.1088936  73.6855221
  72.8447104   4.9285257  73.2989883  71.6066217   4.2592719  73.8559675
  86.3141823   4.9738300  26.7348456  85.6485558   5.6512630  26.8542790
  87.1428394   5.4179084  26.9146943  17.9292917  78.8246965   6.3001639
  18.8864625  78.8199234   6.3059306  17.6865113  77.9220438   6.0939866
  55.5535889  67.5486374  65.5099297  55.3947067  67.0707273  66.3239241
  55.6100607  66.8677425  64.8395348  66.9190979  75.7896900  64.0396404
  66.9191742  74.8336458  63.9926291  66.2924767  76.0624027  63.3694124
  34.7664475  59.4979191  23.7335873  35.5615973  59.7395754  24.2085314
  35.0075626  58.7085438  23.2488418  15.9377515   0.6819735  14.6300209
  15.0135481   0.9038007  14.5165598  16.3633370   1.0181718  13.8413012
  38.6656904  22.9642272  70.0432968  37.8805518  23.1725216  69.5369339
  38.3699656  22.3252559  70.6917477   8.7640601  54.4718218  48.9307213
   8.7811011  54.1290379  49.8242760   9.6241152  54.8749828  48.8124084
  65.1151848  42.5398636  24.0751410  64.4675827  43.1208897  24.4742036
  65.2598143  41.8567801  24.7299027  90.6466293  37.3454738   7.2968376
  90.5780029  37.4793410   8.2421428  91.4219761  36.7947030   7.1885955
  87.0552254  56.0944223  56.3814020  87.0975780  55.6668329  55.5260658
  87.9456425  56.4099264  56.5358114  40.9912682  38.8535428  14.5462394
  41.6423941  38.4928417  15.1480424  41.4703703  39.5098090  14.0402639
  34.4576597  38.9001298  18.9400852  34.0350223  39.7335339  18.7326014
  35.2322054  38.8779211  18.3781087  38.9585137  77.1696806  47.2974348
  38.8279510  77.6124907  48.1359434  39.0918636  76.2507963  47.5300360
  28.7854886  43.8616610  29.0187025  28.2120037  44.6258163  29.0771532
  28.7672091  43.4807682  29.8966646  54.9456263   4.5132154   9.7514290
  55.4258537   3.7871638  10.1495063  54.0394640   4.2074886   9.7110546
  48.9491272  13.8831198  37.4740481  49.5900059  13.3163428  37.9033113
  49.1950798  14.7685659  37.7418613   8.2083267  22.5188804  14.3330348
   8.8781381  22.2984028  14.9803162   7.6623505  21.7346811  14.2767072
  81.2426853  74.5632982  62.9881573  81.2841225  73.7029362  63.4056377
  80.5195904  74.4925451  62.3649693  12.3706889  67.5434828  62.2627449
  11.7864215  68.0637312  62.8142977  11.8123281  67.2300339  61.5512562
   8.7993813  48.3821917  33.2671952   9.4961613  47.8614998  33.6667061
   9.2604303  49.0525627  32.7629471   3.6718634  25.3157806  27.2620773
   3.2967782  24.8275828  26.5291333   4.5176300  24.8967338  27.4211693
  12.5190616  52.0964622  11.0537386  11.9070029  51.7742586  11.7154038
  13.1002223  51.3550997  10.8838260  43.2821083   6.6901910  20.8229971
  43.9221716   6.8025899  20.1202011  42.9444647   5.8030295  20.6998205
  19.6790600  19.1832387  16.4294708  19.0756321  19.8950672  16.2163830
  20.5063677  19.4407022  16.0226440  28.8135886  65.3370810  31.0837865
  28.1057310  65.9761286  31.0014057  29.5900369  65.7973003  30.7651019
  82.0173264  39.7957349  45.0648355  82.8234100  39.3888330  45.3824806
  82.2595406  40.7059717  44.8944426  25.1495790  31.1868143  18.2039940
  24.8331141  32.0573187  17.9625297  24.3619752  30.7094908  18.4648991
  52.8539705  15.0678635  15.2176809  53.7100220  14.9107420  14.8192799
  52.9672813  15.8760786  15.7178617  49.5336008  47.7183580  20.0215912
  49.7716761  47.9641056  20.9155512  50.1952314  47.0757580  19.7655833
  13.3724713  24.2549086  32.3598146  12.5284052  24.1955566  32.8073215
  14.0206242  24.1833496  33.0605340  82.2897434   4.6632698  67.1781349
  82.9115582   5.3878868  67.1109724  82.0478439   4.4705024  66.2722874
   2.9267639  34.7930431  37.7645946   3.3590257  34.1220307  37.2362733
   2.5702593  35.4090190  37.1245074  26.7935300  42.5095081  10.2104509
  26.1090922  41.9730282  10.6104064  26.8831062  43.2602262  10.7975054
  51.2462759   8.9959145   9.5572394  51.5118027   8.1006706   9.7676331
  50.4889536   8.8919902   8.9811397  38.3687901  58.0076599  30.8111811
  37.6632619  58.4883595  30.3782988  38.7040734  58.6159468  31.4698195
   4.3082163   9.3835735  20.1491737   4.8777014   9.4876146  20.9114695
   3.9609930  10.2609086  19.9880803  28.1906247  65.1931047   2.7325556
  27.5938725  65.1044369   1.9894144  28.4162188  64.2929745   2.9673010
  88.3936787  32.1273971   8.7431085  88.8043118  31.4144158   9.2322588
  88.0089855  32.6890469   9.4160116  33.2766914  23.5773587  23.3164001
  33.1444764  23.4826279  24.2596793  34.2262244  23.6394858  23.2126832
  17.1239793  12.5401282  34.5987153  17.2441006  12.4385107  33.6545348
  16.6079879  11.7767572  34.8580408  29.1858053  48.1773901   0.7927486
  29.3434954  47.3000479   0.4439857  29.4881630  48.7674809   0.1023842
  24.0112615  54.4655895  26.0673094  24.3273759  53.7428474  25.5251431
  24.7705984  55.0396824  26.1676025  13.5327744  36.1904478  16.8102133
  13.2399595  36.7438197  16.0861492  13.3511806  35.2973127  16.5176952
  31.1891437  35.9949017  29.2084384  32.0299697  35.6988335  29.5571327
  31.3903809  36.2980652  28.3230996  82.1895695  43.5585594  35.7325459
  82.2485828  42.9386091  35.0056243  81.3418961  43.3735895  36.1368680
  14.0497649  48.3106852  16.9601142  13.7532949  49.1337347  17.3486066
  14.4200063  47.8193617  17.6934302  64.3405676  46.3308430   4.3965438
  65.2645683  46.1792803   4.5952505  64.1143370  45.6431961   3.7702894
  26.8342757  37.5980186  35.2843571  26.5265894  36.7598319  34.9393916
  26.6594434  37.5489259  36.2241745  21.8006682  20.8458710  43.9673376
  21.5541792  20.6287861  44.8664188  21.0514951  20.5685806  43.4400034
  21.0184717  41.5092850  37.1628881  21.1981726  42.3274326  37.6261044
  21.3399577  41.6615820  36.2742448   1.8320973  38.6373711  22.5927472
   1.7550822  38.7116623  23.5439491   1.1295549  38.0376768  22.3416805
  79.0754986  36.0181546  19.1885400  78.6546278  35.6093144  18.4322679
  78.3890486  36.0532784  19.8547125  25.9696150  69.4449186  70.1150942
  25.4618049  70.0060654  69.5290327  25.9617925  69.9055672  70.9541273
  85.3250694  81.8537617  10.6389582  85.0942039  81.2355232   9.9456298
  84.7413158  81.6297817  11.3637328  18.7043071  34.0829825  26.8690991
  19.2528498  34.6033406  26.2821078  19.0480661  33.1929779  26.7919350
   4.5742276  35.9668231  14.3289101   4.1118777  35.6802130  13.5413063
   4.4292602  35.2629828  14.9612272  59.6266460  55.4320431   4.4775295
  60.2550173  54.7194290   4.3610933  58.7736034  54.9982786   4.4976059
  28.7600684  83.9857006  11.4947867  28.1874418  83.3922005  11.0088956
  29.5721507  84.0030575  10.9883749   3.3083040  24.1081238  21.0332727
   2.8352791  23.6703682  21.7409778   2.6545486  24.6736670  20.6221795
  18.7440813  13.7945509  12.6252770  17.9425263  13.7203515  13.1431925
  19.3800676  13.2497096  13.0888510  82.7666950  34.1214741  74.1904822
  83.4069729  34.0298165  74.8960835  81.9552684  33.7691391  74.5561062
  25.0436711  18.7689376  20.8270741  24.7184563  17.9344070  20.4893970
  24.3725061  19.4051480  20.5800843  45.5228472  40.6351614   9.2683387
  44.8955107  41.1199379   8.7319881  45.1312923  40.6218004  10.1416862
  61.1178017  31.9013691  20.5419135  62.0604992  32.0405984  20.6322956
  60.7384205  32.7773023  20.6129503  11.1979270  33.4859443  48.6503839
  11.0053837  34.4235277  48.6602640  12.1479917  33.4354210  48.7555265
  16.6201556   6.8175954   2.1877207  16.9546950   6.0122490   2.5823501
  17.0836604   7.5190306   2.6453066  25.3786302  70.1096296  19.4293523
  24.6823096  70.2515316  20.0706291  24.9189711  70.0006819  18.5968399
  30.1818490  31.9996095  24.7898817  29.2491961  32.2139072  24.8114538
  30.3791475  31.6991568  25.6770301  16.2796104  35.8375025  16.5053344
  15.5113411  35.8647609  17.0756423  16.0279894  35.2503896  15.7924414
   1.1716805  38.5680890  25.2282858   0.3135708  38.4751606  25.6421018
   1.7941232  38.3032322  25.9055209  57.9262972  13.4999502   8.7231350
  57.9583979  13.1623435   9.6182460  57.0747375  13.9325929   8.6607236
  30.9728599  70.8657408  16.1079645  30.3893137  70.4381418  15.4811764
  31.7143846  71.1629057  15.5806434  16.5536416  32.3835206  14.1017151
  16.9285536  31.8848610  13.3757603  16.6176581  33.2970333  13.8230896
   3.7201828   2.0564118  30.3453565   3.0306178   1.7480829  29.7574234
   3.2634902   2.2696556  31.1591053  28.4002090  40.1805258  13.3186316
  28.3902502  39.3010306  13.6962831  27.4801660  40.4440451  13.3009982
  21.0374999  39.2558432   6.3777578  21.5847826  39.0889454   5.6103861
  21.6528630  39.2778087   7.1106130  57.5766230   1.7393111  17.0583642
  57.6486015   0.8308244  16.7656136  58.2975960   2.1903504  16.6190505
  27.2938037  75.1385164  17.1393204  28.1479502  74.8352194  17.4470127
  27.4460030  75.4024792  16.2319124  13.0433261  61.3007069  14.9601877
  13.8316202  61.0568905  15.4453444  13.2550406  61.1080122  14.0468001
  19.9304998  31.8294024  60.4246569  20.6285453  31.3393927  59.9900818
  19.3309760  32.0697284  59.7182226  47.5323009  62.2632599  51.1742306
  46.7158270  61.9362020  51.5519047  47.7400732  61.6408205  50.4773569
  45.8160925  28.7501669  11.1278141  45.1729727  29.4359803  10.9481323
  45.8601570  28.7074661  12.0830452  24.7982907  60.8111429  13.3439529
  25.3613567  61.5806055  13.4283412  25.3716516  60.1327562  12.9871905
  42.1632433  21.0782337  70.4757023  41.5558910  21.7447662  70.1546192
  41.8653584  20.2657557  70.0665855   2.8446445  35.0586390  22.3803830
   2.3879066  35.5985761  21.7353320   3.7668017  35.2951765  22.2808433
  25.7272553  21.7841220   0.5517379  26.1260223  22.2636366   1.2778798
  26.4568114  21.5909004  -0.0370300   1.0402530  25.0755763  36.2415886
   0.2677920  25.2975678  35.7217264   1.0329799  24.1193938  36.2850881
  41.0940886  12.1923518  66.5761995  40.6825876  12.7055407  67.2715664
  41.3325405  11.3664186  66.9971609  49.6108675  48.7573242   8.7455928
  48.8269091  49.2641735   8.5340583  49.4628334  47.9050207   8.3358371
  31.2835622  16.9747901  25.4117560  31.2288523  16.9604897  24.4562268
  31.8249202  16.2167394  25.6320357  56.1166143  58.6128283  10.0684345
  55.2078581  58.4594202  10.3270149  56.0894060  58.6574364   9.1126621
  63.3927822  85.0390053  62.3708630  63.2909155  84.9747372  63.3204556
  63.3585739  84.1328239  62.0644283  33.7627983  76.9472075  33.8799644
  33.6388159  77.5899744  34.5783234  33.4135532  76.1319637  34.2400241
  65.6190348  55.7618427  13.7127876  65.4353046  54.9976492  14.2591226
  65.2434254  55.5425596  12.8601074  48.4768724  20.2169657  13.5504508
  48.8511181  21.0885596  13.6788952  49.1195297  19.6212292  13.9355814
  20.6134605  36.6352725  21.3906789  19.9409449  37.3027587  21.5263915
  20.3379178  36.1754155  20.5976844  24.5127606  60.7598782  20.1843834
  24.7709918  61.5453434  20.6666613  25.2823281  60.1919127  20.2219748
  39.2413449  51.1024714  26.1150908  40.0199127  50.5466366  26.1484361
  39.1503239  51.3319540  25.1902771  34.5691109  71.3746881  41.1784315
  33.8319063  71.1712599  40.6027794  34.5350409  70.7016230  41.8581820
  39.4015384  75.1913023  44.5388603  38.5018969  75.5169582  44.5675898
  39.3534255  74.3197441  44.9316835  27.5130224  41.5670776  25.1588440
  26.7875957  42.1262836  25.4368281  28.1285834  41.5914488  25.8914566
  40.4999113  83.9774418  62.2082758  40.4563379  84.5233917  62.9933023
  40.3985214  84.5931244  61.4824152  87.2299004  32.9819727  24.8569632
  87.1699905  33.9172244  25.0517654  88.1441402  32.7589417  25.0320196
  26.3508534  59.4480562  29.1364479  26.7779136  59.5837688  28.2906151
  25.6721044  58.7965250  28.9602566  70.7107687  79.9401855  39.5673370
  71.2084770  80.2224445  38.7999725  70.0382090  79.3570614  39.2153955
  20.3311419  32.7497578  31.3166571  19.7520030  32.1981978  30.7907200
  20.7048225  32.1539235  31.9659472  13.0934381  46.8731546  37.2054100
  12.8345823  45.9798765  36.9789553  12.3226058  47.4040270  37.0048451
  43.9591074  50.7089615   3.2014182  43.9515352  50.6137657   2.2489938
  43.0491447  50.5689955   3.4633562  63.4117985  58.4972763  32.3986721
  63.1641293  58.5586309  33.3212376  63.6402512  57.5763083  32.2727489
  60.5109882  29.6923137  11.0760939  60.9418392  29.6946001  11.9308424
  60.7755661  30.5188608  10.6722987   4.3568540  47.0914221  35.0476193
   4.1252157  47.4281168  34.1820502   4.0212727  46.1949968  35.0535965
  20.9064436  65.3179932  69.3460321  21.3064671  65.8780909  68.6808205
  20.9505510  65.8335686  70.1513052  15.5679119  65.2230263  23.8360715
  16.4354169  65.6257820  23.7979436  15.7365370  64.2836523  23.7627554
   9.6364659  69.1523075  32.3256326   9.2275971  68.9883995  31.4758134
  10.5746865  69.1819382  32.1382928  27.3157597  69.0978813  37.8383064
  28.2461834  68.9172554  37.9721737  27.0382500  69.5345211  38.6436391
  62.3520327   9.0663391  35.1872849  62.3216009   8.1532645  35.4729438
  62.1942234   9.0275693  34.2439795  74.7291183  70.2660179  52.5480223
  75.3034782  70.2196360  53.3123446  74.8380899  71.1587572  52.2203541
  40.0083351  45.3815889  20.4632044  39.0918112  45.1633549  20.2941298
  40.4799891  44.5607185  20.3219581  27.8299451  42.9716921  31.5980935
  27.6762366  42.0285511  31.5425301  26.9564795  43.3600569  31.5484309
  89.2979527  83.6752224  16.4887631  88.8888359  83.2430363  15.7390487
  89.9418640  83.0428696  16.8077219  20.6973410  27.6313353  39.7683215
  20.2671528  26.9282293  39.2816901  21.2246537  28.0882883  39.1130614
  20.4823971  22.7274394  17.4225020  19.5399201  22.6972675  17.2580040
  20.6366134  22.0306587  18.0604243  27.4496984  45.8631659   8.9299047
  27.4567199  45.0663662   8.3995396  26.8615866  45.6613159   9.6576476
  23.0099297  12.8480220  64.4661045  23.5111260  13.6148441  64.7436237
  23.3618546  12.6315081  63.6026812  19.1093147  54.8021984  45.3636408
  18.2152748  54.4646835  45.4185057  19.0119314  55.6790638  44.9923563
  44.6189642  48.8177204  27.8414369  44.3739557  49.5779276  27.3139048
  45.4958677  48.5863209  27.5352979  59.4179392  53.4892654  15.0171936
  59.0893793  53.0374384  15.7944524  58.7128115  53.4052801  14.3753433
  81.9483089   2.7362198  54.8538876  82.1007252   1.8225205  54.6127415
  81.2847042   2.6946986  55.5424738  57.1265841  31.0923266  14.8534048
  57.7538776  30.6500864  15.4253829  56.3326693  30.5608606  14.9123573
  36.1662793  54.9844551  35.7813168  36.2282586  55.6779003  35.1244140
  36.9811893  55.0523281  36.2788558  51.0663414  45.8702993  28.7175202
  51.7699480  45.2497959  28.9076352  51.4076042  46.4077377  28.0027270
  24.2052031  65.9857798  32.7968049  23.5677671  66.6562796  32.5511694
  23.9629555  65.2218199  32.2734356  59.4671059  45.0061703  25.8898473
  59.1640902  45.5952740  26.5807700  59.0520477  45.3375053  25.0934958
  32.0029163  26.5011430   4.8607117  32.5589299  27.1954131   4.5070621
  32.5805187  25.7404661   4.9237683  60.7439613  39.3101668  59.9480534
  60.5579662  39.0398216  59.0488625  60.3515434  38.6256599  60.4899883
  29.2283702  41.7715883  27.2843337  28.9506626  42.5867510  27.7022052
  29.8893499  41.4121819  27.8760815  74.2570400  58.4537554  30.2480555
  73.8749123  59.2868567  29.9720907  74.7824430  58.6743259  31.0171652
  68.5099840  33.6553717   3.2448202  68.0377769  32.9460788   3.6808887
  68.4021282  33.4761453   2.3107557  22.9979396  39.4139314  29.5687056
  22.5951910  40.0078440  30.2021837  23.9142084  39.3596244  29.8402524
  10.4733348  15.7330143  59.7231245   9.9564099  15.0235343  59.3414688
  11.0680103  15.9999430  59.0221643  16.0005248  59.0301037   6.1540937
  16.6649246  59.4785976   5.6309688  15.4941988  58.5260105   5.5171049
  31.9531131  52.1939754  26.5372610  31.6711855  52.0838213  27.4453449
  31.9868279  53.1421185  26.4102817  90.7891908  28.4621930  17.8784049
  91.1194519  27.6017094  17.6200867  91.3145164  28.7009859  18.6421084
  57.1323299  60.9691334  21.1448908  56.6684294  61.6284990  20.6288791
  58.0067015  61.3369274  21.2730861  21.2564039  16.4933085  67.0303011
  21.9409895  16.9854546  66.5771246  20.9952116  15.8161449  66.4062309
  16.1939681  18.3333886  15.9331369  16.2017930  17.8370464  16.7515600
  15.6683373  17.8015947  15.3355253  48.4454489  38.4736323   9.9894208
  49.0757656  39.0635014  10.4029262  48.4707737  37.6815653  10.5262804
  18.6866868  22.2597432  30.2476835  18.7596083  23.0564523  29.7221661
  18.2383382  22.5394607  31.0457897  84.4641113   0.3534075  66.0086536
  83.9500904   0.3705281  66.8159485  84.8863220  -0.5056361  66.0117197
  31.2234640  45.0229216  27.4377036  30.4700279  44.4644594  27.6292372
  31.4875698  45.3694439  28.2899976  47.5380516  66.4014292  33.2851243
  46.9764853  65.7506943  32.8639078  48.3875895  66.2981606  32.8563404
  89.9957085  58.6722803  32.5947905  89.9419689  59.4986200  32.1146822
  90.7247734  58.2051802  32.1867442  42.7867603  38.0217385  28.6571550
  42.4368477  38.2836843  27.8055811  42.0709181  38.1859446  29.2710257
  25.7995844  44.8275185  24.1091442  25.0665283  44.2309999  23.9574003
  25.4297638  45.7002544  23.9757538  42.0696449  40.6410456  10.8584690
  42.2996998  40.0716543  10.1242304  42.7463961  40.4718876  11.5139282
  11.8301308  58.5592413  27.8130102  12.6387012  58.2873249  27.3788357
  11.4696085  59.2391539  27.2438240  17.0748258  60.9146976  37.5907207
  17.2798228  61.8109894  37.3245096  17.7931964  60.6675625  38.1730437
  90.2407932  81.1829376  12.3284471  91.0186863  80.6662273  12.5384927
  90.3557491  81.4262962  11.4098644  72.1340227  57.1534061  53.6925077
  72.5235271  57.3532295  54.5437384  71.1956930  57.2934294  53.8196707
  85.2930188  85.8712008  64.0172577  85.5410171  85.9710913  64.9363613
  85.8709717  85.1835414  63.6866093  59.1044569  85.0869560  55.6060362
  59.3827438  84.7161198  56.4434528  58.4775925  85.7703495  55.8432055
  44.8504591  60.9349155  18.4272170  44.6149111  60.9598970  19.3546450
  45.3446913  61.7420101  18.2838047  22.6881480   9.9949914   4.9296945
  23.0165815   9.6207333   4.1122028  23.3976483   9.8586762   5.5575943
  31.8249154  52.2188234  35.5133986  32.2584105  53.0705214  35.4592991
  31.0562420  52.3757172  36.0618138  12.7444363  38.9594316   8.4346730
  13.0340564  39.2498231   9.2995572  13.3294833  38.2336712   8.2173628
  47.0340252  47.1425772  18.2838476  47.4502373  47.4506712  19.0888798
  47.6817799  47.3112726  17.5996041  79.8155689   4.3660334  39.7328496
  80.5235386   4.5115179  40.3604174  79.5345354   5.2456105  39.4806671
  74.0895128  10.4778278  35.0658083  73.5026169  10.3362489  35.8086038
  74.3615532   9.5981091  34.8044276  39.2217207  38.0556107  24.2208505
  39.3471718  37.1587276  24.5308375  38.6386585  37.9690123  23.4666824
  39.9291658  83.8880444  36.3491535  40.7306242  84.4103527  36.3822246
  39.2247868  84.5335960  36.2913728  29.8240924  47.6442146   7.5826395
  29.9372077  46.8535376   8.1101453  30.4843092  47.5689697   6.8936670
  45.4630709  45.8900356   4.6933976  45.6524038  46.3654900   5.5023003
  44.9029827  46.4830351   4.1925135  30.7591009  28.3541870  21.4276624
  30.9818506  28.0086803  20.5632305  29.8024511  28.3352375  21.4539409
  21.1255693  63.0488968  19.8784018  20.9688568  63.6570549  20.6007743
  20.2950430  63.0222654  19.4032741  27.4751043  35.4070187  32.3790264
  26.7537570  35.0930405  32.9242826  27.1424055  35.3464651  31.4835501
  26.6149855  60.2611589   7.0206499  25.7507420  60.6717587   6.9937050
  26.6978645  59.8217106   6.1743361  15.2767003  13.8998199  63.5748339
  15.9215438  13.6337042  62.9194021  14.5501781  14.2576182  63.0645657
  59.2889929  40.6444550  19.6345353  58.7497473  41.4330196  19.6946478
  59.3225956  40.4480743  18.6982989  42.2622490  65.6468201  48.4123039
  42.3444223  65.7828808  49.3562126  43.0196333  66.0972786  48.0385494
   8.6647630  59.5338583  19.4102705   9.4945323  59.4050312  19.8697460
   8.6469710  58.8416767  18.7493634   8.4080911  80.7233810  20.1160407
   7.9660535  81.5511131  19.9271035   7.9224056  80.3555489  20.8543086
  16.2400796  42.8634504  74.4982195  15.3137281  42.6865492  74.6619400
  16.3015010  43.8184489  74.4773165  11.4398599  41.2041664  39.2269588
  11.9475639  41.9156265  38.8367105  10.5271840  41.4592838  39.0921617
  53.0651569  45.6483841  30.8610559  53.5742617  46.0912514  30.1821542
  53.5463715  45.8187819  31.6707659  85.1903629  46.7520285  28.5091496
  85.8487988  47.4442005  28.4492803  85.3123569  46.3803244  29.3827558
  68.5985279  76.7727709  46.4330435  68.9502716  76.5726328  45.5656052
  69.2100143  77.4125767  46.7976809  74.0595198  51.6406870   9.9065340
  74.3376923  51.4597082   9.0087026  74.3704033  50.8882046  10.4098797
  58.0451441  77.1333408   2.4029551  57.1285391  76.8581390   2.3848966
  58.4190893  76.6716719   3.1534612  36.7204094  39.6018910  17.3296618
  37.0807886  39.7247052  16.4514375  36.8845391  40.4334831  17.7743542
  11.3576901  18.2577789  40.7662487  11.7377400  18.7566888  41.4893532
  12.0845950  18.1270361  40.1573563  13.1969178  57.5277281  33.4119940
  13.0716729  57.1427059  34.2793465  13.3062148  58.4638834  33.5790181
  57.1960926  39.1482329  15.0333679  57.7588844  38.6512327  14.4396639
  57.7016211  39.2142081  15.8435035  67.4012804  64.3952560  13.6922610
  67.7698231  65.0054312  14.3310857  66.5571022  64.1399193  14.0642798
   2.0508392  14.7624135  28.9296603   1.1325179  14.6553063  29.1775441
   2.0395909  14.7848010  27.9727888  29.1431665  62.3715353  22.3552942
  28.5805082  62.1372652  21.6172123  28.6516809  62.0944500  23.1285310
  30.2555394  26.1319733   8.7332636  30.5054116  27.0514154   8.8250548
  30.5403924  25.7235980   9.5507711  78.1449747  73.4478331  74.2603731
  78.2192469  72.6078796  73.8073921  78.9694118  73.5357141  74.7387123
  53.4543514  58.7861204   9.8218876  53.1673861  58.5231400   8.9474016
  53.1962872  59.7051811   9.8923528  36.0112762  44.9981356   2.3822568
  35.8232665  44.5952177   1.5345882  35.1510048  45.2231216   2.7365804
  41.8553638  30.4305768   7.7286863  41.3686132  30.5951309   8.5362953
  42.1467304  31.2967467   7.4439317  28.2271504  37.4104166  41.6189003
  28.0778170  38.2631493  42.0272875  28.9962769  37.5417924  41.0644484
  61.1974382  80.6217098  61.2457228  61.0866070  80.7933903  60.3105927
  60.5843306  81.2196064  61.6733265  45.2069378  56.1746264  26.4012003
  45.1670885  56.3247108  27.3457193  45.2253914  57.0523596  26.0197806
  45.3703260  59.1249323   6.0868025  44.8246717  58.3520937   5.9411693
  45.9640884  59.1437912   5.3362554  18.7154984  38.7441182  21.8096900
  17.9334688  38.9177489  21.2857485  18.3979332  38.7170172  22.7122688
  28.5151863  44.8440409  18.3967245  28.0460906  45.4729605  18.9450324
  27.9889894  44.0458441  18.4439635  33.3945751  50.0695229  23.9303780
  33.5791516  50.0855303  24.8694777  33.1114626  49.1717005  23.7571955
  39.4534421  60.7846975  23.7893534  40.3607941  60.4988241  23.6834502
  39.4062328  61.6134167  23.3126616  85.7860088  21.0180593  53.6774445
  86.3387489  21.1236620  52.9031324  84.8924065  21.1180925  53.3492708
  80.1424694  33.5681605   9.7150856  79.3299961  34.0147400   9.9531609
  80.6116295  33.4668422  10.5432510  23.5762191  13.4310985  40.3780556
  23.7976861  13.8857472  41.1907530  23.6874318  12.5031292  40.5847836
  58.8363695  35.6928897  10.7898510  59.0965509  36.6072512  10.6781244
  59.0688467  35.2747059   9.9608105  53.8545561  76.4671564  25.7218218
  53.5722637  77.0398283  26.4349771  54.5516920  75.9342432  26.1042309
  48.6937189  47.2184229  25.1856542  49.2628479  46.4512205  25.2466846
  47.9705906  46.9362640  24.6255660  27.8388357  79.8349905  16.2587678
  28.3460450  79.1280460  15.8597660  28.4259105  80.5908012  16.2405097
  84.3714619  13.0164635  69.1078997  84.9921608  12.3482847  68.8172150
  84.6585083  13.8171899  68.6689615  17.7114236   8.1067175   6.3511223
  18.3055151   8.5538828   6.9538921  18.2001352   8.0516893   5.5299246
  37.4336505  42.0639181  15.7175028  37.3315620  42.4238157  14.8364329
  37.8553295  41.2153196  15.5822158  40.8333349  55.0263453   1.6993590
  40.1493263  55.4941416   1.2202670  41.3543415  54.6007252   1.0184538
  10.0320506  10.8109212  12.0085692  10.3267777   9.9498498  11.7120504
  10.1994407  10.8099234  12.9510188  26.3573670  49.4189024  35.0185323
  27.3030806  49.3820238  35.1616955  26.1410475  48.5721970  34.6279836
  10.4788136  55.1446342  19.5776713   9.8589021  54.4294691  19.7207868
  11.3131297  54.7077656  19.4065261  20.9196711  15.9232175  42.8084850
  20.5662847  16.8127441  42.8180885  20.4098916  15.4702139  42.1368122
  52.3557281  71.4861155  25.6702971  52.3068380  71.3033772  24.7319770
  52.6129055  72.4066734  25.7219505  60.9963083   5.7354450  69.3301678
  60.9488869   5.0444764  69.9908829  61.5081739   6.4294142  69.7456598
  35.9287858  40.3137016  12.9747772  36.3831949  39.5363641  13.2995725
  35.4578328  40.0092125  12.1990705  16.4248145  17.8603637  38.5234427
  15.7747364  18.1562424  39.1606927  16.0014582  17.1311700  38.0703664
  39.4254875  58.0588865   1.5497889  40.1342821  58.6311340   1.8436825
  39.2530107  58.3342886   0.6494350  75.2709675  17.5760257  14.7059417
  75.9978485  17.7827597  15.2934229  74.5004606  17.5626910  15.2737260
  20.6479359  40.7020283  21.0911059  20.4067636  40.7907200  20.1690412
  20.0218821  40.0689840  21.4425969  61.9309521  20.7157660  12.9798460
  61.2667370  21.3927078  12.8502214  62.0823336  20.3581071  12.1049774
  12.4395216  10.9893334   5.7537323  12.2662580  10.0523233   5.8444136
  13.3336020  11.0999811   6.0771644  82.4042320  80.9747887  60.7380724
  81.6904545  81.2796402  61.2982702  82.0149994  80.9145641  59.8656607
  15.3105175  17.4341249  74.5925283  15.7290351  16.5788424  74.6903324
  15.7430685  17.8271556  73.8344669  21.6033530  11.6919708  22.4459839
  21.4060354  11.3436675  21.5765119  22.1251893  11.0078037  22.8653073
  80.5576611  28.1995535  21.7926717  79.7146988  28.6452198  21.7088246
  81.2059021  28.8716555  21.5822053  43.0257177  28.0379081   7.1919227
  42.1749640  27.6004004   7.2241622  42.8215933  28.9668179   7.3000526
  73.5412598  73.9824724  66.5232849  73.5771704  74.4682598  67.3472738
  73.7230349  73.0760622  66.7715073  50.4548073  50.1380253  19.0090811
  50.0654459  49.3763399  19.4385660  50.0260019  50.8892965  19.4188941
  36.4613962  58.3781862  13.5121298  35.5344152  58.5617876  13.6645377
  36.6127372  58.6460209  12.6057124  17.1046162  66.0963726  14.9852014
  16.7834902  65.2123642  15.1630855  16.9337535  66.2301874  14.0529299
  63.8726187  52.8982496  13.7852693  63.3630896  53.1810045  14.5446527
  64.4879293  52.2543335  14.1359818  30.5134273  42.8370047  25.1146436
  31.2537456  43.3963060  25.3498983  30.0762510  42.6557922  25.9466720
  37.8897214  37.7946973  21.8318510  37.0044851  38.1034064  21.6387415
  38.4607816  38.5017967  21.5316272  35.7598376  40.0582504  34.9575329
  36.6293621  40.4576302  34.9318790  35.6079435  39.7573614  34.0616393
  61.1510372  21.7436886   7.0741665  60.6820822  22.5139856   6.7532974
  61.9096470  22.1003795   7.5362414  20.3392792  58.6777496  26.8945909
  19.8425961  58.3378029  27.6388836  20.6889844  57.8978300  26.4637089
  48.5221195  49.7493792  32.6178551  48.6838388  50.1864147  31.7817426
  47.8200293  49.1263008  32.4305749   4.8097935  15.6468523  58.3116436
   4.2518738  15.9191120  57.5830603   4.7143048  16.3444281  58.9601040
  78.1428862  73.7156391  52.9160786  78.4558201  74.6119356  52.7937651
  78.7151575  73.3522701  53.5918713  52.3909616  47.6139832  11.8161726
  51.5168095  47.9756689  11.9620430  52.2362947  46.7987728  11.3389492
   5.6728786  47.0281410  37.4518108   5.0758559  46.9247341  36.7107964
   5.1867551  47.5646162  38.0779958  27.7719212  64.6427345  36.0650492
  26.9088221  64.4573689  35.6950092  28.3849931  64.4290781  35.3616810
   5.1290578  55.3416872  16.3598943   4.9708462  56.2716818  16.5221083
   4.5560595  55.1260328  15.6240964  81.5461636   8.0173314  70.8519363
  81.3164234   8.8916606  71.1665821  81.2032890   7.9864424  69.9587870
  33.6291552  40.2155209  30.1970696  33.4023571  40.2672482  29.2685652
  34.2588067  40.9241724  30.3296661  41.2936878  59.8048401   2.3272416
  42.0330811  59.3502474   2.7308154  41.6806746  60.5837584   1.9275376
  19.2274940  61.9410658  21.9799066  18.7862742  61.0929203  22.0269370
  19.4216144  62.0588255  21.0500240  37.9172397  56.1856890  19.2904842
  37.1677208  56.0342073  18.7147176  37.7309060  57.0254993  19.7102809
  44.3188620  38.6398172   6.3246512  44.3167925  37.9039717   6.9368255
  44.5924950  38.2571101   5.4910505  23.0952954  56.9222355  17.4709678
  22.4112463  57.2868586  16.9094002  23.0334234  55.9760284  17.3402226
  41.5928316  54.9430370  38.9750075  41.5154982  55.0625706  39.9215603
  41.3573074  55.7942963  38.6060619  40.5361319  60.7804537  38.3917928
  39.9238443  60.8474731  39.1244888  41.3736725  61.0718346  38.7521410
   2.1001905  59.3945789   4.5488465   1.6281840  60.2038765   4.3526897
   1.5292238  58.9258242   5.1575315   5.4880553  67.5476217  24.3986869
   5.6036323  67.0834017  25.2277660   5.1360452  66.8874645  23.8015985
  44.5239449   3.3977857  42.2727060  43.8260365   2.8481263  42.6291132
  44.1250229   3.8327590  41.5191174  42.7084637  69.9738264   3.2595038
  42.5619936  69.5811462   2.3989335  42.5507450  69.2606592   3.8781723
  21.0842276  65.9374094   2.1176465  20.3409266  65.7391119   2.6872212
  21.8541312  65.7461500   2.6532784  85.8250427  53.8806725   6.0665196
  84.9390793  54.2430305   6.0678005  85.7861042  53.1505919   6.6843361
  41.0840702  58.6544037  32.6309037  41.5941620  58.0861330  32.0537519
  40.6682014  58.0550909  33.2506752  33.9785624  84.8591137  31.7314124
  34.1276741  84.0202236  32.1676064  33.9774966  84.6468925  30.7980347
  36.9422030  41.9283056  19.0417373  37.1429372  42.7915668  19.4032884
  36.0413480  42.0039606  18.7271476   3.6237091  51.9908476  13.1691921
   2.8972179  51.8788004  12.5560951   4.2877832  51.3699245  12.8697109
  33.7495232  55.9696770  42.1655369  34.3231654  56.6719389  41.8589449
  32.8850007  56.2012005  41.8260765  40.6812525  57.7635956  38.3368969
  40.5833006  58.1963968  37.4887681  40.0944233  58.2445812  38.9204335
  10.5107880  45.8600903  52.0664644  10.6752872  46.5762663  51.4530659
   9.5571887  45.7813597  52.0925665  10.6200075  40.1952696  62.0878506
  11.0714197  39.4272470  62.4379969  11.0007155  40.9340429  62.5627232
  76.7141199  14.5151019  14.8386478  76.9346714  14.8180223  15.7194591
  77.5605583  14.3520701  14.4224870  32.5604582  82.6434517  18.5351098
  32.2947335  82.1508217  17.7586150  33.5163307  82.5930691  18.5352135
  36.5781879  77.1701479  19.2576778  36.6644979  76.6649008  18.4492791
  37.3274541  76.9013596  19.7892642  21.1369896  67.4314880  20.3853321
  20.8377171  68.0838394  19.7520006  22.0595145  67.2942591  20.1700473
  80.5846310  28.1518817  66.4998960  81.4791203  27.9402375  66.7669678
  80.1867867  27.3040485  66.3020897  28.5721588  64.9782181  17.0649517
  27.7436447  64.7681427  17.4958384  29.2310262  64.8812962  17.7525079
  19.7690356  32.3999357  67.8972340  19.1491592  32.8906417  67.3576117
  19.9243248  31.5916038  67.4086428  33.2854342  51.5088224  13.1097853
  32.5836420  52.1449661  12.9718041  33.9467072  51.7361641  12.4561298
  53.3781672  49.3218517  66.4209080  53.3859062  49.5374489  65.4883385
  53.6280346  48.3984852  66.4553499  47.9642344  30.1761913   2.7261209
  47.4785233  30.1645827   1.9013903  48.0368090  31.1044168   2.9482976
  19.1521728  19.7515297  66.7312717  18.3361793  20.1381755  66.4136362
  19.1990244  18.9001417  66.2963247   5.2477992   0.2608261  74.3714619
   5.1586819   0.5169761  73.4534883   6.1568767  -0.0277086  74.4524431
  33.9615250  49.5645142  66.4214706  33.8237166  50.5082130  66.3397980
  33.2540107  49.1738653  65.9085846  23.5401297  77.0333433  36.9896126
  22.8926516  77.7070618  37.1972394  23.9737868  77.3535824  36.1986494
  54.2099857  85.7308388   5.7778895  54.6482992  86.0785103   6.5545762
  54.7159147  84.9521351   5.5457640  76.9439650  10.0955367  18.8612342
  76.8887949  10.3645158  17.9442620  77.3948145   9.2515236  18.8365495
  28.6943340  14.8197687  64.9645567  29.3933845  14.8860645  64.3140459
  27.8896618  14.7770476  64.4479275  42.9345703  47.1725893  38.3165240
  42.2436762  47.5871134  37.7997398  43.5626793  47.8751945  38.4840107
  26.2792444  12.3248279  63.0283737  26.0895824  11.9366837  63.8825464
  26.5250492  13.2287276  63.2252932  14.6504116  34.4439721  62.1569443
  15.1535106  34.1268182  62.9069710  13.7393558  34.4118261  62.4487972
  85.1583195   5.8340806  59.4720745  85.2993965   5.6790555  60.4060411
  84.9602222   6.7686057  59.4116449  56.8262911  55.9807110  20.4589510
  57.6700497  55.9528780  20.0078154  56.5478230  56.8939066  20.3899789
  43.1551695  43.3521986  22.5507998  42.8043222  42.4617386  22.5360489
  42.3809481  43.9141941  22.5819969  71.1748695  54.9193716   1.3415483
  70.5727291  55.6617355   1.2910444  70.7018614  54.2615604   1.8512364
  29.5945835  49.6322584   9.8997539  29.3449211  49.2110586   9.0772623
  28.9102674  50.2838755  10.0525177  16.2329566  69.2135763  47.6140738
  15.8027327  69.5071840  48.4171534  16.6207576  68.3694601  47.8449535
  37.9089737  38.9031363  27.5611329  37.4346972  39.6351862  27.1669316
  37.4796295  38.1228757  27.2102952  16.2198079  55.3307343   4.1672653
  15.2796400  55.2762175   4.3385658  16.6278577  54.9647427   4.9519810
  90.1878452  47.1710300  73.3048439  90.8406639  46.7467928  72.7479935
  89.3753242  47.1222305  72.8011894  13.4252870  60.9006596  12.1931207
  14.1248226  60.3675079  11.8154585  13.0914438  61.4138556  11.4573133
  41.8806076  15.6446922  52.8757000  41.1263084  15.2322721  52.4547815
  41.8804502  16.5417361  52.5417185  73.2469559  77.0323420   6.5106678
  72.3343182  77.1771240   6.2609458  73.3965683  77.6405001   7.2345424
  32.5776553  55.2776194  52.3146582  33.2160664  55.7672644  51.7960978
  32.2364926  54.6164322  51.7124319  23.9151740  38.8517880   2.9115620
  23.8222337  39.5774174   3.5288596  23.2247829  38.9976335   2.2647831
  29.0874290  84.4900894  41.2108564  29.9934721  84.7939587  41.1563015
  29.0269494  83.7977886  40.5526018  27.3966718  40.6214285  34.9854279
  27.1416831  39.7061324  35.1013851  28.3376646  40.5879450  34.8132515
  65.6397295   4.3530175  44.6835279  65.9066343   3.6916453  44.0451097
  65.1414728   3.8654286  45.3394461  60.8381033   0.5784644  10.7359672
  61.3118410   0.6908974  11.5600801  60.0861835   1.1661675  10.8098352
  68.8580370   1.7808574  19.2648697  69.4499207   1.6809341  18.5192668
  69.4347429   1.9719739  20.0045443  50.5364132  58.2800245   5.8654982
  50.1170301  57.7943087   5.1552677  50.1366425  59.1490221   5.8300626
  10.2744722  32.2082186  67.7001524  10.9854281  31.6446280  67.3949718
  10.4651546  33.0637813  67.3155928  11.1977875  56.0628271  15.5647302
  11.1371112  57.0079327  15.4257095  11.8741524  55.9621954  16.2345326
  17.8926015  80.2474308  38.3245873  17.8575623  79.4004345  37.8800559
  16.9753087  80.4946327  38.4416199  31.3393211  54.3409348   7.4616969
  30.8180523  54.2473078   8.2590336  31.6726398  53.4604788   7.2886920
  50.7784128  32.9161882   0.0746302  50.6715631  32.0654297   0.5001029
  50.7175350  33.5505152   0.7888807  30.3596187  83.0137730  13.7646234
  30.4250073  83.9369488  14.0089679  29.7763300  83.0076122  13.0056989
  49.5230198  64.9690676   4.0182844  50.1663065  65.3809071   3.4413886
  49.1448450  65.6960487   4.5129710  46.7277575  58.7718105   3.4846947
  46.4464569  57.8940153   3.2266635  47.1753168  59.1166878   2.7120465
  57.6602173  83.3382988  41.5436602  58.5924959  83.1663513  41.6760254
  57.3042917  82.5047970  41.2357426  19.1305554  16.5635180  16.1021101
  19.1492939  17.4844027  16.3625944  18.3204174  16.4729595  15.6004059
  58.8753271  44.8407888  18.4969616  58.9028120  44.9948978  17.5526488
  59.5331287  44.1620588  18.6481237  29.6090913  55.9888601  19.7692335
  29.6093845  56.8902397  19.4471312  29.2733407  55.4727364  19.0363503
  31.7679381  10.3038442  17.4995506  32.3696136  11.0476458  17.4682736
  32.2745156   9.6030998  17.9101217  51.1005354  12.8987229  20.9809422
  51.0965538  13.3938372  21.8001342  51.9891882  13.0046678  20.6413722
  46.9784498  38.3575916   7.6669842  47.2839117  38.3861375   8.5736865
  46.3332462  39.0623045   7.6093107  15.9157753  20.3305840  51.9581556
  15.8139443  20.8784413  52.7364302  16.8454802  20.1031756  51.9453049
  61.5322018  80.8592796  13.5457718  61.9789648  81.4602375  12.9495454
  62.1614742  80.7101154  14.2514610  69.7326279  83.1562042   1.1978848
  69.9169827  82.9753780   0.2761748  68.9323711  82.6647186   1.3829769
  58.8068628  20.5362272  58.9807892  59.3421173  21.3286400  59.0234041
  58.0801678  20.7055259  59.5803595  26.5565538  69.7406578   9.8292297
  25.9587646  69.7699499   9.0822202  26.0900116  70.2000046  10.5274928
  84.6364784  40.7119417  30.5619454  84.9171352  41.5761375  30.2609086
  83.7709522  40.5916548  30.1712656   1.7129722  21.4108920  71.7740059
   0.9786507  21.9932365  71.9686365   1.7755543  20.8401537  72.5398874
  66.2831974  61.3605642  33.7653279  67.0825958  61.1554384  34.2502213
  66.4041567  60.9387207  32.9146528  26.2129712  21.1147356  69.7145033
  25.7278800  20.8705473  68.9262867  27.1324825  21.0765052  69.4513130
  74.9060440  43.4921503  18.0232072  75.2059460  43.1325626  18.8580644
  74.0257931  43.8206005  18.2062757  18.1911743  24.5188832  28.5779619
  17.4199772  25.0658679  28.7272811  18.8444221  25.1189685  28.2182431
  10.5900788  73.7134075  33.6089873   9.9581611  74.3039036  34.0191436
  10.5080307  72.8960562  34.1003489  41.2798405  74.9282408   3.8846228
  41.8715239  74.7842312   3.1461126  40.5279684  75.3822803   3.5041291
  41.6396332  60.5395746  26.8794537  41.3966513  60.9198236  27.7236128
  41.6905594  61.2882948  26.2852693  44.1320181  42.4690056  50.1055956
  44.1474104  41.9031858  49.3336868  43.2566547  42.8562355  50.1013041
  88.1715012  16.5160275  13.9630473  87.5065327  16.3176906  13.3037221
  87.8048038  16.1811376  14.7813463  84.5816708  45.7374191  54.3113232
  85.1311970  45.0140524  54.0096760  84.5228004  45.6145382  55.2587748
  90.6489182  26.5979910  66.8490934  90.6543064  26.4989090  65.8970499
  90.5776787  27.5418878  66.9912624  50.7881737  79.4525003  14.9301481
  50.9036303  80.3922844  15.0705040  49.9175501  79.3737459  14.5402217
  44.0809059  44.8741150  24.6322417  43.3114576  45.4426432  24.6632624
  43.8421011  44.1812563  24.0164900  42.4110413  62.6268244  36.6138554
  42.5788021  62.5661135  37.5542831  41.5861273  63.1079197  36.5482831
   7.3090857  67.1401405  20.8698463   8.0469346  67.7414370  20.7685733
   7.7100730  66.3103962  21.1286116   5.3689599  71.8866920  34.9391913
   5.1325041  71.5575314  34.0720296   4.7215030  72.5676823  35.1216245
  60.5155563  14.6936178  25.1561546  60.7117128  13.9868402  24.5411587
  60.9425020  15.4634953  24.7803402  37.6358938  61.4747286  28.2775259
  37.5585723  61.7581463  27.3665214  38.5613990  61.5973711  28.4887838
  35.3038740  70.1032114  14.9216259  35.9940171  70.7588053  14.8209584
  35.6704664  69.4609118  15.5293190  90.2074992   0.3145473   1.6669361
  89.4378411   0.8460682   1.4635921  90.0343548  -0.0327523   2.5419453
  59.9049520  20.6970763  10.0097632  59.1031694  21.1900473   9.8355323
  60.5887270  21.1801147   9.5456958  46.2792397  46.0405207  36.6695786
  46.9810057  46.5489006  36.2629986  46.0036707  46.5689850  37.4185920
  30.0702429  79.3988800  18.9818835  30.2804065  78.7545109  18.3059776
  29.4110847  79.9633408  18.5779929  65.9460258  75.1127577  31.1801219
  66.3633299  74.3696117  31.6158056  66.6083288  75.4346514  30.5685902
  55.1598549  73.9382315  73.1568670  55.6504297  73.5256147  73.8677216
  55.4245806  73.4574938  72.3726177   3.2291394  72.8127432  14.5955956
   2.5701579  72.1417809  14.4173121   2.8368282  73.6249018  14.2750907
  52.7011347  36.4276958   6.4307082  53.6561918  36.4330649   6.3669425
  52.4785566  35.5152798   6.6156167  13.5659933  41.3224173  41.8444204
  13.0539227  40.5228329  41.9655848  12.9714084  42.0283604  42.0980787
  77.1220636  64.9616766  56.8814802  76.7190933  64.1756344  57.2502470
  77.5921249  65.3568268  57.6157331  28.5118866  51.8311787  20.5592108
  28.8613772  52.4733686  21.1770105  29.1142154  51.0895920  20.6182456
  46.5742159  82.8287315  54.5602274  47.3330355  82.5025749  55.0440121
  46.8761873  82.8899479  53.6539698  13.8706720  60.3306532  33.8865447
  14.4633472  60.7810640  33.2847953  14.2038941  60.5467319  34.7574663
  70.0688696  55.2146673  11.1270571  70.8093452  54.9340248  10.5893147
  70.4674864  55.7025814  11.8476641  76.7106009  21.1034513  26.4205980
  77.1358252  20.4932570  27.0231581  76.6905165  20.6389451  25.5839014
  52.6566935  58.3212519  25.6476378  53.5805082  58.2533836  25.4064202
  52.4399853  57.4621296  26.0098290  57.4098015  40.2080393   9.7687060
  57.1525335  39.4202566  10.2477098  57.9310513  40.7098675  10.3953636
  26.9989395  19.3385077  67.4544096  27.4225736  18.6058009  67.0073032
  27.1001148  20.0766277  66.8534327  25.8230877   5.2009541  71.2191248
  25.2154112   5.8857846  70.9398985  25.4456496   4.3911821  70.8755541
  86.2683296   0.8957657  17.0337296  85.6849766   1.4916265  17.5037169
  87.1469784   1.2319964  17.2102273   6.9747102  12.1977723  13.0532825
   6.1610764  12.5297916  12.6738155   6.8943298  11.2456322  12.9967082
  18.3512747  65.4499674  27.9837275  17.9008603  64.7335291  27.5364351
  19.0381241  65.7189941  27.3737311  50.0959635  63.4088802  10.2509928
  49.7220564  63.8548231  11.0109651  49.5647621  62.6188326  10.1515651
  21.4323902  79.6675777  11.0391271  21.8567419  80.2956104  11.6237068
  21.6718364  79.9594831  10.1595306   1.0513970   1.4121124  33.6263752
   0.6632002   1.3539641  34.4993877   0.3425209   1.7349757  33.0700588
  37.7284813  69.4622135  34.5813537  37.3101544  69.5394754  35.4388285
  37.1838427  68.8357735  34.1047239  15.4653168  80.4209232  10.5489266
  14.5325100  80.3541470  10.3448594  15.9064269  80.1939297   9.7303122
  27.0765519  69.9306488  66.2152815  28.0330229  69.9199820  66.2510586
  26.8212891  70.6139135  66.8351364  21.7754006  48.2426786  43.5457659
  21.2335896  47.8970671  42.8363800  22.5050402  48.6743689  43.1013489
  31.2574053  76.2229347  26.2537432  31.1096525  75.2783442  26.2074447
  32.0647717  76.3635969  25.7591653  23.4885144  19.5209181  17.8407812
  23.1191730  19.0349996  18.5781431  23.8276005  18.8448095  17.2541559
  86.4015770  16.1010051  32.8620863  85.5818462  16.3910210  32.4618721
  86.8375778  15.5958450  32.1758318  24.4448376  34.3277478  27.1786046
  23.5300779  34.6046090  27.2314811  24.4027066  33.4148550  26.8938541
   3.1123686  24.8338556  24.7225165   2.5496563  24.8355722  23.9481878
   3.9844653  25.0386834  24.3852854   7.9694915  76.6945457  19.4256771
   7.2149187  77.2500706  19.6212375   7.8311592  75.9081316  19.9535489
  70.2091694  65.4319525  71.6205168  69.3345594  65.1987028  71.9317770
  70.0536871  65.9140015  70.8083010  63.5374498  61.5190172  13.0951762
  64.2111111  60.9882164  12.6701331  63.1913614  62.0723772  12.3949969
   3.9174509  36.3401437  32.0351505   3.8415354  35.7086945  31.3197899
   4.5143607  37.0097756  31.7012024  10.7402134  28.8752127  64.4912624
  10.1174474  28.3189440  64.9591923  11.3486898  28.2608247  64.0807581
  30.0357199   7.7126443  68.7089062  30.4870677   6.9592416  68.3282471
  29.1654396   7.3826534  68.9324045  54.8009396   2.9221633  13.6059225
  54.7162485   2.7166626  14.5369589  55.3436232   3.7103263  13.5830116
  86.4205837   2.5688782  40.7733202  85.8845425   2.1631165  40.0919628
  86.9197655   1.8436587  41.1489582  91.1120892  56.0307980  38.4237432
  90.9405041  55.5375671  37.6215529  91.0362530  56.9482851  38.1616378
  18.5435975  55.5104494  12.6221180  17.7453554  55.0599146  12.3463309
  18.9687645  54.8983383  13.2227719  26.5857458  67.3581219  31.6141748
  27.1105003  67.2896957  32.4117851  25.8308029  66.7920208  31.7748570
  30.7055354  51.5057993  28.9621854  31.0624385  51.7636776  29.8120975
  29.7641826  51.4209747  29.1134763  61.8634319   2.1743003  21.7099619
  61.9076061   1.7857899  22.5836539  61.4709616   3.0359444  21.8505526
  68.7029600  60.9926128  28.1469584  68.1353235  60.3423452  28.5606933
  69.5356464  60.5378008  28.0204415  30.6416917  76.0512924  52.3905897
  30.0127363  75.9980392  51.6709995  31.4948320  75.9365606  51.9719934
  51.3733851  27.9076270   0.3755928  51.5313517  28.0849771  -0.5516743
  50.6820284  27.2456197   0.3784442  47.9286146  46.9854116  61.2530708
  48.2679701  46.7648554  60.3856468  47.0336342  47.2838879  61.0913372
  45.2187634  51.2891388  32.6580691  44.5460701  51.9690895  32.6952267
  44.9532938  50.7291937  31.9285345  47.4080181  72.9558992  23.4019947
  46.8253422  73.6212111  23.0358195  47.5222731  73.2146692  24.3164420
  45.2373505  61.5885401  28.5828257  44.7728920  62.3467588  28.2283998
  45.5506086  61.8785429  29.4395661   7.8461403   5.3819287   8.6007142
   7.0630205   5.6280917   9.0930140   8.0358803   4.4875348   8.8840687
  39.7013354  55.6093740  66.4814329  38.9229298  55.3218555  66.0043097
  40.3855133  55.6619263  65.8140707  41.8624449   9.5178360   3.7648511
  42.3431301   9.9832153   4.4493937  42.4524784   9.5243996   3.0111599
  45.9870720  68.5225391  31.8912959  46.5009022  68.4627962  31.0859132
  46.6350222  68.6822939  32.5774956  55.6372595  64.5315695  13.9780784
  56.2704134  63.9995003  13.4961534  54.8885298  63.9503956  14.1117561
  75.4892826  34.0230060  70.9857750  76.3653278  33.6638975  71.1265707
  74.9341154  33.2547593  70.8522940  68.1246281  78.4803247  49.3104410
  67.6555490  78.6115885  48.4864521  67.4664307  78.1228018  49.9064159
  72.0674181  12.1072853  58.3253431  72.1579981  11.8806303  59.2508984
  71.2868071  12.6600814  58.2894087  24.7279763  60.5349827   2.5846291
  25.3170562  61.1672974   2.9962075  23.9322972  60.5680037   3.1157011
  45.4625750  55.9867477   5.9466904  45.8241367  55.1532030   6.2478763
  44.5184803  55.8357048   5.9008145  88.5234261  28.5404468  57.3420095
  87.7910137  28.2082367  56.8229342  88.2432652  29.4121456  57.6210880
  39.3817592  64.5317078  13.9517796  39.8810959  65.1002312  14.5380151
  39.6919703  64.7596693  13.0754042  82.9161167  21.3813996   2.4456184
  82.1291161  20.8365464   2.4440980  82.8199005  21.9390011   3.2176638
  11.6904104  58.6177921  44.7656155  11.0307717  58.7218952  45.4513788
  12.2905195  59.3518305  44.8971176  52.6426888  67.1513271  17.0625186
  53.0519962  67.0502710  16.2031662  53.3738089  67.1305180  17.6799810
  72.5431585  74.1360235  19.8219252  72.1979618  74.2604065  18.9378417
  72.2884703  74.9297810  20.2923656  49.8535776  63.8053846  73.1487131
  49.0946913  63.2720327  73.3850670  49.5246220  64.7042847  73.1509495
  36.4039660  25.5505466  70.6089401  35.7771993  24.8330593  70.7017136
  36.5204215  25.6461215  69.6636677  60.9904099  46.6871738  16.2208402
  61.7018414  46.8283606  16.8454695  60.8133745  47.5555515  15.8591616
  30.0256443  64.7097683  21.6816545  29.7813344  63.7842751  21.6787004
  30.4762650  64.8358679  22.5166845  40.2793980  42.8491163  31.6766024
  39.9231720  43.6910725  31.9602251  40.8087635  43.0598831  30.9074593
   0.2551543  52.3446274  70.7205629   0.3860416  52.2457600  69.7775221
  -0.1461492  51.5198946  70.9944344  42.8144169  81.1094952  44.4391251
  43.3756018  81.7241955  43.9664221  43.4241676  80.5478477  44.9176550
  57.4187183  48.2491589  13.2301068  58.0661345  47.6369667  12.8803813
  56.6965723  48.2184362  12.6025820  29.7320914  69.1352367  22.4107790
  28.8358259  69.1677237  22.0762897  30.1358080  69.9428082  22.0928550
  57.0925808  56.0907984  13.3680463  58.0113840  56.3194752  13.2275403
  56.6854620  56.9053078  13.6631119  21.0479856  19.2404640  58.4524632
  20.1116967  19.4256091  58.3795643  21.4720798  19.9671221  57.9960155
   7.2057277   3.1107339  64.0408802   8.0576891   3.2682607  63.6339664
   7.0484632   2.1752580  63.9128780  69.2004347   8.3806580  28.1491303
  68.5212564   8.7518907  27.5859833  69.2697620   8.9965200  28.8786077
  18.7477458  60.8853245   2.3756064  18.8488674  59.9748993   2.0978823
  18.5795641  61.3657475   1.5649642  40.3009224  69.1382599  28.6388302
  41.1102676  68.8055277  29.0267444  39.6952486  69.2136812  29.3761921
  29.2106867  51.3361740  40.7648563  29.5481157  52.1905231  40.4956627
  28.8713121  51.4801979  41.6482067  73.7427568  38.7328458  14.6522141
  73.8948250  39.5798397  14.2330348  74.5893764  38.2884026  14.6082258
  28.5493064  55.8214140  26.2313008  28.0540037  56.2176991  26.9481468
  28.1970453  56.2315083  25.4413843   4.7940907  42.8184509   7.5599337
   4.2550302  42.5164700   8.2909960   4.2880574  43.5296011   7.1669590
  29.4653726   4.4332328  69.6512699  29.2010522   5.3285140  69.8630190
  29.7247505   4.4714725  68.7306738  67.2229385   0.9334616  64.5252037
  67.4524260   0.1727117  65.0588942  67.0860863   1.6379181  65.1586390
  61.5650272  54.6575165  33.7855077  61.9782829  54.1436052  34.4792986
  60.7081175  54.2489862  33.6628699  59.8807049  85.0697327  27.1297026
  59.4883633  85.9283161  26.9711661  60.7993507  85.1769638  26.8830800
  12.9221368  78.2866240  38.3133483  12.1317220  77.7845907  38.1147552
  13.5919905  77.6231909  38.4788251  43.3815908  81.0655308   0.4917645
  43.5143042  81.7561817  -0.1575631  43.7902784  81.4040184   1.2884007
  89.8907089  53.6406946  23.2974386  90.3071117  54.5007753  23.3531356
  89.8626041  53.3291626  24.2020869  54.4939756  71.1637735  22.0945692
  53.5911322  71.0629988  22.3961496  54.8817348  71.7910528  22.7048087
  33.1332850  42.8515577  27.0860815  32.7608275  42.2040987  27.6846647
  33.6488008  42.3358297  26.4660025   6.7334628  65.0763035  14.3646562
   6.1313969  64.9631262  15.1001418   7.2116625  65.8801508  14.5680869
  23.2586718  71.2689352  32.4459720  24.1701031  71.1348152  32.7058458
  22.9236531  71.9121361  33.0707026  37.1556425  62.7388000  25.6518459
  38.0024290  63.1357956  25.4479337  37.3117638  61.7964554  25.5898285
  91.2928200  19.4712460  62.2713232  90.6359959  19.0111780  61.7486858
  91.4997101  18.8656104  62.9831028  45.9262896  50.5223608  65.3780699
  46.2347126  50.3017759  64.4991827  44.9723816  50.5378819  65.3002787
  61.5995502  61.1604738   1.1116110  61.7193460  62.1005964   0.9772447
  61.9905949  60.9892273   1.9683433  15.0207913  79.6826601  19.6794653
  14.0870523  79.6794558  19.4688642  15.2703190  78.7585640  19.6758187
  68.4910536  40.1398039  11.9552052  67.8177452  39.9242949  12.6005304
  69.0947437  39.3974566  11.9818962  32.6211810  60.5941868  25.3710771
  32.4149609  61.2294388  24.6853924  33.3765697  60.1133728  25.0327969
  30.6670094  71.5873432  19.5839930  31.4322519  71.4953804  19.0163851
  29.9919891  71.0540628  19.1642463   3.8997290  66.0491800  22.2118616
   4.7717342  65.8086824  21.8988132   3.5013187  66.5149260  21.4766192
  37.3390818  69.0129375  21.4395046  38.0738664  68.4000587  21.4129686
  36.8408251  68.8240719  20.6443286  55.7619715  33.6891699  10.1265490
  55.1892567  34.2505002  10.6491804  56.0018301  32.9753304  10.7174230
  31.5576053  64.5730114   4.7996807  31.3893414  65.2870512   4.1848069
  30.9465623  64.7281790   5.5199456  71.3548470  62.3900604  70.4922628
  70.7252645  61.8266392  70.0423527  70.9065771  63.2317400  70.5750942
  34.1014862  78.1192255  13.2651341  34.6094108  78.8675499  12.9516792
  34.6729994  77.3648787  13.1217349   1.4802687  43.4250593  41.7817974
   1.9820324  43.1621695  42.5533867   0.5927749  43.5682058  42.1105766
  62.2504330  27.3484254  25.3610468  62.0019770  27.0548844  24.4845009
  61.7450762  26.7908096  25.9525776  41.8515921  46.5482140  22.1984005
  41.0656691  46.1437702  21.8310046  41.6686344  46.6195822  23.1352377
  66.5524340  46.6507769  23.7349677  66.6031361  45.7618713  23.3835363
  65.7990217  47.0409203  23.2918072  57.5901604  49.4340611  23.5255313
  58.4524727  49.4836664  23.9380670  57.1737528  48.6738396  23.9316130
  44.2256546  50.6730795  25.7939076  44.2119837  51.6182280  25.9447050
  44.7007418  50.5689240  24.9694824  45.5567455  81.1856270  11.2316263
  45.4578114  80.4828548  10.5893135  46.0117626  81.8814087  10.7572007
  55.1762772  15.7305396   8.7646407  56.0431099  16.1061704   8.6105561
  54.6336603  16.0830438   8.0592775  56.2058449  74.8909998   4.4890174
  57.0704508  75.3014135   4.5048663  55.8896971  74.9636316   5.3895772
  38.0361700   7.8177887   4.1640985  38.5741258   8.4973806   4.5702907
  38.3665133   6.9985551   4.5328292  73.5767078  78.6160374   8.8027704
  73.9927435  79.3564844   9.2442262  73.1625605  78.1186581   9.5079863
  67.1516895  27.9890800   4.0192956  66.4380407  27.6331592   4.5486864
  66.7144632  28.4034681   3.2754222  83.7618732   1.6743012  30.6150508
  84.3335438   1.7704621  29.8533559  83.0440998   1.1207539  30.3074503
  86.4706421   7.3600596  13.7608898  86.6765881   6.6886711  13.1104600
  86.0268402   6.8848622  14.4633567  37.4600673  56.4121723   2.1473216
  38.2117319  56.9874859   2.0050450  37.0368099  56.3548279   1.2907019
  72.5902271   6.4310688  13.4052217  71.7175484   6.8220294  13.4477663
  73.0948067   6.8985170  14.0708983  64.8158550   4.5477495  30.6162095
  64.2562532   4.8318470  29.8934603  64.2291498   4.5062757  31.3713837
  16.6788006  84.9396324  38.8545752  17.5318158  84.5493221  39.0449905
  16.3601530  84.4581413  38.0911183  64.8978281  81.7430878   0.9694143
  64.5703030  80.8590794   1.1351854  64.7545004  81.8799305   0.0329501
  43.6695862  36.3811588  13.6958337  44.1331863  36.8453002  12.9987812
  42.8907251  36.9126296  13.8606107  15.6766748  18.8740528  67.7124166
  14.9421370  18.3086455  67.4736691  15.8352733  19.4034946  66.9308949
  77.0081329  16.5777087  20.2157688  76.4034939  17.2936928  20.4107261
  76.7055941  15.8529973  20.7630301  12.8574932  14.7393262  54.3460655
  12.7598643  15.5765581  54.7996569  13.1548893  14.1327727  55.0242090
  90.9276295  13.5435188  33.0156422  90.3002357  13.0182421  33.5123324
  91.7704201  13.1152701  33.1657410  77.0099211  76.9069672  26.0958982
  76.6084576  77.3833799  26.8225980  76.4362574  77.0806980  25.3496027
  51.5831661   8.1617355  35.0534010  50.8472013   8.5505098  34.5807052
  51.7860651   8.7941766  35.7426643  52.6710129   2.9837117   9.6024621
  52.6136065   2.0877552   9.9344242  52.4904966   2.9041222   8.6658132
  86.5026283  83.3681965   4.5113599  86.0765839  82.6592064   4.9930650
  87.3706150  83.4397888   4.9084875  61.8544674  65.8751726   8.4525847
  62.6348448  66.0627747   8.9741713  61.7598867  66.6368294   7.8805989
   6.4241827  38.3218479  52.6010513   7.0656735  37.6177287  52.5065136
   5.9359235  38.3131528  51.7777920  76.8276072  18.7952113   2.4264245
  76.0563231  19.3538523   2.3301351  76.5694618  18.1401837   3.0749077
  28.5232925  61.0657883   1.5581429  29.1444349  61.4748812   2.1606873
  28.9839792  61.0411787   0.7194576  49.6835423  54.2607832  25.4707265
  49.0386295  54.9680281  25.4593539  49.4224453  53.6869526  24.7504640
  84.3297863  70.4167175  49.8354435  83.4385681  70.1484728  50.0590706
  84.3100643  71.3727474  49.8784399  20.9083676  11.9091690   0.7124569
  20.1556587  12.4658835   0.9117885  21.6450644  12.5168157   0.6470879
  21.3285756  25.2981925  36.1457729  20.4274058  25.0387836  36.3376927
  21.5850878  24.7449946  35.4079366  76.4649153  12.9771984  19.8480535
  76.9420767  12.3012257  19.3667924  75.8988190  13.3838367  19.1919959
  22.3074770  30.9662771  71.9750881  21.5830135  31.3773322  72.4467039
  23.0552912  31.0473323  72.5670671  29.3050456  82.6076889   6.4685905
  29.7287703  82.5553703   5.6118810  29.8301673  82.0380402   7.0307118
  35.1413298  46.5666771  37.1216035  34.9830079  47.0531702  36.3125968
  34.8301768  45.6812334  36.9334245  55.3973770  76.9213772  28.0082035
  56.0643864  77.1197796  28.6654449  55.0413370  76.0743093  28.2764173
  11.1652505  31.1534953  57.6414728  11.1060488  30.6742859  58.4679651
  10.2955699  31.0663104  57.2512341  17.3267579  85.6421566  32.0495391
  17.6889992  85.0875664  31.3585663  16.3903213  85.6850815  31.8559504
  69.0859938  64.9731636   5.7178015  68.3247948  64.8892593   6.2920517
  69.3026018  65.9052229   5.7418722  57.8713560   3.8272759   5.4683501
  57.2777557   3.6110789   4.7492322  57.3730421   4.4337556   6.0161614
  45.0763226  64.6055222   1.5650217  44.9470949  65.5465078   1.4463532
  45.0310421  64.2440367   0.6798614  50.3396940  79.0876532  25.2073574
  49.9583864  78.2469368  25.4604030  51.2792540  78.9783573  25.3540301
  34.6758151  52.5101423  40.2436781  34.1056991  51.7429161  40.2943516
  34.4695544  52.9063129  39.3970776  34.4762874  50.3003120   0.8341862
  33.8077545  50.9770012   0.7274679  34.2164063  49.8296642   1.6261345
  46.3284731  57.9110003   9.4429427  46.0352945  57.2716284  10.0921571
  46.6947079  57.3820162   8.7342262  58.6850214   0.9101487   7.2083467
  59.1011333   1.2090725   6.3998127  57.8441715   1.3671044   7.2280949
  74.7775698  15.1930141  35.7301641  73.8540602  14.9741721  35.8545494
  75.2208042  14.3457115  35.6871128  68.3717871  74.6553278  41.8852806
  67.7535772  74.7780943  42.6056814  68.4538317  73.7055302  41.7993069
  55.9340382  58.5091782  20.0701618  55.0867033  58.6852789  20.4791141
  56.4899921  59.2371607  20.3479981  74.8440123  84.4830608   5.0591856
  74.8134279  83.6828804   4.5347825  73.9294720  84.6602821   5.2792907
  72.4943447   9.2474294  28.6392164  72.3855495   9.9584603  29.2707467
  72.0793295   8.4918958  29.0553403  83.2954311  39.6350837  27.4915910
  82.7905369  39.2282820  26.7874408  82.6960564  39.6510077  28.2377386
  53.9248037  14.5571053  35.7751513  54.3608046  14.5580614  36.6272855
  53.4517241  15.3887594  35.7472324  44.1520119  74.0772915  11.1111450
  44.6338844  74.8774767  10.9020281  44.0161610  74.1199589  12.0576942
  35.1931739  67.5606441  10.0774789  36.0955358  67.3210430  10.2885807
  35.1647305  68.5106325  10.1912785  43.8915205  56.8451214  19.6853566
  43.7219143  57.1253204  18.7859392  43.5117769  57.5367117  20.2273226
  45.5310106  71.1190939  36.9190145  45.0288820  71.8594885  37.2594833
  45.2484894  71.0366917  36.0081768  30.1986265  63.2833529  49.8464918
  30.9160900  62.6938534  49.6141768  30.1454043  63.2314014  50.8008003
  10.9342766  15.1497006  39.4547439  11.0031033  15.2386284  40.4053164
  10.0068343  15.2942860  39.2671895  70.5862713  75.0333834  31.6459012
  70.4659939  74.2779541  32.2213030  71.3842058  74.8361731  31.1553502
  11.8262863  34.8529172  71.1118126  12.7448535  35.0161815  71.3258505
  11.7626357  33.9005160  71.0403299  18.0371535  79.9833298   3.7232560
  17.3184705  79.4386864   3.4021792  18.0034530  79.8876286   4.6750638
  74.3556213  12.2199535  25.1985860  74.3106842  12.2104919  24.2424893
  75.1355600  12.7383375  25.3965878  23.7373567  53.5560560  11.2897527
  23.7152719  53.1746292  12.1673977  24.3200660  54.3110561  11.3713169
  91.4367679  13.0716324  53.7384081  91.9367750  13.3864427  52.9853344
  90.5393130  12.9942930  53.4146404  13.6969638  11.9024265  19.4551015
  13.7217283  10.9539700  19.5817852  12.9881406  12.2016954  20.0245237
  85.4557323  56.5694618   2.1425834  85.6695938  56.8107080   1.2413113
  86.2974167  56.5758038   2.5983840  27.0530057  21.0127926  60.5890274
  27.5445914  20.9011936  61.4027357  26.2152314  20.5802107  60.7540751
  46.0171986  79.0875959   1.2415453  45.4113817  79.8275614   1.2823640
  45.9976292  78.8123035   0.3249954  55.9432125  81.2495232  23.2048011
  55.3357649  81.9892693  23.2022738  56.6583824  81.5249157  22.6312804
  68.2039881  72.0135593  23.8588858  69.0868139  71.6508865  23.9317966
  67.7847576  71.7923880  24.6904850  76.4970875   3.3918747  32.9481316
  77.0270824   2.7017525  33.3469605  76.8697596   4.2059478  33.2867074
  34.3585062  40.7556200   2.7681905  35.0045991  40.6645775   2.0678279
  34.8449421  41.1478376   3.4932941  14.5935965  55.8042288  35.4823136
  13.6883783  55.6763983  35.7659864  15.0774312  55.0893497  35.8959365
   9.0687615  46.2648010  65.2768040   9.6580499  46.3035631  64.5234966
   8.3808506  46.8992710  65.0756598  42.0128202  84.0179539  54.7845364
  42.4597931  84.0537930  55.6302118  41.9023895  83.0830383  54.6114254
  45.1235294  71.2426090  11.3031781  44.2466784  70.8593893  11.3254988
  45.0177479  72.1061516  11.7023468  87.3679161  18.4942091  22.9567051
  87.2520638  19.1296005  23.6631656  87.4178505  17.6480544  23.4014082
  34.9178886  83.6031914  26.8805504  35.8418941  83.3757496  26.9840622
  34.5636606  82.9155159  26.3167620   9.0386897  56.6809368  62.2404957
   9.1885900  56.4604139  61.3211823   8.2516879  56.1910915  62.4790525
  12.7340949   1.6703127   1.5158483  12.5718975   0.7446004   1.6974542
  12.5406742   1.7689735   0.5836005   3.8195616  16.2124038  49.7158670
   3.8434923  15.5861175  48.9923859   3.6115441  17.0496297  49.3011236
  68.9340162  80.9894276  50.1034927  68.7176752  81.2417412  49.2058468
  68.7233639  80.0567341  50.1475000  40.7620573  76.5615273  35.7251573
  40.4356480  77.0832634  34.9920273  40.1627922  76.7587376  36.4450288
  31.9244409  57.6962471  34.5966363  32.2730613  58.5834455  34.5096231
  31.3563609  57.7365160  35.3659844  83.1654167  59.8558903  29.4201183
  82.4352169  59.7934198  28.8043714  82.9275417  59.2648602  30.1344943
  53.3401966  76.2504005  50.8009672  53.3465385  77.0157480  50.2261353
  52.4123478  76.0815048  50.9646845  70.1128340  38.0625963  70.4719305
  69.3709850  37.4885607  70.2812052  70.5840397  37.6187444  71.1770487
  69.7334814  16.5078712  22.3011160  69.3682957  16.8251479  21.4751577
  70.5795717  16.9494820  22.3742366  51.1045694  48.1646633  34.0934682
  51.1249065  48.3477974  33.1541705  50.6240940  48.9015436  34.4708085
   3.4949130  23.3706594  17.5654316   3.8495213  23.6021781  16.7070115
   3.5162306  22.4138641  17.5832605   0.5316926   4.6290323   3.4054881
   0.2973612   3.7902185   3.0083585   0.4121401   5.2682728   2.7031276
  84.5966244   2.2872777  28.2245255  83.8049793   2.4841332  27.7237487
  85.2326965   2.0067313  27.5665402  64.7176361  61.6697741  28.7163305
  63.8016653  61.4657021  28.9049840  64.6851969  62.2071457  27.9248691
  62.5716543  64.4290829  37.1284294  61.9708967  63.9628792  37.7097893
  62.9495907  65.1170111  37.6762867  58.7955379  68.8113117  18.9932144
  59.4581747  68.5368586  18.3593214  58.1901884  68.0714750  19.0424132
  23.3326340  40.5791569  72.1122694  23.7930155  40.6508493  72.9484129
  22.8711128  39.7421646  72.1639585  50.0623322  11.5769804   2.5075322
  50.7955742  11.6299808   3.1205350  49.3045616  11.3773012   3.0572098
  85.7493210  82.0513630  62.9279757  85.5095959  81.1938572  62.5766325
  86.3542271  81.8563557  63.6437178  15.4222679  30.1789212  66.6292953
  16.0019124  30.2129722  65.8683205  14.6287549  29.7514844  66.3070107
   1.9746396  85.7865238  22.2784901   1.5800324  86.6346073  22.4816155
   2.2572136  85.4445267  23.1266785  88.1195736  19.5218098  17.9983950
  88.7313843  19.9265552  17.3834932  88.5136986  19.6664846  18.8586080
  13.1045604  14.9174488  62.3708153  12.6312363  14.3549716  61.7577744
  13.0010307  15.7999945  62.0149660  85.9379196   6.0229868   1.4095733
  85.7120895   6.9519669   1.4567889  86.5324974   5.9587240   0.6621917
  70.4185152  79.3762922  57.6369047  69.9527168  80.1696110  57.3724985
  70.7756662  79.0251398  56.8212032  88.1930256  21.6294289   3.6576319
  87.2692966  21.4255691   3.8039157  88.4041882  22.2786713   4.3285504
  40.5891180  81.7923737   6.8772244  41.3787985  81.2542534   6.9325894
  39.8682237  81.1710644   6.9797927  59.1695070  85.7569599  32.4622488
  58.9591742  85.0815201  33.1070518  58.9412737  85.3634644  31.6200519
  84.0551949  78.8130140  19.2363799  84.2811203  78.5776281  18.3364987
  84.3039417  78.0471754  19.7539210  11.5306985   8.0585825  30.2280855
  11.1343193   8.6430490  30.8742380  10.8711517   7.3804075  30.0821114
  88.7306976   1.6075842  17.1619093  89.4252110   1.5161340  16.5095866
  88.8965511   2.4569857  17.5708616   1.5112230   7.9492384  49.3183184
   0.9650748   8.4690940  48.7286520   2.2523057   8.5193270  49.5233250
  89.6448803  16.6211879  21.9123507  88.9594078  16.4148128  22.5477767
  90.4610634  16.5408814  22.4059391  49.5000172  76.7371845  13.1389034
  50.2377939  76.3513041  12.6666594  49.6796513  76.5477419  14.0598130
   5.3729713   4.0670365   9.5710295   4.6286061   3.8790855   8.9993417
   5.0033557   4.5926267  10.2805161  31.1732650  75.1103115  13.9338064
  31.4405847  76.0008287  14.1612887  30.8749986  74.7312021  14.7605753
  76.0866785  13.7417781  43.1878328  76.9274807  13.6183834  42.7473116
  75.4871082  13.1536615  42.7286291  49.7486305  62.7373981  20.6824279
  49.9523497  63.6690760  20.6005120  49.7456264  62.5749207  21.6257310
  86.4720631  59.1380835  58.8523722  85.6363678  58.8183880  58.5123158
  86.4539528  58.9131021  59.7825813   3.1543416  11.9959378   6.8316013
   3.7319154  12.7322388   7.0328504   2.8679821  12.1550250   5.9322011
   7.0006555  50.4135847  72.5429535   7.7151555  49.8367119  72.8130245
   6.8963420  50.2435255  71.6067743  71.8729353  53.3167028  20.9970856
  71.4803696  53.7323475  21.7647886  71.2877464  53.5459328  20.2751136
  55.9848738   4.9020681  42.8284979  56.2169552   4.0391713  43.1716871
  55.6270599   4.7254786  41.9584322  55.2626705  75.6286144   9.6419430
  55.0407887  74.9278927  10.2551222  54.7609997  76.3836384   9.9493378
  61.5480947  72.9836273  53.5199308  61.1730766  72.4754381  54.2391920
  60.8014917  73.4450054  53.1378984  11.0291147  16.9389963  68.5098362
  10.2660036  17.0963633  69.0658331  11.7323840  16.7256486  69.1231298
  52.7763700  79.7404861  29.3524194  52.8742218  80.2787209  30.1378822
  52.6988125  78.8456726  29.6833706  77.4020290  74.5026684  57.1509647
  78.0746746  73.8968563  57.4620485  77.0118332  74.0606546  56.3969088
  58.2637501  33.0258822   9.2072684  58.1879950  32.5245714   8.3953696
  57.3627329  33.2618046   9.4280404  20.7659984   1.7095472   4.4395238
  21.0325623   2.6285011   4.4130802  20.1586509   1.6574790   5.1775289
  77.4999189  11.9393325  33.3685088  78.0621529  11.4249587  32.7892518
  77.2335291  12.6906335  32.8385901  45.5015516  72.2653198   1.2525563
  45.2360201  71.8019962   2.0469484  46.1545992  71.6936779   0.8488432
  65.3735971  85.6023312  32.5288749  65.7012081  85.8390808  31.6612053
  65.5598116  86.3679790  33.0723262  19.8035097  74.8098373  34.4760013
  20.0850153  75.6384373  34.8638272  19.9428451  74.9257278  33.5361147
   2.2854654  22.2395468  58.8984013   2.2470337  21.8912053  58.0076647
   1.4294794  22.0327663  59.2735815  86.1636639  16.1616743  73.4696865
  86.8483639  16.1448836  72.8010035  85.3593445  15.9538639  72.9941702
  13.8015664  20.3576183  64.7029924  13.5356700  21.0295343  64.0752506
  13.0364239  19.7880149  64.7826147  39.2112708  74.6562243  11.5678048
  38.9001727  74.8695326  12.4475479  39.8052454  75.3725624  11.3435626
  20.4242587   9.0127498  63.8575411  20.0798011   9.3214452  63.0195141
  19.9687088   8.1854993  64.0136337  11.5622568  78.7342405  54.0561104
  12.1926606  79.3215418  54.4731236  12.0552397  78.3158779  53.3502960
   3.6102441  18.6283159  74.0592909   3.0344546  18.1616378  73.4535599
   4.4422060  18.7003493  73.5914421  45.4819632  51.2141991  23.4739661
  45.3808641  50.8195066  22.6078105  45.2263021  52.1285105  23.3518577
  88.1475830  68.5398483  48.8516951  88.3754921  68.1135178  49.6778488
  87.2196388  68.3406115  48.7273741  33.6814141  68.7614918  19.6572840
  33.0149245  68.5436153  19.0057075  34.4764805  68.3341074  19.3387866
  87.7134705  16.6094661  37.3054051  87.3254204  16.3348818  38.1362176
  87.1937275  16.1608648  36.6384315  24.2340469  58.5618305  64.0894175
  23.5840154  57.9155445  64.3651056  23.9066958  58.8882780  63.2512569
  25.4223418  34.5448303   4.0207058  25.7712865  33.6535144   4.0254956
  26.0526514  35.0515580   4.5327324  64.8153353  13.8007641   4.2655987
  65.1966524  12.9233754   4.2975336  64.5781231  13.9255214   3.3466884
  82.0039272  36.3695884  56.6412020  82.1015358  36.1808920  57.5745296
  82.8845119  36.6083646  56.3517475  40.2019310  74.4042349  39.5078063
  40.1361704  74.3133640  40.4584122  39.2938375  74.4281483  39.2060995
  88.7442780  65.2884436  63.6349821  88.0270386  65.8961058  63.8153934
  88.5440636  64.5173120  64.1655445  81.9647121  79.4973946  12.9951739
  81.3116837  79.6214008  13.6839449  81.4731884  79.5919800  12.1792746
  28.3631349  36.7001820  67.9946375  27.8574038  36.3449287  67.2637033
  29.0524626  37.2185040  67.5794315   5.8192426   2.4198395   2.5226575
   5.0439912   2.5022164   3.0780232   5.5482948   2.7799958   1.6782011
  46.1665869  82.1789646  32.3153615  45.2188301  82.2833824  32.2312069
  46.3447714  81.3102627  31.9550180  85.4176807  80.1008129  54.6003580
  86.3513756  80.2939224  54.6849775  85.0147247  80.9470463  54.4060850
  77.7882814  75.9338999  43.7909269  78.3909750  75.7282019  44.5055437
  77.1554327  75.2157831  43.7971354  75.7919025  76.9742966  28.9487505
  76.2315750  77.2059250  29.7668409  75.2338696  77.7275276  28.7551594
  81.3609219  15.3548348  67.8847980  80.6045723  15.6637859  68.3835077
  81.8910694  16.1391437  67.7432394  40.7656670  67.2035456  18.7067151
  41.4334011  67.7809286  18.3365929  41.0845137  67.0016241  19.5863724
  34.8987317  80.2552032  46.7943716  34.6897960  79.3263960  46.8938494
  34.8560381  80.6068802  47.6836014  13.8201582  68.5524988  33.2415438
  13.3154356  68.1890345  33.9691281  13.7051582  69.4995403  33.3197689
  15.2741063  10.0853801  71.0373354  15.6946325  10.7869971  71.5344477
  14.9957120   9.4548655  71.7015457  52.9128122  55.8526230   4.6608481
  52.4654436  56.5534210   4.1865367  53.7717199  55.7908869   4.2428744
  79.0770292  56.2895823  10.0550091  79.6023941  57.0757198  10.2040458
  78.6049318  56.1575842  10.8771610  75.4001713  73.9995098  19.0981865
  74.5574284  73.9743710  19.5513773  75.6803417  73.0849218  19.0625751
  37.4855447  82.2235870  20.4122186  36.7180014  82.7262878  20.6849742
  37.6560855  81.6307831  21.1441588  41.5891123  49.7557402   4.4782183
  40.9752464  49.3524694   5.0920331  41.0402632  50.0588036   3.7549296
  68.6728096  75.8333683  29.7355986  68.7557268  76.7704487  29.5588660
  69.1964960  75.6910849  30.5241036  48.5661173  81.5944576  56.1958981
  48.1161308  80.7792759  56.4177561  49.4136238  81.3138962  55.8505774
  22.6933885  13.2195890  31.3704586  21.9276714  13.7293017  31.1056948
  22.3341942  12.4993277  31.8885660  43.0769110  74.7551918  30.5343914
  43.6478662  75.4726124  30.2595353  43.2736063  74.6350193  31.4634252
  55.7865620  71.5613270  60.9562492  56.4283609  71.1784124  60.3581667
  55.5785179  70.8553839  61.5682888  12.6668763  72.3185730  39.4409919
  13.0339038  71.4414358  39.3307734  13.1532121  72.6910257  40.1765108
   3.2963946  16.0310256  55.9776449   3.5612157  16.6324067  55.2816248
   2.3418219  15.9977376  55.9150743  39.5051050  77.4490547   1.1701815
  38.9928055  77.9112244   0.5067198  40.4148531  77.6600218   0.9602198
  61.3958454  19.8368454  40.0878525  60.9304047  20.3006911  39.3918300
  61.9066715  20.5160475  40.5282784  44.7112083  46.7242241  30.8706117
  44.4932413  47.6460028  30.7325959  44.9326801  46.6670465  31.8000817
  59.9381971   2.4105610   2.0518643  60.3616047   3.2689720   2.0422739
  60.4065752   1.9050415   1.3875550  36.5159798  71.0616732   5.1776350
  37.4538541  70.9991407   5.3585064  36.4305758  70.7974339   4.2616019
  32.7795005  60.8230209  58.7106657  33.6239672  61.2689781  58.6456442
  32.3683906  61.2007713  59.4881773  55.5197573  67.8448200  16.1811590
  55.5071974  68.1021214  15.2592754  55.6959772  68.6579752  16.6544008
  76.0003090  43.8853216   3.4854171  75.9851646  44.2655468   2.6071069
  76.2565899  44.6100616   4.0557694  23.4241462  80.5398464   3.5012773
  23.4897327  80.7481098   2.5693130  22.5003576  80.3277206   3.6348608
   2.3288131   1.5843542  45.3624535   2.9933947   2.1519223  44.9720287
   2.7753967   0.7480013  45.4940128  60.5550623  74.2389345  27.9279637
  60.3537750  74.6697426  28.7586975  61.2507439  73.6175585  28.1427932
  73.2198906   4.3926165  11.4802623  73.1166029   3.4821978  11.7572129
  72.7680159   4.9006560  12.1540117  26.1713266  13.9739943  72.7972174
  25.3282976  13.5335469  72.6897907  25.9875083  14.7013569  73.3916807
  84.8896217  14.3765974  41.8000221  84.5315838  14.2843795  40.9171104
  85.2050781  13.5008705  42.0232296  31.1329556  75.9672880   8.2194680
  31.9576383  75.9555864   8.7052566  30.7662654  75.0926447   8.3489621
  31.7977428  22.3887014  56.0018587  32.5541925  22.9408073  55.8038807
  32.1760917  21.5705991  56.3240290  69.6912575  10.1579964  42.4578333
  69.6917295  11.0657728  42.7614355  69.0381193   9.7225833  43.0056047
  82.7564144  16.2671542  23.9435077  83.0682564  17.1511912  23.7499619
  81.9878197  16.1564124  23.3838344  84.9930191  62.6322985  22.4453306
  84.9316788  62.1025896  23.2402372  85.9060097  62.5472307  22.1706772
  77.1017408  38.7660217  16.4986563  76.3874149  38.9830685  17.0977008
  77.8709602  38.6850214  17.0625472  35.5809879  71.1877775  45.4518127
  35.6226850  71.7915249  46.1934185  35.9237671  71.6913319  44.7134542
  86.2478924  14.2315209   4.4028199  86.0035038  14.0104401   5.3015041
  85.7538795  13.6154771   3.8618255  89.5902920  84.8455620  54.0624762
  89.2146301  84.1022778  53.5906267  88.9996052  85.5740452  53.8710880
  50.8735466  81.7920685  45.1571989  50.0385857  81.9549847  44.7184086
  50.9799767  82.5339603  45.7526064  69.5362473  81.7101192  35.7553196
  69.1376829  82.5785351  35.8121395  68.9037752  81.1282635  36.1768198
  26.2867904  80.9330177  61.6680145  25.8822012  81.0513115  62.5274038
  27.1982646  81.1967659  61.7940474  17.2966421   1.5322283  39.2353678
  16.4830220   1.7904164  39.6684885  17.0135999   1.1293555  38.4145069
   1.2768652  21.9019485  29.3579412   1.5813404  21.4775753  30.1600838
   1.0564159  21.1774445  28.7725115   1.9247773  76.0334873  27.6493645
   2.2354886  76.8943501  27.9297185   2.2806412  75.4271793  28.2989669
  80.1246452   9.1171473  20.0089002  80.4145336   8.8827729  19.1272736
  80.3495407   8.3567470  20.5450392  47.1351576  78.2181787  25.4702210
  46.5448761  78.9711714  25.4418921  46.6138697  77.5199747  25.8664608
  66.4934254   0.7848746  62.0611191  66.1015701   1.5767778  61.6929197
  66.7317963   1.0291252  62.9554081  51.8504810  80.1511955  68.2275677
  52.0284414  79.8928213  69.1318941  50.8985567  80.0940704  68.1450558
  83.7948895  12.5918674  11.0921347  83.6241722  11.7336011  10.7042336
  84.0606689  12.3996973  11.9913924   3.2615420  52.7498531  71.8825245
   3.8566816  52.6950550  71.1348343   2.3869489  52.7413750  71.4936209
  52.1206713  79.7615433  46.3846493  52.9828787  79.8448038  45.9773445
  51.5554619  80.3363609  45.8685541  79.2675209  13.8779473  13.9624023
  79.6140957  13.9274228  13.0715215  79.5267868  14.7059846  14.3665898
  51.7985153  80.4120636  42.8822422  51.7432356  80.7343292  43.7818623
  50.8877611  80.3452396  42.5953770  19.4935358   0.1213644   8.5367173
  19.9590433   0.8888024   8.2041919  19.5249295   0.2160751   9.4887024
  62.6564932  37.7166152  16.6412914  61.9410086  37.0833087  16.6981721
  62.9727888  37.6404309  15.7410777  40.0967169  73.5538864  50.6039953
  40.0462198  72.6339483  50.8635902  40.8880091  73.8805151  51.0322571
  63.3833408  17.4069452  30.4633236  63.8603163  17.0941186  29.6946454
  63.0179834  16.6147590  30.8572602  25.9692812  25.8569264  33.2689905
  26.5779614  26.5906096  33.3553004  25.1058865  26.2435746  33.4148788
  51.2271309  70.6110811   6.8943292  50.5539846  70.5042505   6.2222511
  51.6582394  71.4364052   6.6724664  82.2408485  13.4090602  16.7429185
  82.1673298  13.1318355  15.8296967  82.3633099  12.5949514  17.2312438
  75.8116531  39.7117996  38.9555550  75.7034540  40.6558037  38.8398743
  75.2844524  39.3229842  38.2576156  74.1293001  64.3924141  58.0686665
  74.4785786  63.5529900  57.7693415  74.5583391  65.0424623  57.5122547
  48.6683702  41.9166136  34.3784356  48.1538677  41.6624403  33.6123300
  49.5704174  41.9519234  34.0601754  13.6180127  13.3268952  52.3540640
  13.7383056  12.4412286  52.6966333  13.5136342  13.8729644  53.1332588
  72.9813433  61.3605690  72.5112677  72.8493261  62.1912432  72.0543385
  72.4028158  60.7450199  72.0611143  66.5381527  69.1491461   0.5970745
  66.0777712  69.0747690  -0.2388366  66.3966036  68.3044338   1.0244585
  58.3327484  40.9018564  65.0601625  58.2750034  39.9602985  65.2225399
  58.0044317  41.0115814  64.1677475  16.4783192   7.0052749  39.4021130
  16.6688085   7.9418516  39.4547415  17.3117912   6.6048759  39.1546512
  47.1948576  79.9935865  18.7291193  47.2089720  79.0414906  18.8268244
  48.0716944  80.2742577  18.9910543  16.4845073  78.7316513  12.4262047
  16.1165023  79.4533777  11.9163859  15.8841586  78.0014944  12.2755969
  85.2008724  27.6659942  45.0981712  85.4261494  27.8133035  46.0167456
  85.5557919  26.7992735  44.9005413  25.7635450  12.2519493  23.5232234
  25.7510686  12.4232292  22.5815558  24.8733902  12.4495816  23.8144279
  15.3869462  10.8778822  35.9659791  14.4383442  10.8487701  35.8413196
  15.5067050  11.3683188  36.7792201   6.9429678  51.7322302  32.9685187
   7.2965628  52.3550844  33.6035395   6.5716660  51.0301828  33.5028386
   6.0198498  78.3395290   6.9755942   6.3441789  78.5706186   6.1051691
   6.3781673  79.0147209   7.5517535  64.3051195  57.1160936   8.6284035
  64.9131107  56.3778734   8.6685365  64.2533875  57.3334455   7.6976436
  71.1300898  37.5310421  33.6316943  71.3936615  36.9963765  34.3806243
  71.2855434  36.9710708  32.8711009  51.4112711  81.8141174   5.4950136
  51.6335154  82.6164532   5.9673399  50.4546404  81.8128300   5.4619378
  64.2087555  44.5644474  15.4476917  64.0082598  44.8340321  16.3439929
  64.5467281  43.6732197  15.5355680  28.1989837  20.7424784  39.7431278
  27.9676914  21.6713142  39.7446847  27.8824735  20.4154253  40.5852032
  19.8554814  76.2699509  29.5136762  20.3940964  75.7956982  28.8802624
  19.0155506  75.8109617  29.5050550  64.9861336  49.9195480  67.5703096
  64.8950863  50.2474117  66.6756344  65.6674051  49.2497158  67.5117636
  30.9428668  64.5910120  67.6043463  30.9112549  63.6682844  67.8569365
  30.1714969  64.9789953  68.0174923  50.8898783  75.7663012   7.0439184
  51.8318415  75.6359339   6.9346672  50.6738853  76.4735556   6.4361596
  71.3513231   9.5339632  15.5589926  72.0346165   8.9401597  15.8700216
  71.5762234  10.3807569  15.9444678  63.5127544  82.3956585  61.4935970
  62.7079916  81.9759369  61.7976046  64.1856527  82.0935726  62.1036625
  29.5336533   1.7878819  59.8284864  29.0047884   1.0920543  59.4381571
  29.5225358   2.4904411  59.1784763  76.6138172  79.0712595  50.1022148
  76.6209316  79.8365355  49.5273018  76.4118195  79.4244576  50.9686327
  86.9697475  81.5433121  38.7901258  86.1556721  81.0509968  38.8956809
  87.3078346  81.2672710  37.9382253  50.3853989  77.8077555   4.7420582
  51.3294792  77.9653931   4.7517246  50.0135565  78.5512400   5.2166021
  71.4118242  76.0135746  67.7901268  71.2215519  75.6807041  68.6671829
  70.9030104  75.4520941  67.2052479  10.3241801   5.6972563  22.2523475
   9.7831833   6.3632816  22.6765704  10.9265101   5.4062164  22.9369855
  87.4547482  41.9425869  28.9963460  87.5522327  42.8063059  28.5954428
  86.6277599  41.6090059  28.6484337  89.6540546  10.6329608   5.2019328
  90.5189896  11.0398734   5.2522850  89.3238831  10.6602347   6.0999727
  19.6149635  14.6250916  57.0409870  20.1349473  14.0458679  57.5980759
  19.5805585  14.1771126  56.1957884   3.5222176   0.8460663  34.8031068
   3.3656284   1.6043091  35.3659391   2.7274323   0.7716587  34.2748904
  41.3097048  57.0966864  68.1541729  40.6763220  56.5092421  67.7419043
  42.1604824  56.7891455  67.8414011   1.9619724  10.0657189  65.6680727
   1.6499297   9.3335903  65.1362371   2.7007046  10.4223371  65.1747894
  25.0275636  23.5379124  72.6826096  25.4738927  23.8166261  71.8830204
  25.7312727  23.4176946  73.3202362  62.9261112  67.9799461  14.7139978
  62.8755617  67.0260143  14.7747326  62.5008011  68.1898832  13.8825715
  67.4874353  80.4699898  52.5100899  67.4166107  80.4749298  51.5555239
  67.3677111  81.3851357  52.7638817  87.0952702  35.2136087  28.7323523
  86.2983131  34.7400999  28.4938478  87.6633358  34.5470762  29.1186976
  77.7819443   5.0757009  35.2022767  77.9004717   4.6214038  36.0364223
  77.9822874   5.9911108  35.3975224   3.1963071  57.1982527  67.9429817
   3.3511323  56.3595438  68.3775234   4.0645087  57.4852419  67.6599693
  24.6248269  17.3592424  37.5887871  24.9883962  17.8316665  36.8398762
  25.3869390  16.9765127  38.0234551  65.7320499  69.0383387  58.5527468
  65.4383659  69.9329567  58.7249136  65.4886150  68.5507202  59.3396378
  81.5491867  37.3422313  18.8763142  81.9221592  36.9109941  18.1074488
  80.8927059  36.7262053  19.2015469  91.4413003  80.4352570  25.9286594
  90.9968705  80.1752377  25.1217508  91.2562261  81.3705730  26.0133147
  74.1783857  28.0751276  22.2017217  73.3586073  27.6506805  22.4547791
  74.3749380  27.7190423  21.3352323  15.8721495   7.3001564  32.3548603
  14.9822378   7.5940806  32.5495362  16.1620891   6.8664551  33.1574011
  84.2044544  39.3441033  32.7385163  84.4216824  39.7552705  31.9018650
  84.4752598  38.4319162  32.6345611  69.5166016  21.6813564  34.4604015
  69.6127033  22.3518133  35.1367784  70.0875425  20.9685087  34.7469378
  72.2826910   6.7224950  10.3629470  72.6473522   5.8604169  10.5631340
  71.4279270   6.7269063  10.7937503  59.3682480  83.9250183  14.2628229
  59.7089338  83.5423756  15.0713706  58.5437155  83.4639740  14.1085088
  67.2154284  59.7865295  31.8318963  67.2109413  58.8777828  32.1325445
  67.0547676  59.7280216  30.8900928  12.7452505  78.6794996  15.3855801
  13.0909324  77.8983116  14.9537396  13.5197484  79.1281796  15.7248020
   7.3000526  35.9638143   6.1243522   7.3516661  36.4961290   6.9182092
   6.5755928  36.3441515   5.6276286  74.0310049  42.0813036  55.2669621
  73.2080841  42.5407743  55.4340363  74.1210842  41.4760256  56.0030031
  16.0153115   6.3280958  27.1039152  16.5632963   6.7163301  26.4218450
  15.4674315   7.0504189  27.4110126  12.3084950  30.0696635  44.9392176
  13.1871009  29.6922445  44.9821281  12.4274671  30.9834933  45.1980495
  29.6296120  55.8558989   2.9626796  29.1497040  56.6216421   2.6471516
  29.0417290  55.4507780   3.6002511  42.4671841  15.6056988  24.6703148
  42.8603506  15.9154689  23.8544130  41.8654251  16.3045585  24.9266648
  23.6764097  53.9511538  18.2873595  24.0671468  53.5719299  19.0745986
  22.7328205  53.8637543  18.4223759  38.4327841   1.5624262   2.9789722
  38.4451580   0.9643550   2.2317176  39.2334795   1.3585213   3.4622324
  17.1610594  25.1064920  63.2043791  17.3924208  25.7561588  63.8681841
  17.4966025  25.4709578  62.3853540  78.1387854  16.5215349  62.3587418
  77.9245758  15.6524873  62.6980066  78.1505585  16.4112735  61.4079857
  26.7146420   7.6397121   8.8341343  25.8821583   7.2181159   9.0473479
  27.0679855   7.1204823   8.1117904  16.2933469  22.5865579   1.0751375
  15.8863151  21.8914676   1.5922524  16.7693925  23.1145024   1.7161424
  38.7353802  33.3946371   1.7406808  38.0494118  33.3260679   1.0766194
  38.5808015  32.6504016   2.3224473  27.5960922  63.1300831  66.3606596
  27.8697419  63.0047417  67.2693014  26.7020297  63.4660625  66.4239550
  62.6481199  48.9315701  52.5601006  62.3907471  49.5512676  53.2427168
  62.2636223  48.0991888  52.8349352  20.9263945  40.9528923  31.4344430
  20.8509183  40.1869011  32.0034719  20.0242090  41.1601067  31.1908150
  88.6156654  57.2182608  67.0441675  89.5408916  57.3535776  66.8395090
  88.3265686  58.0541706  67.4101067  70.3404331   0.5066701  56.2051392
  70.1495504  -0.2876977  56.7039108  69.6104240   0.5850822  55.5909920
  76.2349319   0.9969818  69.3022442  76.1153936   1.7191960  68.6855221
  75.3775311   0.5735086  69.3442631   5.0911152  17.1151698  20.3044796
   4.9186188  16.8673337  21.2128043   6.0446888  17.1784925  20.2504468
  88.8009167  86.1550236  58.5596609  89.3400288  85.4088497  58.8219738
  88.2990170  85.8359909  57.8096342  44.9927664  57.4835539  55.7828665
  45.6420994  57.5158024  56.4854050  45.1812029  56.6672659  55.3198385
  21.8488193  32.5001907  20.1085329  22.2939348  31.8617654  20.6657767
  21.0941434  32.7836084  20.6246424  49.4434929  25.4552674   1.2811229
  49.2117262  25.7825518   2.1502605  48.7670994  25.8092308   0.7036846
  67.9481936   9.4962174   2.7542770  68.7073612  10.0730968   2.6699767
  68.2217360   8.6781788   2.3392849   0.4753676  65.4863882  70.4210186
  -0.1492927  64.9314404  70.8879900   1.1267601  65.7221317  71.0815859
  20.2540684  59.7456360   9.5678496  20.7629156  58.9778614   9.8282939
  19.7893751  59.4684172   8.7782645  64.8698092  78.7498808  50.2734423
  64.1339731  78.7820339  50.8847857  65.1730394  79.6559429  50.2157545
  38.7551379  30.4193377   3.5977039  38.4845853  31.0596347   4.2557722
  39.6146083  30.1198387   3.8940868  37.1881318  58.6766911  71.1899424
  36.2385845  58.5598278  71.2204838  37.3223972  59.3821716  70.5570936
  69.8074341  55.7858801  74.1317320  69.8575163  55.2239656  73.3584404
  69.6825218  55.1788521  74.8612165   7.8390449  31.4505816  28.9383984
   7.2435582  32.1463728  28.6600065   7.4670529  31.1317301  29.7607040
  30.7201982  32.8498197  21.5800786  29.7659993  32.9148722  21.6188407
  31.0305524  33.5062623  22.2037721  40.6887197  32.8901219  18.7532294
  41.2050962  33.5445189  18.2827508  40.6826115  33.1965494  19.6600354
  48.5292768  60.9173203  70.8960009  48.3170414  61.7489624  70.4722643
  49.2606878  61.1246490  71.4776182  12.2586441  12.6251376  17.2340655
  12.8563094  12.6647115  17.9806995  11.6785038  13.3773828  17.3515248
   7.2215605  82.0408916  16.3437772   7.4025404  82.5080395  15.5281448
   6.3172138  82.2715759  16.5563166  60.4422760  17.2521591  13.9432466
  60.0273943  17.8598559  13.3310270  60.8690357  16.6029489  13.3841085
  18.8346994  75.7122040  13.0356956  18.8571870  76.6530991  13.2101512
  19.7450840  75.4302597  13.1248093   2.1831827  43.3578539  53.0073452
   2.0862909  44.3068552  53.0863333   2.7529734  43.1137371  53.7367153
  82.4508190   6.5414166  43.7388945  83.1008816   6.6441023  43.0438375
  82.5456047   7.3295182  44.2738152  73.1703091  61.1946011  61.3207483
  73.7917042  61.5471125  60.6836987  73.7069178  60.6664228  61.9117785
  85.4965210  16.1085725   8.6502010  85.7449055  15.4072142   9.2523921
  86.3111019  16.5841734   8.4874266  52.1983814  12.0571709   0.3041878
  51.4233017  11.7957318  -0.1929379  51.8834305  12.7386332   0.8980278
  63.7157774  17.1554005  65.9662008  63.1818151  17.9472613  65.9023666
  64.3862438  17.3702598  66.6146898  36.7587185  17.2166431  18.5313094
  35.8773875  17.2609806  18.1604695  36.8115282  17.9737937  19.1145468
  28.1812119  35.7743740   8.2568055  28.6095858  35.0338101   8.6860979
  27.5704527  36.1107945   8.9125693  67.8417635  83.0722904  53.7431526
  67.2715902  83.1670380  54.5061445  68.7235355  83.2255840  54.0825796
  43.0579996  14.0216553  18.9706302  43.4688330  14.7331560  18.4794950
  42.5447226  13.5453308  18.3180285  33.6323953  22.4734116  29.8579478
  33.6318469  23.3480453  30.2468562  34.4520879  22.4307752  29.3654871
  64.8777580  68.8531160  73.7676811  65.5816603  69.1595936  74.3393660
  64.9091864  69.4408894  73.0128527  43.8606644  68.4328413  62.2544098
  43.7817430  68.5311604  63.2032681  43.8175917  69.3273878  61.9165182
   9.0527916  38.3654952  40.0767136   9.2261517  37.4851966  40.4102659
   8.1193054  38.3618760  39.8650026  10.7297766  25.5940127  20.7973504
  11.2732935  24.8578215  20.5165625   9.8327255  25.2649999  20.7400680
  88.7236214  27.6160455  23.9311671  89.4686699  27.6910400  23.3349228
  88.3008480  28.4740734  23.8953137  76.9490957  12.9302549  58.3613157
  77.0327187  13.6172676  57.7000666  76.3557577  13.2987452  59.0158367
  18.5058856  73.0422401  70.3703594  17.6135314  72.9574776  70.7061434
  18.8345766  73.8499832  70.7649994  31.9034576  22.7348280  13.4943855
  32.6140451  23.3515835  13.3185768  31.6460729  22.9172587  14.3981016
  21.1744356  21.3118267  60.5330372  20.5669928  20.6262994  60.8110666
  21.9625711  21.1593437  61.0544062  43.8291121  11.0647941  26.4574432
  43.4597969  10.6641960  27.2444391  43.1353474  11.6388190  26.1327600
  46.8394518  64.5819950  72.6870060  47.0363903  63.8427305  73.2622766
  47.1315193  65.3509092  73.1765985  67.7029610  85.1671791  66.3345623
  67.7858400  85.6558323  65.5156708  67.7290058  84.2480183  66.0686684
  31.7801976  39.8818660   3.3003199  32.7252364  39.9285746   3.1555766
  31.4920950  40.7946777   3.2977468  19.0605438  77.8154421  22.5324845
  19.2765057  76.9589424  22.9012680  18.1837070  78.0056190  22.8659844
  16.0775399   5.4122669  11.1896884  16.2459254   5.2030998  10.2709246
  15.3235424   6.0015035  11.1668849  29.4739532  13.5593855   5.6842101
  28.9923429  14.3691087   5.5150044  29.0061092  13.1500912   6.4121062
  11.8219805  62.6438856  18.2357192  11.1597812  62.7128839  18.9234424
  12.6549816  62.7595901  18.6928344  68.5352373  40.8159161  70.3997135
  69.2903423  41.2971401  70.0613642  68.9040232  40.0018215  70.7424593
   2.4217145  18.1254661  13.5204756   1.6476382  18.6423779  13.7437260
   3.0974314  18.4328508  14.1247559  34.4519329  70.9450626  34.0921283
  35.0408864  71.6995907  34.0848398  34.3678021  70.6979895  33.1711984
  67.9844522  85.4313850  21.7845607  68.4560776  84.6671772  22.1159220
  68.5177279  85.7435036  21.0535097  45.2350140  22.6605940  50.3476763
  45.5839252  21.7989540  50.5758667  45.4992056  23.2258821  51.0735464
  67.8118753  57.2516680   4.2934567  66.8826580  57.4503708   4.1781449
  68.2115698  58.0936146   4.5116347  28.9889431  44.6211910  13.2919407
  29.5218587  45.1623106  13.8745391  28.8831043  43.7946415  13.7629461
  53.4372759  42.5232124  32.2446561  54.0903568  41.8314600  32.1388197
  53.4427977  42.9878807  31.4078259  34.0302157  39.9199176  41.6690874
  33.7481308  40.3872776  42.4553680  34.9681735  39.7788835  41.7978430
  64.0768909  62.8147078  69.9904537  63.5613680  63.2872438  70.6440401
  63.8769054  61.8921471  70.1489449  66.9504309  21.3566995  12.4172151
  66.7038536  22.2464585  12.6697230  67.9008293  21.3309312  12.5281584
  59.4901276  29.5499516  23.6917925  58.6321259  29.8423505  23.3842826
  59.3608046  29.3646169  24.6219325  59.9143934  25.8383703   4.7163868
  59.0464258  25.4420829   4.7927019  60.4101229  25.2263618   4.1723913
  73.7175226  54.7819710  69.6611834  74.3868637  54.1192818  69.4907236
  73.6217451  54.7862101  70.6135702  56.2611151  55.3105068  29.1093063
  56.3272047  54.3787384  29.3182731  55.5982161  55.3550053  28.4202361
  19.8772192   9.5091659  51.9439697  20.6569028   9.3252796  52.4679041
  20.0580549  10.3551054  51.5341902  66.9842958  30.8811998  32.0919514
  67.7082062  30.8984876  31.4659452  67.2263432  30.1999378  32.7192688
  47.8983593  74.4375753  69.6015882  48.0291271  73.4894371  69.6143818
  46.9502687  74.5476389  69.5291471  76.4140177  72.4700069  59.4229364
  76.7366886  73.1149244  58.7934971  75.6468868  72.8841352  59.8182201
  47.2601414  18.0702662   7.7129650  47.7651644  18.8754630   7.8262866
  47.7669382  17.4026227   8.1751770  74.2640781   2.4977912  40.3799438
  74.7579432   3.2115787  40.7834721  73.3725071   2.8373599  40.3023195
  16.4485967  66.6274166  53.7554216  17.3548162  66.9327736  53.7135220
  16.4985788  65.7920408  54.2200470   8.8049424  58.0183411  53.1702089
   9.4918227  58.6841965  53.1376314   8.9671779  57.5466442  53.9871645
  42.1424818  67.0841360  71.6879082  41.5873671  66.9518805  70.9194088
  42.4215889  66.2028646  71.9362879   8.5263366  28.9442515  57.3433495
   7.7374536  29.0146422  57.8808832   8.6361986  29.8161340  56.9639015
  16.4482534  22.0679545  56.9744587  15.8538187  21.5753603  57.5403452
  16.4586937  21.5769315  56.1528635   9.9219561  64.1953468  47.7986002
   9.5368838  65.0311279  47.5351286   9.6215034  64.0662003  48.6982012
  25.3549600  28.6624146   0.0979806  26.3101268  28.6646700   0.0356714
  25.1280212  27.7477050   0.2654323  59.6784830  39.1909027  34.4526672
  59.4704866  38.4418416  35.0111270  60.1791239  38.8172507  33.7274265
  21.5757060  59.2173052  16.5168452  21.6921592  59.9392891  17.1344292
  20.7379937  59.3991899  16.0909522  36.1813116  33.3365583  14.0076661
  36.2404609  32.8993559  13.1582034  36.2946916  34.2656541  13.8072634
  71.1689663  41.8939400  16.9572580  71.4853621  41.3703108  17.6934206
  71.5915823  42.7453852  17.0698285  21.1737919   7.6650566  57.6533365
  20.4731512   7.6610416  58.3054972  20.7263517   7.5170976  56.8201876
  61.0721207  75.5688477  59.3083191  60.5441904  74.9192667  59.7726107
  60.7485533  76.4118242  59.6260071  53.7978554  51.7936802  31.7329288
  54.4197035  51.2593317  32.2269011  53.4017038  52.3677349  32.3884892
  64.3823862  32.0904970  12.1533549  64.1938639  32.8569984  11.6119063
  65.2024889  32.3065972  12.5971568  85.7635498  24.3732929  17.3574412
  85.1539898  23.7224650  17.7054203  86.2759018  24.6515751  18.1165767
  76.0561180  69.4795942  25.5034971  75.4225016  70.1145887  25.8374691
  75.7710505  69.3059301  24.6063876  46.5064859  67.5369024   8.8083333
  47.0492697  68.1961203   8.3758402  46.6858435  67.6535463   9.7413158
  22.1995139  43.7897587  26.7258811  21.9309902  42.9421806  26.3712764
  22.9316735  43.5849667  27.3074627  38.9455271  30.6841469  21.3890862
  38.6122966  30.2095318  22.1506166  39.5850992  31.2978554  21.7503858
  52.6435471  41.5902948  21.6452956  53.1178951  42.4054432  21.4817047
  51.7270279  41.8568277  21.7172766  46.7996073  26.4206839   4.1366151
  46.1678648  26.8735695   4.6952111  46.2614822  25.9303665   3.5151303
  75.4869986  10.5805790  49.5283365  74.9499178  10.1125407  48.8890266
  74.9656153  11.3482726  49.7629261  17.6223743  12.5911617   7.9021376
  18.0307424  13.0554235   8.6328417  17.9910731  11.7087638   7.9429728
  57.4912024  71.1730862  65.5685329  57.4335814  70.3341627  65.1112318
  58.3436489  71.1507893  66.0033512  85.2615833  36.7292666  32.0445085
  85.5103874  35.8055782  32.0781040  85.7495213  37.0818329  31.3003039
  51.3761377  50.8980513   5.1263690  51.7955589  51.3996077   5.8254826
  50.5374002  50.6245852   5.4978150   1.2414227  62.6641035  65.4923296
   1.8339396  62.5254822  64.7534513   1.3127777  63.5991144  65.6844139
  55.5166197  76.8900967  70.0037289  55.4045916  76.4516211  69.1602707
  56.4448452  77.1221590  70.0316143  50.5196905  53.4771442  27.9950833
  50.2631712  53.8272190  27.1419263  49.7281170  53.5437346  28.5291290
  56.9508171   6.1919630  52.4039841  56.6000652   5.3835404  52.7776909
  56.1807346   6.7403251  52.2539711  20.0430512   9.3153578  24.1659617
  20.8215308   9.8481870  24.0038085  20.3870583   8.4724379  24.4615579
  24.0827346  21.1655712  71.5751457  23.7946534  22.0765114  71.6337061
  24.8956847  21.2033796  71.0712481  35.8322560  39.0704898   0.0116182
  36.1654364  39.4335632   0.8322263  35.6811701  39.8347358  -0.5445551
  66.7780733  11.7165685   7.9858238  67.3073673  12.4294972   7.6283205
  66.7711020  11.0538423   7.2951883  44.1134787  66.3944721  53.0699587
  43.6575937  67.0210075  53.6319637  44.6554565  65.8835936  53.6712027
  16.6270781  11.9000685  20.1079130  17.1258628  12.0866740  19.3125367
  15.7184947  12.0841992  19.8695779   5.1519078  19.4732523  10.4891670
   4.8141685  20.3453612  10.6931031   5.5271620  19.5605958   9.6129322
  40.9714746  32.7836084   5.2169412  40.7447290  33.7135339   5.2093935
  41.1957502  32.5843787   4.3079630  62.4236059  68.1295586  70.2657127
  61.8685818  67.9984093  71.0344696  63.2483816  67.6983500  70.4893923
  31.1933351  38.8642597   8.4273404  31.8157959  38.1907010   8.7013769
  30.9574771  39.3162656   9.2374611  32.7185750  21.2349105   4.3663698
  32.5919223  21.1620951   3.4203842  33.0934381  20.3924990   4.6233770
  43.0669594  45.1251173  34.1996670  43.7477255  45.6731796  33.8092589
  42.9498529  44.4082212  33.5763049  80.2759933  67.1594524  70.8679676
  80.2460384  66.5241098  70.1526499  79.7372103  66.7702103  71.5567589
  53.5065651  46.9801712  69.1978407  53.3282709  46.4056301  69.9423885
  54.4331455  46.8394518  69.0032148  61.0199881  75.3052521  64.0471840
  60.7065248  75.8369446  64.7788095  60.2331543  75.1109982  63.5378790
  14.4651079  19.0257621  25.3743744  15.0776517  19.7563183  25.4598618
  14.8253500  18.4928405  24.6655369   5.9718364  52.5601149  60.4252386
   5.4177392  52.3227119  61.1687756   6.5886414  51.8326378  60.3442764
  66.2523413  73.6461020  51.5905380  66.4608669  74.0876818  52.4137974
  65.2975178  73.6830091  51.5341187  26.5524173  34.6683693  25.0511050
  26.2733269  34.6929955  25.9663820  26.6454554  35.5884933  24.8042345
  84.7424603  66.5414953  64.6154451  85.0125694  65.6274223  64.7034645
  84.9079990  66.9241953  65.4770517  16.4435303  12.8242612  52.8114223
  16.5809441  11.9684553  52.4052858  15.5888736  13.1086397  52.4875021
  11.4302480   6.9921029  65.9129333  11.2052286   7.9072148  66.0807657
  11.1181772   6.8280488  65.0230312  36.8483162  67.9927254  12.6872468
  37.5210762  68.3241129  13.2820654  37.3392105  67.5891876  11.9714177
  25.1073050  12.1452391  17.9570317  25.8484221  11.5415490  17.9066670
  25.4390168  12.9631352  17.5865650  78.7913465  75.0592995  40.0591040
  78.2389975  74.3190908  40.3105688  78.2983398  75.8312941  40.3369474
  81.4384270  72.1679926  64.0034485  81.0955524  71.2758255  64.0554619
  81.8548393  72.3144436  64.8527956  24.6262980   2.5874233  71.0247469
  23.7457418   2.7401707  71.3675594  24.6181917   1.6727513  70.7427168
  70.8279037  78.5455275  50.9629488  70.5198383  78.1386423  50.1531506
  71.4901924  79.1750479  50.6778002  55.1104212  72.2733307  49.1580963
  55.7444429  72.3001719  49.8747063  54.3259668  72.6884127  49.5166779
  54.5965958  80.4671955  59.8655891  55.2776909  81.0866928  60.1274538
  54.0000153  80.4368687  60.6135225  86.6085339   4.1779259  43.0062056
  87.5446701   4.0749854  43.1773520  86.4697361   3.7435955  42.1645880
  24.6258593  28.6467147  28.5551953  24.8641157  29.2831159  29.2293310
  23.7092352  28.8389969  28.3575535  74.1945648  51.6236734  32.8187013
  73.9370823  51.1146879  33.5873818  73.5380077  51.4066648  32.1568298
  54.1230726  63.4518290  18.5229576  54.5999527  63.8992023  17.8239024
  54.7984219  63.2094622  19.1565156  14.2026377  29.5477676  27.0535851
  13.3761322  30.0120711  26.9211268  14.5541418  29.9115372  27.8662062
  24.7065258  21.3599992  24.1633916  24.9134254  22.2198701  24.5295119
  25.4717469  21.1344790  23.6344194  80.6455803  26.5454149  49.9690962
  81.3323879  26.1207223  50.4830599  80.0395489  25.8381200  49.7484207
  59.7052526  83.7537670  58.2176781  59.6230793  84.1267395  59.0953875
  60.6306887  83.5212612  58.1419230  25.9743667   2.1278575  23.7819004
  26.4136887   1.6992691  24.5164347  25.1041293   1.7299251  23.7580824
  83.1283951  54.6546125   0.8570552  83.9373779  54.2078066   1.1063337
  82.8088093  55.0433588   1.6712871  36.6603041  47.2183418  31.3199735
  37.3048735  47.4985170  30.6701541  36.1406636  46.5521431  30.8701015
  75.2727795  60.4949188  73.3622217  75.3258848  60.7091331  74.2936325
  74.4599628  60.9059286  73.0678892  69.5770407  59.5509243   6.8517071
  70.2028275  58.8267756   6.8670332  68.7196302  59.1274548   6.8935966
  73.5446692  69.1312027  47.7953291  73.8626528  70.0340414  47.7939081
  74.3095303  68.6075020  47.5566816  44.1896582  35.9696364  17.4990857
  44.9802256  36.1773634  17.0010018  44.4438553  36.0918212  18.4137917
   9.9276066  85.0682068  65.1330042   9.5741415  84.8965073  66.0058260
   9.5132262  85.8879852  64.8637962  37.4313211  51.9676828   8.3890563
  37.8863239  52.7969980   8.5354811  36.5331483  52.1334457   8.6754787
  21.5867162  25.0336266  16.2962031  21.9213057  24.7679424  15.4396439
  21.3159990  24.2150617  16.7120099  52.9979610  50.8647108  12.9993379
  52.1221113  51.0154152  13.3548796  53.5207176  51.5937042  13.3332932
  38.4767962  16.8054974   2.7778426  37.9451418  16.7954087   1.9819322
  38.2890868  15.9681344   3.2018927  14.5593846   9.6537131  65.5712700
  13.8034558   9.3257087  65.0842190  14.2062247  10.3564775  66.1168242
  66.4467812   0.6286778  48.9190149  66.5917110   0.7265531  49.8601055
  66.2838793   1.5191218  48.6078835  25.6771898  37.9239678  12.6901543
  25.6916738  37.5994301  13.5905421  26.2081456  37.2957826  12.2005630
  25.5694890  35.0836539  34.0792465  24.8174596  34.8817086  33.5225558
  25.3467774  34.7045159  34.9294734  44.2309856  84.6239090   2.9271895
  45.1355791  84.6658421   2.6170546  43.7144136  84.9897194   2.2091553
  54.2665625  66.3974380  19.5234156  54.3008232  65.5460119  19.0873742
  53.3982229  66.4260101  19.9251664  70.2872372  41.8518972  64.2737055
  70.2494669  41.4961052  63.3858919  69.5108652  41.4973640  64.7070456
  82.3723698   4.8434672  71.8436146  81.6165829   5.0762647  72.3828888
  82.0125198   4.7274363  70.9642506  46.4321566  43.8931704  50.5168486
  45.8067846  43.1693172  50.5512667  46.2429333  44.3339872  49.6885300
   2.4640431  54.7629786  34.8968649   1.9931552  55.4130173  34.3753767
   1.9826293  53.9478779  34.7551656  72.8645611  84.3023014  69.7149801
  73.8177299  84.2146397  69.7191858  72.6376486  84.4059658  68.7908602
  20.0864410  12.3335350  71.3723278  20.4907107  12.8245568  70.6570005
  20.3809261  12.7803564  72.1659660  64.1081810  73.7031937   1.7833002
  64.7778416  73.9153624   2.4335070  64.4004202  72.8764343   1.3995016
  17.1764016  14.9795389  35.7153225  18.1121695  15.1620853  35.8004570
  17.1372426  14.1065943  35.3245974  75.4736376  40.4057932  66.6667509
  76.2718630  39.8906779  66.5496063  74.8012304  39.7597361  66.8828821
  26.4207578  24.5170236  17.8456748  26.4664602  25.4693770  17.7610469
  25.5248094  24.3450308  18.1353784  29.8010373  37.3832917   6.5070450
  29.1156435  36.8463254   6.9047034  29.6975756  38.2435560   6.9138300
  62.2572565  19.7090447  65.8942318  62.1477365  20.6284118  66.1371279
  62.5573206  19.7354674  64.9856615  28.6274695  61.3437605  27.7447176
  28.5206962  60.5573130  27.2096205  29.5578551  61.5572500  27.6737452
  31.2841868  20.0919604  68.8869286  32.1559548  20.4338145  68.6884642
  31.3026214  19.1894567  68.5685253  91.0618128  55.6478596  50.4186535
  90.1568247  55.4311466  50.1944590  91.0915705  55.5933285  51.3738346
  22.4444318  18.1322670  19.8158753  21.7564678  18.1410968  20.4813528
  22.3955226  17.2565913  19.4324267  71.5908527  27.5967193  22.9748869
  71.5359974  28.5457110  23.0873179  70.8391523  27.3768854  22.4245691
  45.9301043  35.7125235  15.0788248  44.9886703  35.7304788  14.9067461
  46.2982035  36.3465834  14.4634366  28.7722778  11.6481495  70.1169300
  28.2272625  11.0609639  69.5930910  29.5898843  11.1667705  70.2435207
  52.0823574  50.7132244  29.8412895  52.5681639  51.2348127  30.4801679
  52.5587893  50.8356905  29.0201688  44.1084337  44.0208197  14.9088502
  43.1662178  43.9478731  15.0609672  44.1986275  44.0116024  13.9559531
  33.2407737  54.0455770  16.4527762  34.0452313  54.3871450  16.0623789
  33.3063293  53.0967331  16.3449383  78.2857847  46.3904762  11.7872298
  78.0019712  45.4880667  11.9332945  78.7061357  46.6452694  12.6085818
  14.9821007  21.9494963  11.8878496  15.9077358  21.8721414  11.6566610
  14.7894633  22.8826022  11.7960203  15.4207671  71.1432838  10.5701935
  15.7330191  70.3737020  11.0460877  14.7918093  71.5531969  11.1640084
  49.5343924   4.6744174   0.0551322  49.4209242   3.7239915   0.0482048
  49.7087097   4.8881447   0.9717377  30.4640174  53.7186384  16.2628877
  30.4185367  52.7804327  16.4470959  31.4010072  53.9076662  16.2123954
  40.7136726  46.2409639   4.4829324  40.1338816  45.9648085   3.7731346
  40.1557446  46.7648077   5.0578558  75.3366184  41.9340515  20.5312395
  74.5221376  42.3433638  20.8233213  76.0250092  42.5223207  20.8415413
  49.4239330  30.0690961   7.5698340  48.8848305  29.8762131   8.3369023
  48.8565922  29.8756099   6.8235660  20.2695489  22.1510053  73.4065628
  20.1586056  22.1870351  74.3566322  19.4418406  22.4801254  73.0561209
  48.1156731  15.7527363   5.9102637  47.1753836  15.6301236   6.0408580
  48.1784439  16.3333297   5.1518428  50.5120087  82.4284840  10.2110553
  51.1753559  83.0035591  10.5924869  49.8368740  82.3607731  10.8862138
  86.9511509  27.4394679  41.0826492  86.7364979  28.1004000  40.4243755
  86.3794899  26.7002869  40.8751678   9.5155662  12.4049985  59.7320127
   8.9430362  12.8792381  59.1290712  10.0948715  11.8978667  59.1632795
  44.7056150  77.2265005  30.6664133  45.3682280  76.5527296  30.5140543
  45.0955439  77.8013039  31.3250399  77.5846624  70.5244589  39.0536547
  78.1044674  70.3985310  38.2598186  78.2056570  70.3924799  39.7700191
  46.1359215  31.5123010   9.3152410  46.4966202  31.2838626   8.4585363
  45.2898359  31.0657120   9.3457031  48.5923529  21.7489719  58.6144018
  47.8601599  21.1988926  58.8928509  48.7851095  22.2949958  59.3765926
  55.0164413  50.4892492  71.5620232  54.8746824  51.4308071  71.4640427
  55.1292372  50.1695871  70.6668568  37.3511171  59.0748262  21.4605427
  37.6330113  59.6423912  22.1779251  38.1649208  58.7242031  21.0985780
   2.8954366  10.9315360  53.8455820   3.6395139  10.8585238  53.2478762
   3.1859225  11.5508640  54.5151186  80.5042744  69.0864801  72.8557777
  80.3791428  68.6991262  71.9894457  80.8706284  68.3775902  73.3844519
  35.2490973  28.3442116  49.4987345  35.5213428  29.2426968  49.6853781
  36.0420537  27.9157233  49.1764736  53.3788538  45.4198027  21.8481135
  52.9171610  46.0149527  22.4387646  54.0509892  45.9636402  21.4373732
   1.7157811  22.2120357  11.9563770   0.9978990  21.6987777  11.5856433
   2.4920440  21.9166636  11.4805591  54.5120859  43.7666702   7.5008887
  54.2181396  44.3641901   8.1884950  55.3167534  43.3806467   7.8469032
  56.9851303  62.3364258   0.1857548  57.1200085  62.0841169   1.0991982
  57.7435589  62.8802538  -0.0270041  34.9436975   8.7058741  69.2200041
  34.8056436   7.9464668  68.6538982  34.1954017   9.2758721  69.0428352
  81.1823940  52.2409773  71.7563057  81.1534405  52.9154968  72.4348497
  81.3074780  51.4227962  72.2371054  53.0028582  59.5759153   4.5885825
  52.6429415  60.0630951   5.3297597  52.2591400  59.0828037   4.2422339
  27.2715497  63.7866592  27.2285056  28.0088472  64.3618774  27.4328303
  27.6211095  62.9020214  27.3355412  60.2526236  73.0435133  21.5729189
  59.9229050  73.6336660  22.2505903  59.6337986  73.1404400  20.8491158
  15.9736526   8.2964653  73.4416246  15.8091736   8.4062380  74.3781757
  16.8680286   8.6138254  73.3167076  60.8655834  32.1168089   9.7383744
  61.2954998  32.9715037   9.7083551  59.9343920  32.3133731   9.6360201
  10.6841600  45.2131271   6.6847348   9.9640018  45.8336592   6.7967397
  10.5859220  44.5984173   7.4118596  84.3876362  80.4122353  36.7838812
  85.3181744  80.3554153  36.5668535  84.2294025  79.6628714  37.3580289
  12.4756193  71.1002588  22.9921460  11.8452692  71.7502975  22.6817608
  12.7481234  70.6343603  22.2016335  81.0842419  75.2115774  54.7132826
  81.3586521  75.5825377  55.5519295  80.3406525  74.6498013  54.9317074
  65.5781889  36.1173248   2.7946663  64.6211100  36.1323142   2.7963027
  65.8094883  35.6804276   1.9749999  60.1939583  49.0008926  34.8368621
  59.8747206  49.9029970  34.8597765  60.0337791  48.7128925  33.9381790
  85.0946236  20.8603072  43.9650059  84.9484253  21.1465263  43.0633783
  84.2841530  21.0850263  44.4220352  84.8636436   7.6599592  54.2855883
  84.6435642   6.7395258  54.1420603  84.1566181   8.1445301  53.8595247
   0.1747936  69.5817900  69.5485210  -0.1218783  70.4744244  69.3712568
   0.2670930  69.5446873  70.5005407  28.4077263  58.3325195  32.9717207
  29.2636561  58.1547356  32.5818396  28.0740952  59.0855122  32.4839449
  46.8445826  44.0483856   3.3556232  46.5827036  44.3973494   2.5036395
  46.1575508  44.3395567   3.9551532  45.7492733  28.7622261  13.8574326
  45.2413082  28.2457089  14.4830608  46.6610861  28.6105132  14.1060579
  70.9800100  70.6398392  42.2856283  71.5577555  71.3275337  42.6165724
  71.4811325  70.2227020  41.5848398  91.1427593   1.2746567  69.7694826
  90.2690983   1.4409040  69.4154692  91.7394829   1.6370082  69.1146183
  45.0291586  38.1779099   3.2752761  45.2525139  39.1071463   3.3287784
  44.4703531  38.1100821   2.5010884  88.1912327  42.6134253   4.1901365
  87.3944759  42.1081924   4.0284321  88.1633759  42.8115416   5.1261955
  47.0509291  58.3976793  70.8616686  47.5364542  57.6688910  71.2481499
  47.4882603  59.1808224  71.1958313  27.1116138  10.2240765  17.6514757
  27.4717212   9.7311807  18.3887744  27.8579164  10.3618729  17.0681441
  77.3452282  78.0854845  67.4088383  76.9067574  78.5695982  66.7091179
  77.6134825  77.2629547  66.9993019  29.4866228  24.4892669  12.8062367
  29.1153598  24.0539074  12.0388663  30.2544665  23.9640045  13.0315077
  64.0023518  78.7075901  65.7250357  63.4491777  79.3454552  65.2740860
  63.8830328  77.8959846  65.2317905  50.4354525  45.5573654  10.4199004
  49.5181084  45.3016472  10.5164075  50.4873705  45.9365463   9.5425403
  10.7784581  22.3578954  61.6624451  10.3132057  22.7786779  60.9394598
  10.4746079  22.8197265  62.4438667  25.3978705  54.5959854  31.2381339
  24.7765112  54.0141821  30.8003616  26.2559223  54.3081665  30.9264612
  35.5096364  67.8589773  73.0285597  36.0336828  68.5643196  73.4081602
  36.0859442  67.0949745  73.0486107   3.4537682  57.7413464  73.0254459
   3.4719062  58.1352949  72.1532583   2.5573662  57.8787661  73.3317327
  30.6989503  43.2771254  11.5297592  29.9998498  43.8256979  11.8855047
  31.1427975  43.8375902  10.8932781  54.7263908  45.7019615  13.1920052
  54.1482067  45.8738804  13.9352274  55.1288414  46.5491056  13.0006611
  89.1213608   1.6997698  59.7672701  88.3817482   1.0948531  59.7099733
  89.0862274   2.1989976  58.9513254  68.0650663  56.9556618  37.0883369
  67.9605675  56.0175228  36.9295526  67.9200029  57.3609066  36.2333703
  42.2640228  62.2323132  15.8661854  41.5747547  62.0865297  15.2181959
  42.7785110  62.9565477  15.5097878  30.2648044  22.5518608  20.7400990
  29.6612549  22.0437431  20.1980853  31.1308432  22.2080135  20.5210590
  68.6004925  16.0286736   3.5145473  67.7731895  16.2678206   3.9324164
  68.6928082  16.6505563   2.7927646  30.3836632  45.0552416   3.0097395
  29.4305229  45.1371002   2.9772830  30.7066703  45.8401108   2.5671583
  64.0225935  59.2053652  60.5190849  64.3548298  58.4400797  60.9883308
  64.7792149  59.7866964  60.4428816  80.5826187   1.0680614  68.2374763
  80.7826996   0.1326860  68.2017899  81.4222336   1.4988707  68.0772209
  21.2184668  14.1336787  20.8693004  21.3501835  14.1352594  21.8173933
  21.6020155  13.3073318  20.5755782  65.2784824  47.1750259  13.3684707
  65.5275440  46.8370628  12.5082505  65.1084518  46.3926792  13.8931227
  47.4595737  63.9412880   7.3638016  46.9727373  63.2756662   6.8778241
  46.9111872  64.7241592   7.3126477  46.5380955  32.3510265   0.9211951
  46.4989996  33.0925608   0.3171841  46.8439817  31.6203094   0.3838712
  45.8509254  67.9203415  74.1762972  45.9489012  67.0665359  74.5977879
  44.9174786  67.9816008  73.9734364  42.7352858  63.3934498   5.8626598
  42.8531075  63.8263083   5.0170952  42.7808905  62.4587059   5.6616354
  35.5374622  23.3487773  21.9560218  34.9778390  23.6206651  21.2286091
  36.3053298  23.9167595  21.8927455  36.2259793   8.1172526  39.4888377
  35.7103920   7.5492871  38.9162874  35.6264329   8.8240546  39.7280169
  79.3204355  64.5267200  27.2372127  78.6059761  65.0607395  27.5845027
  78.9224339  64.0297508  26.5224743  47.9563093  69.6823549  14.7329342
  48.5293913  69.7525263  15.4964018  48.5468483  69.7527027  13.9829016
  76.8598461  63.5824347  37.8836012  77.2797775  63.1543350  37.1375299
  76.5377092  64.4128513  37.5330782  58.2105255  37.3664069  30.9507108
  57.3977661  37.4107456  31.4543796  58.8967752  37.5751019  31.5845418
  67.6464987  16.2180531  69.2769003  67.6269722  15.5328476  68.6088085
  67.8161716  17.0237553  68.7887526  56.5248013  51.1907387   9.7456712
  56.8960619  51.1550713  10.6272185  57.1381521  51.7325544   9.2492163
  85.9766960  23.1453991  47.6769686  85.9178829  22.2757006  48.0724382
  85.0760174  23.4694457  47.6759434  42.8520203  68.3698702   5.6528974
  41.8952751  68.3876419   5.6764412  43.1124878  68.2778406   6.5693676
  36.2003827   5.8681279   8.4744412  35.8578205   6.7450917   8.6471152
  35.9661222   5.3620160   9.2523897  68.6913347  55.3057861  20.4588747
  68.2897377  55.4617500  19.6041071  69.5010376  54.8352718  20.2608109
  26.0481787  20.6610727  55.9015083  25.7992077  21.0759592  56.7274094
  25.8308387  21.3101053  55.2323627  49.6523619  75.4756355  73.3774328
  50.5084181  75.1115990  73.1518602  49.7370720  76.4129210  73.2026386
  31.6338611  72.9056644  12.0500600  31.4336967  73.6139059  12.6620746
  32.0922089  72.2535324  12.5800347  68.8071680  67.7276754   5.8044064
  68.3038712  67.4886131   5.0260943  68.4535551  68.5776520   6.0665625
  47.6635122  52.9201841  70.9324551  46.8588448  52.4231434  71.0797310
  48.3182144  52.4828148  71.4767933  88.8371277  35.5577230   6.0812706
  89.3758297  36.1933756   6.5524101  89.4515514  34.8738241   5.8148217
   2.1470745  47.3607397  50.0066233   1.9796267  47.0909691  50.9096289
   2.0579621  48.3136749  50.0209045  41.9795370  35.0877142   0.9900201
  42.5146246  35.0607038   0.1968094  41.1334658  35.4259491   0.6967826
  55.4957533  35.5096841  14.6595550  55.1915169  36.3875270  14.4292009
  56.1161470  35.2818394  13.9671445  70.2977753  59.6809053  16.3092422
  70.8351278  59.6930790  17.1012890  69.7266388  58.9206457  16.4189541
  16.9421947  52.3895502   4.4742474  17.4917376  51.6142797   4.3593878
  17.4307871  53.0945444   4.0494049  48.8993645  48.9816427   5.7740277
  49.6214151  48.6664581   6.3176620  48.4935284  48.1859207   5.4299992
  59.1289616  17.2644806  21.9651699  59.9970293  17.4401605  22.3282504
  58.6719942  16.7867684  22.6574159  81.8463516   1.3198750  10.5332696
  81.9714451   2.0216322   9.8944265  80.8996677   1.2873110  10.6709993
  45.8812046  81.1378288  20.6350946  46.3663769  80.8464146  19.8631382
  46.3904238  81.8739891  20.9742188  71.5866995  20.4178357   6.8448699
  72.5420713  20.4758072   6.8566531  71.3470173  20.2286744   7.7520651
  90.2534008  74.5121861  17.8490496  90.0174141  74.1327858  17.0025313
  89.5683575  74.2109346  18.4458709  38.4552622  31.2634277  18.8001370
  38.6046839  30.9805465  19.7022915  39.1735911  31.8689513  18.6169040
  59.9689198  62.4802876  12.1356916  60.8521795  62.1963215  11.9002092
  59.7359991  63.1206274  11.4634264  86.9335842  57.6233292  43.1233168
  87.5978851  58.2913446  42.9539347  87.2976303  57.0989609  43.8365746
  39.2767668  67.6328945  36.3249063  39.5844054  68.3210659  35.7349801
  38.6986923  67.0946598  35.7842016  49.6992016  84.9101830   8.4059060
  49.4343662  85.7174015   8.8469166  49.7585297  84.2621326   9.1078627
  46.1012173  40.2053213  29.1959953  46.1844540  40.2073669  28.2424212
  46.9588423  39.9195004  29.5106649  80.2460289  78.3315229  67.8254414
  80.4641724  78.9292669  68.5405302  79.3198919  78.4970045  67.6490307
  34.4644785  31.7855954   0.4828650  33.7799716  31.2981176   0.0245553
  34.0897822  31.9728565   1.3435434  73.7366581  52.7331972  16.0161626
  73.1469059  53.0088997  15.3144419  73.2758379  52.0135403  16.4474142
  47.2244692  67.8183317  20.3373957  46.4711475  67.3775101  20.7303643
  47.7450705  67.1104050  19.9578583  86.2591648   8.4911871  10.3814876
  85.3287983   8.2822436  10.4651606  86.6279507   8.2908392  11.2417722
  25.9677672  47.1963406  39.3770266  26.0631537  47.9690647  38.8202262
  25.0273871  47.1372032  39.5456028  57.8554630  16.7656744  70.3038788
  57.7345705  17.4949467  70.9119701  58.6050367  17.0231223  69.7671318
  80.1886749  80.9494877  33.2723975  79.8485184  80.7373524  32.4031901
  80.6902981  81.7544460  33.1433916  22.6513219   3.1835374  10.1704574
  23.3070588   2.5367591   9.9098456  23.0986786   3.7318298  10.8150351
  24.4268751   4.7761354  66.6975451  24.3068528   5.0281984  67.6131296
  25.3432727   4.5053166  66.6418314  22.9457808  77.9804659   7.5473988
  23.6914968  77.4891186   7.2028500  23.3337784  78.7669659   7.9309446
  52.0854664  37.8503060  11.9894600  51.8043756  38.7119246  11.6815066
  52.1405268  37.3184299  11.1955404  58.1539440  40.8298540  25.9379148
  58.9530420  40.3895664  26.2274408  58.2526493  40.9056044  24.9888349
  50.3695631  68.0632210  36.7288375  50.5068636  68.3887434  35.8392215
  49.4230509  68.1180143  36.8605161  36.9642854  54.3015146  13.5984659
  36.1660981  54.7549868  13.8695574  36.9867706  53.5121393  14.1394067
  14.0263033  31.2694740   3.3688396  14.4005728  31.4649343   2.5098002
  14.6982992  31.5466976   3.9915752  51.6218042  57.4540710   2.7130359
  50.8620930  57.9844093   2.4726030  52.0565987  57.2674036   1.8809667
  87.9379082  43.1645012  44.9376917  87.1848583  42.7777386  44.4909668
  87.8611755  44.1033077  44.7674465   8.4184539  15.6102276  38.6969590
   7.5779700  15.1560402  38.7563920   8.2033628  16.4638376  38.3210349
  15.3614688  81.9958878  43.2732391  15.0552189  82.8333950  43.6211300
  15.1713836  81.3644409  43.9670515  39.6677065  63.6911058  36.6509390
  39.0138888  64.0147781  37.2706079  40.0387621  64.4818497  36.2594366
  19.3246984  44.7043085   1.9651055  19.4129395  44.4170332   1.0563041
  19.4538689  45.6521130   1.9303130  55.8906841   4.2850590  21.6921115
  55.8673048   5.0740230  21.1506128  55.7543373   4.6029943  22.5846124
  63.1460571  48.4256887  47.0011854  63.7955093  47.7315474  47.1134615
  62.5272989  48.2932138  47.7193928  22.1245766  19.7508168  14.8825669
  22.3369598  20.4087162  15.5446053  22.3931813  20.1488733  14.0545368
  53.4004450  20.0020671  59.6537828  53.4164143  19.7192633  60.5681133
  52.5155306  20.3431034  59.5239782  37.4663401   0.8437063  72.5758886
  36.5516019   0.8110022  72.8559208  37.6876736   1.7748736  72.5889444
  18.9754045   2.3332441  71.5551805  18.3338881   1.8809062  72.1029758
  18.7707686   2.0507964  70.6637907  64.1411448  84.1384315  59.4363403
  64.2147350  83.5259819  60.1682711  63.2848072  83.9506531  59.0520859
  19.5854318  67.6017570  13.9770484  20.1074672  67.3661137  14.7439790
  18.9531946  68.2412720  14.3049622  61.5789223  61.7804861  26.5929794
  61.6449404  62.0711470  25.6833696  62.1292210  60.9984207  26.6350579
  30.2843642  10.2598000  67.4554062  29.4170952  10.6164050  67.6475191
  30.2303743   9.3420303  67.7218962  33.8931775  31.0781813  12.5340700
  33.7824488  32.0115113  12.3527753  34.8274517  30.9176254  12.4014640
  59.9261713  68.2723427  21.3558412  59.3316603  68.4841442  22.0755124
  59.4501209  68.5328722  20.5673432  38.6569905  49.8928452  16.3578939
  39.3428659  49.2425728  16.5094078  38.4473443  49.8075724  15.4278350
  73.1682539  68.2754183  19.7536862  73.4845781  69.0076542  20.2828383
  72.3398399  68.0247593  20.1625085  64.8130941  18.0234647  17.9590845
  63.9600992  18.4179783  18.1407106  64.6304798  17.3484075  17.3054910
  43.0256939  53.2287264  29.8025012  42.1423626  53.5971975  29.8162556
  43.2931471  53.2133961  30.7214499  19.8436475  29.8114848  66.6263628
  19.5490372  29.2697573  65.8942652  19.5001423  29.3710208  67.4036837
  74.0933990  17.6822376  59.8554659  74.8462725  18.2728267  59.8802948
  74.3973732  16.9277596  59.3508911  39.9829888  69.8648596   0.0920501
  39.2097902  69.8410654  -0.4717136  39.6486545  70.1403046   0.9456215
  46.1350155  62.6000452  36.1393499  46.9490528  63.0937338  36.2385798
  45.9235144  62.3063040  37.0254755  43.3022261  52.9857111  33.1165266
  43.3814621  53.1629086  34.0538383  42.3729658  52.7967072  32.9862189
  91.4025974  79.5547247  72.8524923  91.4810085  79.5901251  71.8991661
  90.6186867  80.0681973  73.0475712  63.9580059  44.6171045  18.1486869
  63.5256004  44.2672682  18.9277065  64.4684315  45.3598356  18.4712529
  57.8484201  81.0074520  71.5702772  58.7250137  80.6262112  71.6200113
  57.5919724  81.1382484  72.4831629  70.6608677  70.5277920  23.0590391
  70.2649403  69.7174549  22.7383709  71.1049271  70.8960152  22.2951961
  26.4179945  76.6350079  70.1448774  25.7090974  76.1296606  69.7469854
  26.6030693  77.3280621  69.5111132  57.7315044  69.0102243   5.2498251
  57.0434523  69.6642351   5.1269960  57.2622633  68.1786537   5.3171468
  37.7079988  28.6856508  54.8253727  38.5946846  28.3251238  54.8318672
  37.6037526  29.0807629  55.6909657  26.5106297  60.0178432  34.6432352
  27.4156332  60.0578308  34.9524331  26.5686703  60.2091599  33.7071466
  37.5234461  47.1154070   5.1812834  37.4840236  47.3259878   6.1141998
  36.7378259  47.5181913   4.8114210  42.3805332  72.2263813  45.1105595
  42.5080824  72.0492554  44.1785765  42.9852200  72.9429817  45.3031158
  37.7715349  31.8261099  15.7404292  37.8438449  32.6480460  16.2256324
  37.1681690  32.0232105  15.0239563  33.1788778  60.4108715   9.2494804
  33.7685251  61.0565758   8.8600999  33.1810474  60.6174564  10.1841199
  50.5082560   7.4235749  69.9149704  50.0602913   7.4720138  69.0704489
  50.5122900   8.3253187  70.2360201  17.6778102  10.8068049  43.7283325
  18.1988609  11.1361885  42.9960442  16.7834640  11.0842550  43.5298443
  70.0646305  29.3106079  73.2535172  69.8966932  29.6473193  72.3733711
  70.6266451  29.9706984  73.6592913  65.6879950  34.0041947   6.4637065
  64.9425411  33.5926104   6.0265225  66.0480070  34.6035695   5.8099675
  44.5975208  41.5450430   6.2836826  44.2086411  40.6705999   6.3024610
  45.5142784  41.3945770   6.0531491  51.2551355  14.7691607  69.0489435
  51.2216663  14.3714869  68.1789017  51.4269400  15.6959403  68.8822317
  78.4324694  50.7824659  30.2239513  77.8930426  51.1465931  30.9258509
  77.9333258  50.0312281  29.9034429  24.0484738   9.7852278  16.9966102
  23.9610958  10.6873596  16.6887879  24.9425673   9.7329527  17.3343921
  87.1169662   7.7828854  48.0525064  86.9874763   8.4109247  47.3418522
  86.4651966   7.1007210  47.8910112  77.7283859  16.6244233  59.7388220
  78.3376455  16.2812209  59.0851784  76.8900204  16.6779673  59.2800093
  11.6754341  27.0433116  23.4950018  10.9607518  26.5639329  23.9141178
  11.5873504  26.8389416  22.5640321  45.1770210  10.5763268  30.3746295
  45.0405073  11.5217245  30.4364347  46.1254883  10.4663730  30.4420900
  28.0772686  25.0166893   7.1118003  28.0500221  25.6809998   6.4231932
  28.6828279  25.3712416   7.7628171   5.2679724  69.3130493  29.3633604
   4.9703798  68.4044170  29.3179393   5.3501856  69.5841408  28.4490418
  43.2598209  34.5459723   3.4839556  42.8318977  34.8519230   2.6842636
  43.4245348  35.3431797   3.9875031  53.6260939  28.8883948  54.7358084
  53.9389896  27.9996419  54.5671511  53.6393404  28.9700484  55.6894255
  41.0608435  25.4547453  13.8126647  40.6866693  24.8461843  13.1755757
  40.5442476  25.3177667  14.6067691  43.2134819  76.4772415  41.3595152
  42.3204851  76.3882065  41.6924763  43.2996464  75.7753849  40.7143736
  69.4452667  46.5351725   6.0096776  69.0449142  46.1461687   6.7872536
  70.3783369  46.3406849   6.0979533  17.1215045  10.2900684  52.0149946
  18.0295026  10.0079465  51.9046402  16.8628120   9.9371141  52.8663063
  42.6991177  61.5781927  12.7938986  43.2152796  62.2179174  13.2843673
  41.8232679  61.6334820  13.1760812  69.7167921  49.1219282  26.0846210
  69.7698641  48.9626122  25.1422668  68.9736986  48.5932732  26.3754296
  85.3326321  60.8185387  43.4504557  84.6609211  60.1589918  43.6237669
  86.1536598  60.3964329  43.7033844   8.8341814  26.9744349  55.3602695
   8.6755741  26.0700011  55.6305933   8.6660004  27.4926448  56.1472893
  62.0809698  47.7459240  23.8954902  62.2771168  48.6109924  24.2552304
  61.9808435  47.1840477  24.6639323  67.4697876  43.9869881  52.8589535
  68.3331728  43.9206219  53.2668591  66.9729280  43.2577896  53.2299423
  37.8461628   0.9406250  10.9488714  38.5880791   0.9036129  11.5525448
  37.8654610   0.0987690  10.4937541  37.5014424  83.2222652  27.1252656
  37.9600096  82.9515648  27.9206705  38.0535579  83.9097214  26.7526960
  60.1825428  85.3271675  11.9827771  59.5555925  85.0540447  11.3130212
  60.0252056  84.7314358  12.7152967  25.3485990   1.6158712  40.3924561
  24.6651292   0.9887900  40.6288242  26.0901523   1.3839623  40.9515190
   7.6643890  85.6419563  55.5113792   8.3941901  85.1183224  55.8421707
   7.7745920  85.6327343  54.5605898  53.9931440  63.3017683  24.8779130
  54.4885206  63.9482307  24.3749976  54.5862770  63.0406427  25.5823565
  80.0257492  11.5182424  67.6174688  80.3652382  11.6785097  68.4979725
  79.2891359  12.1233487  67.5309706  37.7941990  65.5623484  24.0612173
  38.0022669  66.1740494  23.3549833  37.0885420  65.9888792  24.5473790
  68.3836317  30.0494003  17.2999847  68.7746143  30.8201289  17.7114940
  67.5136232  30.3396058  17.0259428  40.7836580  60.9697390  18.0013287
  39.9289799  61.3326693  17.7688611  41.4083385  61.4773178  17.4832845
  59.4373322  48.5994148  28.6697483  58.8621712  48.2157135  28.0077863
  58.8433695  48.9026642  29.3563890  27.6138449  32.1621823  25.2891111
  26.8590379  31.9032311  25.8177352  27.4540257  33.0819798  25.0777817
  71.7961216  50.4090500  21.2958479  71.7497683  51.3490057  21.1210108
  72.7014542  50.2605772  21.5688944   5.8595562  25.9485650  37.6345301
   5.7081079  25.2908134  38.3132482   6.2683034  25.4633832  36.9177604
  51.7551517  28.1188250  67.6613426  51.0498333  28.1953192  67.0187664
  52.3421192  28.8478088  67.4606276  53.8310051  21.3318729  68.9048195
  53.2695723  21.9165182  69.4139528  54.7197533  21.5462899  69.1883421
  51.6735983  82.3416901  56.6599655  50.9916878  82.0062637  57.2419596
  51.5006685  81.9180107  55.8192348   7.9249525  25.4229188  33.2163453
   8.6555928  25.8954573  32.8174686   7.1482849  25.9168983  32.9536629
  27.4231648   4.7063676  55.9932280  26.7852592   5.3654957  56.2668371
  26.8992782   3.9251226  55.8159351  64.1758013  28.4063673  15.7322204
  63.9278030  27.4825120  15.6973469  64.2762947  28.6621594  14.8153210
  20.4049015  17.3566628  56.1679459  20.8324528  17.7973616  56.9022608
  20.2481318  16.4659870  56.4815521   4.3743563  86.2347889  69.6596146
   5.1306343  85.9187412  70.1539707   4.2600280  85.5918789  68.9597368
  33.5550928  45.6111050  23.3918023  32.9458427  45.2839470  22.7299762
  33.7131071  46.5216923  23.1426239  13.9715433  81.5568542  32.4771452
  13.5370350  82.3946381  32.3172593  13.2785201  80.9876156  32.8116822
  35.8273768  27.9436350   5.1061225  35.7799149  27.1266842   5.6026828
  36.7018366  27.9368734   4.7168848  75.1303482  67.5019789  17.5262535
  74.5297289  67.2692633  18.2343042  74.9541187  68.4274960  17.3571587
  31.9680214  57.2649193  25.0893021  32.1922636  57.5440693  24.2015934
  31.9973636  58.0689812  25.6078196  28.7728763  57.6516533  43.5743475
  28.8164115  58.4128475  44.1530704  28.0705285  57.1132755  43.9391613
   7.5378197  60.3799248  40.2201653   7.1771920  60.8003235  41.0008335
   6.8413377  60.4495621  39.5672536  78.6112833  14.7073627  65.8596563
  77.8273964  14.4194996  66.3275099  79.2060661  15.0037825  66.5485716
  73.6416912  39.6165276   3.4886932  72.9598475  39.5811367   2.8178233
  73.1755781  39.8484015   4.2919382  -0.1951682  16.7488348  66.6251135
   0.6939043  16.9952345  66.3700247  -0.1468932  15.8056641  66.7810869
  48.4624100  18.6794865  61.2635851  48.1360626  17.8962636  61.7066336
  49.3841743  18.4894061  61.0890627  68.5668993  83.7096214  50.9557867
  68.2487488  83.7783432  51.8559504  68.9238262  82.8235531  50.8948898
  76.4931059  27.3972988   4.1190392  77.3956251  27.6585317   3.9361355
  76.2779236  26.7760348   3.4233671  66.0080814  61.9208145  72.0047283
  65.3370476  62.5408363  71.7192173  66.1126471  62.0949554  72.9401255
  51.4836740  64.4767666  18.6030436  52.3527813  64.1609478  18.8503087
  51.3983345  64.2440033  17.6785064  38.2712173  79.7252989  21.2349558
  37.5355411  79.2055416  21.5587783  38.1752396  79.7089720  20.2827191
  54.5497513   7.9034323  62.0923948  54.3500185   8.7178493  62.5539827
  53.7487268   7.6989317  61.6099262   2.5473815  36.5892911  10.5142641
   2.9287371  36.1212397   9.7714812   2.1519378  37.3705387  10.1275980
  44.3693542  81.4368248  28.0308604  44.0263844  80.6628036  28.4775162
  43.6018038  81.9905663  27.8877950  64.0153027  33.8346338  10.0927520
  63.3701992  34.5395494  10.1490355  63.8469982  33.4230566   9.2451036
  58.1826067  50.7881069  35.7854462  57.2672892  50.5185509  35.7095623
  58.1405258  51.7108822  36.0363412  86.2169170  45.7825994  14.6741903
  87.0889187  45.5191088  14.9681592  85.8699799  46.3085079  15.3948081
  61.3391972  15.9835124  19.4377553  61.0342503  16.1724651  18.5503232
  61.4131451  16.8424952  19.8535824  64.8176003  51.5063286  20.8749485
  65.3142071  51.8304300  21.6263318  65.4834032  51.1718464  20.2740622
  50.9499741  48.1906128  26.5525651  50.0470018  48.3425140  26.2736464
  51.3510942  49.0597105  26.5492702  21.2298274  32.7898550  74.2334557
  20.9072757  32.3248601  75.0054502  22.1618032  32.9232621  74.4062328
  55.3374863  32.4065399  17.3789811  56.0089922  32.9081345  16.9166946
  54.5121098  32.8175092  17.1218991  59.6630859  10.7918227  22.0358872
  59.4536448  10.6188464  22.9537344  59.3688250  10.0083625  21.5713072
   0.7542617  48.3143711  60.2940750  -0.1254135  48.5560846  60.5838680
   1.2545986  48.2156324  61.1041021  48.1875563  66.4970016  11.3665950
  47.7325058  67.3315287  11.4794052  48.7836170  66.6465044  10.6327105
  24.2282557   1.9544527   5.9268534  23.7038302   1.1549348   5.9713542
  24.2532396   2.1729623   4.9952626  20.6466365  69.5180416   7.2953510
  21.1943269  69.4697475   8.0788904  19.7613835  69.6606779   7.6303345
  27.6447344  22.7101278  71.5506506  28.3829784  22.2603512  71.9616604
  27.3907208  22.1398592  70.8250427  27.4946570  49.0358973   6.4737552
  27.1509600  48.4561968   5.7940102  28.1425118  48.5045671   6.9365811
  56.1081028  32.6834512  20.1796818  56.9628143  32.5652623  19.7652757
  55.4771900  32.4604511  19.4952500  60.8574963  71.5051222  49.0412331
  61.4441061  70.7524109  48.9667749  61.1467028  72.1032524  48.3521509
  26.0592961  36.2615418   9.9564010  25.3638840  35.9694052   9.3670869
  25.8777189  35.8127809  10.7821584   4.8388577  47.9735136  16.9846010
   4.9564558  47.1186686  16.5703070   5.2188742  47.8711128  17.8571451
  25.4735851  69.9134207  53.7653065  25.0403285  70.4861498  53.1324577
  24.7711277  69.3614101  54.1089153  53.8527250  66.0420847  26.9940352
  53.9577150  66.9158936  26.6176558  54.7455215  65.7549810  27.1856546
  47.3239613   1.9543390  74.1245604  47.3159027   1.6222736  73.2268429
  47.9222822   2.7010387  74.0983677  36.4119363  42.3176813  37.3833632
  37.3213983  42.1559811  37.6342893  35.8955121  41.8555641  38.0436540
   6.0584956  81.4262104  24.5621920   5.2833974  81.8533421  24.1974807
   5.9791368  81.5527630  25.5076647  28.7746382  50.5819178  36.0271978
  29.1936016  51.3883448  36.3278174  28.7493348  50.0216198  36.8028641
  88.5983181  69.6382809  70.0034332  89.1899872  69.1148901  69.4628525
  87.8400326  69.0717983  70.1460552  45.3350925  66.2484789  62.2506714
  45.0373888  67.1582031  62.2476387  44.5309734  65.7331085  62.1872950
  83.4537983  30.0611663  16.6083765  82.7314281  29.4600248  16.7901599
  84.1494560  29.7873640  17.2061455   0.8132752  64.2665100  57.3813915
   0.5141934  63.8377380  58.1832266   1.0704874  63.5459948  56.8061209
  57.3764181  18.7695718   3.3744958  57.0119905  19.6207583   3.1317890
  57.7314091  18.4192562   2.5574943   2.6926416  19.5564127  61.5434790
   1.7428330  19.5363104  61.6604900   2.8362370  19.1639328  60.6823301
  84.4638239  -0.1741154  23.3787298  83.5404049  -0.3672154  23.5407257
  84.5115363   0.7818859  23.3750439  31.0077691  57.3481035  12.2056448
  31.7625856  56.7602921  12.1746504  30.4977846  57.1243000  11.4271450
  70.7739735   1.7986989   6.2858528  71.3232327   2.4290773   6.7518646
  71.3665771   1.3803491   5.6613255  82.0417500  58.5456324  15.1808727
  82.2262383  58.6232042  14.2448294  82.4659920  57.7281761  15.4416692
  63.1305599  77.9118156  22.2003126  63.3977985  78.8167334  22.0392537
  63.8861609  77.5119591  22.6309085  50.2020836  26.7132092   5.8460242
  49.7763729  27.3480773   5.2698779  51.0879230  27.0553136   5.9663731
  49.8578119  58.0804729   8.8428342  50.0568151  58.1864548   7.9125661
  49.1475916  57.4391031   8.8642836  46.9060612  14.2311633  47.5065708
  47.2957802  14.3110180  46.6359520  46.3601971  15.0122190  47.5971937
  36.9621420  51.2750959  30.2221870  37.3695803  51.7361212  29.4889212
  37.6984525  50.9275293  30.7254505  59.6081066  46.4813519  12.5542557
  60.1924944  45.8173561  12.1884239  60.1954031  47.1586895  12.8897119
  46.1937761  45.6878424  28.8504577  46.4543056  46.4822388  28.3843064
  45.5557823  45.9882879  29.4977045  55.3449774  28.7885094  15.3168380
  54.8082113  28.4065700  16.0112703  56.1080170  28.2133651  15.2601612
  73.1409168   0.8568406   5.0813287  73.9604664   0.4720564   5.3920007
  73.3953190   1.7093647   4.7281772  60.4922771  45.4989290  72.3600721
  61.1724567  45.2136230  72.9701424  60.9717560  45.9200668  71.6466475
  84.4303703  54.0878057  33.2255769  85.0085354  54.8133802  32.9899883
  83.9677429  54.3937683  34.0056992  42.5310659  85.9635830  52.8472328
  42.2875023  85.3331852  53.5250998  43.2664680  86.4473915  53.2231903
  55.7764816  31.7463017  59.7151375  56.4725780  31.7614985  59.0582848
  55.3867388  32.6194644  59.6713400   9.0860784   3.8722759  53.9884424
   9.3526554   4.6254373  53.4612656   8.3184254   4.1778585  54.4717216
  82.7212906   5.0522959  24.6253109  83.5191250   5.3106153  24.1638231
  82.2393131   5.8703333  24.7467494   4.6852374   2.3667730   5.2474719
   4.0514883   1.8349731   5.7289100   4.1748819   2.7706450   4.5455769
  69.2352724  65.3997087  42.4151802  70.0494623  65.6404161  42.8572035
  69.4825506  65.2987957  41.4959955   2.1399787   2.9363790  39.5137429
   2.4861868   2.0449042  39.4731951   1.9051516   3.0605263  40.4333496
  27.4613643  85.0405407  32.6925945  27.5161171  85.8180714  32.1370006
  28.1233144  84.4463921  32.3389864  51.5641212  40.3666019   0.3937281
  50.8801985  39.7069216   0.5090906  51.9198895  40.1928854  -0.4777547
  77.4551725  76.2218904  49.7775412  76.9548416  77.0323467  49.8727369
  76.8141890  75.5261517  49.9235630  64.8486662  20.1205802  28.8718438
  64.7174072  20.5156994  29.7337508  64.2830992  20.6260514  28.2880044
  46.2616110  50.4874659  18.8296938  46.9135332  51.0463142  19.2526793
  46.4487743  50.5668497  17.8943348  32.6856041  58.3121490  44.2424822
  31.8179250  58.2004642  43.8540363  32.8467751  57.4917603  44.7085476
  34.5428872  64.4485903  42.5905228  34.1598058  64.4758177  41.7137432
  33.8534474  64.7839022  43.1636477  73.6790419   3.7878060   4.1486698
  74.3507338   3.4939191   3.5332882  73.9061832   4.6990117   4.3339854
  69.8929310  10.3254557  18.7371540  69.6408749  10.1875150  19.6502113
  70.3412914   9.5173693  18.4877527  68.2649994  79.2769957   6.5852159
  68.3973837  78.5480833   5.9790850  68.2199764  80.0506020   6.0233092
  74.3670368  64.1493225  24.1873765  75.1268673  64.4138575  23.6688113
  74.7010279  63.4686375  24.7716284  11.3864326  44.0116644  34.9008727
  11.8517685  43.5649300  35.6080651  10.8143485  43.3403349  34.5290351
  71.2707520  19.7692335  35.1535201  71.0719061  19.3270147  34.3282127
  72.1289062  19.4291377  35.4067779  12.6860750  10.2672386  69.3570757
  13.3895171  10.4001820  69.9924707  11.9530201   9.9374896  69.8768139
  76.9385862  10.9020770  22.9464674  76.5073204  10.0597775  22.8023338
  76.3875103  11.5351605  22.4863052  59.1406393  46.6013908   4.2877656
  59.2593718  47.3198414   4.9090269  58.3338308  46.1709833   4.5706719
  38.1952834  54.7202826  25.8843327  38.8519621  55.2462053  25.4278159
  37.4533319  54.6866369  25.2805042  50.0677824  55.3615808  13.6632884
  50.6671381  54.9211597  14.2658091  49.8361111  56.1764479  14.1088784
  28.0370498   8.8687915  72.0906591  28.2429957   9.0951866  72.9976130
  27.1340847   9.1624463  71.9696140  78.8050032  82.0334530  27.0429850
  79.1166019  81.7089272  26.1981058  79.5955086  82.3370171  27.4892807
  66.3777065  68.0117416  22.2032309  66.3908529  68.9576435  22.3492742
  66.0617971  67.9124260  21.3051391  47.8816175  16.3051414  72.6651621
  48.0020475  15.8611107  73.5045433  47.5005484  15.6382704  72.0939350
  66.7565536  77.9873848  28.3123612  66.5360308  77.5582075  27.4856758
  66.2455273  77.5163507  28.9705467  73.5531092  62.8193188  54.7836542
  74.0388012  62.3907375  54.0789223  74.0136051  63.6468029  54.9231100
   9.9416566  63.6663580   9.3103456   9.1135436  64.1330481   9.1978186
   9.7539127  62.7727413   9.0232378  64.4200850  65.6163979  26.1223769
  64.7677422  66.3587523  25.6281281  63.5194159  65.8665514  26.3284230
  41.1565495  39.3414307  18.2261658  42.0560455  39.5395327  17.9656065
  40.7196999  40.1929140  18.2453489  22.4808515  86.2575447  33.4553957
  23.2405246  86.4327101  32.9000139  22.7881111  85.6022055  34.0817785
  49.0459681  76.9136000  26.6683674  48.4285975  77.5671530  26.3398004
  49.4262457  77.3148775  27.4497747  60.0625658  39.1139531   7.7941930
  59.5920658  39.8122096   8.2494962  60.0937223  39.4015718   6.8817592
  83.6949730  65.5069685  22.2329569  84.1517830  64.6668053  22.1918654
  84.3570232  66.1246157  22.5435138  19.4253659  28.3478999  69.1047239
  18.9327598  27.5339866  69.2101669  19.2290008  28.8508201  69.8951340
  36.5133905  59.9934530  45.7028818  37.4691153  59.9475527  45.7296562
  36.2600279  59.3352461  45.0557327  80.1264191  37.4705672  58.8697720
  79.4559240  38.1080294  58.6241817  79.8207617  36.6448045  58.4943771
  61.9484138  68.3017397   6.5235561  62.5898504  69.0003443   6.6529334
  62.4459934  67.5918722   6.1176759  27.1908665  38.5706115  70.2105808
  28.1286812  38.5524821  70.4013777  27.0719624  37.9076767  69.5304251
  59.4064331  69.2040682   7.6021504  58.8338089  69.4509888   6.8759567
  60.2632475  69.0705776   7.1968353  77.4008131  54.3694735   2.8433380
  77.0855570  54.9791813   2.1761802  76.7638636  54.4419193   3.5541660
  67.8263474  54.4435358  26.1515999  68.2334995  54.6187639  25.3032184
  67.9205847  53.4986115  26.2718892  59.1344786  63.9803505  46.6689634
  58.4500504  63.3729982  46.3880396  59.5917892  64.2158604  45.8617258
   6.7718512  81.5593052   3.1837955   6.5920192  82.4139690   2.7920827
   6.5416342  80.9295368   2.5006956   1.2789714  26.6631818  62.3692751
   0.8558175  26.4898157  61.5283728   1.5671568  25.8028555  62.6742649
  68.9142466  82.7810478  16.4754772  68.6693573  82.2614670  15.7097816
  68.4441137  82.3726463  17.2023952   0.6660967  63.1615210  10.4707599
   0.3984946  64.0044594  10.8369255  -0.1041252  62.8521013   9.9940521
  88.2257557  40.0064898  21.8404603  89.1464043  40.2683544  21.8320751
  87.9679966  40.0666618  22.7603364  32.1726441  79.5868254  51.8911171
  32.8973246  79.6529770  51.2692690  31.6576529  80.3801632  51.7440319
  41.4821720  82.1151447  40.1660395  41.6893339  82.9800892  40.5198717
  41.5470314  82.2227383  39.2171216  33.1808019  81.5742493  14.5840931
  32.9998541  81.2891865  13.6884212  32.3160505  81.7037487  14.9735439
  52.0764065   5.9410417  71.6849089  52.9071140   6.2360519  71.3119125
  51.4164639   6.4949203  71.2678671  11.0299909  20.4803491  72.9471493
  11.7796504  20.6154108  72.3674917  10.8150077  19.5528340  72.8485155
  11.3239062  71.4438534  35.7756352  12.0914900  70.9476519  36.0599446
  10.5813646  70.8773756  35.9853172  33.8454747  41.4155245  17.5811005
  34.0495348  41.9313908  16.8010557  33.4175348  42.0346594  18.1725132
  23.6881804  13.3781803  72.4165583  23.4853387  12.6972604  71.7751265
  22.8537941  13.5536385  72.8515768  79.4344330  25.6342030  66.2407064
  80.1756763  25.1745558  66.6350698  78.7357187  25.5643177  66.8912029
  87.9058838   4.5642591  24.3068480  87.6158619   4.4546542  25.2124453
  87.2817612   4.0528348  23.7919164  44.7298527  81.5871429   2.8743386
  45.0556803  82.4396896   3.1628191  44.4916487  81.1353397   3.6838850
  40.0787020  85.2536488  26.9275045  39.6154571  85.3491783  26.0953355
  39.5667386  85.7728767  27.5476074  75.7906628  79.7590399  32.3112726
  75.5902529  80.6819439  32.4672079  76.4874792  79.5564699  32.9354906
  33.6906457  36.6086411  64.9946642  32.7625847  36.4565277  64.8163414
  33.7117934  37.4480391  65.4542255  11.3213885  51.2168980  21.1040258
  11.3606775  50.5735493  20.3963614  12.2117126  51.2419653  21.4546347
  33.7502503  65.4713821  21.0703611  34.3846869  65.7277727  21.7396784
  32.9947591  66.0379028  21.2269378  65.8703470  41.1113024   6.0207403
  66.1884022  41.9965935   5.8437204  66.5991831  40.5414104   5.7752854
  61.9629192  47.8517532  36.4461875  62.3801327  47.3224449  35.7664824
  61.1276579  48.1190586  36.0626292  32.9603291  37.0677543   8.9674765
  33.7139750  36.8443632   9.5136887  32.5721669  36.2234163   8.7380040
  83.1889153   8.4707302  23.1586099  83.2040215   8.1144810  22.2703004
  82.3201656   8.2462388  23.4919500  22.2743344  77.5564861  16.0417807
  22.5422215  77.7860355  15.1519620  23.0659461  77.2014284  16.4461553
  35.3549218  35.3115821  70.9438944  34.9087000  34.4755673  71.0787821
  36.0526371  35.3191352  71.5991545  56.5802336  53.4286594  13.9661241
  55.6662607  53.3743000  14.2452943  56.7375612  54.3646765  13.8422287
  82.7043629  86.1352634   0.9533083  82.0485592  86.8246174   1.0578695
  82.2309303  85.3242111   1.1384708  90.7173061  59.8564005  68.9156246
  91.1052990  59.4569540  68.1370783  91.2366962  60.6467199  69.0634537
  73.2175016  18.7340558   0.1671670  73.0447006  18.1412160   0.8985432
  72.6745749  19.5014834   0.3474850  52.3438740  28.3462715  19.0024185
  52.5169563  27.5449681  18.5082662  52.9237127  28.9992976  18.6105299
  63.4516954  73.1907082  60.9169483  64.3868828  73.1552744  60.7159424
  63.2649279  74.1233683  61.0241556  40.5959702  33.4566641  15.1385605
  40.0005388  34.2031837  15.0722182  41.3163853  33.7726355  15.6839013
  30.2142382  14.7873855  62.5355482  29.5720530  14.7604620  61.8262482
  30.6854677  13.9573228  62.4636364   7.1242303  83.2497406  64.3207169
   6.5459579  83.4853840  63.5952473   7.2120476  84.0562534  64.8287058
  66.9192743  83.8292694  26.6375995  66.6955805  84.6791553  26.2582707
  66.4346266  83.8001442  27.4625254  50.3620005  72.8255320  31.9510460
  51.3157892  72.8042078  32.0289183  50.1643038  72.1973944  31.2563586
  35.9423089  32.4618077  18.7362885  36.0055137  33.2991004  18.2767487
  36.8318653  32.1090221  18.7147450  49.2954874  70.6804085  12.4608529
  49.3317175  71.6179848  12.6502538  49.9355268  70.5525923  11.7606807
  25.7506180  10.0618255  42.4296665  26.2577939  10.8514690  42.6179981
  25.2405095  10.2848327  41.6510248  83.0313110  55.3858566  70.7489252
  82.6827908  55.0585604  69.9196815  83.1857681  56.3175154  70.5927610
  39.2668891  18.5885644  72.3108959  40.0174189  18.9040744  72.8142738
  39.6418357  17.9696250  71.6843510  34.7210813  22.6560545  14.4131303
  35.0562572  21.7823744  14.2117071  34.5392823  22.6321268  15.3526032
  12.9565060  22.4529338  63.5217094  12.0512533  22.7047706  63.7042713
  13.4677351  23.2380438  63.7178659  69.0557194  47.6683235  40.4325342
  68.6212158  47.6017714  39.5822382  68.7488461  46.9031191  40.9188700
  34.1532278  63.0379105   5.0535524  33.6992979  62.3306799   4.5952934
  33.5618138  63.7872505   4.9832088   3.6284265  41.1287403   9.2820358
   4.5302188  40.8099031   9.3187034   3.4063983  41.3244963  10.1923192
  49.7871733  34.0023589  12.1378446  49.0464592  33.3969879  12.1046185
  49.6233892  34.6205616  11.4256418   3.1792268  17.6851213  53.9220047
   2.3248151  18.1146371  53.8804245   3.7987393  18.3559179  53.6348343
  34.3953657   1.0047396  35.0535393  34.3962836   0.4929384  34.2446566
  33.7789416   0.5475236  35.6255603  72.7030468  65.5923462   0.8328138
  71.8753958  65.9212685   1.1835800  72.4457455  65.0111628   0.1170937
   2.0016500  25.5347681  29.4766521   2.0889224  26.4616609  29.6991062
   2.6279137  25.3991151  28.7655783  57.1439648  62.7431536   5.4783744
  56.2805033  62.5774097   5.8567840  57.2389412  63.6952257   5.5062538
  35.8278155  66.2379217  53.1357670  34.8958015  66.1203718  53.3195114
  36.0742903  67.0159101  53.6359835  20.1118255  34.7017622  11.2970448
  20.4491115  35.1466966  10.5195451  20.5765295  35.1103663  12.0273352
  50.6634474  40.7153320  13.7159359  50.0172091  40.7919455  14.4178903
  51.0018444  41.6036844  13.6039090  67.8827333  29.3327284  23.2061958
  68.0840874  28.4126949  23.0352354  67.4789047  29.3322682  24.0740418
  10.2715945  78.7086773  45.3138065  10.3350341  77.8055906  45.0029325
  10.1233423  78.6277914  46.2559891  48.9373446  77.6392508  51.0493565
  49.2155933  78.4289932  50.5855513  49.4714260  77.6272345  51.8436098
  33.7489939  35.1076198  24.8684216  33.6636543  34.1545153  24.8917460
  34.6901536  35.2656984  24.9423432   7.6208794  50.4949760  60.6640816
   7.9572511  49.6570683  60.9818840   8.0058837  50.5928421  59.7932053
  76.0860109  73.8117599  62.2565460  75.3248262  73.3641148  61.8871689
  76.3491917  73.2653379  62.9970789  49.8397303  48.9073753  11.4357007
  49.5622587  49.8056841  11.6153824  49.8007154  48.8308001  10.4823673
  30.3239965  60.3511858   5.5956173  31.1253428  60.1533794   5.1109064
  29.9385548  59.4948244   5.7808524   7.8920984  10.2231228  47.7801228
   8.7213439  10.4419434  48.2052088   7.5166935   9.5337951  48.3279610
   4.3287176  39.8092532  15.8197105   4.9517295  39.9809265  15.1135838
   4.2297462  40.6523371  16.2620318  57.8277397  85.2684498  66.8494606
  58.6167479  85.3165245  66.3096571  58.0532694  84.6555138  67.5492239
   5.9248829  81.8044662  56.7831135   6.4485586  81.2631226  57.3738194
   5.2992344  82.2478580  57.3559999  51.1551905  47.9452515   3.9697710
  50.8468580  48.8450003   3.8619938  50.7816935  47.6624393   4.8044860
   1.1648469  78.0643320  34.0529513   0.9394017  77.6323271  33.2290697
   0.5025025  77.7586985  34.6727252  27.4530530   9.5181495  48.7069798
  28.3869624   9.5888180  48.9045858  27.2002077  10.3979182  48.4271383
   5.3150839  28.1445456  52.4058247   5.9437573  28.3733988  53.0903864
   4.7684968  28.9247274  52.3120642  17.1261775  68.7080002  71.3829660
  17.8570163  68.6637926  71.9995308  16.6706157  67.8731585  71.4912701
   2.0235753  28.2458115  30.6814003   1.4242372  27.8272104  31.2992978
   1.4546500  28.5967231  29.9962592  35.0212145  23.0805802  70.1424503
  34.5328307  22.5323534  70.7565832  34.5835900  22.9468226  69.3017197
  41.9147158  34.8035717  17.3302126  42.7505159  35.2700830  17.3244369
  41.2543488  35.4956627  17.3642612  46.9801331  71.0793781  40.5391502
  47.6559639  70.4162264  40.6795502  46.6196823  71.2422943  41.4107943
  55.9144783  70.9489059   5.2944714  54.9875164  70.9219503   5.0572979
  56.2518406  71.7288637   4.8539150  34.5382690  84.7222519  40.3271532
  34.5319772  84.8660564  41.2734652  34.0320683  85.4522228  39.9705863
  57.9327822  29.2261434  19.1037357  58.8516235  29.1937947  19.3700457
  57.6221132  30.0752759  19.4178843  70.6359863   1.4752598  62.7166319
  70.6125736   0.8030950  62.0355463  70.1013327   1.1170098  63.4251785
  71.1805487  40.8833647  38.4763479  71.1532259  39.9366689  38.6151123
  70.3914261  41.0739756  37.9692125  70.2442360  32.4211359  32.2802114
  71.1745405  32.3206806  32.0785236  69.9285698  31.5263581  32.4065423
  42.8941584  22.1707058  57.6389933  43.4076452  22.7681422  58.1827116
  42.2593689  21.7837977  58.2419682  77.6191187  51.9856691  13.0726695
  77.7871895  51.1476374  12.6417565  77.0781326  52.4710321  12.4497819
  23.8679338   1.6567741  20.2330256  24.4971824   1.9193339  19.5612085
  23.4241438   2.4692833  20.4761577  27.9405928  10.2140999   9.4358736
  27.6934886  10.5555749  10.2952719  27.2437906   9.5963985   9.2141920
  83.1285763  19.1100621  58.6475182  83.3385372  18.1827652  58.7582827
  82.2546101  19.2046583  59.0262938  39.3178320  48.3752871  20.2513599
  39.5352292  48.6003160  19.3467426  40.1288986  48.0151653  20.6101274
  68.9111805  20.1520014   9.6165282  69.3832445  20.6466961  10.2863538
  69.5437098  19.5034456   9.3074697  15.4615426  72.6765728  71.8970966
  15.2119112  72.4871349  72.8015471  15.5530310  73.6289549  71.8683434
  29.6679926   7.5004268  55.3622150  30.4633927   8.0322397  55.3348970
  29.3765664   7.5519663  56.2725163  82.3149872  79.7379875  71.0871553
  82.2014713  79.0002394  71.6863871  83.1023502  79.5218229  70.5875874
  44.5649147  28.7414145   1.3986582  44.4117403  29.6249056   1.7336379
  43.6978245  28.3361483   1.3866261  13.9833558  41.9127464  18.2557309
  14.4616747  41.2627459  17.7410030  14.6234334  42.6047421  18.4220791
  -0.1349722  52.6362991  67.0454836   0.7057394  52.4975395  66.6093779
  -0.2500521  51.8616152  67.5958014  75.7134676  31.9756007   4.8485836
  75.2642727  32.6319432   5.3811908  76.4096689  31.6430545   5.4151058
  83.0915165  83.6344719  62.9579592  83.9800549  83.3577347  63.1818914
  83.1677151  84.5743084  62.7932501  86.5703106  84.2117310  71.8187952
  87.0372105  84.1003799  72.6469469  86.8701649  83.4833336  71.2749672
  16.5844154  18.6579108   9.3807429  16.0222089  18.4558403   8.6328650
  16.2541783  18.1012571  10.0859463  55.2596378  16.2684882  13.4120882
  54.8239660  16.8791080  12.8174746  55.9539747  16.7858005  13.8201511
  32.5622392   5.5765229  62.3966789  33.0006480   6.4256978  62.4508047
  31.6696501   5.7849467  62.1208525  39.3283296  73.9554834  64.3679667
  39.5698142  73.5157156  65.1831436  39.7167206  74.8272133  64.4419479
   6.9187897  64.7146273  71.0788727   6.7050070  65.5383015  70.6405926
   7.5676650  64.9563599  71.7397499  61.5197897  85.8069611  51.8932438
  62.4678755  85.6759834  51.8787384  61.3834333  86.4985752  52.5407839
   4.1782096   0.9106399  63.0472183   3.6102587   0.2445875  62.6598692
   3.5830280   1.6180153  63.2954311  75.3830814  64.8530769   1.8963544
  74.7450304  65.1663399   1.2552723  74.8986769  64.8229933   2.7213868
   7.6234651   6.5489924  41.6773558   8.2889754   6.2323439  42.2881460
   6.7962730   6.2291950  42.0375156  21.5235066  15.4890394  62.8591633
  21.0242486  15.1428926  63.5988617  21.1701632  15.0311422  62.0964622
  50.2242994   5.9747809  63.5887432  49.6188116   5.2407432  63.4847832
  50.3748465   6.2891811  62.6972723  62.3737717  71.6462564  30.7618976
  62.2121143  71.8091583  31.6911793  63.0729246  72.2573948  30.5296826
  28.5354018  75.2190733  43.9984751  28.7450099  74.4100332  44.4651127
  28.3118939  74.9335861  43.1126022  82.1861649  83.1314468  65.4644680
  81.5444851  83.7603474  65.1343679  82.7173233  82.9077339  64.7002363
  14.3760610   6.3756758  72.7934790  14.8704159   7.1938056  72.7433968
  13.8843477   6.3423377  71.9729042  14.0710938   9.3858743  56.1362886
  14.5341825   9.2680997  56.9656944  13.4527993   8.6559904  56.1014509
  60.6264305  23.4692192   3.3913481  61.3948584  22.9003859   3.3446664
  60.0731754  23.0697846   4.0626097  87.7721310  62.5343370  42.0150566
  87.6199055  62.1088886  41.1712217  87.4307919  61.9152975  42.6604319
  67.1403408  74.5192528  13.3743525  67.3718929  74.6266127  12.4518085
  66.9415855  73.5872650  13.4645176  38.8878179  17.8253424  62.0612049
  39.4220209  17.0341134  61.9918108  38.7933898  18.1304789  61.1588717
  73.1440783  44.7794056   1.9369632  72.9063225  45.4215574   2.6058042
  74.0153170  45.0483465   1.6456828  85.7464981  48.4493017  34.5043421
  85.5987930  49.3909502  34.4165349  86.0816288  48.1786919  33.6495376
   1.0452410  15.9604049   6.3022566   1.9943586  15.8363485   6.2980175
   0.7026564  15.1729786   6.7251366  70.8472443  39.8471212  14.8281264
  71.7520094  39.5619082  14.9557495  70.6912565  40.4726982  15.5356252
  53.7465763  84.3815327   1.8999960  53.4769583  85.0972557   2.4755682
  53.5381937  83.5872173   2.3917924  21.1699772  77.6131868  71.0811090
  21.7256975  77.5614929  71.8587542  20.3429246  77.9733467  71.4012623
  32.5537491  43.3495092   8.8201654  33.1123209  43.9388895   8.3133560
  31.6760087  43.4855890   8.4633899  40.7928467  47.9468966  16.1824846
  40.9400654  47.4035788  16.9566703  40.5626965  47.3240757  15.4930258
   8.9762807  15.0830865  50.5215359   8.3793902  14.3922019  50.8089972
   9.3633509  14.7445929  49.7141790  90.4682350   4.7513524  66.4616585
  90.9466267   3.9725205  66.7459106  91.1078930   5.4608339  66.5225315
  52.5217676  80.6341362  22.4662447  52.7795696  81.2401772  23.1608510
  53.0883598  79.8726702  22.5902796  79.7390938  53.2304955   2.7334386
  78.9443207  53.7638903   2.7254102  80.3886127  53.7751818   3.1780392
  53.1781912  58.3174610  18.4348106  53.1909466  59.1693354  18.8711345
  52.3304081  57.9404879  18.6701536  18.0320585  18.5582960  59.1398716
  17.1899319  18.2556164  58.8001060  18.2945740  19.2574561  58.5411263
  57.6249838  59.3854713  12.3728728  57.1600676  59.1755009  11.5629375
  57.0342064  59.9743462  12.8423870  15.5314648   2.2964653  71.4683628
  14.6517909   1.9966458  71.6975212  16.0138690   1.4939296  71.2697315
  66.6179895  47.4027157  32.5914001  67.0134544  47.7789354  31.8050790
  67.1883869  46.6683292  32.8184557  28.0864024  20.3793573  63.5864496
  27.4077582  20.7835960  64.1270638  28.9087725  20.6299663  64.0073204
  37.9308772  20.9105492   3.7788656  37.0857835  21.0140800   4.2162815
  38.5624194  20.8309054   4.4937381  40.7327986  70.9079742  26.5770245
  41.6165495  70.9748936  26.2154484  40.7317352  70.0786495  27.0549917
  83.2488537  24.8149657  44.6254539  82.3901653  24.3932843  44.5927477
  83.6560440  24.4679022  45.4191637  49.3547583  82.5148487  67.6454115
  49.1684961  82.3933411  68.5764170  49.3271828  81.6312599  67.2783232
  49.9447775  81.4782810  73.1199455  50.8655214  81.3470268  72.8935909
  49.9078226  82.3702526  73.4652662  31.3974094  29.3609548  66.6087914
  32.2054124  28.9070749  66.8482924  30.7675338  28.6588335  66.4459610
  56.3880014  28.8070202   5.2698863  57.2352219  28.9145184   4.8375723
  55.9193420  28.1751299   4.7246289  63.6637735  76.6157055  64.3373251
  64.1760492  76.1955547  63.6464691  62.7577066  76.5539169  64.0348959
  63.9599371  48.9975548  15.6625974  63.7360001  48.2783794  16.2532556
  63.6512232  48.7074852  14.8042333  53.3988346  86.0344502  57.0578671
  54.1746582  85.4740513  57.0744944  53.2388557  86.2493435  57.9768133
  35.9080315  41.1640930   4.9690327  35.8087683  41.0381794   5.9127086
  36.7988062  40.8688450   4.7803944  23.3977747  10.7741761  69.6733189
  22.7684855  10.1309574  69.3469810  23.3733010  11.4815080  69.0288734
   5.9383529  58.7825584  53.4015465   5.4188746  58.2346439  53.9899015
   6.8380088  58.4794664  53.5239553  50.1334953   8.3412707  65.3919601
  50.0913906   7.6303560  64.7523832  49.7463989   7.9724157  66.1858988
  41.6531849   9.8247749  67.7797556  40.8726311   9.2758900  67.7042913
  42.1922874   9.3853933  68.4374332  58.0981159  75.3686333  22.1513367
  58.5465956  75.0594425  22.9384184  58.3250380  76.2968636  22.0953965
  14.2548668   8.1283987  28.5183525  14.0835595   8.7821704  29.1961932
  13.7731004   7.3529947  28.8062453  73.9495802  29.9318576  17.1143782
  74.6206856  29.6741414  16.4823735  74.2404222  29.5490313  17.9420769
  75.9057474  58.4716272  14.2903018  75.1072979  58.9933348  14.3710887
  76.5254688  58.8878679  14.8894000  47.3195696  25.7732129  72.3591900
  47.8111839  25.5929112  71.5579176  46.4308214  25.9614706  72.0576668
  67.3806143  33.6808228   8.6236912  66.5928555  33.8387680   8.1033814
  67.7244854  32.8514194   8.2919139   6.9714743  38.6156678  67.5438547
   6.9618326  39.0851331  68.3779669   6.3870400  39.1203451  66.9781971
  58.4424925  55.3168011  10.7188308  58.7004328  55.7933807  11.5078628
  59.2017460  55.3835297  10.1397645  57.1111774  61.6472387   2.7574295
  57.6384115  61.8466091   3.5310623  56.2057781  61.7315483   3.0563924
  49.3690014  57.8362656  14.7502625  49.2519617  58.6145353  14.2054427
  50.1474047  58.0255222  15.2741945  83.8048840  49.3903637   7.2362065
  83.3883190  49.6618748   6.4182895  83.6750126  48.4425497   7.2680205
  34.9951077  11.0663176  66.3709974  35.8466983  10.7107234  66.6251183
  35.2051759  11.8235838  65.8245087  59.2637539  37.0794320   4.8954788
  60.1347399  37.3183179   5.2125657  58.7294531  37.0168734   5.6872147
   3.7385225  46.8780136   4.5594612   4.3858725  47.1528530   5.2087939
   4.1854849  46.2055349   4.0454286  79.8215771  49.7608852   7.4946612
  79.9692154  48.8942814   7.8733855  78.9426899  50.0031757   7.7863467
  39.9437332   3.8047737  52.7803516  40.4986191   3.2209933  52.2631121
  39.3115807   3.2228449  53.2022190  49.8754311  60.1682806  13.0688071
  50.3824902  59.4112539  12.7754903  49.4950390  60.5269909  12.2670245
  81.4387798  85.0134754  57.6635313  82.0115376  84.7361755  58.3785677
  81.9859791  84.9516296  56.8805981  84.6302128  39.2121291  23.3207297
  84.6321678  40.1070356  22.9810619  84.8230457  38.6662102  22.5584841
  36.2253833  62.3983002  41.6934586  35.4865837  61.7956114  41.7781448
  35.9986520  63.1361675  42.2594786  10.6006277   1.8281361  71.9168043
  10.7354152   1.6058877  70.9955692   9.6849072   2.1025769  71.9654751
  27.6461506   0.7635029  73.6076975  27.7495265   1.6103089  73.1735754
  26.7149520   0.5606892  73.5184479  53.7383032  40.6349564   3.5364631
  53.0506134  41.2751150   3.3533764  53.4030628  40.1282358   4.2761123
  26.3219047  11.7610884  51.6911125  27.1003962  11.3169730  52.0271873
  25.6697655  11.0661948  51.6012859  84.4456196  79.7808075  62.3343325
  83.6234570  80.0101662  61.9011164  84.7941589  79.0544176  61.8175077
  81.4993763  45.6098795  37.3960447  81.5581799  44.9268150  36.7280674
  80.7502937  45.3545094  37.9344630  40.9304333  46.1524820  32.5073504
  41.7975616  46.0237217  32.8917241  40.3312349  45.7255030  33.1196260
  70.2305174  53.1041908  48.3160639  69.8621225  53.8185692  48.8358498
  71.1740685  53.1598568  48.4672260  84.4535828  35.5422282   3.7090579
  84.0503120  35.1726151   4.4945455  85.3238583  35.8201361   3.9947563
  87.6796532  79.6475554  21.1273575  88.0752087  78.7767124  21.1647582
  86.9609642  79.5575047  20.5015659  27.5808144  16.4962959  11.2502551
  27.9597473  17.0076311  11.9652224  28.0093431  15.6426787  11.3129723
  15.0952339  76.2441254  37.9242635  14.9909294  75.5680323  37.2547507
  15.7632279  76.8310404  37.5699401  78.7180805  55.2138186  36.1526036
  78.7921047  56.0621595  35.7154846  78.0558395  55.3504419  36.8300962
  74.4323826  35.7826948  69.0309954  73.4780312  35.8532286  69.0092945
  74.6146345  35.2326512  69.7928810  44.0978956  11.2062871  50.3108168
  43.4993744  11.7065704  49.7560883  44.7949362  11.8246973  50.5297518
  48.4240723  56.2200356  17.8548157  47.9368305  56.9656372  17.5042391
  47.7620459  55.6868267  18.2948625  22.4614882  65.4922342  26.9097614
  23.4003043  65.6376457  26.7926621  22.3709869  65.2398872  27.8286529
  32.0585990  46.2108135  37.9474139  32.7214909  45.5779076  38.2235193
  31.7268395  45.8642387  37.1191311  12.3537660  59.0534163  36.2614369
  11.9632757  59.7597742  35.7468414  13.0856454  59.4669580  36.7192245
   3.7735748  36.2347579  44.4257593   4.1116574  36.2037110  43.5307932
   3.7139699  35.3170443  44.6912432   7.9080898  39.3255138  44.2173100
   8.5821331  38.9135456  44.7578478   7.0907044  39.1619825  44.6878099
  70.3432798  50.6641531  32.4820924  71.0770226  50.3891087  31.9323564
  70.5868769  50.3840780  33.3643889  37.8653717  75.8380318  28.7333226
  37.2392106  76.4930916  29.0416217  37.6480079  75.0476551  29.2275763
  77.6296282  82.7506638  30.2350736  77.7647734  82.0727539  30.8972025
  78.3217573  82.5983715  29.5916438  71.1825800  42.3093271   7.6742572
  70.5700541  42.2216129   8.4045672  70.6262541  42.3236656   6.8954575
  16.2144351  82.9328918  54.9487162  16.7294133  82.9629898  55.7550192
  16.7248368  83.4424496  54.3193722  49.4448137  82.9020882  49.1029692
  49.9696493  83.3713913  48.4544802  48.8317394  82.3817253  48.5837460
  15.6095159  68.8420534  22.5396276  16.3129818  69.2132664  22.0071149
  16.0464823  68.5370255  23.3347702  90.4887676  52.2747374  32.5776935
  89.5621681  52.2142410  32.3453522  90.7746601  51.3650465  32.6611209
  24.7953081  50.0281525  22.8050399  25.2503490  50.4029894  23.5591412
  23.8987637  50.3551006  22.8795004  34.3866920   0.6927331   8.8252294
  34.2380047   0.3929831   7.9284167  35.1218939   1.3017006   8.7554353
  17.0943403  71.7638969  27.5296760  16.3153434  71.3164806  27.1991992
  17.8272891  71.2457609  27.1971822  15.9270310  58.0846882  12.1316707
  15.5425406  57.9084826  11.2729800  16.3716376  58.9258766  12.0269644
  82.7259254  38.5878372  59.4021177  81.9103813  38.3427691  58.9650154
  82.4782944  39.3037128  59.9872923  19.4873786   9.3423110  20.0714874
  18.9412570   9.4105417  20.8546400  19.6046019  10.2470183  19.7816706
  90.0353050  57.5240803  26.3609052  90.7510567  57.6050901  26.9912744
  89.3475342  58.0940533  26.7048979  17.8585339  58.1678247  18.2548869
  17.9976642  57.3571253  17.7653527  18.2102096  58.8536978  17.6873159
   4.2323381  47.0275736  23.9003682   3.8766187  47.7205181  24.4567204
   4.9850088  46.6920996  24.3873715  85.6832123  72.2716665   4.3194628
  86.1119938  71.4282990   4.1742119  84.7991180  72.1538591   3.9719906
  37.1203446   4.8818561  39.6211505  37.5146770   5.4710162  38.9780164
  36.7690873   5.4636490  40.2952194  35.5974293  68.1947803   6.5234214
  36.4347076  67.7677393   6.7046243  35.8126950  68.8897848   5.9014428
  84.8241615  68.8760614  34.9016953  84.3060398  69.1001892  35.6747079
  84.4304180  69.3855810  34.1934681  17.3357487  34.6317673  37.7056098
  16.7644417  35.3100395  38.0658698  16.9806242  33.8120461  38.0493784
  25.4269266  28.7939787  54.1321325  26.0843182  28.4257722  53.5417986
  25.8390927  29.5808983  54.4886541  77.1845675  31.6728210  68.0403709
  77.6407003  31.3691688  67.2555304  76.9539785  30.8705831  68.5088539
  41.4765930  10.0737786  42.7325964  42.3912859   9.9067861  42.5052691
  41.4113808   9.8318666  43.6564207  47.8877163   5.9202266  28.5900283
  47.4227095   5.1436114  28.2787871  47.3006582   6.6484165  28.3867216
  15.3271472  73.7758255  66.6023445  15.0285554  72.9934359  67.0659637
  16.2231410  73.5692739  66.3363314  90.8289909  15.1473105  71.0398197
  90.7687759  14.3636239  70.4935217  91.7324734  15.4448819  70.9330225
  14.7785926  31.0346484  29.2007351  14.4626045  31.9236279  29.3622923
  15.4016304  30.8696055  29.9084187  74.9548483  54.4850969  13.4476340
  74.2701530  53.8383007  13.6181498  75.2610350  54.2823839  12.5636721
  18.1341529  62.2100067  49.0062809  18.2718825  61.8431139  48.1329823
  18.9518201  62.6656771  49.2063236  11.6406834  74.1937637  37.2264266
  12.1828413  73.9697981  37.9828238  11.3289440  73.3507681  36.8971682
   6.6480768   2.3158842  47.8443241   5.9215093   2.1561652  48.4466696
   6.6036862   1.5929858  47.2184801  39.8384358  82.9791637  74.2598187
  40.1812614  82.1554490  74.6065139  40.5943574  83.5662051  74.2458165
  13.1331694  79.6951056  41.8531799  12.4693966  79.0099812  41.7741680
  12.7271235  80.4683113  41.4613676  27.5671840  73.2163095  52.2485304
  26.6643500  73.2433748  52.5653744  28.0989170  73.1768513  53.0434704
  30.3006005  70.9444332  43.5972071  30.4133034  71.8435764  43.9055443
  30.9825516  70.4485941  44.0503263  55.6650257   2.2375059  11.1072958
  55.2651834   2.4486655  11.9509614  56.3764191   1.6347024  11.3235795
   8.8137907  77.1693945  39.8972750   9.0799809  76.7871380  39.0610600
   8.9807534  78.1064892  39.7962165   7.9993904   7.5016820  13.5334015
   7.8475028   7.0806468  14.3795049   8.9517385   7.5732130  13.4689963
  45.5426550   8.5178035  38.6884594  46.0689545   9.3069291  38.8169980
  46.1410189   7.8955662  38.2749200  74.8949671  84.6554470  52.8722382
  75.4730272  85.1290226  52.2740698  74.3184710  85.3295422  53.2320786
  20.2359176  14.3576658  40.2238131  21.1543202  14.1004968  40.1423788
  19.7563732  13.6932850  39.7289705  77.0782280  68.7071323  42.6464701
  77.8503275  69.2561102  42.5096560  76.5900087  69.1492605  43.3410215
  85.9433460  56.7442608  67.9951906  86.1547184  55.8411026  68.2315350
  86.7351913  57.0718145  67.5686693  81.4110756  60.7712078  41.6640806
  81.3463211  59.8978758  42.0505095  82.2304153  60.7541275  41.1694956
   5.3438640  59.3220568  31.8120217   4.8562264  58.8808107  31.1165071
   5.8093923  58.6172915  32.2623777  18.1392372  83.4245682  26.2481642
  18.4982121  83.1514645  25.4039001  17.1995389  83.5160255  26.0905743
  41.3650274   5.1686537  23.6659527  40.5023861   5.0016755  24.0456915
  41.7105246   4.2989734  23.4646583   3.1487286  78.5632467  19.7973061
   3.1397718  77.7245522  19.3360627   2.3036256  78.9608765  19.5877361
  12.5868630  52.7351427  33.3178926  11.7537665  52.9868698  33.7164092
  12.9939628  53.5650587  33.0694222  85.9874344  82.6563358  58.1659937
  86.5485477  82.6828098  57.3909569  86.5966797  82.5794315  58.9002562
  15.5758369   5.2818888  63.2870293  16.0308230   5.0588918  62.4749422
  15.7655859   4.5517102  63.8761568   0.6161002  51.1399221  24.6356416
   0.9648176  51.2085772  25.5244112  -0.3335411  51.1121368  24.7524357
  72.5140238  84.8713779  45.1415396  73.2384396  85.4909801  45.0546646
  72.0082617  84.9797630  44.3361282   7.9149067  65.9318209  37.7405548
   7.1306103  66.4634132  37.6044774   8.3210814  65.8783579  36.8754554
  88.8337994  84.5957279  38.8321733  89.1230392  85.4918194  38.6601686
  87.8795338  84.6357441  38.7689018  74.1242504  41.4684725  14.1596889
  74.7578335  42.1856451  14.1811740  73.3457232  41.8487740  13.7528694
  78.6092329  82.3262882  10.3411973  77.8016806  82.1327782   9.8651218
  79.2617893  82.4726200   9.6563709  15.5286431  17.3013043  11.3562834
  14.8885024  18.0119681  11.3187611  16.3190341  17.7093291  11.7098784
  37.1118617   1.8620166  16.3287175  36.2952828   2.3566322  16.3979173
  36.9803715   1.1020989  16.8956983  16.4764476  64.8361349  18.7497580
  15.7632577  65.3670597  19.1043174  17.1666265  64.8899794  19.4108069
  14.5001507  73.9447641  28.5035515  14.5775557  74.6917486  29.0970612
  14.4749701  73.1817150  29.0809202  16.4136600  35.3996634  42.1390533
  17.1444392  35.9209037  41.8066359  16.7920125  34.5366549  42.3072672
  13.3564591  14.8026240  24.1680765  13.6719453  14.1458654  23.5472965
  12.4336159  14.5847332  24.2989087   8.8973194  74.1337013  38.1076026
   9.2580694  74.7748470  37.4952126   8.6875331  73.3745670  37.5636077
   2.5495961  60.4040813  14.5275056   2.6487398  60.5452442  15.4690337
   3.4446949  60.4127312  14.1884553  74.5165873  68.7569475  23.3813000
  73.7455606  68.3586550  23.7851667  74.1622066  69.4334126  22.8042006
  62.6180744  59.3951654  25.8822060  62.0286369  58.7180996  25.5499768
  63.4643745  59.1926622  25.4834604  84.0299988  41.2187338  15.4913127
  83.1072998  41.0784435  15.7038665  84.4214344  40.3463793  15.5361855
  85.6233120  61.3571835  62.7010822  86.0469341  61.7686892  61.9477987
  85.9826374  60.4702568  62.7229881  16.3876688  62.9767990  64.6778440
  15.7562661  62.8822660  65.3910255  16.1526108  63.8042498  64.2579556
   4.9282765  53.2175827  24.0420532   3.9969477  53.3482933  23.8638020
   5.3752977  53.7067795  23.3513355  66.3383245  30.0791025  72.2969580
  66.3153267  29.4288349  72.9989910  67.2642231  30.1473951  72.0639801
  20.0755095  65.7316351  25.3713512  20.8118200  65.4855394  25.9312797
  20.2561498  66.6381788  25.1228023  51.6467094  10.0649691  37.0857263
  51.7751026  10.8632934  36.5734529  52.1845484  10.1927280  37.8671598
  14.0888476  85.4246426  19.5592237  15.0269353  85.2614975  19.4612193
  14.0371954  86.2931156  19.9583566  46.2170935  23.3686948  70.2573299
  46.9409609  23.1150556  69.6846914  45.4310703  23.0898929  69.7875738
  30.0515962  59.9285936  13.2176614  29.1596365  59.8661947  12.8759825
  30.5763817  59.4018173  12.6148820  84.1542053  25.8431029   8.8689357
  84.9936104  26.2743759   8.7088203  83.6718082  26.4563012   9.4234753
  67.1938324  72.0360947  20.2940106  67.8738403  72.6081419  20.6497908
  66.7308569  72.5813007  19.6579003   3.6566082  42.1776438  17.0749116
   4.0371904  42.9924536  17.4027431   3.0751830  41.8854141  17.7768922
   4.8758242  23.8664007  40.9903240   4.6318945  24.6772861  40.5440092
   5.3222561  24.1559172  41.7860079  40.5667019  70.0518847  16.3084757
  41.0771656  70.8545780  16.4149892  39.9036407  70.2746439  15.6550550
  83.4762573  81.9001770  28.8516760  83.9766121  81.7697716  28.0461526
  82.5610161  81.8491459  28.5760427  11.1085212  39.1559315  15.3268480
  10.6749928  38.7064791  16.0522985  11.7389846  38.5180545  14.9923921
  74.6111727  32.4072671  52.4524212  73.9753485  31.8604016  52.9138231
  75.4557180  32.1650910  52.8323221  28.5432506  57.5411701  39.7420907
  29.3721676  58.0067873  39.6310496  27.8812528  58.2322311  39.7627091
  22.8354120   9.2599750  46.5300846  23.5044026   9.3071270  45.8471060
  23.2348847   8.7308729  47.2205257   0.5965722  66.6041279  36.8804932
  -0.1063169  67.0802402  36.4383459   0.5245178  65.7088661  36.5495181
  45.5139685  16.4350355  46.8570995  45.6702328  16.7207837  45.9570122
  45.9055185  17.1211624  47.3976088  47.4611473  11.7741859  16.2726808
  47.7669191  10.9632671  16.6790628  48.0476236  11.9046175  15.5275202
  24.7887540  27.7505660  72.3188829  25.2709126  28.5765767  72.3570776
  25.4540467  27.0779395  72.4644566   9.9831867  60.9683752  16.7964745
  10.6844151  61.4596891  17.2244024   9.1769451  61.3641024  17.1275389
  24.1149473  83.9225483  42.0853186  24.8601747  84.5171833  42.1706152
  23.5766554  84.1009998  42.8564358   5.8047622  57.8046656  69.2716789
   5.4444873  57.0548010  69.7451067   6.7376179  57.7975607  69.4860649
  50.6144428   1.1044941  25.5138803  50.7054663   1.5808126  26.3391471
  51.3423252   0.4828732  25.5145717  63.6470079  75.6306458  18.6604881
  63.4283924  74.9897957  19.3370616  62.8197289  75.7914495  18.2066369
  32.0721889   3.1019455  50.0671625  31.4403176   3.2142839  49.3569851
  32.4816895   3.9619508  50.1616764  86.1720657  82.5593185  27.1450520
  86.5081692  82.6796246  26.2569141  86.0650730  81.6123295  27.2344255
  79.8903799  23.1718612  16.4410043  79.9882126  23.6706948  15.6299400
  80.7805729  23.0964327  16.7846584  22.8182697  84.1621780  27.1821427
  23.4374809  83.7505817  27.7849722  21.9870925  83.7193489  27.3532510
  29.8517513   5.6752086  62.3409462  29.3974090   6.4173782  61.9422102
  30.0213575   5.9536457  63.2409143  10.9170043  49.6048260  59.7625017
  10.5590010  49.8009109  60.6283045  10.8247852  50.4229784  59.2742825
   7.1003383  26.3706064  59.5744705   7.1824384  26.9854403  60.3034925
   7.9913646  26.0534382  59.4271421   8.6501938  63.7116241  26.7710662
   9.4522470  63.7879324  27.2879004   7.9577255  63.5882807  27.4202991
   9.8042375   8.4355223  32.6057410   9.9907535   8.0788982  33.4742236
  10.0211287   9.3651068  32.6768970  76.1683607  68.5282183  47.5033855
  76.9107866  67.9254675  47.5449896  76.1320496  68.9239502  48.3741951
  85.5937767  67.4492168  26.2376547  85.9974861  66.6408014  25.9218717
  84.9509907  67.6745129  25.5651236  78.8045216  84.0976143  46.5429497
  79.6421194  84.3231106  46.9476938  79.0407038  83.7395000  45.6872654
  83.1116581  42.2210312  45.0126696  83.6164951  42.2012663  45.8256769
  82.5206566  42.9668951  45.1157904  32.1784544  12.2494543  25.6374454
  32.8050804  11.5800869  25.3626370  32.0430422  12.7858782  24.8563266
  32.7565026   3.7571728  32.5660753  33.0931115   3.2811365  31.8069196
  31.8348241   3.9141995  32.3609328  23.2859826  44.3703461  11.4808810
  22.7070475  44.6373320  10.7668900  23.5819674  45.1933956  11.8697488
  29.5134735  62.5679064  46.0016537  28.8808084  62.7750826  46.6894388
  29.3859816  63.2524443  45.3448534  25.0361848  67.6558685  72.3491573
  25.1743770  68.2093620  71.5805340  24.5149755  68.1962919  72.9428864
  32.0963359   5.8264399  68.1409645  31.7853928   5.1737219  67.5136662
  32.8366971   6.2460899  67.7027988  28.5706663  71.5630198  30.2009654
  29.4011712  71.7300558  30.6466055  27.9324579  71.4749718  30.9088993
  64.0973949  16.1995244  48.9015722  64.8916149  15.9757137  48.4164429
  63.4098959  15.6756556  48.4903049  78.4862900  69.3634939  70.0747538
  77.7728128  69.2037487  70.6925440  78.9569330  68.5310888  70.0319529
  58.7261057  14.1983187  31.6064310  58.7358189  13.2876647  31.9011307
  58.2830667  14.1709054  30.7583761  39.1923022  84.3499470  53.2224417
  39.5191979  85.1768208  53.5769176  38.2797384  84.5302296  52.9967022
   9.5695949  78.9173365  24.8641062  10.2076232  78.5077620  24.2798138
   8.9813304  78.2046747  25.1136780  63.8132238  15.2362680  24.8115516
  64.2310905  14.7658718  25.5329037  64.4480848  15.9086657  24.5644426
  35.7685590  54.8101807  24.1326404  35.8311796  55.5333710  23.5086966
  35.6240845  54.0361261  23.5884023   9.3442482  72.2733164  50.8549976
  10.2821529  72.4544382  50.7936668   8.9708138  73.0693722  51.2332487
  22.3092151  61.2680149  23.2092762  22.6220584  61.3362122  22.3072171
  22.7217031  62.0035696  23.6620951  82.8560352  77.4949455  10.0493383
  83.0031872  76.6634274   9.5986050  82.0036602  77.3905993  10.4721999
   8.4788316  38.5941505  56.9361544   8.5563862  39.1821027  57.6875114
   9.3432641  38.6148572  56.5255976  21.3308549  70.2806902  37.2291684
  21.8034983  69.4604206  37.3705769  21.6203761  70.5783272  36.3667202
  25.4769444  74.5802450  42.3492861  26.1949372  75.0756836  41.9552612
  24.7934270  74.5751333  41.6792059  88.2889843  53.9543772  47.5381279
  88.4365940  53.2531404  48.1727219  87.8441715  53.5258913  46.8068457
  85.2596092  56.1115170   9.3822318  84.8024178  56.4485598  10.1526916
  84.8215485  55.2831030   9.1871172   5.6549633  61.1632729  47.9073048
   5.9628367  61.0474396  47.0084000   5.1613557  60.3651953  48.0961275
  22.6674962  61.4275646  10.0096238  21.7394328  61.1951303   9.9794835
  22.6737285  62.3623371  10.2155161  19.7818172  73.1130791  42.6677799
  19.6893668  74.0527296  42.5105000  19.0965474  72.9081440  43.3038950
  33.9117479  13.6929035  14.7087264  34.2855453  14.5172977  14.3974698
  34.1799784  13.0465949  14.0556049  34.9295449  43.4357548  16.2163448
  35.8438897  43.2583475  16.4370942  34.8609924  43.2180309  15.2867591
  18.3333647   3.4992594  23.9549851  17.5767756   3.3745754  24.5279241
  18.6641014   2.6146477  23.7990785  77.2832775  62.0692682  55.1813936
  76.8975163  62.4921989  55.9485626  76.7906380  61.2543583  55.0840902
  11.7862070   7.9470885  41.2637901  12.4139357   7.8433490  40.5486488
  10.9394050   8.0408382  40.8274746  22.7799392  68.1008816  39.3230629
  21.8911099  67.8327274  39.5561051  23.1771493  67.3143244  38.9491868
  24.7097373   0.4849637  28.9123631  24.0080571  -0.0054295  29.3406081
  25.3234577   0.6902352  29.6176600  12.5483119  72.9186726  11.1064255
  11.7991447  73.1750679  11.6442382  12.7472103  72.0243263  11.3835776
  83.3353138  35.9226632  13.3696401  82.7776337  35.9623933  12.5926948
  83.7992477  35.0892901  13.2890987  23.0430627  19.2427599  22.9705429
  23.0316281  19.4513452  23.9046693  22.9325986  20.0879598  22.5350356
  23.7980270  28.8878107  16.3398051  23.0905890  29.4081068  16.7206681
  23.6576343  28.9479899  15.3948712  70.4394722  76.5323019  25.3216219
  69.7287941  75.8972883  25.4106641  70.1675510  77.0961189  24.5974660
  22.2831583  41.4590073  34.6185160  23.0083871  42.0763540  34.5228195
  22.5251865  40.7173491  34.0638995  10.7043493  59.8667669  58.9498949
   9.8798859  59.5921421  59.3512344  10.4746592  60.6416559  58.4370375
  85.4981232  42.2316647  43.3815956  84.7083664  42.3235893  43.9145756
  85.2815056  42.6645422  42.5558090  77.9699230  54.2180490  16.8415534
  78.6583996  53.7758827  16.3448393  77.7680445  54.9997902  16.3274002
  26.7987466  26.6306090  11.0204184  27.5328088  27.2030187  10.7974136
  26.2937140  26.5620875  10.2101851  40.0608349  64.6129942  25.1251411
  40.6802893  64.5826387  24.3960404  39.2618465  64.9786997  24.7455287
  82.7907181  47.9882336  44.4164896  82.7533054  47.4165058  43.6497068
  82.2371006  47.5545597  45.0658512  44.5775270  39.2836761  71.2584925
  44.6970797  40.1143551  70.7981586  45.3286457  39.2268848  71.8491077
  41.7053270  44.5918179  29.2731643  41.5350819  45.5218124  29.1236210
  41.8773985  44.5278597  30.2125955  36.5796947  60.2638006   4.4743314
  35.9767413  60.4750490   5.1871097  36.3003826  59.3994093   4.1725945
  82.5273800  45.7658148   2.7360663  83.0991840  45.9553289   1.9921803
  82.1691704  46.6175699   2.9859087  58.1181383  11.3252532  73.2066202
  58.2602453  11.2607455  74.1510105  58.9648438  11.6006994  72.8552628
  85.3590775  45.1254034   0.3973401  86.1310863  44.5863819   0.2250475
  85.2056026  45.0304461   1.3373724  67.5297689  54.0911627  36.0728025
  68.4180641  53.7363148  36.1081195  67.4344444  54.4092655  35.1750517
  68.3271265  40.2240324  25.8295822  69.2202234  40.0921822  25.5114198
  68.4367657  40.5492163  26.7231536  81.1190510  34.5889449   3.8475680
  81.6638470  34.4594955   4.6238852  80.9737396  35.5343771   3.8118690
  42.9980040  29.7087193  14.1363823  43.0392885  29.2974401  14.9997342
  43.8071489  29.4374084  13.7028956  40.4420900  45.9626102  17.9225934
  39.7345996  45.4624033  17.5158060  40.2411079  45.9442806  18.8582754
  30.1165056  50.1876307  24.4277477  31.0187411  50.1201820  24.7402382
  29.8077774  51.0278416  24.7668099  33.4007859  28.5491133   3.4870732
  34.2354965  28.3133435   3.8919240  33.4595680  28.2015038   2.5971603
  86.4426041  11.0440516  68.4175253  86.8168068  10.5097353  67.7170229
  86.8217278  10.6861973  69.2202950  19.4853854  45.0886822  26.6982889
  19.1067624  44.8411703  27.5418615  20.3837800  44.7602129  26.7333674
  35.7299495  42.7791595  70.8492279  36.0216808  42.0910215  70.2512407
  36.2755013  42.6670980  71.6277170   5.6324470  39.8598289  56.8672657
   5.2689761  39.3288350  56.1586285   6.4927393  40.1306105  56.5466309
  10.5455983   4.6941879  33.0486894  10.6501579   5.0525308  32.1672773
  10.1901150   3.8163733  32.9097462   6.5417218  40.4335928  10.2605486
   6.8056428  39.6548772  10.7506311   7.1037042  41.1309958  10.5982435
  83.0201626  18.9894056  48.6260414  82.6568317  18.1408679  48.3726454
  83.8139915  18.7735510  49.1154003  44.2689562  77.6406527  16.9168186
  44.4495535  76.7735338  17.2797537  44.9097824  77.7440739  16.2133431
  59.2095804  35.8654356  66.4833689  59.1717958  35.1559830  65.8418989
  60.1422358  36.0644531  66.5657187  74.4103718  37.8749180  63.6414480
  74.3915415  37.1773911  64.2966843  75.2859879  37.8203464  63.2586241
   0.0574411  28.0368781  12.6372576   0.9048314  28.1408763  13.0700934
  -0.3647502  28.8910365  12.7289093  72.5532722  50.6743002  17.8408003
  71.8062687  50.3431511  17.3422480  73.1777668  49.9489021  17.8467679
   1.8490309  26.3653111  42.8982639   2.5171271  26.9700718  42.5755501
   1.5672855  26.7422581  43.7317848  15.0829327  74.1082191  52.7721977
  15.8711207  73.5677052  52.8254318  14.9010754  74.1748571  51.8347931
   8.2616019  59.5761395  30.7589412   8.3843285  60.4195786  31.1945796
   7.3141897  59.5010948  30.6448770  31.4422441  58.9136982   1.5182960
  30.9438491  58.3703041   0.9079195  32.3573613  58.6978817   1.3388059
   0.6071741   9.5186484  41.8754959   0.3939190   9.0800434  41.0518599
   0.0241736   9.1161066  42.5191593  41.6609287  78.8045311  71.4696932
  42.1843004  79.5823908  71.2766981  42.2338867  78.0698347  71.2502146
  23.5742831  48.4192610  10.4600441  23.2402825  48.0458736   9.6444118
  24.4718313  48.6804104  10.2540314  26.8605208  45.0904369  11.4058983
  27.6716995  45.1300240  11.9125080  26.1705232  45.0101662  12.0644498
  34.0153670  45.9984827  33.1506109  34.2720580  45.8101654  32.2479057
  33.2954550  45.3925896  33.3262658  88.6826229  31.5459108  -0.2614124
  89.3036079  31.9541478   0.3418719  87.9380894  31.3033319   0.2890955
  77.3835659  82.4111557   2.2073956  76.8787718  81.8753433   2.8192091
  76.7245245  82.9166126   1.7315732  22.0778060  55.1333904  42.1276665
  22.6771545  54.7555637  42.7712965  22.4576020  54.8997831  41.2806654
  24.2669296  41.0779142  43.6839724  24.7948313  41.3754940  42.9430294
  24.6156740  40.2115822  43.8939190  67.4887276  49.5693827  16.8887556
  66.6147709  49.9460793  16.9913685  67.4660158  49.1411924  16.0329700
  46.0979176  10.0921416  72.7338648  46.5739250   9.3969864  73.1881857
  46.6962862  10.8391714  72.7453375  38.3690000  60.1723003  14.5062280
  38.9901495  59.4520712  14.3981612  37.6079726  59.9121571  13.9871955
  19.0872896  13.1361032  37.6971388  19.8362827  12.5416565  37.7404189
  19.3695617  13.8344252  37.1064591  11.1803055  41.3009357  56.4917231
  11.7101908  41.5854883  57.2363567  11.1574602  40.3467941  56.5647030
   9.9307245  79.5257473  39.7704434  10.8684814  79.6113491  39.9422431
   9.6311265  80.4230213  39.6242309  24.3088245  35.6904054  17.4999499
  23.9459515  35.4299092  18.3465290  24.5896268  36.5964460  17.6282966
  10.3488946  24.5392513  10.2562511  10.1370513  25.4661655  10.1458681
  10.2727461  24.3866754  11.1981392   2.3674510  81.2448502  51.2020063
   2.4017119  80.3076077  51.3934231   3.0018190  81.6354084  51.8030643
  63.7136221   7.7090222  64.4042015  64.2161179   8.4837842  64.1522646
  63.5628986   7.8162628  65.3433561  29.0920496  56.9767666  10.4570735
  28.2600451  57.4222851  10.6167960  28.8422847  56.1184502  10.1148021
  59.0700102  52.5992584  11.7343700  58.5388899  53.3840132  11.5990770
  58.4549427  51.9494867  12.0745456  89.9796772  38.8921595  39.8488927
  90.0475693  39.8466492  39.8250270  89.7702503  38.6443472  38.9483595
  33.5103512  27.5594234   7.5820076  32.6045728  27.3230052   7.3822474
  34.0364552  26.9714928   7.0399880  87.8229618  58.2637978   4.9473208
  88.0236530  57.4896574   5.4733062  87.1543789  58.7285423   5.4505491
  79.9022579  66.9745350   4.7344059  80.5078506  67.2253704   4.0368602
  79.0469265  67.2770977   4.4292930   1.1100190  58.8116217  53.3093309
   1.1760764  59.3199253  54.1177225   0.2145655  58.9601898  53.0054855
  11.1015677   8.1248355  20.7285118  10.8225667   7.2554374  21.0158062
  10.4520214   8.7204397  21.1021113  24.8403883  30.7419086  36.7542815
  24.5368171  30.1795959  36.0416245  25.2014947  30.1353526  37.4007535
  26.4024901  24.0013719  11.1033130  26.7170572  24.9052501  11.0865474
  27.1224713  23.4903049  10.7336247  22.5023627  35.5825233  24.1680908
  23.3804560  35.2880359  23.9263034  22.4055862  35.3207135  25.0836897
   0.8905160  61.2605381  49.4364691   0.3943455  62.0788527  49.4162035
   0.2614686  60.6065083  49.7410583  23.3760977  47.8326607  30.6982899
  22.9519248  48.3036995  31.4155269  24.2775416  47.7066517  30.9945154
  22.9004717  35.0040078  19.6260571  23.0408192  34.8188949  20.5546403
  22.4963617  34.2076445  19.2814863   8.6548012  53.7792015  11.7083776
   8.4423822  52.8547144  11.8365836   8.8771635  53.8473272  10.7798600
   5.9692037  80.0285816   1.2192044   6.1143041  80.2823067   0.3077205
   5.0216174  79.9116659   1.2873375  10.0760019  82.0166779   9.5730621
  10.0037777  82.5125217   8.7574947  11.0170949  81.8904781   9.6941030
  34.8311329  37.5709772   4.1870931  34.1583991  37.9974270   4.7179431
  35.5315733  38.2200575   4.1214454  47.5933647  45.3403187  10.3020167
  47.6155853  44.3947315  10.1550376  46.6619873  45.5501938  10.3707838
  13.6475694  71.5270329  17.5277948  14.3142200  70.8670044  17.3376000
  14.0125525  72.3422194  17.1835697   7.9720670  67.3783636  14.4255090
   7.5339007  68.1172276  14.8477912   8.2243425  67.7101612  13.5638249
  26.2374997   7.0403504  17.3610377  27.1587563   6.7818540  17.3345792
  25.8681297   6.5366161  18.0863297  10.3492272  49.2221737   2.5250387
  10.9083486  48.4616899   2.3660350   9.4572175  48.8794708   2.4693035
   4.3798384  51.9445753  29.4801259   3.4958020  52.2499371  29.6837616
   4.5262218  52.2208929  28.5754418  28.6718822  57.4517393  35.5743599
  28.5080981  57.5329113  34.6347761  28.9092565  58.3360624  35.8533859
  17.7733588  60.4506969  14.0188479  18.6751032  60.7707357  13.9930606
  17.8585327  59.4991493  14.0782881  66.6108131   3.3559331  73.8478279
  66.6893482   3.5114747  72.9066181  67.5065422   3.4266579  74.1778326
  78.8382196  86.0288143   6.2741739  78.5127735  85.1678181   6.0114843
  79.3619585  85.8582783   7.0570159  74.5620203  70.8848524  35.8539462
  74.0190125  70.8749914  36.6421580  74.7066259  71.8138599  35.6743217
  64.3339062  10.2923572  63.4737682  64.8613930  10.6061673  62.7392530
  64.7500896  10.6727481  64.2472839  17.7456987  33.0493641   7.7299964
  17.9806483  33.0692673   6.8022931  17.4933815  33.9502192   7.9325497
  27.0331168  52.4348879  18.3047867  26.6400218  51.5633488  18.3509862
  27.5172377  52.5231075  19.1258085  77.9073572  57.8905725  12.2428787
  78.4859467  58.2344961  12.9234540  77.1128559  57.6340818  12.7110755
   6.7481327  33.4879160   4.8572472   6.7492139  34.4048738   5.1318699
   6.7110515  33.5241890   3.9014536  43.7966537  76.5144157  51.9765568
  44.6778393  76.3791752  51.6280460  43.2976866  76.8626642  51.2376451
   5.8772904  64.7006607  30.0993490   6.5315580  65.1187658  29.5395684
   6.1176652  63.7741375  30.0978231  80.2456284  64.0133333   5.0331014
  80.4500008  64.3399334   4.1568619  79.8364544  64.7565460   5.4763210
   0.8091768  60.7372761  17.7242625   0.6261672  60.6453753  18.6592984
   1.7072052  61.0665226  17.6871991  30.0984240  68.1244755   8.6400384
  30.2412772  67.5221920   9.3701601  30.9582639  68.2098007   8.2281822
  73.0316305   7.2581965  68.4757614  73.5269785   7.3835492  69.2851734
  73.4114838   7.8874612  67.8625965  77.3209572  66.8647909  25.7661724
  77.3976088  66.6616964  26.6984320  76.8057585  67.6710320  25.7382536
  79.9586964  15.9316897  43.2939720  80.7000923  15.3696907  43.5191822
  80.2975750  16.5143323  42.6143265  35.6884313  59.5761490  49.8663616
  35.2425790  59.6200991  49.0204763  35.3194094  60.3019619  50.3696060
  61.5275383  84.7957230  20.7289624  61.5860271  84.0294743  20.1582837
  61.1342573  84.4638062  21.5360522  89.7958946  65.7908964   5.1379764
  89.9043179  66.7413855   5.1056349  90.0117111  65.5557823   6.0404044
  11.3301826  36.8723798  36.6860676  11.4045155  37.4900842  37.4134946
  10.4464149  36.5134883  36.7659664  65.2007914  35.9619713  72.7821493
  65.6751537  35.1615596  72.5573015  65.8686209  36.5409875  73.1495333
  89.7279167  81.9425964  67.2666740  90.3417778  82.3743725  67.8607941
  89.0097809  82.5677872  67.1684265  16.5457261  64.8225021  10.1868129
  17.3102474  64.4143915  10.5932426  15.9226120  64.1046906  10.0740719
  20.0624347  83.3328819  66.9777870  20.8310294  83.4677792  66.4234447
  20.2808738  83.7703419  67.8006792   6.2206162  85.4212615  24.8996496
   7.1470178  85.3340117  25.1241517   6.2070359  86.0516789  24.1794968
  18.2067490  41.5510082  24.4850755  18.9951003  41.9074059  24.0755463
  17.5045490  42.1373749  24.2034340  84.4758129  61.4037418  32.8649640
  84.9319077  62.1059942  32.4012303  84.5298290  61.6516685  33.7879181
  18.4784174  36.3098121   0.1462115  18.7118626  36.8796539  -0.5866018
  19.2882073  36.2223625   0.6490279  58.2171631   9.2283338  28.8998079
  57.8708410   9.4290173  29.7693038  57.8799343   9.9279773  28.3403373
  13.0064511  59.6240330  17.5667262  12.6265502  60.0961351  18.3076882
  12.7401114  60.1294708  16.7987227  13.3560848  43.5787344  44.8716259
  13.0625486  42.9208899  45.5019474  14.2680252  43.7473822  45.1085949
  65.3881598  42.1414185  15.5242383  65.6461763  41.2282467  15.3986549
  66.0171700  42.6417017  15.0043344  21.0318446  27.8918266  63.7841463
  20.8521223  27.4849629  64.6317291  21.1916757  27.1553326  63.1940079
  16.1830246  41.7550325  47.3886108  15.9994268  42.5262070  46.8521261
  15.5238783  41.7832708  48.0821228  20.0295353   1.8527405  48.4241676
  20.8992672   1.7604259  48.8131094  19.5363152   2.3704554  49.0605164
   2.8130409  43.0973387   4.3212569   2.9447845  43.6288118   5.1063752
   3.6922449  42.9791498   3.9617240  87.6401806  51.0149431   1.4846671
  88.3983231  51.5991974   1.4742847  87.9237270  50.2638769   2.0059451
  75.0113916  32.8766894  66.5718651  75.4553843  33.6032009  66.1345005
  75.6421423  32.5669312  67.2218180  27.6387739  41.7757893  39.2760539
  27.9673457  42.5820065  38.8782001  26.8470907  41.5689659  38.7793684
  39.5495629  70.2777386  61.3303614  39.0903449  69.4465733  61.2098598
  39.7709417  70.2962685  62.2614288  58.5660172  60.2612877  24.8272443
  58.4405136  61.2011433  24.6962738  58.7594271  60.1732397  25.7605553
  42.4961519  38.8517594  36.1892700  42.8447104  38.7826848  35.3004694
  41.6949654  39.3666029  36.0930014  29.9012446  62.5704670   3.7439212
  29.9952435  61.9064999   4.4269621  30.4804873  63.2810259   4.0192723
  14.9274147  74.4813728  35.8055782  15.6983554  74.3344164  35.2575946
  14.8714435  73.6994839  36.3548923  85.0987530  79.4863653  26.5467072
  84.3456078  79.5335150  25.9578204  85.2147865  78.5508394  26.7127156
  57.1948576  11.1901569  31.4413738  56.7929888  10.3320014  31.5766621
  58.0858755  11.0930216  31.7773604   9.7711289  17.5460637  30.3620315
  10.1602411  17.2863758  29.5269346   8.8525856  17.7182710  30.1550174
  38.5063505  39.0386844  32.4846077  38.4928894  39.9169636  32.8649688
  37.6123095  38.7155366  32.5963974   4.5779234  72.5849009  57.8669119
   5.2098930  72.8476572  57.1977329   3.7278032  72.8345346  57.5046873
  17.4785137  49.8998070  13.7260675  18.3598363  50.2698278  13.6752236
  17.6119328  49.0056658  14.0406215   6.9630605  37.9112554  11.4886856
   7.0145363  37.0372415  11.8755722   6.0404348  38.1538773  11.5669703
  65.5789232  11.4396822  45.6098413  64.7456598  11.0553837  45.3374243
  65.3943443  11.8313241  46.4635277  29.9538445  61.8209696  33.6442566
  29.7980952  60.9039831  33.4181786  30.6822681  62.0857477  33.0825472
  46.8141794  35.1221347   6.1753362  47.1766186  35.7782507   6.7706329
  46.9691324  35.4801774   5.3012502  90.5175972  48.1462526  29.5592213
  91.2264633  48.7256718  29.2799211  90.9232807  47.2810602  29.6148300
  30.0752640  26.7442751  14.0721238  29.8519254  25.9335256  13.6149192
  29.2378712  27.1939635  14.1851985  88.4424400  70.4679775  39.9847460
  87.9196167  70.1624870  39.2434168  88.5869884  71.3977194  39.8089218
  40.5924463  40.7837963  35.9899783  40.8299351  41.6500664  35.6592083
  40.2918673  40.9431696  36.8846750  79.2106915  34.1604829  23.0110502
  79.3968773  34.5880651  23.8469553  79.4578028  34.8077965  22.3506308
   3.3608517  44.6784687   6.4064759   3.3236492  45.6091881   6.1859924
   2.5617456  44.5191908   6.9087625  16.2474954  76.7256117  19.5190763
  16.8865263  77.0985985  18.9118278  16.1836553  75.8052063  19.2640972
  88.1971550  69.1757345  58.2353592  87.4864674  69.4915152  57.6772833
  88.5256386  69.9614191  58.6724281  44.9626732  48.1497431   2.4977292
  45.6890011  47.7190781   2.0469454  44.4418716  48.5390234   1.7952622
   5.1964688  69.7699451  10.4536057   4.3380448  70.1400280  10.2477515
   5.8161604  70.4655504  10.2337253  87.9465103  58.9741135  69.3325949
  87.8918076  58.2303762  69.9326801  88.7943840  59.3747854  69.5244217
  42.2627592   9.3315274  18.7214446  42.7210474  10.0380933  19.1763842
  42.9599047   8.7490481  18.4198833   2.6294020  64.8706818  14.3661487
   2.4081875  65.3478003  13.5663664   3.1248522  65.4994917  14.8908913
  16.9789374  44.2573595  33.4827542  17.8609240  44.3221664  33.1165171
  16.4397049  43.9471865  32.7552581   6.4287323  56.7236423  26.4758945
   6.9504446  56.0834074  25.9920073   6.9477630  56.9141102  27.2572780
  18.3079994  63.1131697   5.7935768  18.2410443  63.7671614   5.0978470
  17.5902283  63.3242798   6.3906264  18.0716670  60.1873446   4.9312511
  17.8724527  61.0831356   5.2034837  18.4859002  60.2841282   4.0737686
  16.9312203  21.9580078  37.7875113  17.6353478  21.3132071  37.7191877
  17.2443712  22.7089524  37.2832775  44.2859554  60.1104498  26.2694144
  43.3292341  60.0802946  26.2669253  44.5128441  60.4430294  27.1378303
  16.4134347  57.8521681  52.4657297  16.6212213  58.7844038  52.5289488
  16.4947021  57.6513577  51.5333700  47.1076393  79.4628239  32.8134584
  47.5753212  78.8582897  33.3896923  46.1842632  79.2396021  32.9308486
   6.9337672  53.4759235  17.4000180   6.5099579  54.1273212  16.8411815
   6.2454253  52.8381538  17.5888848  63.1228971  29.9423885  43.8452625
  62.3854733  29.3421412  43.7350750  63.8098288  29.5835447  43.2834911
  53.4376001  74.6949577  53.7724018  53.9778233  75.4558754  53.5593319
  52.6702595  74.7800016  53.2065582  35.2976584  56.5023184  10.1376605
  35.1083827  57.2584963   9.5821393  36.1520576  56.6962242  10.5231917
  86.0802269  63.2423353   2.3250365  85.4149151  63.2499790   3.0131775
  86.4089108  64.1409731   2.2996745  67.3003435  54.1246748  32.3309565
  68.2454777  54.0282297  32.2141266  67.1160030  55.0239277  32.0596743
  90.0400734  22.0774388  30.9252882  90.6450081  22.4647021  30.2925825
  89.8680782  22.7794361  31.5528631  82.5421715  10.4325759  62.4377298
  81.9476700  10.3977966  63.1871271  83.0485630  11.2338996  62.5707102
  80.2155113  35.6396246  73.2925463  80.5945206  35.1275325  72.5781584
  80.9652519  36.0723448  73.7010431   2.9840630  47.3022461  28.1147456
   2.9229376  46.3488817  28.0548549   3.6714256  47.5377989  27.4916244
  -0.0377547  86.0824871  39.7200632   0.0845922  85.2371788  39.2879486
   0.1644529  85.9126377  40.6401157  49.4986200  22.7495551  13.9717543
  49.0201473  23.5222077  13.6712456  50.3575087  22.8228641  13.5556185
  42.9075432  60.2411127  30.7432652  43.6500740  59.8145485  30.3155708
  42.4098873  59.5220327  31.1324859  81.7454815  50.1921844  14.4811070
  82.3285675  50.9509706  14.4591153  82.0719337  49.6602154  15.2068305
  60.7149410  64.8408890  23.5417008  60.6112003  65.7337379  23.8707757
  60.4942703  64.9010468  22.6122308  18.7935078  62.2502089  10.3991866
  19.2512918  62.1001339  11.2263167  18.6705720  61.3751316  10.0312746
  73.3855057  19.4062591  53.8657284  72.9197836  18.5838878  53.7139320
  73.9721632  19.4915247  53.1142044  77.8920221  71.2920904   3.9005536
  77.4194288  71.5321922   4.6975702  77.3383093  71.6118574   3.1882465
   4.8784408  49.1328239   9.0893465   4.4011039  49.9270439   9.3293399
   4.1946259  48.4890699   8.9043897  40.5281305  68.7364531   7.1565932
  40.2741098  67.9562902   7.6495963  40.5292273  69.4400597   7.8055668
  26.1800361  51.1418962  40.8805132  26.8875265  51.4353180  41.4546108
  26.0595155  51.8620777  40.2616072  45.8459234  82.2917938  68.0430031
  46.1304712  82.0063400  67.1747971  46.6591501  82.4766350  68.5128260
  83.6901283  60.2035666  40.2114916  84.1026878  59.6220350  40.8501196
  84.3562031  60.3278399  39.5353746  64.5894766  73.5204506   7.9627210
  63.7015629  73.2104683   8.1408989  64.7192192  73.3519650   7.0294404
  25.9505749  59.8989391  65.9642172  25.3528619  59.4276190  65.3838491
  26.8239927  59.6536112  65.6589603  86.8876553  41.8075418  11.2348855
  86.2349796  41.3627481  11.7756343  86.6649532  41.5590620  10.3377283
   5.7485914   9.9985301   6.0510707   5.5861288   9.3229407   6.7094141
   6.0941470  10.7396460   6.5486360  60.1832438  17.0669532  47.4233055
  60.4653215  17.7787066  47.9978228  60.6105709  17.2507513  46.5867376
  46.2444162  85.3815269  64.6506214  45.3181648  85.6211662  64.6799755
  46.5776539  85.6064606  65.5192947   5.5401099  69.5725679   3.5416090
   4.7455812  69.0575886   3.6821550   6.0928369  69.3710518   4.2966694
  24.9508119  47.3541164  24.0591073  24.7781563  48.0310345  24.7134805
  25.5890179  47.7511597  23.4664202  14.4024491  23.7955475  21.5266848
  14.8357153  22.9853296  21.2582445  13.6880028  23.9044094  20.8990335
  76.1067438  30.5286622  72.1201515  76.7791224  30.6898308  71.4582062
  76.3871384  31.0436773  72.8767014  13.3554971  17.8217578  62.4071455
  12.6726592  18.4544349  62.6300478  13.4843147  17.3157728  63.2094049
  43.0482483  64.3816185  14.2733490  43.6295938  65.0823545  14.5687163
  42.1666813  64.7176981  14.4349492   1.2900107  61.2280083  30.9560347
   0.4776749  60.8179855  30.6590104   1.4377135  60.8626175  31.8283343
  30.1533365  28.3050132  24.5778704  29.9773407  28.5870790  23.6802649
  30.3652191  27.3748589  24.4994473  11.5711188  86.2919617  49.3968725
  11.4806020  85.7615376  50.1885128  11.7643738  85.6590366  48.7052870
  62.6377296  17.0587862  27.3082662  61.7871761  16.7130971  27.5789809
  62.6031685  17.0579159  26.3516903  11.2264490  65.6895542   6.8487215
  10.9042549  64.7889709   6.8116629  10.5345106  66.1731052   7.2999787
  70.9281158  61.7613649  19.7545600  71.2277174  61.0693169  19.1650367
  70.5018187  61.2953758  20.4738355  86.8966389  28.3369541  17.6480865
  86.6758919  29.0058398  18.2962334  87.2386074  28.8298297  16.9021893
  27.0419383  46.9387484   4.7965434  27.5364137  46.2401104   4.3680176
  26.3816547  47.1946144   4.1524997   0.2768033  38.9170742   2.4846679
   0.3369348  38.0269694   2.8315526   0.6347030  39.4696164   3.1795329
  82.5315475  39.8985457  20.5202675  82.5211811  40.0816202  19.5807970
  83.2008076  39.2222857  20.6251311   3.5782588  27.5421977   2.7524078
   3.0587336  26.7993569   2.4449781   3.1628287  27.8009176   3.5750341
  84.2939663  67.8057718   0.9683754  84.4447231  67.7871275   0.0233072
  83.8712215  66.9686413   1.1600360   5.3210038  45.6833887  48.3811617
   6.2464613  45.7899666  48.6011648   5.3216130  45.1115608  47.6135349
  14.6187496  80.4798126  36.0419989  14.3180823  79.7983313  35.4408288
  15.3449285  80.9012985  35.5823779   6.2426722  72.5567484  38.7662530
   5.4649669  72.0008755  38.7171268   6.6261476  72.5100708  37.8904676
  28.5085368  27.3525858  30.0691652  29.2973614  26.9542670  30.4370379
  28.0986118  26.6501617  29.5643950  12.3449755  50.7730484  27.4342132
  12.0307243  51.0241127  28.3027983  12.4990845  51.6044950  26.9856882
  10.7950926  76.4234877  67.5554276  10.5616426  76.3808393  66.6281080
  10.9850430  75.5168390  67.7965355  74.4439554  46.5328217  35.5898070
  74.6975136  47.3960018  35.9167027  75.1044226  46.3233137  34.9294114
  28.3129454  68.7306738  68.8611460  28.7972522  68.3470774  69.5922613
  27.4225950  68.8404989  69.1949797  41.4361572  61.0123777  33.7626290
  41.1725998  60.1836443  33.3626628  42.3677015  60.9011030  33.9525533
  44.2108297  11.1370039  35.2679706  43.7042284  10.8232176  34.5188856
  43.8074636  10.7119799  36.0248590  12.4793673  37.8663707  22.5810122
  11.7886484  38.5093474  22.4206376  13.2877135  38.3173895  22.3373127
  86.7376614   0.0889196  10.3426671  86.8708706   0.7589941   9.6722293
  85.8118534   0.1626371  10.5743539  44.6693850  79.9087143  57.5673628
  44.3398523  79.5173550  58.3763647  45.3346539  80.5330276  57.8569794
  79.4779873  42.7354860  21.0356331  79.2355394  43.6607456  21.0723567
  79.2519236  42.4637794  20.1460791  83.7906170  35.3157687  17.1655118
  83.3732891  34.8075938  17.8610826  83.0615711  35.6538558  16.6454923
  89.3763351  46.9443083  33.6008716  88.6751938  47.0414019  32.9565048
  89.4311333  47.8001690  34.0260005  25.9496665  52.4292660  21.8407488
  25.4826355  51.6674471  21.4976120  26.7150235  52.5169039  21.2726116
  10.5990374  58.7408018  15.5433381   9.7349918  58.3314514  15.4976404
  10.4748321  59.4993448  16.1137903  20.3614497  72.2278070  33.5321689
  19.8507035  71.6911221  34.1382551  19.7085202  72.6273060  32.9574370
  82.6585197  46.3020611  22.9542327  82.9262447  47.2206879  22.9802799
  83.4780979  45.8118057  23.0188227  25.4914331  33.5673714  36.4506292
  25.2632713  32.6508403  36.2952423  26.4171958  33.5459590  36.6929913
  82.7758980  34.1946173  39.3298602  82.3376560  33.6215425  38.7007666
  82.7292061  35.0648928  38.9340425  19.7006822  36.0796332  14.4091439
  20.0709772  36.6573453  13.7417889  18.8602686  36.4796257  14.6326232
   7.9656345  17.9925668  11.2629187   7.3010403  18.6754298  11.1721218
   8.7908304  18.4707630  11.3442338  68.2446051  70.7966137  31.0381103
  68.0897760  70.4159451  30.1736164  68.1556177  70.0604534  31.6434026
  88.0549717  69.1383410  25.6550956  87.2944546  68.6099625  25.8972812
  88.7067795  68.9425707  26.3281894   6.6806382  33.4562993   2.1072385
   5.7874233  33.5600138   1.7791499   7.1298438  32.9569983   1.4252238
  60.9713316   1.4188287  62.4316645  60.4899693   0.5941234  62.3654366
  60.5355310   1.8943971  63.1388712  54.4804955  69.0786123  53.7203550
  54.3122816  69.7062302  53.0174828  55.0854778  69.5325089  54.3070459
  10.7913983  54.2246342  54.2382717  11.3088810  54.2294836  53.4330273
  10.2713597  53.4228611  54.1839552  67.6603174  66.3802719   1.1910432
  68.5835886  66.5281630   1.3958094  67.6734781  65.8618641   0.3864840
  44.3167400  84.5663929  71.3628340  44.5024252  85.1990700  72.0567179
  44.0047693  83.7884998  71.8251991  33.2009983  64.5744848  40.1695347
  33.7935281  64.0265608  39.6548367  32.3298526  64.2223406  39.9869609
  21.3281226  68.9609241  12.1666169  20.9078908  69.8164654  12.2542977
  20.8255601  68.3868599  12.7446425  41.1023712   7.3931122  28.8030386
  40.2554655   6.9544947  28.7218046  40.9988117   7.9765302  29.5547915
   9.1033560   8.8915682   7.1207571   8.9048946   8.6764532   6.2094009
   9.5080578   9.7580326   7.0796692  79.9860191  58.8219357  43.4421635
  79.0601921  58.6339283  43.2881212  80.3066540  58.0630779  43.9295626
  13.6330223  69.9204826  36.3838959  14.4438684  69.7383833  36.8588710
  13.9225268  70.2649927  35.5390716  78.0491972  71.6564751  45.0315380
  77.6163912  70.8029938  45.0096416  77.4008799  72.2438955  45.4199314
  46.7237091   1.6384540  41.7490625  46.8098450   1.8665819  42.6746798
  46.7202139   2.4806333  41.2941408  47.7479982  55.9173775  25.0338626
  47.0956182  55.4948950  25.5925584  47.2604895  56.5967226  24.5679688
  39.8068452  58.4061480  26.7960072  40.3813744  59.1642284  26.6889548
  40.0027418  57.8488970  26.0427928  33.4677720  58.5246849  28.0790472
  34.1833019  59.1602898  28.0948901  33.8291693  57.7686787  27.6163602
   6.9982791  37.1465254  15.2511394   6.0923058  36.8815780  15.0922453
   7.4764478  36.3223028  15.3419363  42.2463274  57.9847813   6.8279916
  42.4423885  58.9207315   6.7857057  41.2917709  57.9423666   6.8850619
  43.8618231  72.9503155  22.1900606  43.5185671  73.0972195  23.0714393
  44.5458460  73.6117792  22.0860910  77.5780439  61.7401218  35.4844642
  77.2237253  61.0149670  34.9698377  77.8365612  62.3921824  34.8331475
  10.1652670  66.0485649  50.9632015  10.8306456  66.3268471  51.5925360
  10.1515508  65.0941896  51.0354233  42.9410219   7.9467672  65.9927082
  42.8596401   8.3135664  66.8730831  42.1155739   8.1704611  65.5627918
   9.0348697  53.7905264  39.0785956   9.3375403  54.4566917  38.4614658
   8.2972884  54.2002535  39.5306253  78.5610008  73.5431623   7.2155625
  77.7000093  73.1250525   7.2262275  78.4903908  74.2531633   7.8536415
  58.5408545  74.7548532   6.9120282  58.3958530  75.5961561   7.3449367
  58.8301277  74.1712761   7.6134497  43.2742500  70.6676435  25.4255629
  44.0592718  70.2602434  25.7916188  43.5890007  71.1498880  24.6609688
  36.4973521  74.6527004  24.1209555  36.7882919  74.0592813  23.4285426
  36.7805147  74.2311382  24.9323344  13.5748756  54.9911737  31.9553137
  13.3899844  55.8118963  32.4118876  14.5117128  54.8480654  32.0898032
   0.2675943   6.8395084   1.7167661   1.0228526   7.4231917   1.6451403
  -0.3187829   7.2808748   2.3312490   1.7910650  48.4938574  24.7977281
   0.9094775  48.6181450  25.1492786   2.3340696  49.1099453  25.2894759
  43.4189463  58.3477259   9.9084693  44.2300081  58.3236694   9.4006962
  43.1264973  59.2572641   9.8497486  46.1899376   1.8867119  23.8485765
  46.8999863   1.2725054  24.0351582  46.6005802   2.5761983  23.3268332
  46.2360096  20.2828193  19.8527741  46.9792795  20.1423693  19.2662096
  45.4926729  19.8890948  19.3959785  24.2344451  70.1484251  38.8536286
  23.6109924  69.4331503  38.9797735  24.9858141  69.7384691  38.4251308
   9.0345848  64.9958277   4.5798352   9.3896735  65.3119230   5.4106343
   8.8233483  65.7914877   4.0914398  64.6977282  28.6918163  38.1683564
  65.5682039  28.2948756  38.1375980  64.3063879  28.3489347  38.9717984
  69.1547585   3.9218354  68.7257910  69.5208836   4.7910184  68.5623789
  68.9587927   3.5768428  67.8546953  38.2892966  80.5168438   7.9664528
  37.3383689  80.6259441   7.9581320  38.4215164  79.5777035   8.0958867
  49.1900301  32.1397352  22.9928088  49.1525841  31.3734031  22.4204779
  48.8105726  32.8469825  22.4712300  37.3775816  75.2993536  13.6646223
  36.6608953  75.4490852  13.0480421  37.0795155  75.7014227  14.4805455
  37.4428916  73.4643316  21.9528937  38.0660319  73.4245729  21.2273955
  37.2256446  72.5495625  22.1324348   4.8755878  30.4213619  65.8666468
   4.2309454  30.8595371  65.3110695   5.0707531  31.0576057  66.5546417
  90.9081902  32.9710722  48.9529419  90.8523202  32.0262194  49.0956354
  91.7442907  33.2234383  49.3447065  55.9929562  82.7605438  52.0437193
  56.9162893  82.8363609  52.2844219  55.6485701  82.0831108  52.6257181
  37.5075984  66.3138533  34.9012065  36.9911027  66.5920496  34.1448522
  37.0299029  65.5633688  35.2544880  19.6684515  57.4382591  43.2315826
  20.4784846  56.9283867  43.2211876  19.9588799  58.3479643  43.2972670
  10.8992791  61.4561939  35.7903624  10.1314235  61.7846298  35.3226471
  10.6322575  61.4427519  36.7094660  34.4462252  56.3346958  50.5721760
  35.2109528  56.6966295  51.0198689  34.7834849  55.5741310  50.0988626
   9.8079324  37.2716236  64.3176413  10.7129669  37.4172354  64.0420675
   9.8303062  37.3611736  65.2703762  19.1675591  69.7848463  31.4738059
  19.6815944  68.9922428  31.6280055  19.8074555  70.4309559  31.1749625
  16.1909568  18.0398822  63.6390686  17.0250392  18.5077250  63.5982990
  15.5497253  18.6633182  63.2979250  38.0844259  60.4516459  32.4879742
  38.4676862  60.6341791  33.3458924  38.5528398  61.0320377  31.8880033
  87.4502659  22.5129676  59.6513224  87.8240108  22.2130561  60.4799366
  86.6467094  22.0023656  59.5522785  27.6818037   5.8394450  22.8081584
  27.9942536   5.5548388  21.9493175  28.0698681   5.2165610  23.4226942
  27.5735879  85.2175426  19.6614599  27.2211003  84.7406483  20.4128313
  27.2237182  86.1036205  19.7545993  24.6009040  11.1320972  33.5530496
  25.0918698  11.5739369  32.8602576  23.6876273  11.3640893  33.3847094
  56.0462666  58.3264732  14.6851397  55.2655172  58.7787104  14.3655348
  55.8766222  58.1848478  15.6164789  12.0811319  66.9060564  52.5153828
  12.7291536  67.1488857  51.8540668  12.3618460  67.3665190  53.3062077
   9.3144387  68.7459993  21.6812778  10.1578176  68.4641743  21.3269925
   9.4714177  68.8493824  22.6198411  15.0225317  54.9723673  23.3970308
  15.6524086  55.3949451  22.8131509  14.3669367  54.5958567  22.8099465
  84.2016697   3.3947089  12.8751242  83.6693478   3.9667702  12.3223078
  83.8333702   3.4990421  13.7524521  30.8474827   1.8566024  37.9326487
  30.6989264   1.2127481  38.6251903  31.7185545   2.2086492  38.1157565
  90.4700661  70.6992006  29.3299007  91.2643242  71.2324762  29.2982793
  90.6199837  70.0888062  30.0518274   6.6678560  65.4327345  32.6442838
   6.4510077  65.1844215  31.7456460   6.6604376  66.3898754  32.6367164
   6.7865384  64.5369530  43.9981365   7.6900691  64.2748499  44.1746807
   6.8384367  65.0454473  43.1888342  60.9809160  62.0552111  41.4421225
  60.5423164  61.2046480  41.4218664  61.7481089  61.9425011  40.8809233
  84.1605377   8.1911486  71.0591078  83.2263660   8.0000407  71.1429739
  84.2523098   9.0858972  71.3865757  42.2388506  40.7008553  32.2271729
  42.8387070  41.3061428  31.7912483  41.4355707  41.2066889  32.3500848
  53.9691591   6.3354748  31.3474584  53.1755972   6.7109489  30.9660006
  54.0567493   6.7712557  32.1951938  60.7932138   9.1096115  32.6204395
  61.2101412   9.1364461  31.7592311  60.4730749   8.2113826  32.7036738
  36.7561388  52.8049374  66.1828566  36.4194703  53.6823559  66.3645840
  35.9764743  52.2503662  66.1544561  78.8597631  38.6169219  42.5646067
  78.5225010  38.1429315  43.3247519  78.2258844  38.4378290  41.8700886
  54.7008514  47.5179577  21.2034082  54.7139311  47.7561855  20.2764201
  55.1564598  48.2365894  21.6418362  62.1359587   7.1464288  26.5772533
  61.3750362   7.2035736  27.1551514  62.0379591   7.8866279  25.9783077
  80.0277042  59.3946600  39.8476052  80.3085136  59.9782848  40.5524158
  79.5750856  59.9673557  39.2284274  28.3667850  70.6937456  12.4574244
  28.8280964  70.7610178  11.6214228  28.5320210  69.7977018  12.7507377
  41.6942835  47.1159744  28.2698894  42.5009775  47.4501705  27.8777385
  41.3400841  47.8587198  28.7588692  42.3182726  58.4129858  12.3158991
  42.5714970  59.3262815  12.4500811  42.7800751  58.1509304  11.5194750
  25.9864378  76.5630579  34.8368120  25.8264923  77.5017548  34.7393537
  25.2469444  76.1468410  34.3939304  12.2629595  83.9129829  37.5103521
  11.9559920  84.6676445  37.0078683  12.1639228  84.1778183  38.4248424
  89.3878841  52.1135616  25.6365991  88.4838486  52.0035934  25.3418922
  89.3606758  51.9141245  26.5723968  89.2952251  66.9127560  57.2150755
  89.1749477  67.6074457  57.8625154  89.2615891  66.1026955  57.7239037
  83.3307266  85.5438709  37.2787762  84.1141129  86.0918999  37.2318292
  83.6669540  84.6541023  37.3859978  51.8450642  74.4619036  69.2139435
  51.6150999  73.6686802  68.7300587  52.1466589  74.1442919  70.0650597
  11.4547932  78.8330269   8.7097728  10.4998517  78.8439560   8.7745821
  11.6595495  77.9769421   8.3337098   5.5144858  64.7003174  36.1224961
   6.3890123  64.4147635  35.8581209   5.5835038  65.6526804  36.1893201
  38.3511758  12.2285676  42.6410389  38.3130383  11.7567170  41.8090916
  38.0407667  13.1094027  42.4312639  86.7181015   8.3849287  63.2225561
  85.9140110   8.5140866  63.7255335  86.5575314   8.8366377  62.3940611
   3.1336972  69.2953253  20.8544946   3.9563817  69.7283220  21.0823941
   3.3778965  68.6521721  20.1889491   5.2625233  69.8033905  26.2114835
   4.3075365  69.8376799  26.2667656   5.4404408  69.1283798  25.5565500
  61.0047626  48.5934591  13.8781714  60.9186459  49.5405674  13.7695408
  61.8945360  48.3985615  13.5839820  27.1534419   8.1584048  29.5339632
  27.1607971   9.1133720  29.5988870  26.5403605   7.9713863  28.8230562
  36.5631008  31.9149280  11.6625822  36.2126207  31.8562293  10.7737899
  37.3494220  31.3693333  11.6464889  56.9069815  23.4571934  66.1136913
  56.4371395  23.5462618  66.9428778  57.4365330  22.6672244  66.2221193
  42.9190874  84.8099613  57.3750687  42.2910166  84.1609669  57.6921892
  43.7745190  84.4042873  57.5161028  18.3735824  30.4527211  40.3054762
  19.3163192  30.4697609  40.1405811  18.1255937  29.5363092  40.1833200
  76.9359446  74.7749043  14.1691899  76.7857552  75.3539658  14.9164283
  77.3797655  75.3259802  13.5245407  13.7115324  71.5119028  29.9232078
  13.0339694  71.7716599  29.2989755  13.2935500  70.8433819  30.4659843
  88.4497261  27.1409941  53.1200504  88.9783001  26.8563390  52.3745251
  88.2890797  26.3403130  53.6193848  18.4009659  84.6345139  42.9963207
  19.0514898  84.4412613  43.6713791  18.3571875  83.8360119  42.4702978
  41.6132259  64.7218323  65.3237391  41.9150209  64.1757870  66.0496807
  41.2122822  64.1054153  64.7109509  20.4167795   4.6728534  35.7914877
  19.7603333   4.3032283  36.3819861  20.8132315   3.9117223  35.3675342
  25.6553936  81.4462948  16.1642516  26.4241242  80.9949493  16.5129292
  25.6769562  81.2650681  15.2246106  10.5942547  50.0908518  31.6360521
  11.3492131  50.5871201  31.3198447   9.8496395  50.6777430  31.5043759
  47.5533962   7.3508751  32.0899415  47.4635172   7.7796018  32.9410267
  48.4343481   6.9766968  32.1020889   2.7785739  69.4169807  25.1886582
   2.9950663  68.6202765  24.7042799   2.9827797  70.1288986  24.5822716
  46.2539005  54.8028183  69.0778542  46.1918259  54.9717951  70.0179720
  46.3386297  53.8517570  69.0105247   0.9580806  78.5411930  40.6123924
   0.2752094  78.5155010  41.2826633   1.7667258  78.6973429  41.1001873
  64.4065571  14.7752774  19.5282602  63.9598131  14.9063432  18.6919141
  64.8732996  13.9462209  19.4231427  90.8302116  14.3410492  74.2486954
  91.3195705  13.6067808  73.8777304  89.9693966  14.2894626  73.8332748
  41.4368343  60.8488369  41.8469286  41.5349531  61.2679625  42.7018785
  42.2267532  61.0968161  41.3665485  18.7351906  10.6833410  59.7265768
  18.6052680  11.4753401  59.2049551  17.8924298  10.5390227  60.1568794
  28.7560511  22.6783800  10.5718231  29.3851233  22.5003433   9.8726797
  28.5391068  21.8152952  10.9243214  22.3117805  59.0658998   4.6858999
  22.5740623  58.9648151   5.6008983  21.8250608  58.2661629   4.4865075
  47.2410440  16.6212296  62.6309252  47.5998068  15.8297145  62.2296476
  47.2123384  16.4233041  63.5669994  57.1925163  27.8303885   9.0396249
  56.3869143  28.0339098   9.5148253  57.0613241  26.9389582   8.7165552
  65.4534149  17.8999972   6.6905123  65.1547480  18.8050532   6.7794180
  65.0588131  17.4434781   7.4335557  55.6171036   4.0296900  24.5982265
  56.2123108   4.7191632  24.8924828  54.8110390   4.4914970  24.3675065
  23.7423062  68.1393719  12.2196054  24.4106722  68.8194895  12.3030496
  22.9188371  68.6210871  12.1416402  17.2853172  44.4231224  25.3118086
  18.1158054  44.6254635  25.7425976  17.4623799  44.5482779  24.3794918
  28.0264926  57.2872972  23.5505724  28.3892989  58.1250572  23.8382530
  28.7278032  56.8861961  23.0372357  69.0132284  58.0191183  10.4786468
  69.1934443  57.3450518   9.8233706  69.8629236  58.1924915  10.8838546
  21.2445784   0.4352813  34.5758724  21.9600749   0.8059996  35.0924611
  21.0349464  -0.3894101  35.0142455  59.6231461  70.5487823  10.0227833
  59.6390724  69.9709415   9.2598444  60.4498053  70.3742933  10.4726946
  23.3999038  51.6531229  25.1352048  23.1224370  52.2224236  24.4174719
  22.8241515  50.8909941  25.0726962  66.5298176   3.5559958  34.0332079
  66.1492872   2.9022229  33.4466815  67.4728394   3.3981714  33.9881897
  12.6631987   6.5824330   9.5240158  11.7676294   6.3828117   9.2513657
  13.1888580   5.8702850   9.1596532  81.9613934  83.5143757  31.9088173
  82.2412682  84.3934917  32.1638894  81.0643768  83.4443951  32.2354531
  38.5854220   9.0318632  38.9765954  39.1848707   8.3687663  39.3189311
  37.7221513   8.7564296  39.2850280  86.2993240  14.2894793  65.8970928
  86.2459946  14.8893535  65.1530886  85.6454945  14.6159184  66.5153027
   4.2838237  78.6168718  28.2543635   4.4938821  79.1350555  29.0312767
   3.3699149  78.8291502  28.0647850  52.7205086   3.7432483  27.8224206
  52.6605225   3.9097664  26.8817258  52.5569439   4.5950216  28.2273412
  51.4638805  68.5545874  33.9821100  51.1496496  69.0035677  33.1973124
  52.3669720  68.8548946  34.0844488  23.5316086  55.5145645  39.8201060
  24.2130637  55.0350618  39.3490171  23.9864850  55.9070444  40.5652761
  29.8562145  81.2406540  24.1338778  29.7712922  80.3946400  23.6942554
  30.7985544  81.3513947  24.2602324   4.1662624  66.9627666  29.1341400
   3.2563159  66.6868591  29.2441535   4.6780151  66.2770224  29.5632005
   2.6310012  26.6269159  58.7568998   1.9004861  26.7472529  58.1501913
   3.0266172  27.4954057  58.8306904  68.3084536  25.1289010  70.1052284
  67.8697300  24.5628428  69.4701433  69.0727663  25.4659367  69.6378231
  65.1155663  40.7661629  41.1067247  65.1262999  41.4813900  41.7427874
  64.1897678  40.5408335  41.0152912  36.0920334   1.1788623   4.9615297
  36.3717031   2.0216873   5.3188282  36.6556907   1.0426579   4.1999725
  28.1712937  54.8816633   5.1077074  27.8279948  55.1281643   5.9665525
  28.7605309  54.1488504   5.2866280  26.6487932  19.6941638   2.6712951
  25.7838154  19.9160314   2.3265949  26.7423248  18.7573135   2.4986847
  33.4668088  80.8011341  32.4150729  33.5114837  81.1694527  33.2974434
  32.8524542  81.3686085  31.9494796  34.9974203  68.6724043  27.9028630
  35.8252835  68.3473253  27.5490308  34.7355986  69.3677378  27.2993779
  48.9673901   3.3749753  11.0064614  49.6274757   4.0677926  11.0293198
  48.6783981   3.2894287  11.9149756  46.4680099  67.3787355  14.2039859
  46.3570547  67.5536537  13.2694674  47.1375179  68.0017996  14.4864428
  20.5240250  14.1092002  16.8150961  19.9992907  14.8370481  16.4817441
  19.9391162  13.6477959  17.4161124  84.8236942  38.3332992  20.6904149
  85.5227661  37.8719068  21.1537123  85.1205540  38.3668280  19.7810280
  23.7192130  75.2305555  26.6761184  23.9023280  76.1331606  26.9369102
  22.9856873  74.9650955  27.2308278  52.1771288  11.5430200   4.5036396
  52.6527834  12.2576118   4.9271277  51.5399885  11.2580872   5.1586968
  17.9519439  63.6012268  45.1357985  18.1377137  64.3143272  44.5248938
  18.3961606  63.8566351  45.9442949  39.3775868  78.6975288  57.6592970
  38.6818600  78.9321613  58.2734156  39.0094757  77.9805613  57.1428823
  22.1259117  53.2833672  32.6179886  22.1047759  54.1460609  32.2038150
  22.0747685  53.4667301  33.5560679  46.1039162  23.4803295  53.1118155
  45.3797722  22.9688025  53.4726286  46.5788794  23.7978554  53.8798094
  75.2939653  39.5374155  73.0650902  75.4415941  40.0556087  73.8562393
  74.6954775  38.8434243  73.3415413   5.6501710  77.8462410  56.2398481
   5.8249557  78.0249596  55.3158665   6.5085536  77.8976345  56.6602898
  14.6317959  75.3983927  46.1115599  14.1700149  76.0285044  45.5584383
  13.9417219  74.8321533  46.4571047  58.8745689   9.8679203  17.7991283
  58.8406277   9.3223470  18.5848951  59.4214010   9.3740940  17.1881080
  60.0271940  27.4026585  29.8896861  60.9353256  27.4521947  29.5912361
  59.6875954  26.6011930  29.4914961   3.8937494  21.5819693   1.9089060
   3.7678090  22.4519730   1.5301436   4.1905293  21.0423827   1.1761025
   1.5112321  70.1886940  33.4291720   2.3268382  70.4479933  33.0004740
   1.4251520  70.7935524  34.1660357  71.6261816  64.9909163  59.2343092
  71.3018751  65.8523512  58.9716530  72.3572874  64.8190737  58.6408567
  49.1070175  38.8418555  23.0048108  48.1789494  38.6291766  23.1032801
  49.4176102  38.2480288  22.3213387   7.7329403  28.1569934  61.6929436
   7.0615643  28.3095050  62.3579454   8.3436322  28.8866329  61.7974043
  74.6340227   7.7484268  23.4424543  74.3755960   8.3601582  22.7530837
  73.9686489   7.0608789  23.4143353   1.8345293  75.2437878   8.7006760
   1.3834140  75.9885502   9.0982366   2.6688302  75.6026697   8.3983892
  84.0250492  60.0868607   9.2800295  84.6751022  60.7858801   9.2090392
  83.4533691  60.3632545   9.9962884  18.6220968  67.2425079  11.3148594
  19.1786623  67.2990513  12.0915639  18.9978588  66.5265656  10.8025491
   4.3142810  54.8971128  13.0895042   3.7994272  54.0984964  13.2051420
   4.6664160  54.8286724  12.2020650  82.8796864  62.1520233  52.6633692
  82.8595161  61.7085648  53.5114098  82.3615360  62.9458761  52.7958250
  21.1543393  61.2187338   3.6422798  20.4975057  61.0245275   2.9736352
  21.5383577  60.3681326   3.8549739  15.9621310  52.0886898  25.1476693
  16.3777256  52.8870344  25.4734945  16.6784370  51.4577913  25.0762200
  10.3772736  46.3059855  47.6463938   9.4379455  46.1835289  47.7838707
  10.4808950  46.3150883  46.6948652   4.0288839  41.6056633  50.7794285
   3.4599236  42.0774746  51.3876295   3.7202933  41.8662834  49.9116230
  21.7106962  69.7850990  15.7912147  21.3837957  70.2370214  15.0133121
  21.5540290  68.8577700  15.6130350  86.1252022   8.9116895  56.5006495
  85.8985519   8.7240636  55.5897951  85.4469967   8.4703553  57.0120144
  21.5613484  51.0956097  22.8249145  20.8960438  51.2948895  22.1662116
  21.0895681  51.1216879  23.6573648  45.9950352  84.2925262  35.8857536
  46.3433599  85.0652409  36.3305283  46.0117960  84.5229530  34.9568534
  86.0759926  47.2320223  25.6458998  85.7450390  47.1728277  26.5421128
  86.2743473  48.1605625  25.5246663   2.8712356  80.1579285  34.3235970
   3.5776797  79.5156479  34.3917823   2.0691717  79.6396828  34.3895435
   9.3858433  75.2059746  41.7247343   9.0053892  75.7879591  41.0668755
   9.0041882  74.3487692  41.5356112  75.4297256  54.5864439  53.7954378
  74.8801279  53.8045931  53.8491488  75.8604383  54.5183706  52.9433298
  27.2368264   7.5758290  25.6534648  26.6217613   7.3297751  26.3443971
  26.9014812   8.4078044  25.3194118  83.0037022  59.1307163  44.4335461
  82.7836418  59.9500036  44.8769093  82.2845268  58.5386133  44.6536255
   9.2510730  49.6859694  52.1627378  10.0288987  49.1369247  52.2615528
   9.2197764  50.2039480  52.9670715  24.5129347  39.4700050  24.2043710
  25.2023506  39.5715213  23.5481453  23.7792182  39.0868735  23.7236428
  15.7706368  52.1362925  14.5130682  16.1488318  51.2670469  14.3803442
  16.0225236  52.6288986  13.7319636  10.0668609  32.4141264  60.7512856
  10.4944265  31.6372824  60.3908205   9.3379617  32.0688725  61.2667799
  56.0256720  50.7126904  21.3689041  56.3854313  50.5119133  22.2329021
  55.1721334  51.1061001  21.5503812   2.6279613  32.5530267  49.4019175
   3.1207195  33.1233144  48.8118362   2.5516582  31.7254925  48.9269447
  11.4759660  60.6831074   2.3941728  11.1980999  61.5982723   2.3555587
  11.5227807  60.4081726   1.4785028  43.8093615   9.8142141  11.6450655
  43.0697346  10.2818096  12.0330548  43.4326410   9.3464875  10.8997166
  30.5649018  54.2482567  43.4036732  31.2155747  53.5964918  43.1427908
  29.7224498  53.8312387  43.2231236  22.9047489  50.9162045  16.1736786
  22.9648280  49.9617720  16.2146294  23.5655499  51.2246084  16.7937267
  61.9713259  49.6620989  58.0232334  61.6655874  48.8775396  57.5680161
  62.5881624  50.0675249  57.4138308  91.0161781  72.5997591  39.8676109
  91.6261101  73.2984209  40.1044369  90.3430367  73.0362463  39.3455076
   8.9218438  53.9940262   3.1856576   8.2394695  54.1580057   3.8365871
   9.2016393  53.0941439   3.3534527  14.2849946  52.3938179   4.7219270
  15.2029216  52.1574020   4.5887086  14.2944741  53.3461237   4.8181638
  50.2421331  73.9849520  23.6606812  50.1776743  74.4836473  22.8462005
  49.3667841  74.0385294  24.0442443  30.6668997  71.1588001  62.2427654
  30.3052258  70.3420305  61.8987942  30.4124808  71.1635447  63.1655216
  11.9062161  78.1926632   2.4527872  11.5061975  77.3565292   2.6917395
  12.4357224  77.9929113   1.6808063  90.6327629  61.5909386  34.2019773
  91.3255119  61.2808752  33.6187148  91.0673618  62.2218323  34.7758436
  24.6566081   5.0927776  32.5903869  24.7506833   6.0065913  32.8593230
  25.0755882   4.5926359  33.2907772  66.0455942  84.0636444  55.8212566
  65.3368235  84.2113686  55.1951170  65.6007051  83.8287830  56.6355944
  38.1577301  56.8864584  10.8602691  38.8391280  56.4367199  10.3606057
  38.5522509  57.7240562  11.1032033  29.6988082  72.8945255  27.8953552
  29.1376519  72.5236034  28.5763478  30.5322456  73.0605125  28.3358812
  42.0036507  11.3047445  13.3046341  42.7323341  11.7414486  13.7457037
  41.6209793  10.7400656  13.9761484  89.2703629  39.4184661   6.3678497
  88.8839149  39.1991019   5.5200493  89.9132252  38.7267232   6.5242177
  15.9139931  26.1866570  66.7040396  15.6960773  26.4937496  67.5840616
  15.3836334  26.7311001  66.1222076  39.0410542  76.6530752  20.8600354
  39.9692202  76.8393278  21.0016394  38.6288595  76.8340588  21.7047668
  43.1158495   4.0609983  10.7135773  43.0048275   4.7773355  10.0884640
  44.0337944   4.1152117  10.9794199  46.7641163  85.0514221   5.0342834
  46.0292673  84.8340988   4.4606954  47.1491241  85.8358383   4.6435347
  32.6897240  60.0576830  16.4863050  31.7997122  60.3972435  16.5801704
  33.1695104  60.4364538  17.2228980  41.0886383  43.4560919  37.9111123
  41.9554186  43.7395382  37.6202822  41.0920143  43.6068106  38.8563657
  43.6598873  79.8497820  62.7358484  44.4693279  79.3621302  62.5834084
  43.6819077  80.0649834  63.6682796  84.2090034  17.2075260  31.9009542
  83.6877060  17.9429817  31.5791130  83.8007069  16.9708133  32.7337146
  79.6362925  73.0057383  15.6067050  80.3669739  73.3074427  16.1464334
  79.8549223  73.2988453  14.7221041  17.7819169  63.4063005  36.6981387
  17.4777544  63.5748148  35.8063316  17.2152734  63.9450836  37.2502804
  25.0679398  80.1735401  10.0400424  24.3832254  80.3506088  10.6850553
  25.5803728  80.9813404  10.0068176  27.1237922  83.6448002  26.6134071
  26.8313718  83.3064651  27.4597263  26.7899323  83.0144024  25.9751511
  42.2561646  25.2925253  10.6887436  42.9335785  25.5024576  11.3316023
  42.7288389  24.8684764   9.9725097  39.9523330  86.2040710  17.6592004
  39.9607515  85.9729195  16.7303681  39.4817233  85.4849815  18.0807126
  65.8942604  24.7706532  20.8170152  66.7547798  24.3528843  20.8517456
  65.8646107  25.1867366  19.9554884  20.9237027  66.3061905  44.3121004
  21.3452291  66.2347937  43.4556866  21.5730023  65.9661293  44.9277306
  33.0515170  71.6820669  27.6831245  32.8314781  72.3198318  28.3621502
  33.4040713  72.2083044  26.9654799  20.2878308   4.8571914  32.1209908
  21.0369015   4.3559942  32.4433613  20.3012204   5.6648999  32.6344681
   9.9876702  72.3498917  40.2957487  10.9434485  72.4019957  40.2980518
   9.7141665  72.9956245  39.6442461  72.9673624  17.4801445   2.8374663
  73.1127596  17.4030304   3.7804109  72.0210123  17.3822510   2.7322525
  21.3897038  65.3105307  72.7777243  21.0555387  65.6419373  73.6112309
  21.2601948  64.3634272  72.8273201   1.5468258  14.2469513  18.1982136
   1.5743171  13.2927418  18.2686484   0.7441024  14.4978261  18.6553013
  82.4411964  10.9675312  29.2749214  82.2846603  11.3069093  28.3937025
  83.1964493  11.4629662  29.5917225  76.2321377  80.8872509  18.5373998
  75.9505272  81.4580059  17.8224397  77.1274376  81.1667633  18.7285566
  14.5693243  32.7583957  52.8304768  15.2784157  33.4005547  52.8629589
  15.0108528  31.9209909  52.6889229  18.1151950  67.3531103  37.8590608
  17.5571895  66.6354465  38.1587601  19.0042210  67.0017147  37.9078984
  64.1921806  19.8305619  31.8776488  63.9753151  19.1461182  31.2446094
  64.4057322  19.3552339  32.6805758  86.3813210  42.9459286  19.4106400
  87.2029209  43.4172249  19.5487726  86.1661434  43.1040049  18.4914315
   3.4355247  40.1909304  69.2955351   3.6060622  40.5167770  70.1792622
   4.0389699  39.4553089  69.1908932  66.0694170  82.9560375  43.6776018
  65.1236486  82.9981327  43.8189459  66.2224722  82.0724106  43.3429146
  50.9750462   4.4036365  42.8084040  50.6912851   4.9870104  42.1045685
  51.4095163   4.9802420  43.4368896  48.8682079  82.9793262   4.5920119
  48.3622265  83.5650921   5.1551217  48.2085991  82.5019264   4.0887892
  47.1937656  63.8758135  26.8882632  46.9083691  63.1852388  26.2900257
  48.1420755  63.7616825  26.9508386  90.4152012  13.7685621  38.0091834
  91.2446594  13.6921680  37.5375962  90.5274296  13.2154870  38.7823224
  18.4729385  59.3444920  21.7285228  18.4040046  58.8148689  20.9341812
  19.3649566  59.1928482  22.0408368  50.3481579  14.1426134  23.4256864
  50.2030706  14.1729605  24.3713403  50.5371571  15.0490844  23.1831574
  80.2179146  20.0555754  68.4261465  80.2546692  20.9105134  67.9972410
  79.7944403  19.4842112  67.7854824  78.3923244   3.9211497  22.3038960
  77.7326775   4.5441809  22.6087451  77.8892422   3.1534901  22.0321584
  21.3625717  11.5930867  19.6015537  20.6165719  11.6543877  19.0049326
  21.8848157  10.8680427  19.2583251  11.4450932  73.0853558  28.9754462
  11.1183012  73.9718628  28.8220263  10.7300246  72.6421738  29.4320631
  63.2488441  81.6545773  31.0232091  63.9579296  81.7288971  31.6618800
  62.7922153  82.4943352  31.0734940  30.7498646  78.7098503  11.7686784
  30.0186658  78.6333513  12.3816431  30.4446983  78.2691860  10.9756327
  88.6716080  69.2968988  62.6356745  88.1021404  70.0579691  62.5229502
  88.0741215  68.5490799  62.6389456  16.7866147  77.6259804  46.0108137
  17.2469652  76.8873549  45.6123877  17.3284042  78.3868647  45.8016491
  90.2768040  44.5123672  54.3982935  90.9490108  43.9126682  54.7219133
  89.8928070  44.0591860  53.6476898  86.9571304  83.8608456  12.0970845
  86.1838150  83.4651184  11.6950822  87.3477268  84.3862534  11.3987923
  43.2738352  15.2137315   2.6517275  42.7810192  15.8158910   2.0942616
  43.7632370  15.7831585   3.2454163   9.5783508  63.3631468  43.7675762
  10.2520430  63.2480383  44.4377375   9.2807227  62.4746513  43.5720587
  20.4148793  80.9621429  38.3545184  20.3745484  81.8321228  37.9573631
  19.5180082  80.6321621  38.3000183  66.6759205   0.1007052  20.5011463
  67.3948765   0.6715422  20.2300739  66.4911079  -0.4346049  19.7294474
  45.8846569  77.5150537  28.1396174  46.0263109  78.3667850  28.5527968
  45.1615810  77.6619387  27.5298500  86.8861198  17.4049354  42.7272797
  86.2640381  17.6307523  43.4188414  87.5282860  16.8405092  43.1577158
  78.2224512  60.9195709  73.3087683  77.2845125  60.9963751  73.4837008
  78.2764959  60.3613853  72.5330448  70.4466009  52.6666689  73.5942078
  71.3811064  52.5965166  73.7891674  70.0152826  52.5359583  74.4386673
  11.4938831  83.3968698  -0.0249743  10.8976650  82.6836335   0.2031684
  12.3350525  83.1348335   0.3491903  17.0165038  71.0926962  32.8350782
  17.7929270  70.5601120  32.6625824  16.7758298  71.4492512  31.9799900
  37.5538898  36.9894171  71.2264299  37.1515346  36.9944096  70.3579140
  38.2567620  36.3429451  71.1610651  85.7938957  54.5251417  61.0529184
  84.9490070  54.9750280  61.0528374  86.1685658  54.7190428  60.1937008
  86.1251450  40.7436275   2.7485982  85.5512905  40.1148987   2.3108456
  85.6968689  41.5897322   2.6185080  51.1543179  16.6055584   9.0569085
  51.0242701  16.0647631   8.2778966  50.3698969  16.4573336   9.5850575
  14.5260537   2.7251795  12.0555460  15.3683472   2.7208823  11.6008425
  13.8750994   2.7027896  11.3541269  24.5794916  44.5550537  15.4336298
  24.9427223  45.4404354  15.4138052  24.7407174  44.2499638  16.3264668
  79.7799063  13.7487245  26.9888759  79.6834183  13.1268740  26.2676096
  80.6292534  14.1628397  26.8360782  75.7432938  83.5971355  70.6562281
  75.7994080  82.6603508  70.4677629  75.4798794  83.6411572  71.5754175
  80.1420307  60.2787352  60.1702738  79.7498989  59.9677610  60.9862185
  79.7784948  61.1558533  60.0488758  84.5109844  53.8848877  72.6617241
  84.0466881  54.3612528  71.9734430  84.1031361  54.1815710  73.4752798
  64.0951347  12.8804255   9.2021763  63.6397266  12.9569733   8.3637381
  64.9596071  13.2583153   9.0405691  38.7496853  12.1039712  15.6222022
  39.0585661  12.9831302  15.4033303  38.7110019  12.0948839  16.5785766
  67.7612829  80.3098106  37.0488143  67.1876478  80.8242226  37.6167464
  67.2140074  79.5834494  36.7502832  21.7201114  65.9880877  11.9677496
  22.4788380  66.5475035  12.1339405  21.3496470  65.8231354  12.8348017
  47.1748734  69.1014147  11.6971362  46.3808727  69.6128321  11.5414345
  47.8604746  69.7568178  11.8260849  18.7123775  49.5042229  17.6896143
  19.1705096  48.9854097  18.3508098  19.1122687  49.2423439  16.8603146
  87.1558571  19.3476379  66.7553139  87.4026299  18.6897421  67.4053240
  87.6775932  19.1289306  65.9831810  79.3806028  10.7793927  31.2975359
  80.2639294  10.4131532  31.2547302  79.4323730  11.5895247  30.7903504
  62.9323769  49.8498392  34.9253583  63.3929920  49.3618965  34.2427301
  62.7331972  49.1952276  35.5947208  75.7908773  35.5210972  16.2614679
  76.2010336  35.1890779  17.0600700  74.8518991  35.4098368  16.4103842
   3.8072616  31.9611144   4.0253907   3.1038854  31.3863873   4.3273580
   4.3700212  31.3941932   3.4980062  28.9301133  74.9552536  65.3828764
  29.1419458  75.4754877  66.1579323  27.9864573  74.8070812  65.4444456
  63.9536905  49.9824858  24.3319941  64.6899128  49.3972540  24.1539097
  64.2097664  50.8163214  23.9378214  78.6177111  66.3136482  13.4030509
  78.3570051  65.6542349  12.7600563  78.9819193  65.8085012  14.1299725
  10.8432889  32.8366947   9.4666547  11.2049806  32.0862651   8.9952010
  11.0206687  33.5854077   8.8972718  75.5862284  29.6835136  19.4626367
  75.8834982  28.9048100  19.9332583  75.3139544  30.2901292  20.1511979
  67.0291805  46.5029001   4.5591554  67.8927231  46.6304159   4.9519205
  67.0212030  47.0892572   3.8026157  36.9973063  45.1368809  14.7296727
  36.1457992  45.5306435  14.9197268  36.8545842  44.6326303  13.9286792
   8.9447635  62.7071095  60.2474356   8.5924661  62.2264004  60.9964609
   8.4815675  62.3458767  59.4916630  21.2303281  66.2440968  35.0459552
  21.0059643  66.1073542  34.1255236  20.8972239  65.4653835  35.4919195
  88.3862495  43.0388641  36.6926312  87.8514194  42.2463989  36.6457796
  88.0128288  43.6193895  36.0294700  68.4958935  19.1611052  71.0817242
  67.7890205  19.7754347  71.2796211  68.8455057  19.4605505  70.2424812
  84.9064541  53.1696987  26.8538547  85.0143147  53.2093287  27.8041315
  84.6753311  54.0636539  26.6015530   7.1854973  18.7669885   4.5465210
   7.8019369  18.7696564   5.2787966   6.6215122  19.5238853   4.7054550
  83.7032700  25.9041977  56.1426353  84.3124294  25.5756664  56.8038654
  82.8360367  25.7148051  56.5007639  17.4577320  28.1949544  31.3138938
  17.2491813  27.2792530  31.4988995  18.3211207  28.1654024  30.9016824
  71.6602516   9.8254907  12.9032040  71.6378927   9.5444566  13.8179457
  70.8638573  10.3448915  12.7926850   6.7509025  13.6938918  20.3539205
   5.9836465  13.1216347  20.3454089   6.6679955  14.2175293  19.5569515
  81.8850613  77.9029608  59.7800922  81.2673950  77.1736765  59.8336315
  81.3464165  78.6831903  59.9117565  63.3688307  17.6567721  56.2602139
  63.7948275  16.9206107  56.6993284  64.0569353  18.0433357  55.7186270
  88.5140800  70.1975346  32.8609014  88.3109760  70.6026363  33.7040329
  87.8073025  70.4826164  32.2817492  51.8080521  67.6250553  74.1247225
  51.8729401  67.8560019  75.0513744  52.6772118  67.2935724  73.8990688
  89.6096230  12.3276341  18.0154479  89.7807312  12.9633594  17.3206031
  88.6586380  12.3410678  18.1235051  15.2783632  69.5370579  26.5112662
  14.6515071  68.9395142  26.9189715  14.7932112  69.9373817  25.7897377
   7.2907370   5.7007891  30.1049042   7.0426160   6.0455579  30.9626937
   6.8320823   4.8630112  30.0416923  22.5342393   2.7612892  66.5566206
  22.0086288   2.3041882  67.2131443  22.6477504   3.6427829  66.9120312
  38.1692362  64.3154001  38.7846923  38.9283800  64.4132757  39.3594575
  37.7038288  65.1485634  38.8586426  53.9877701  36.8474221  23.5982227
  54.1387177  36.2524605  22.8637385  54.8123932  37.3239613  23.6938190
  32.5291109  48.7440157   2.1545681  32.5405502  48.5315943   1.2213060
  31.9213319  49.4801188   2.2252278  79.8125362  80.3627682  30.6325579
  79.5564938  79.6740580  30.0190830  80.0670052  81.0978699  30.0747991
  80.2691841  33.5561728  16.4658713  80.6250572  33.1521630  17.2573018
  79.4046831  33.1585860  16.3619578   4.8612615  59.4216681   4.9738991
   4.9843335  59.8682499   4.1362542   3.9126271  59.3238068   5.0560433
  46.9869709  76.8063879  65.6507778  46.2323761  76.2734938  65.4000950
  47.6833439  76.1714983  65.8187532  66.4411831  76.3051128   5.5839562
  66.2668657  76.9808531   6.2391043  67.1287346  76.6781044   5.0322461
  72.7614117  38.4744740  17.3474276  73.3369350  38.4152555  16.5848672
  72.9248190  39.3477917  17.7035820   2.3702063  67.1702337  23.9468908
   2.9810235  66.6282654  23.4474874   1.5435246  66.6886044  23.9175296
  20.0621486  56.7488623   4.9588367  19.5600712  55.9432125   5.0816226
  20.9247684  56.4517212   4.6693027  19.8290908  45.6016588  46.3712597
  19.4117785  46.4278746  46.6150951  19.4642508  44.9600363  46.9807243
  13.9084065  38.9267087  36.4575791  14.5276701  39.5035124  36.9048405
  13.1254494  39.4638419  36.3363457  14.5977807  24.3424082  16.3480651
  14.4202209  23.4018278  16.3518620  15.0673842  24.5008063  17.1669745
  37.7930164  64.8767138  69.0273237  37.8428388  64.1143608  69.6040058
  36.9234848  65.2428341  69.1888905  37.2939014  44.2389584   5.2812028
  36.9143748  43.8693714   4.4839603  37.6092434  45.1035070   5.0178605
  18.5613370  37.0593047  41.4167118  18.5862505  37.1559978  40.4647350
  19.1726470  37.7207780  41.7407227  19.2063105  84.8407936  34.7058296
  19.2512000  84.2704964  35.4732728  18.8555658  84.2819691  34.0123415
  39.5747185  74.5181465  47.7961540  39.8600411  74.0513706  48.5816097
  39.7897768  73.9268827  47.0747757  26.9988799  31.3868260  67.5246191
  27.2521472  31.5330434  66.6131878  26.8695140  30.4405546  67.5884056
  28.6165285  62.6751041  10.8848262  29.2061853  63.4094667  10.7138121
  28.9553404  61.9641638  10.3407609   6.2801415  27.9715347   7.9952896
   7.1881795  28.0943537   7.7184969   5.7744211  28.5441732   7.4186081
  31.9679308  19.5767593  16.4994371  31.8828893  18.6277902  16.5913999
  31.4740777  19.7857678  15.7065582  38.2020235  52.7550125  28.0358553
  38.1199908  53.5353613  27.4876261  38.5563231  52.0865202  27.4494886
  22.9966831  52.5459576  39.7538567  22.8707027  53.4835625  39.6080446
  23.4907436  52.2489834  38.9896941  23.3153582  52.0204210  20.5287480
  22.7337265  52.6006079  21.0199904  22.7671003  51.6701031  19.8266625
  70.6466722  46.0836840  23.6626840  70.0776482  46.1020756  22.8931999
  70.1935053  45.5116367  24.2820621   9.7027767  37.8716874  17.4574769
   9.1212779  38.4811020  17.9121280  10.2736759  37.5276995  18.1444824
  78.5271311  11.4860749  60.7929468  77.6154041  11.6510010  60.5525494
  78.4919596  11.2542880  61.7209911  27.8599954  55.3786993  41.3305473
  27.9152203  55.9367895  40.5548429  28.1215453  55.9479523  42.0542717
  24.1451573  20.8923960   6.0722733  23.2295775  21.1246943   6.2271345
  24.1397071  20.4497695   5.2235782  16.1946225  57.9239511  34.9131775
  15.6885815  57.1130180  34.9636078  16.5584910  58.0342293  35.7916236
  61.1205959  64.4347095  73.0667210  62.0673990  64.4551706  73.2059383
  61.0197353  64.3439388  72.1191883  44.0339231  37.2447801  31.2141562
  43.1115532  37.0567107  31.3876319  44.0203714  37.8359985  30.4614902
  77.8872728  41.4088202  15.4461372  77.6157427  41.3121271  14.5333636
  77.9320765  40.5124521  15.7789314  64.9014997  12.1721125  61.0048628
  64.7354889  11.7916048  60.1423740  64.5958519  13.0761623  60.9306622
  25.3014922   9.1334492  71.3235855  24.7276044   8.4399205  71.6490126
  24.7056556   9.8392874  71.0725784   9.1462600  77.0735502  69.4571733
   9.1475677  76.2502670  69.9454689   9.6588194  76.8863964  68.6707354
  34.1489363  46.0308933  10.7528996  35.0655270  46.1303902  10.4956162
  34.1235685  45.2035809  11.2336743  15.3561378  49.0033865  22.7428699
  15.2518475  48.8983774  21.7971802  14.9855125  49.8657656  22.9304099
  76.1148357  28.6876559  33.4202886  75.2253532  29.0090919  33.2728624
  76.6079092  29.4625163  33.6899114  26.4550233  80.1264381  73.8296938
  26.5540075  80.9271812  73.3146715  26.0793161  79.4931936  73.2180738
   6.8222159  32.5808620  12.3824131   7.7729577  32.4939847  12.3133171
   6.6034520  33.2985044  11.7879677  58.7147331  23.0128503  27.2614384
  58.6775875  22.9892039  26.3052511  58.5739565  22.1046901  27.5291300
  41.5446138  43.8924265  15.6857884  40.9249067  44.5843506  15.4546213
  40.9994602  43.1166315  15.8168924   2.0849848  10.7327914   1.0489601
   2.1170318  10.7161903   0.0924408   2.4040905   9.8702395   1.3143042
   3.3116782  33.3008647  20.1455379   3.2428122  32.5874400  20.7799768
   3.7260488  34.0140867  20.6311750  88.2191658  40.2143335  14.1009498
  88.1134129  39.5368719  13.4330475  87.8175926  39.8416209  14.8858404
   4.3120581   5.8675176  11.2699509   3.5991928   5.4129642  11.7187679
   3.8725105   6.4445072  10.6453609  79.1490316  16.5868664  69.8477554
  79.1880798  17.3578978  70.4136324  78.7722301  15.9025991  70.4009581
  11.8129206  36.7128825  11.0266137  11.6264379  36.1871505  10.2487564
  10.9531486  37.0028257  11.3315034  82.9539490  39.7920823  66.9708204
  82.2830677  40.3269863  66.5465260  83.7800789  40.2177286  66.7415237
  18.8689625  54.4631767   5.5847794  18.2461381  54.3388510   6.3009250
  19.5033538  53.7546682   5.6933707  82.4269772  23.6108994  73.8889074
  82.8030491  23.9870214  74.6847248  81.6475296  23.1438732  74.1898918
  24.9489141  65.8674335  12.7589309  24.5996881  66.7062521  12.4578452
  25.6448197  65.6599998  12.1352971   6.5977997   0.4687560  64.0848160
   7.1524471   0.1936995  63.3547831   5.7109320   0.4697391  63.7246799
  55.5874634  84.4739723  65.6551552  56.4528608  84.8411942  65.8353424
  55.5557680  83.6699581  66.1736059  59.9958324  11.5818691  66.2702131
  60.3438997  11.0991406  65.5205107  59.9200106  10.9259129  66.9631815
  14.1574740  37.7925110  11.6806769  14.0887761  38.7241220  11.4718425
  13.3474982  37.4108386  11.3423014  14.2599809  22.2764134  66.8701077
  14.3040740  21.6391206  67.5829506  13.7687898  21.8304133  66.1801481
  35.0517368  63.8205576  13.4791303  34.8304415  64.7470379  13.5734236
  35.4263568  63.5764456  14.3254769  82.4897766   1.4828588  70.7823324
  82.3073673   2.2617468  70.2566957  82.9068565   0.8744921  70.1722765
   6.4996725  26.4595270  65.5441523   6.4365757  27.3430204  65.1812601
   5.6150597  26.1031914  65.4621887   2.4145213  13.4579146  39.3212938
   2.9275545  13.0534732  40.0209045   1.6316758  13.7908137  39.7601128
   5.4745162  45.8539915   8.8183612   4.9911633  46.6610909   8.6417556
   4.8367909  45.2812386   9.2443818  52.0621443  68.3016539   8.7739801
  52.1506929  68.8247108   7.9772347  52.7309179  67.6220226   8.6898780
  56.0779428  46.5069723  68.7678719  56.7727375  46.0966206  68.2529879
  56.5202904  46.8293285  69.5531368  23.8097429  58.2699299  36.5502238
  24.1963410  59.1141510  36.7827511  23.2954526  58.0222416  37.3185897
  34.8515844  46.9765854  14.7415936  34.8020577  47.9324961  14.7383463
  34.2665005  46.7040348  14.0347517  68.9988422  17.5853992  49.6759081
  69.3713713  17.1697092  50.4535055  69.0808725  16.9244277  48.9884329
  20.8210778  11.6483378  65.0850153  21.6087818  12.1061683  64.7915125
  20.9089494  10.7657123  64.7251797  18.1660974  44.0275002  12.7512109
  18.6273301  44.8504639  12.5892651  18.0139077  43.6626720  11.8794489
  46.7081594  43.2572842  16.2140930  46.1283112  43.5471678  15.5098367
  46.5810204  43.9023018  16.9098079  70.6820726  49.0581465  23.6789513
  70.6362057  48.1510925  23.3766627  71.2401962  49.4966936  23.0367613
  21.5660143  46.9148111  14.2207313  21.0660338  46.3272762  13.6541176
  22.2780156  46.3722372  14.5596921  44.8734093  76.5424156  25.2034855
  43.9317274  76.7067337  25.1538610  44.9734974  75.9444952  25.9442329
  32.6101089   9.4868279  74.2541313  32.0047975   9.0482432  73.6562395
  32.0571709   9.7923654  74.9732542  31.8428373  35.2814722  22.9340076
  32.3662472  35.0730371  23.7078476  30.9377193  35.2626395  23.2448769
  32.1377873  73.3872128  29.4624376  31.5593553  74.1451120  29.5474982
  32.8749824  73.5824203  30.0409460  91.1650181  64.2438364  47.1421909
  90.2843475  64.4905329  46.8597221  91.6778278  65.0475740  47.0569611
  74.9924183  20.1496267  68.7907743  74.9188137  20.0007868  67.8480864
  74.1541815  19.8540723  69.1460848  65.7311058  46.8574286  36.6107249
  65.8450031  46.3049698  37.3840618  64.7868776  46.8578863  36.4536643
  21.6669726  71.6606331  13.7880504  21.0162091  71.6041517  13.0883718
  22.0798802  72.5150442  13.6627018  66.7233610  65.0902605  68.9207458
  66.3128567  64.2390013  68.7688255  66.1314344  65.5370235  69.5259380
  11.6592252  32.1710491  70.4274273  11.8007040  32.6476455  69.6094608
  10.7088649  32.0731592  70.4862928  89.0614605  48.7415361   3.2040074
  89.0545940  48.2913733   2.3592949  89.0421867  48.0365944   3.8512459
  48.3510685  67.6627684  56.5793085  47.8592825  67.1579599  57.2270346
  48.5177660  67.0431423  55.8690214  58.3555698  45.6653976  15.7588446
  57.9246378  45.6625509  14.9041378  59.1059542  46.2490082  15.6468022
  88.0623245  74.6411991  30.0437975  87.6426506  74.6040154  29.1843104
  87.8839779  73.7858200  30.4346323  60.3361511  67.5469971  65.8709526
  61.2708759  67.7530479  65.8790016  60.0412083  67.7375460  66.7614174
  34.4399452  57.1230602  16.9969809  33.9227676  57.7984715  16.5581369
  34.6734905  57.5105381  17.8405166  86.3519764  21.8166471  66.2506485
  86.8028450  20.9750414  66.3188171  86.8613911  22.4069381  66.8058825
  55.7064676  12.0205569  23.4851098  55.2192783  12.8436387  23.5227609
  56.0216236  11.9698429  22.5827050   5.3676742  15.7952440  52.5014019
   4.7808403  16.4424336  52.8925562   5.0188565  15.6569338  51.6208172
  71.5413666   5.6506068  69.9662876  71.2334919   6.2947410  70.6038904
  72.1923018   6.1211795  69.4456387  82.8652477   8.4400368  26.8343472
  82.4864388   8.0344868  26.0544372  82.3603249   8.0773264  27.5621653
  81.3684177  39.3112516  22.8776550  80.6508732  39.9377012  22.7832007
  81.9411850  39.4888449  22.1315765   4.5775804  12.7617395  25.5281663
   4.6135461  12.7505302  24.5717072   3.6493501  12.8767622  25.7316113
  26.8109250  44.3663216  20.6324530  27.1096897  45.0187683  21.2659240
  25.9454036  44.6733284  20.3625441   3.3363760  50.2254105  26.1288667
   2.9415128  50.9915733  26.5451741   4.2133719  50.1718044  26.5086532
  83.4589005  23.4520388  54.5434284  83.1282520  23.3132529  53.6559343
  82.9076290  24.1495967  54.8980427  82.4152470  61.7119980  18.9981246
  83.1499863  62.0806456  18.5077333  82.5193119  60.7646179  18.9093697
  55.1460838  62.7169800  11.0142708  55.4912138  62.1294594  11.6865349
  55.7696152  62.6464081  10.2914572  38.2648373  62.5103235  63.6248064
  38.8277984  62.1337318  64.3011808  38.2781720  63.4514904  63.7987709
  71.5063047  20.4194403  66.1144161  71.1863804  20.1309896  65.2596188
  71.6007996  19.6119964  66.6197252   6.7981815  47.6273489  46.1164141
   7.5797880  48.0709219  45.7869196   6.0679138  48.1053209  45.7233715
  79.4112062  39.0352416  17.9991388  80.1636982  38.6325884  18.4325564
  78.9651680  39.5191860  18.6941803  24.9671292  39.6462226  26.7693257
  24.4999552  40.3775024  27.1733212  24.8779178  39.7957110  25.8280897
  84.7962189  70.2736425   6.5583384  83.9396858  70.5256557   6.9034219
  85.1825619  71.0945988   6.2533820  54.3848324  80.6369209  62.6811075
  53.7367201  80.1093769  63.1478882  55.0778389  80.0175762  62.4522257
   3.5278830   6.5672207  46.2610292   4.1823339   6.3867873  45.5862188
   2.7645007   6.0531956  45.9978628  14.0905774  14.8254204  15.3986049
  14.3408656  14.0743053  14.8606348  13.2172489  15.0628722  15.0869215
  23.0513024   9.5772797  62.9699278  22.2466135   9.2106658  63.3364010
  22.7544379  10.2950168  62.4105024  72.6554537  14.7782946  54.7342873
  72.7780342  13.8737953  55.0225306  72.6240301  14.7231340  53.7791920
  14.7973621  13.4689510  66.3819122  14.1312289  12.8189707  66.6055727
  14.8795915  13.4098685  65.4300833  49.0168905  58.9836597  25.6306458
  49.2070103  58.9596462  24.6928263  49.6041250  58.3303499  26.0108829
  20.1412463  51.0343790  13.6242831  20.2227902  51.7498350  12.9936457
  20.6358743  50.3136969  13.2341647  76.4290190   8.1734473  50.5481958
  76.2942791   8.9136040  49.9563789  75.7889557   8.3062613  51.2474155
  36.6097498  45.4140568   9.1241205  36.9943333  46.2221813   8.7846196
  37.2608304  44.7394514   8.9311659  31.0767365  77.5874710  17.2534883
  31.1724472  77.5610733  16.3014507  31.1528468  76.6734314  17.5272965
  33.3507061  33.6394882  72.9411793  33.6440063  32.7678442  73.2065868
  32.3956347  33.5950875  72.9869986  51.2295532  41.5537262  36.9983792
  50.3119564  41.7322588  37.2042227  51.2820530  41.6371632  36.0462689
  40.0022840  65.7472801   4.1072106  39.4781423  66.5299797   4.2771870
  40.6502247  66.0285568   3.4612322  35.2477431  74.5194864  50.6759501
  35.1246476  75.4461336  50.8818865  36.0753942  74.2883205  51.0975981
  15.3580153  37.2135782  30.1970005  15.1950276  36.7476320  31.0170984
  15.2816379  36.5410495  29.5201659  25.5657196  50.5011940  26.7614317
  24.8227143  50.0883675  27.2016025  25.1680493  51.1287642  26.1579084
   6.5501755  49.3529224  34.7165322   7.2739321  48.8629150  34.3262696
   5.9725350  48.6802912  35.0772691  23.8316441  12.4726331   8.8116693
  22.8949714  12.5962281   8.9652932  23.9408803  11.5237725   8.7487280
  18.7382698  40.6205702   5.0105172  18.9384246  41.1180401   4.2176145
  19.5434129  40.1391792   5.2008760  33.3116746  69.0069342  71.9867229
  32.8807759  68.4787798  71.3147020  34.1554332  68.5766268  72.1250439
  60.1574183  37.0144129  39.8142004  59.9153852  36.7903447  40.7127810
  60.5632782  36.2187862  39.4699883  21.6399026  54.1069746  21.6661525
  22.4895978  54.3417692  22.0391464  21.2401080  54.9452829  21.4345503
  26.9531989  59.2478991  20.7470584  27.8177667  59.4709921  21.0919952
  26.4438009  59.0009451  21.5189147  23.6334038   6.1914903  68.9301682
  23.0773211   5.5845648  69.4186831  23.1038594   6.9840664  68.8427687
  87.0273399  48.2265282  12.3700595  87.7367401  47.7711964  12.8235447
  86.6929340  47.5848961  11.7433894  66.6571951   8.4667921  57.2247982
  67.4665308   8.3414000  56.7293358  66.4897823   7.6156431  57.6294613
  85.5749416  30.1579189  70.8005857  85.7954788  29.9780941  71.7145109
  84.6289062  30.3035641  70.8066750  20.1427698  44.7332954  21.1947036
  19.8036468  44.9234438  20.3200197  21.0926914  44.7007895  21.0814500
  78.6301994  28.9617634  56.7182207  78.0370808  29.0597773  57.4630928
  79.4600821  29.3287277  57.0229578  50.9124517  60.6301498   2.1814260
  50.5388260  61.1688042   1.4839390  51.0596418  61.2413120   2.9032624
  16.0037553  53.1373882  16.8446422  15.6612349  54.0308857  16.8205738
  15.8593690  52.8016233  15.9599710  12.9882050  77.7370119   4.8190925
  12.6810360  77.8763485   3.9232889  13.0161595  76.7852879   4.9174008
  27.2025514  48.4075689  27.8857803  27.7648497  47.9769754  27.2418499
  26.7522264  49.0920448  27.3908734  16.5832651  51.3592196  38.3975053
  16.3761556  51.2241316  39.3222165  15.9113777  50.8658266  37.9270172
  39.3815660  52.5737762  11.2703788  39.4477749  52.8630590  10.3603423
  38.4423184  52.5766087  11.4548695  34.3365288  31.6283369  27.3513055
  34.6620750  30.7350373  27.2405553  34.8422503  32.1468663  26.7255235
  62.6744699  30.5639148   1.3450797  62.5630808  30.0427032   2.1401662
  61.8769264  30.4043579   0.8404023  15.9472048  43.9639091   3.8679972
  15.4271889  43.3999252   4.4404808  15.9215713  43.5289288   3.0157253
  73.5416889  25.5669284  69.3746758  74.0470457  26.3760209  69.2958069
  73.3323431  25.5051827  70.3066587   6.7952091  36.5935445  57.9500771
   7.4665862  37.1939039  57.6259565   7.1043462  36.3346481  58.8181973
  16.3233721  60.6697798  11.1987591  16.6038179  60.3903198  10.3272760
  17.0368624  61.2248945  11.5134215  22.6046467  73.3068991  15.8957016
  22.3087692  72.5522709  15.3865540  23.4610438  73.0462456  16.2346363
  23.7844348  45.9550953  18.3223677  24.3837166  45.2292061  18.1486619
  23.7804103  46.0394430  19.2758358  77.7066612  31.3019419   8.9543444
  76.8004036  31.3969326   9.2474365  78.0447102  32.1970534   8.9272881
   6.7817593  39.7628212   0.9157591   7.0598680  39.6229339   1.8209216
   7.5580251  40.1120520   0.4779435  34.1689610  53.3972931   3.9825854
  33.4957290  54.0754175   4.0386343  34.6556807  53.6082745   3.1858274
  46.1994600   9.7121859  64.1717768  46.9440603   9.1609079  63.9311695
  46.0821962   9.5603776  65.1095581  87.4746132  77.4207163  67.8185415
  88.3270931  77.7061558  68.1472206  87.0688534  76.9738960  68.5614729
  12.7161896  57.0642471  68.2840204  12.0454085  56.6690254  67.7271652
  12.9966366  57.8438234  67.8046036  12.6316917  65.6613302   9.3848360
  12.3013365  65.3537703   8.5407364  11.9173717  65.4898453   9.9984884
  42.5381041  72.0039368  36.2368131  42.4012089  71.9766426  35.2898455
  42.6789331  72.9304123  36.4318514  49.8492289  34.9524236  59.1646242
  49.9506617  34.0064335  59.2697191  49.2507792  35.0482965  58.4237432
  32.0570731  13.0501175  72.4300766  31.3548350  13.6978734  72.4892950
  31.7078781  12.3703122  71.8537426  76.7294502   7.4598354  68.6303186
  77.2145844   7.0608395  67.9080439  76.0155153   7.9353249  68.2055378
   1.5025944  41.1018562  24.4582891   1.3184443  40.1973343  24.7115827
   0.9161424  41.6271591  25.0026822  37.7710557  75.6994915  72.3020363
  37.5322080  74.8628187  72.7009869  38.5877943  75.5185270  71.8368292
  27.4472404  75.4020643  14.4238544  26.6837478  75.7058239  13.9328980
  27.4721003  74.4579601  14.2680347  64.7500515  25.1208496  52.7125072
  63.9084673  24.7071433  52.5206184  64.9242783  24.8966050  53.6266184
   2.8123796  39.1089940  31.4150977   2.7750382  38.1541610  31.3591504
   2.4351051  39.3137240  32.2706556  18.5711181  21.1975884  51.5346146
  18.3919096  21.9676089  52.0742273  19.4825375  20.9772110  51.7269135
  71.7538500  18.1913686  67.6463366  71.9241571  17.2951567  67.3564529
  72.0749474  18.2166409  68.5477209  73.4268045  82.2630501   3.7890822
  73.6617756  82.0746422   2.8804994  72.4953794  82.4810886   3.7553161
  38.9747119  83.9279747  19.0636933  39.8914433  83.7803841  19.2961919
  38.5060811  83.1927109  19.4586754   1.4651990  38.8932037   9.7637695
   0.7756689  39.4985461  10.0364232   1.9632140  39.3781471   9.1057104
   9.4380021  52.8083563  18.1096077   8.5368615  53.1021643  17.9759872
   9.8529708  52.9113197  17.2532010  67.7625704   8.5501140  48.1100607
  67.8040886   9.5049196  48.1634808  68.6683893   8.2640213  48.2278728
  26.5679026  49.4258261  20.8375192  25.9286594  49.4762707  21.5481925
  27.3551726  49.8374891  21.1938453  82.2235775  17.7958810  67.5376558
  81.3520145  18.1810796  67.4468899  82.8218365  18.5409164  67.4807024
  44.0606785  66.3388968  21.0916114  44.6701908  66.0073805  21.7510223
  44.1795349  65.7565451  20.3412986  82.7455711  10.3854489  59.6647787
  82.8231430  10.3334868  60.6174135  81.8205738  10.2120674  59.4899845
  14.4602466   8.6108851  52.1208763  14.9078286   8.1961310  51.3833952
  15.0709724   8.5217637  52.8525209  73.7186146  76.8042278  16.1452687
  73.0844259  76.1860228  15.7821488  74.4747972  76.2642765  16.3752127
   1.7897363  51.2192965  11.2639225   2.0433567  50.3382826  11.5390980
   0.8382160  51.1760235  11.1692202  61.0301113   8.0301970  66.4026213
  61.4980412   8.7389916  65.9611654  61.5694571   7.2546047  66.2483597
   7.0128953  63.6773586   9.7638190   6.6138840  64.4129133  10.2285540
   6.6718209  62.9005766  10.2071130  31.8600464  64.1299677  12.9122043
  31.6916037  63.2867193  13.3326745  31.9891715  63.9153862  11.9883454
  18.0703855  27.6434302   9.8759532  18.2928467  27.4562430  10.7879317
  18.6103547  28.4002566   9.6481895  28.5744357  53.0214548  25.6054688
  28.4395838  52.6192570  26.4635372  28.7432957  53.9439249  25.7972121
  58.1308651  58.3605766  66.3854361  57.3329926  58.1135702  65.9178638
  58.0162382  59.2907667  66.5799522   9.7800684  68.9227486   1.8321349
   9.3086040  69.0582228   1.0101857  10.1423085  69.7828007   2.0450343
  54.3341064  49.6178722  16.8746459  54.3518305  48.8865948  17.4920225
  55.0682402  49.4502878  16.2837195  84.8588085  59.2034960  47.6719189
  84.9435902  59.6557045  46.8325424  84.4207573  59.8358870  48.2415009
  70.9440613   7.3891872  72.0032597  71.0219574   6.8293452  72.7757502
  70.0118923   7.3700798  71.7866278  48.3342552  20.5846477   8.4671086
  48.7373781  20.7319498   9.3226939  47.6168633  21.2171555   8.4282649
  16.8840075  29.6094394  14.8811197  16.2510991  29.5614147  14.1646338
  17.6437676  30.0499797  14.5004356  56.6405010  73.9646435  61.6301966
  56.5330315  73.0272770  61.4688730  56.3725281  74.3809414  60.8109808
  54.6783543  46.8910599  66.5756035  55.1803684  47.0144796  67.3812008
  54.9872303  46.0549641  66.2266350  16.4385545  20.5049777  65.6928873
  16.7632532  21.2335944  65.1638079  15.5613708  20.3327346  65.3506660
  32.9782065  67.1036994   0.4343153  33.2343774  67.2679411  -0.4732298
  33.3855416  66.2648021   0.6500888  68.2530117   3.6178058  71.3444901
  68.7320805   3.9031714  70.5664825  67.9138565   2.7531117  71.1131620
  23.9799833  59.6384859  33.5887623  23.5139847  58.8030577  33.5550332
  24.8926091  59.3974352  33.7476349  49.2239046  60.7307434   6.7072523
  49.0520906  61.3287926   5.9798950  48.3949995  60.6892729   7.1841514
  23.6390924  49.1215515  28.1682277  23.3801699  48.3929205  27.6040578
  23.4388661  48.8209772  29.0546799  17.5492501  34.2789078  12.1461415
  18.4638894  34.3180203  11.8666136  17.0488858  34.2867327  11.3301730
   1.0730337  42.7469349  19.5007885   0.2286564  42.6785803  19.9464190
   1.3822219  43.6289358  19.7074544  23.6011338  41.3081884  21.3584352
  23.2661033  40.5018568  20.9662390  24.5375967  41.2997150  21.1604476
  17.8941000  23.3367467  16.8834281  17.4640477  22.5624084  16.5205431
  17.8369033  23.9909482  16.1870217  20.9979033  28.2286549  11.9090450
  21.5330577  28.2377577  11.1154723  20.2253175  28.7465262  11.6828775
  39.3024564  78.9373922   3.3309624  39.3226147  78.3084202   2.6096979
  39.4705582  79.7833395   2.9158202  68.3976173   6.8046141  71.6006947
  68.0067873   6.9250834  70.7352686  67.6895618   7.0041192  72.2131395
  70.9128428   0.9699231  73.9522123  70.8269262   1.0000850  72.9993534
  71.8468523   1.1042879  74.1128492   3.6450738  55.9737825  26.6544080
   4.4330683  56.5171909  26.6561413   3.9288160  55.1392460  27.0275927
  71.3517237  14.1463614  65.9480190  72.2684765  14.4199383  65.9170914
  70.9872818  14.6145105  66.6991806  11.4397144  26.5527773  35.9952068
  11.6365588  25.9597325  35.2700996  11.8138504  27.3919034  35.7266521
  22.2123718  30.9498477  17.9350877  21.5063167  30.8870006  17.2918403
  21.8508649  31.4933348  18.6352062  70.0306463   5.0971550  73.4241533
  69.3829107   5.1408702  72.7207613  69.6722364   4.4584420  74.0404463
  87.1477127  21.5332031  70.2499199  87.3632431  20.6127572  70.4001236
  86.1991405  21.5392685  70.1218605  61.3993406  75.5561972  25.2298117
  61.2866402  75.2766609  26.1383200  62.0068645  76.2941933  25.2798986
  49.2729616  84.0003681  74.3130970  49.6493864  84.6897984  73.7660837
  48.3433437  83.9944649  74.0850592  53.9123964  36.0164666   0.8374575
  54.2064476  35.3490686   1.4574116  53.9890099  36.8405056   1.3184160
  55.9967232  63.4250402  69.9916553  55.9016752  64.2932177  70.3834009
  56.4302397  62.9035950  70.6672239  18.1523681  34.5940280   2.6906064
  18.3328152  33.7030792   2.3908044  17.7480578  35.0231981   1.9365644
  86.2375450  18.2613981  54.1110897  85.6680107  19.0171027  54.2552328
  86.4584064  17.9566109  54.9911785  78.4793377  13.6186337  63.2352114
  78.7666512  12.7145517  63.1074762  78.7982988  13.8503468  64.1074562
  61.5305281  15.6006110  59.8696280  61.4263058  15.6278336  58.9185047
  62.2628927  15.0012434  60.0132608  37.1108794  59.6793127  11.1840105
  37.9492545  60.1135254  11.0264707  36.4793563  60.3953886  11.2521648
  69.9691248   0.3783568  70.1785755  70.3620386  -0.4944722  70.1740217
  70.7012796   0.9696966  70.3532124  83.3595085  49.7990704  30.8045650
  84.3119431  49.8188972  30.7111812  83.0704594  50.6569958  30.4936767
  23.6359739  65.7144880  38.1741595  23.3765268  64.9364567  37.6806211
  24.5926046  65.7109880  38.1413150  39.9923134  21.0028315   5.8505559
  40.2153397  21.2561512   6.7462796  40.5047321  20.2102017   5.6911820
  58.3418274  83.0904961   6.8164080  58.0084324  83.0716610   7.7134717
  59.1289711  82.5464535   6.8419605   3.5295534  29.0047956  72.3016071
   3.9391473  28.1918168  72.5974655   2.8589052  29.1883183  72.9594660
  28.1059670  59.4099712   9.2532891  29.0417862  59.4214201   9.0524375
  27.6847291  59.7142458   8.4494179  40.3001261  56.2098169  24.5194006
  40.2796793  55.6740141  23.7264776  41.2151241  56.4779520  24.6037531
   9.0695262  18.8894618  63.9894819   8.2739490  18.3852148  64.1598463
   9.5382631  18.8865364  64.8240519  30.1353264  67.4507380  58.8792133
  30.5829310  66.8388748  58.2948256  29.2421269  67.1123266  58.9417076
  48.0062199  51.6077995  11.2438715  47.0902634  51.6894817  10.9781969
  48.1246376  52.2873783  11.9074833  15.7794452  57.2305250  14.6529651
  14.9139440  57.6079321  14.8101449  15.9384847  57.3761845  13.7203765
  43.1401825  59.5946693  46.6623926  42.2561026  59.7202206  47.0071745
  43.2175303  58.6484337  46.5403652  25.9112620  72.7135229  26.0490847
  26.3612843  73.4675407  26.4300942  25.0048494  72.8014803  26.3438916
  35.8399677  12.6275873  71.7818022  35.2878141  12.4647856  72.5465584
  35.8012581  11.8129778  71.2806559  56.9799232  80.4508018  56.3410997
  56.2216902  80.0372314  56.7537403  56.7556047  81.3806534  56.3052654
   3.1003490  19.1679716  64.0214109   3.2415637  19.9946558  64.4828033
   3.0257666  19.4174707  63.1003141  40.1875019  66.3627291   8.6306727
  40.9639978  66.1996174   9.1660923  40.1261091  65.5978298   8.0584908
  46.7842388  63.5348129   3.5055125  47.4920130  64.1341877   3.7422344
  46.1887741  64.0647602   2.9755980  13.2859910  48.9661455  25.5176258
  13.1212068  49.6760702  26.1381769  13.1503093  49.3635845  24.6574712
  58.8725424  28.1010771  70.2532768  59.7916508  28.0480766  70.5153131
  58.7238503  29.0321398  70.0882196  19.6450639  14.2669785  61.0111570
  18.8119888  13.9349401  61.3457775  19.4516349  15.1621175  60.7326889
  66.6900253  82.7913475  34.4626689  67.3488808  83.2930374  33.9826107
  66.8262196  83.0323124  35.3789759  29.4082832  73.2422256  45.8013630
  28.7881184  72.8769398  46.4323902  30.2690864  73.0092335  46.1491632
  18.7330961  29.2459393  71.8035460  17.8217006  29.5080447  71.9335127
  19.1679597  30.0388789  71.4899015  22.8863382  85.8994579  14.3531215
  23.2591534  86.6196442  14.8616219  23.4627366  85.1564789  14.5319462
  28.0341625  26.8837309  16.8252242  27.4878955  27.2177005  16.1136842
  28.6896849  27.5671101  16.9649184  56.3035393  81.3056278  37.5004005
  55.9326887  81.0902596  36.6446447  56.1202240  82.2383308  37.6130176
   3.7580058   5.3701687  16.6414928   3.8793716   4.7438186  17.3550665
   2.9674339   5.0711840  16.1922312  43.7568808  56.5873575  60.1796579
  43.1092787  57.1395874  59.7416162  43.5253859  55.6953812  59.9207830
  25.7435012  53.8899660  40.4881811  25.1837301  53.5635138  41.1926794
  26.3948727  54.4330883  40.9319925  84.1861534  55.6701803  25.2193880
  84.4854736  56.5431786  25.4733920  84.8493671  55.3594971  24.6030593
  47.1746159  48.4376192  27.4579263  47.5821018  47.9984808  28.2044816
  47.8737926  48.5025549  26.8074083  28.2799602  58.3969069   2.5453416
  29.1180873  58.7662601   2.2672215  27.6844645  58.5803461   1.8187281
  30.9959579  79.0991974   3.8686171  30.8969951  78.1859970   4.1378948
  30.1044750  79.4477367   3.8716087  40.7737350   6.3106030   6.3096905
  41.3801384   5.6642270   5.9481645  39.9410844   6.1275566   5.8744639
  86.0670185  39.2933774  27.5981236  85.2657890  39.5245481  28.0680394
  85.8160400  38.5521150  27.0469713   7.5277197  62.6797962  32.4120021
   7.6489043  63.6289454  32.3862433   7.8740752  62.4171782  33.2648206
  14.1761076  27.7730274  17.6259100  14.7670043  27.1089888  17.9810512
  14.5304751  28.6035228  17.9436052  75.4852200   8.3018446  12.6256800
  75.6065559   8.8237715  11.8325210  74.5412159   8.3210081  12.7829266
  47.1773481  74.6604633   2.4259758  47.4742174  75.5442381   2.6428717
  47.6413012  74.0939188   3.0424240   6.7699671  29.1984463  68.8606882
   7.3590899  28.4596634  69.0135384   6.1026341  28.8538456  68.2672644
  53.3462334   7.3778671  12.2514904  53.9620638   7.0945102  12.9272842
  53.0797529   6.5683770  11.8156636  90.9897900  42.5533009  36.4551711
  91.3314533  41.8567705  35.8945036  90.0630188  42.6142168  36.2236404
  28.9858508  42.0146084  15.2134407  28.6279750  41.5006781  14.4895434
  29.8007441  41.5684938  15.4440045  85.6020832   1.8582913  60.3534651
  86.2289047   1.9737086  61.0676098  85.7209969   2.6322767  59.8029757
  16.2637901  58.1819725  55.4179621  16.0422969  57.9477501  54.5166779
  17.1946120  58.4028673  55.3861761  39.1911626  45.1393557  34.2612076
  39.2621207  45.4412508  35.1667762  38.4277177  45.6007290  33.9140487
   4.7843885  56.0032415   4.0201679   5.1102442  56.4419603   3.2343069
   4.3665749  56.6993237   4.5272511  86.4229202  64.9337244  34.2554045
  87.0789146  65.5949640  34.0347910  86.8449211  64.3904161  34.9209619
  13.7032008  30.3588367  70.2701378  14.3028402  30.3078365  71.0144949
  12.9293191  30.8034682  70.6160259  87.6785469   3.1224877  34.1781306
  88.3535194   3.7755471  33.9933228  86.8577290   3.5512781  33.9360070
   8.8300240  17.0228183  70.8752966   8.5627949  17.8959942  70.5882692
   9.6858245  17.1561277  71.2828112  29.8151994  65.6217337  37.6691055
  29.1645288  65.1396942  37.1587133  30.6143403  65.1005650  37.5917268
  90.7246113  51.0058117  47.2674942  90.2439976  51.1010885  46.4452028
  90.0444889  50.9761858  47.9403877   1.9337776  13.0845833  72.6062346
   2.2450241  13.9897215  72.5971556   2.5366136  12.6299024  73.1945229
   5.9309083  25.8106422  53.9305258   5.7896936  26.6852021  53.5679913
   5.1699072  25.6578159  54.4906616  54.8279238  54.5908737   0.7444505
  53.9163876  54.3960428   0.5268098  54.8316813  55.5270195   0.9440800
  23.2604146  35.0254536  71.6213179  22.8266025  34.6628165  72.3936701
  24.1784787  35.1085639  71.8791580  73.2830954  34.3050075  59.7035694
  73.3244181  33.8355994  60.5367470  73.9407778  34.9957085  59.7849274
   0.6688303  26.9975471  20.5379367   1.0750982  26.4511704  19.8651421
   0.8214715  27.8949833  20.2420616   5.4262596  22.0533729  56.8678522
   6.1071688  22.2777295  57.5020885   5.7979566  21.3298655  56.3632631
  45.8061314  56.5090370  11.9614887  46.0846567  57.1925020  12.5710213
  45.0192213  56.1381578  12.3608065  86.2118244   0.3172068  72.3485994
  86.1171627  -0.4628810  71.8020344  86.3641071   1.0285250  71.7264557
  88.9603233   4.1287673  58.3452463  89.6990585   4.5645922  57.9203176
  88.1865501   4.5077741  57.9282951  85.8295250  46.2209940  10.7187915
  85.8212662  46.3634825   9.7722930  84.9651718  45.8590603  10.9140670
  87.9705048  35.9409595  33.7707901  87.9008770  36.8435407  33.4597802
  87.1438122  35.5339074  33.5117173  67.7533960  45.3682184   8.2433474
  67.7374363  44.7700453   8.9904517  66.8383026  45.6195450   8.1181592
  88.5491657   4.7651982  61.1110353  88.2758904   5.6721151  60.9730005
  88.9975166   4.5241281  60.3004217  29.3439054  33.8177800  28.2665014
  29.8586583  33.0625653  27.9820514  29.9958897  34.4850850  28.4806371
  54.3808508  61.7800760   3.6613008  53.9925909  60.9416342   3.9113051
  54.1120338  61.9066763   2.7513880  65.4771948  39.3908763  14.3965042
  64.6110773  39.7793508  14.2733729  65.5764437  38.7883592  13.6593783
  10.5099046  55.6404066   8.2821447  10.2915895  54.7591305   8.5853297
   9.6718323  56.1025763   8.2659012  72.2120285  21.7684126  62.3720121
  71.2732077  21.7853832  62.5579262  72.3045349  21.1306810  61.6642141
  55.8509016  38.3756495  72.2177410  55.2313423  39.1052866  72.2148466
  55.9311199  38.1259012  71.2971878  56.1395645  17.6549041  16.3755774
  55.8661222  17.2465277  17.1969712  56.9099903  18.1722546  16.6101551
  81.7879963  22.1214318   7.6101100  81.8468666  22.8734016   8.1994373
  81.4479828  22.4842024   6.7921704  63.7234020  77.0994091  43.1809807
  62.8998232  77.0395088  43.6650801  64.3955421  77.1665239  43.8591814
  31.3433623  69.1145372   5.1716870  31.9410229  68.3718681   5.2581877
  30.6040692  68.7699461   4.6707544  45.1560163  16.7284560  44.1189861
  44.6474266  17.1114552  43.4042311  46.0624504  16.7631745  43.8133669
  77.4444151  38.9340997  48.3673191  76.7302561  39.2465544  47.8118229
  78.0404711  38.4902239  47.7640533   5.1886433  31.7821312  53.3422709
   5.0901091  32.7148175  53.1509113   6.0725522  31.5684080  53.0435085
  71.9916201  29.6935415  64.8491049  71.9617891  29.5516324  63.9029551
  72.3959398  30.5553389  64.9494076  56.7404842  84.5207024   4.8136052
  56.5484333  83.8420296   4.1664952  57.3667812  84.1117668   5.4108977
  22.1258402  65.8084774  47.5295734  22.2662592  66.7534637  47.4702692
  22.8799725  65.4847288  48.0222225  76.5382910   9.9380308   9.8162407
  77.3365355  10.3265715   9.4583678  75.8302402  10.3365326   9.3101859
  42.5649643  59.7282267  23.0715489  43.5081863  59.6250200  22.9454136
  42.1954298  59.6469545  22.1923041  41.9146109  46.8873405  25.0610137
  41.5016127  46.4605474  25.8116889  42.0224619  47.7987003  25.3330898
  80.3397465  63.7130547  67.6898861  79.8317909  63.4097242  68.4423542
  80.5225945  64.6332788  67.8795958  14.9000573  35.9007835  32.4882340
  14.3077505  36.3007140  33.1249905  15.7431221  36.3259745  32.6453495
  38.5718584  43.4544706   7.8994060  38.7763047  42.5521755   8.1449717
  38.3673644  43.4080410   6.9654578  42.4786711  57.4785948  17.1169508
  41.5620470  57.5805092  17.3731613  42.7249527  58.3332825  16.7632651
  26.3345623  43.6052513   0.2672699  25.9111214  43.5304356  -0.5879100
  26.0565042  44.4592524   0.5983216  49.8035192  38.1753087   3.8869902
  49.4707918  38.9933205   3.5176930  50.7070351  38.3736444   4.1330773
  48.7559175  81.9599056  70.1512384  49.4574070  82.1476555  70.7748556
  47.9608774  81.9400215  70.6839132  37.1022439  67.3482847  63.2293653
  36.1792994  67.1181393  63.3363295  37.4510574  67.3598671  64.1206694
  11.9946718  68.0578375  20.5396724  12.3212016  67.5008392  21.2463260
  12.6861453  68.7062597  20.4068255  16.2126362  30.8267069  55.4565287
  15.3086007  30.5228853  55.5380344  16.2724447  31.5657401  56.0619068
  43.4033918  83.5879612  34.4827223  42.8530264  83.0136299  35.0151443
  44.2647505  83.5468578  34.8981786  11.1012852  50.5593538  13.4500170
  11.5993488  49.7870541  13.7178063  11.1094332  51.1283445  14.2197025
  70.4120398  56.0887289  64.3005753  71.3086319  55.8303118  64.5140600
  69.9768496  56.1672878  65.1494980  62.6392937  80.7072830  64.6630573
  63.3667278  81.1167049  64.1946125  62.1509647  81.4413548  65.0357533
  46.3793707  82.4022770  37.7909112  46.4182663  81.5608120  37.3363185
  46.2007189  83.0398941  37.0997071  66.5686703  51.5244007  11.8688560
  66.6230583  51.3480330  12.8080940  66.9419289  52.3999882  11.7675662
  10.6253898  63.4410572   2.8854483  10.0858009  63.8108444   3.5842568
  10.0012302  63.0014038   2.3080777  74.8992157  65.7762861  62.8753948
  75.2112818  66.4569759  62.2791529  74.6721363  65.0428677  62.3037624
  46.1555767  71.5314102  31.4547849  46.9889164  71.3218737  31.0330415
  45.5692196  70.8218098  31.1923313  23.4516120  78.0081558   1.9716138
  24.0149426  78.7442160   1.7326424  24.0588427  77.2906494   2.1524106
  53.5741282  24.9733639  15.3492510  53.9762592  25.4209709  14.6048236
  53.9631128  24.0988016  15.3414929  51.2854338  52.6657152  10.6426001
  52.0502234  52.1651316  10.3584409  50.5809164  52.3765135  10.0627315
   6.9867611  68.9560509   5.6985414   7.7896380  68.7143612   6.1602843
   6.5541768  69.5804167   6.2810141  10.6432092  20.7602763  66.4254522
  11.2345672  20.0377321  66.2145996   9.7671282  20.3811669  66.3548088
  57.6717901   7.2287035   7.6752269  57.1815348   6.8813419   6.9300950
  58.3261442   7.8067493   7.2829056  45.1037407  70.9955692   7.9493231
  45.9007025  71.5012646   8.1085485  44.7963142  70.7517958   8.8224196
  41.7805958  65.6941032  36.4170647  42.2492838  66.3970470  35.9671378
  41.3701391  66.1224413  37.1682549  30.0860763  56.3759851  22.2699952
  30.9257221  56.8335819  22.2272086  29.9564838  56.0301924  21.3868952
  24.0829659  58.9715099  10.3158236  23.6567283  59.8280811  10.3447843
  23.3910728  58.3517504  10.5469453  34.4339943  42.6623344  22.4312043
  34.3090677  43.2430029  21.6805744  35.3106833  42.2980595  22.3089290
  66.7317438  13.5220361  12.3433518  67.5786543  13.6601913  12.7674806
  66.9316626  13.5105813  11.4073324  59.2134428  13.4386981  22.5066233
  59.9570417  13.8974261  22.1156573  59.3598413  12.5177002  22.2908473
  80.2929974  80.1291847  69.7150755  79.6637630  80.6316376  70.2326059
  81.0990047  80.1509380  70.2309370  22.1993971  84.4082546   6.9519919
  22.8035688  84.4251442   6.2097508  21.6136956  83.6740112   6.7674100
  34.3069363  24.0501237  45.3658056  33.7293673  23.3149886  45.1603222
  33.7955618  24.5970798  45.9620953  59.9274731  78.5553312  13.6041701
  59.2517233  78.7493420  14.2537498  60.3741646  79.3906355  13.4664392
  46.3423777  60.8577442  12.5096989  46.5213346  61.6614389  12.9978442
  46.1401939  60.2083969  13.1832695  29.8018527  53.1852341  22.7200866
  30.5613375  53.6387444  23.0857944  29.1396642  53.2326078  23.4096479
  69.9131393  79.7467375  23.1586170  69.6961069  78.8632774  22.8609204
  70.5285597  80.0758076  22.5034809  14.5194757   4.6666738  53.2965088
  13.6719215   4.8655820  53.6944008  14.3856943   4.8162612  52.3605824
  23.5243154  71.4789820   8.0976820  22.7002406  71.0747814   8.3692551
  24.0394402  70.7557535   7.7401662   0.6011499  55.8625984   7.8768247
   0.4937662  56.7896461   7.6640201  -0.1283537  55.6656790   8.4644318
  35.4725385  51.4958620  20.8334088  34.7193861  50.9893656  20.5293393
  36.2158990  51.1316776  20.3527641  87.5701332  23.9536119  67.4214983
  87.5232124  24.4759369  66.6207409  86.8165684  24.2390227  67.9381323
   0.7056229  12.4072814  66.7864895   1.1187845  11.6202044  66.4314699
   1.0353503  13.1190634  66.2379646   0.8053246  27.2864914  56.5852547
   0.1562182  27.4634743  55.9043932   1.1428376  28.1496501  56.8245745
   1.1017524   1.0549136  73.4575415   1.5270263   0.4680404  74.0828037
   0.6384146   0.4705238  72.8575087  69.4357586  68.2547569  40.0758743
  69.7296953  67.4375772  39.6733141  70.2425575  68.7389183  40.2516556
  14.5248497   5.8879298  60.3734493  15.4335928   5.6126934  60.2523565
  14.0710127   5.0958312  60.6612778  12.6836705  80.9860229  10.5875814
  12.4233508  80.4141331  11.3096619  12.4248123  80.5091286   9.7990459
   8.2415473  40.9901428   7.9344022   8.8241440  40.2365875   8.0290979
   7.3683095  40.6418753   8.1143945   1.4969525   1.9276403  62.9629469
   1.5819742   2.4362060  63.7693977   0.5643097   1.9682485  62.7513790
  65.8356762  12.6130521  40.1608133  65.1500463  12.9218602  40.7530880
  66.4371586  13.3536780  40.0838614   5.9077257   5.5660766  61.2743330
   6.4181292   4.7809184  61.0762262   5.0133044   5.2465969  61.3933945
  28.9630771  16.7936146   8.5531545  29.3029094  17.1429133   9.3770099
  28.0123782  16.8691480   8.6350042  20.1124525  82.9089260  28.0058980
  20.3299856  82.2544384  27.3421574  19.3103945  83.3198261  27.6832652
  32.6345468  19.7388875  54.2726326  33.1467938  19.4067347  53.5353994
  31.9225311  20.2329898  53.8662672  21.2583232   6.7105740  72.1704292
  20.4411960   6.2198997  72.0822716  20.9830713   7.5891382  72.4323320
  45.7766104   2.1273524   5.7623541  46.5364122   2.7069271   5.7073677
  45.2603626   2.3346694   4.9834192  28.2962537  70.3196001  18.6308765
  28.6468005  69.4563532  18.8503194  27.4370050  70.1393175  18.2495391
  23.8373137  33.1465864  30.3133535  24.6743822  33.5010505  30.0135136
  23.6451030  32.4360776  29.7014189   3.2084200  29.3592572  63.1873560
   2.4706385  28.9676595  63.6548615   3.1146666  30.3000236  63.3370256
  65.3794193  16.8703055  40.2340603  65.5205584  17.2928011  41.0812998
  65.7505417  17.4809086  39.5971465  78.3601904  49.4587708  49.7440958
  79.1377449  49.9174118  50.0623512  77.6267815  49.9194908  50.1516294
  20.2951193  58.8029385  46.7749739  19.3445802  58.8155794  46.8869781
  20.5323792  57.8783321  46.8459702  13.2947087  69.4876766  14.5988667
  13.7330163  68.9135647  15.2269733  12.5797105  69.8850155  15.0959885
  53.3939505  84.1745663  48.4074545  52.9976988  84.8384762  48.9717627
  53.8734055  83.6044693  49.0085745  74.1784525  74.4489098  13.1402194
  74.3804264  74.9222755  12.3331499  75.0270319  74.1347647  13.4524000
  87.0485210  62.8576374   5.8241862  87.2725964  63.5586739   5.2121657
  86.1428547  62.6334095   5.6103575  74.7660780  13.6196923  39.0281630
  73.9303112  13.1947267  38.8354731  74.8242569  13.6115563  39.9835587
   1.3714804   3.3513868  42.0582962   1.1722019   2.4858767  42.4152422
   1.0901085   3.9620343  42.7395964  34.6363282  79.7866011  15.9617472
  35.2864957  79.9501371  15.2785420  33.9762330  80.4675579  15.8321345
  39.7133422  71.9469738  66.1301804  38.8541317  71.9962311  66.5491819
  40.3057480  72.3763990  66.7473364   8.3572292   1.2779357  53.3728409
   8.1007743   1.0438152  54.2648363   8.9469838   2.0240438  53.4812117
  84.6433449  35.3403783  56.2043190  84.3896294  34.6662688  56.8347454
  84.8321056  34.8571396  55.3999090  32.4249005  60.3407621   3.7315622
  32.9760075  61.0235071   3.3489797  32.0351148  59.8973846   2.9780909
  12.6349568  32.7029014  73.7867498  11.7294621  32.5319052  74.0457296
  13.0027497  31.8360186  73.6150789   0.5342829   7.8453630  29.0891099
   0.1722162   7.9761529  29.9654865   0.2502967   6.9654346  28.8415027
  63.6281776  49.6909714   9.1127264  62.6948881  49.8696280   9.2279959
  63.7792063  49.8023081   8.1740969  36.6530871  56.0983419  33.0025554
  35.9590983  55.8338261  32.3987007  37.4476147  56.0991478  32.4687433
  61.0740376  71.7520046  15.5906093  61.9658470  71.5133095  15.8434594
  60.7885838  72.3643017  16.2687242  40.4500198  75.8033752  42.0746326
  40.1101017  75.4141855  42.8803730  39.7195339  76.3170815  41.7300606
  67.5782108  14.8640800  73.3981085  68.4409666  15.0396919  73.7736702
  67.4531031  15.5578876  72.7506447  25.3750706  30.8129263  60.4165506
  24.5373249  30.6632113  60.8547258  25.2891183  30.3639126  59.5755816
  21.6203570  13.4396636  59.1927958  22.4219394  13.6718738  59.6615982
  20.9363699  13.4623599  59.8620319  43.8157654  48.2194805   5.3123778
  42.8619957  48.2993460   5.3257108  44.0534592  48.3409691   4.3931538
  64.1638994  55.3828669  32.5440621  64.5345306  54.6350765  33.0127525
  63.2232809  55.2073193  32.5186443  34.7657251  58.3873892   8.0547470
  35.3258753  59.1185141   7.7941334  33.9752603  58.8024521   8.3998775
  82.3994637  30.5170536  56.2223482  81.8909550  30.9594989  55.5427170
  82.7829838  29.7598863  55.7798052   0.9999948  13.7893724  64.1494370
   1.5447457  14.0775740  63.4170294   0.2028299  13.4553552  63.7381077
   5.7469088   5.7697278  73.8766575   6.4893353   6.3114953  73.6092234
   5.1762289   6.3671881  74.3599796  40.2269697  48.4564352   6.2888980
  40.4474974  48.7261295   7.1804494  39.4456148  48.9647198   6.0712641
  10.6598377   4.3560606  73.9460945   9.9798006   3.6840522  73.9928579
  10.8862936   4.5316106  74.8594046  81.9449615  68.0396128  51.8807364
  82.5207615  67.6875591  51.2019587  81.1919880  68.3845425  51.4008570
  84.2180347  29.9942327   2.0557345  83.6256790  29.3007112   1.7652451
  83.9646912  30.1609111   2.9636264  71.2698078  19.1548884  63.2468653
  71.0582542  18.2634127  63.5238934  71.8941402  19.0412092  62.5302601
  75.7147551  27.5732636  68.4239101  76.6609430  27.7029109  68.4883118
  75.3996992  28.3411217  67.9470825  24.9322915   9.4692171  52.5920010
  25.4823327   8.9976841  51.9664240  25.0955820   9.0350628  53.4293032
  81.7062855   5.2721423   4.3413278  81.3594818   6.0357386   3.8799354
  82.5125599   5.0552469   3.8732338  88.0693817  17.4847007  62.1934700
  87.8270626  17.7087843  63.0919695  88.5601997  16.6669321  62.2746325
  22.2918963  33.2864809  64.6587944  23.0673671  33.7983942  64.4289684
  22.5627637  32.3758674  64.5419884  60.6200457   3.9193180  17.9008901
  60.7205343   4.1151398  16.9693387  61.2668705   3.2350299  18.0729270
  62.1010399  85.7754898  47.6103592  61.4882421  85.3260899  48.1923771
  62.6899672  86.2462997  48.2000542  74.3757915  15.1582992   2.2655578
  73.6207247  14.6553230   1.9604088  74.0282965  16.0344088   2.4326289
  10.8388388  57.2446442  64.1268158  11.5564787  57.3220205  63.4981346
  10.0591505  57.1188593  63.5859871  19.6696460  35.5708027  71.0426521
  19.4175863  34.7778559  71.5158701  19.2585278  35.4777455  70.1832628
   2.3829406   1.3923165  27.9117656   1.8691501   0.6651986  27.5602674
   3.0677250   1.5391603  27.2592783  35.8467698  62.6669884  48.2796669
  36.6797566  62.2023678  48.3602428  36.0796905  63.5919380  48.3599806
  74.3124580  57.0685577   5.1811641  73.9085865  56.9062901   6.0336852
  74.5097637  58.0051947   5.1839912  48.8352966  69.3718624  21.7630196
  48.4825706  70.2280283  21.5205383  48.3140087  68.7466860  21.2593889
  72.4394321  28.6058903  30.1099539  71.5928173  28.2953978  29.7889090
  72.8064442  29.1008973  29.3774915  36.0926986  70.8327389  22.9532504
  35.2913117  70.8862972  22.4325371  36.5689230  70.0889730  22.5841165
  31.8807054  83.5046768  32.7187634  32.1249771  84.3564415  32.3567367
  31.1258388  83.2306194  32.1978998  89.7509670  37.1563649  15.9187567
  88.9061546  37.5768924  16.0790336  89.5817566  36.5442228  15.2025986
  10.6192350  34.7811627  66.1266232   9.6885216  34.8809075  65.9264898
  10.8422661  35.5664921  66.6263676  71.8261480  58.9900064  70.8413649
  71.5703201  58.0929756  70.6266022  72.3003864  59.2954779  70.0680494
  70.4953098  17.4851823  28.8344479  69.9291039  16.7332041  29.0081525
  69.9155474  18.2433617  28.9070344   0.5436225  48.0149174  40.4115486
   0.4622125  47.7951574  39.4834805   0.2016898  47.2475386  40.8702850
  29.1108561  78.8253593  23.3322811  29.4141531  78.4254408  22.5172305
  28.1566525  78.8290215  23.2566905  79.2201519   4.2666739  50.3063154
  78.6600208   3.6124948  50.7240915  79.0262794   5.0803405  50.7717133
  46.7098761  65.2712202  21.5625620  46.6626310  64.3369055  21.7651796
  47.3736715  65.3341007  20.8757949   7.1333331  23.9419913  39.4008446
   6.6390276  23.5780811  40.1353264   7.9064846  24.3364096  39.8044562
  63.1244469   7.7048522  17.6189363  62.5799608   8.2438684  18.1927216
  63.1334066   6.8437332  18.0368185   5.0703442  21.0712337  61.7279387
   4.3067667  20.8097720  61.2133312   5.7285988  20.4033089  61.5360785
   5.2049333  72.8431702  26.1022711   4.5809889  72.2539806  25.6782675
   4.8939770  73.7209511  25.8808160  14.1854382  34.8110652   7.2936833
  14.5250273  34.0805626   6.7766935  14.0668547  34.4484782   8.1715780
  63.4923077   4.5085636  25.9029603  64.2827415   4.7195980  26.3998580
  63.0031872   5.3307176  25.8704686  20.3526783  37.6273060  65.5955744
  21.1729336  37.2955370  65.2304125  19.8764980  37.9723310  64.8402977
  82.9693985  20.3596187  53.4845829  82.6375675  19.4823170  53.2936144
  82.9682541  20.4133439  54.4402742  10.2560163  74.4437790  19.0952027
  10.7013118  74.2411518  18.2724726   9.5912141  75.0892305  18.8550746
  18.8526249  51.2866926  21.9816685  18.5008323  51.3640261  21.0948253
  18.5785758  52.0927429  22.4191809  11.1382329  56.7116928  72.5262356
  10.6925893  57.4080706  73.0086136  10.4296315  56.1757946  72.1699667
  72.9440784  12.7071393   2.4123293  72.1025181  13.1510448   2.3076679
  73.1146049  12.7359343   3.3537766   0.6919095  42.2494507  44.8545456
   0.3735694  43.0067825  45.3458071  -0.0522725  41.9846153  44.3139076
  16.8762815  82.2515392   8.5045946  16.1457276  82.7086353   8.9212364
  17.2129107  81.6681004   9.1846758  45.2651596  74.4677925  17.2661507
  44.4622040  74.5917702  17.7722359  45.4170275  73.5229158  17.2855663
  38.5983825  68.1115437   3.8693911  38.8688588  68.9052963   4.3309423
  37.8144240  68.3712530   3.3854559  21.2779903  71.6430330  23.5592651
  20.4952621  71.6086483  23.0093694  21.1699915  72.4388027  24.0801501
   6.4433068  12.9635000  74.1527510   6.6826564  12.4703133  73.3680773
   6.4749271  13.8800275  73.8785076  18.7936366  80.6611633  14.1723657
  18.9991748  79.9062967  13.6208534  18.3833468  80.2844238  14.9508023
   7.1743894  43.5775042  14.7687364   8.0778998  43.7301874  15.0454843
   7.2379279  43.4014606  13.8300121  44.5038605  74.4961786  13.9840591
  44.1438246  75.3317690  13.6867571  44.8149157  74.6718025  14.8721087
  76.2805367  72.2874165  23.6655402  76.6213751  72.7438831  24.4347596
  76.8793344  72.5288773  22.9588795  90.1323891  82.4320316  39.5845151
  89.3629169  81.8699837  39.6753573  89.7887039  83.2538033  39.2340899
  65.2626991  20.9800220   7.5420928  65.6601524  20.6905293   8.3633471
  64.3510056  21.1634445   7.7688122  27.0579267  28.5335565  68.0425167
  27.8193045  27.9606509  68.1337261  26.3084030  27.9382133  68.0462027
   3.4046364  23.9438868  72.1796036   4.0094095  23.2019663  72.1853971
   2.8799045  23.8189888  71.3888502  29.1734672  57.7509737   6.0603678
  28.9893818  57.5485420   6.9776279  28.3526278  58.1118107   5.7253265
  43.1861305  24.8881340   8.1782264  43.3760786  25.3680992   7.3721343
  43.6037445  24.0359020   8.0536056  61.8078899   9.2272508  19.6079183
  62.3635054   9.9752504  19.8270464  61.2199402   9.5566195  18.9281666
  83.9209461  70.0122738  44.6606255  83.8669395  69.4727325  43.8718271
  84.8082733  69.8678398  44.9893093  37.3206854  59.8205042  25.4573154
  38.2564068  59.9545527  25.3066850  37.2746277  59.0211344  25.9818316
  65.6189632   7.0646858  20.3018188  64.8532486   6.4933360  20.3607702
  66.0284233   7.0062661  21.1650467  18.5600591  64.9925423   0.6327553
  19.3446159  64.6072578   0.2425525  17.8705060  64.8371267  -0.0126845
  17.8730762  50.3687716  63.0425692  18.2737148  51.0381746  62.4879265
  16.9466209  50.3816700  62.8022623  47.2466993  81.4896965  14.0602767
  47.1635151  82.4233818  14.2540145  46.3444996  81.1814404  13.9751410
  64.2054319  79.3705130   4.6399075  64.0941143  80.2191162   5.0685394
  63.9028549  79.5136261   3.7431359  30.6791449   4.0581274   2.9817086
  31.4660478   3.6145556   2.6650688  30.9796739   4.9333090   3.2265991
   3.3472726   5.6276262  65.9479570   4.1188836   5.4195148  65.4211378
   3.6939314   6.1026049  66.7032385  85.9654617   1.3220151  25.9315419
  86.6487122   1.1047519  25.2973533  85.2165127   1.5843250  25.3962874
  62.4446201  11.9242156  21.9630933  63.1206846  11.3507998  21.6020393
  61.6534615  11.3854992  21.9722128  80.6529140  45.0581980  54.1304207
  80.0096321  44.3885851  53.8979530  81.2049961  44.6406794  54.7915649
  82.5826931  76.1585951  57.0882463  83.3217239  76.6397142  56.7159796
  82.1345425  76.7984676  57.6413822  45.3926754  79.4806719   9.1196859
  45.9128857  79.0208101   8.4607923  44.9451494  80.1719952   8.6318082
  90.5720901  53.4350777  57.9712963  90.4384518  53.6176443  57.0412207
  89.8153973  52.9054499  58.2225609  80.7600784  63.3742666  17.4574351
  81.1294556  63.0458975  18.2771707  80.6536388  62.5940752  16.9131875
  55.4642820  71.6244459  37.9484653  55.0236940  71.8503332  37.1292639
  56.3003635  71.2473011  37.6746655  14.1850245  42.0724392  72.2873402
  15.1418817  42.0867109  72.2660828  13.9247262  42.9187250  71.9236469
  17.0181727  25.6114459  48.4549332  17.3814070  25.0592756  47.7625418
  16.2745404  26.0525060  48.0441904  31.3926339  78.1908035  29.9926853
  30.7617640  78.1050587  30.7074451  32.2474527  78.1318712  30.4193544
  12.6773250  47.1044207  23.5546279  12.7986002  47.6690245  24.3180037
  13.3706474  46.4486885  23.6291456  27.4991345  86.2188339   9.9395376
  27.6947594  85.2822304   9.9123132  27.2884607  86.4459419   9.0338486
  39.7903991  84.3551064   8.6381465  39.6183801  83.7454987   9.3557948
  39.8933291  83.7957668   7.8682262  43.4787273  21.4693332  73.0292511
  44.2617464  22.0178056  72.9814434  43.2247162  21.3343883  72.1162891
  89.7286606  31.0778928   6.3438135  89.3887043  31.5021586   7.1316314
  89.7749519  31.7798805   5.6947351   5.4496741  15.1978910  30.6478643
   5.6980723  15.8156788  29.9602103   6.0557985  15.3818715  31.3654947
  79.2018175  27.5932622  63.3512354  79.3712425  26.6886854  63.0880499
  78.6398458  27.5170994  64.1223478  23.8590050  70.5562735  21.9753289
  23.2187057  70.7575941  22.6577663  24.4679523  69.9457312  22.3908424
  27.7134943  20.1539779  27.5368738  26.8570447  20.5809832  27.5170326
  27.5720692  19.3131959  27.1017718  61.8207968  83.7460681  73.9817499
  62.4902667  84.3238469  74.3480987  60.9921278  84.1780063  74.1890401
  13.4908187  16.7181730  72.5528860  13.9757860  17.3261321  73.1109381
  13.7888992  15.8510673  72.8276730  38.1000924  50.9029198  20.3745985
  38.3783078  51.5086937  21.0615230  38.3083320  50.0354385  20.7215118
  81.0617542   4.2461056  69.5267916  80.1458168   4.1748875  69.2580605
  81.5230846   4.5214245  68.7345743  16.3447607  12.4649978  71.2949276
  16.2026107  12.5515854  70.3523111  17.2797310  12.2783875  71.3800049
  34.9923277  62.9890156   9.0564197  35.3361058  62.6441479   8.2323349
  35.4556537  63.8172436   9.1813016   3.8525203  23.8345551  66.3763714
   3.5366535  24.3048978  67.1478891   3.7763187  24.4673586  65.6622362
  11.2499022  26.1238241  60.6769180  10.4852462  25.6166101  60.9494352
  10.9245563  26.6904831  59.9774361   0.4620931  41.3595867   1.2307830
  -0.1722209  42.0533991   1.4110659   0.0670969  40.5712461   1.6032448
  47.3122454  63.2393169  33.4212661  48.1393099  63.6146259  33.7234855
  46.9372892  62.8277588  34.1998911  14.9204218  38.9562225  21.9728374
  14.5650876  39.8036575  21.7048407  15.4270244  39.1477060  22.7620912
  70.2373886  60.5111313  13.5360849  70.1663446  60.2967405  14.4662571
  70.5186749  61.4259624  13.5219538  19.2568076  56.0486507  16.6520309
  19.2641997  56.7072153  15.9574318  19.7785568  55.3261900  16.3026619
  20.1382756  19.6672523   3.4198648  20.8194923  19.1863263   3.8898498
  19.3302548  19.4567978   3.8878858  61.7349911  40.9671879  34.7761869
  60.9195662  40.5391073  34.5152998  61.8024015  40.8012819  35.7164884
  90.3650761   8.7989843  66.2065411  90.0541496   8.3095133  65.4449797
  90.8527279   8.1562263  66.7216015  37.3480368  69.3968248  73.9911699
  37.5227809  70.2034092  73.5062742  38.1715846  69.2034197  74.4390440
  60.2717686  51.2178946  20.8567095  59.8006010  51.8676567  20.3351331
  60.6244850  51.7138767  21.5955091  65.9574413  66.3241339  73.7358522
  65.7812834  67.2590876  73.8410044  65.9735632  65.9814596  74.6294641
  63.7783766  79.3155813  59.4547701  63.0890942  79.5791864  60.0643826
  63.7350655  79.9620390  58.7501812   0.3825747  41.7680788  51.9238567
   0.7236813  41.8482637  51.0330963   0.9063463  42.3832178  52.4371815
  71.3635111  81.4155769  54.0848255  72.2459269  81.6043472  53.7655354
  70.8759499  82.2254086  53.9341974  34.0845704   9.1960526  40.6996393
  33.3436751   8.9597577  40.1415396  33.8290238  10.0284147  41.0972595
  34.9773693  70.2379179  25.5131936  35.3767872  70.4993486  24.6835208
  34.0734172  70.5466413  25.4516220  63.3998346  64.2183971   4.1127717
  63.5770464  64.7913933   4.8587617  63.8615847  64.6279764   3.3811569
  78.3347559  64.7187853  63.8768959  78.1353521  64.5528412  62.9555225
  77.5233507  64.5086479  64.3391705  15.6057286  11.4643931  58.0138636
  15.4156744  11.9294488  57.1991014  16.1455393  10.7210457  57.7450323
  53.1917477  85.0671768  37.4160314  52.7527666  85.3619194  36.6181254
  52.5173616  84.5877647  37.8972840   9.7616017   3.5473973  62.7801323
  10.2726567   3.1636801  63.4927416  10.2547085   3.3316389  61.9885969
  59.1840076  70.0301504  70.0463915  59.9853563  70.1946926  69.5494032
  59.1274405  70.7632780  70.6592131  41.4805222  58.3339596  62.2124147
  42.0042944  57.5495672  62.0492315  41.2308025  58.6408186  61.3408041
  72.9256296  67.0663738  68.9376259  73.3442593  66.3745165  69.4497919
  72.1598625  67.3169422  69.4543934  67.4443960  82.6358032  65.2406979
  67.6132965  81.9881058  64.5564556  67.1689653  82.1184635  65.9974813
  29.5065117  38.6162305  17.2826433  30.3855634  38.9888263  17.2142804
  29.6255755  37.8130198  17.7895069   5.4721004  75.4320335  49.9461460
   6.2645251  75.6510115  49.4559002   5.0151128  74.7990036  49.3923712
  36.9360900  40.0964642   2.1296093  37.2399211  39.8140311   2.9922518
  37.7386403  40.2796698   1.6411605  79.4711637   2.6420978  63.3131981
  79.7024250   1.9674528  63.9516401  80.2290249   2.6902539  62.7304745
  15.5869722  50.8231306  50.5780840  14.6550786  50.9835625  50.7266426
  16.0078347  51.6611862  50.7698536   5.1967508   7.6619893  17.6692200
   4.6153039   8.3952731  17.8703320   4.6358722   7.0266259  17.2242939
   3.6666787   4.3050593  19.0574360   3.7987024   5.1216626  19.5390582
   4.0859851   3.6368063  19.5995176  86.3701725  20.5871964  28.0092788
  86.2827873  21.0151696  28.8610053  87.2277260  20.8658528  27.6880693
   8.2775539  18.9102376   7.0230091   8.8692915  19.6544886   7.1333247
   8.5344023  18.2960367   7.7107722  51.4255857  64.5056391  24.9057245
  51.3994408  65.2677631  25.4842687  52.3376226  64.2162657  24.9318647
  57.6105070  48.6459923  20.6452394  58.3792639  48.4422398  21.1778998
  57.1637154  49.3426514  21.1261463   7.7290982  11.2374604  40.8644629
   7.6091748  11.2362111  39.9148059   8.6193496  10.9104538  40.9938860
  68.5426235   5.2296358  21.4477801  67.8780031   5.5322015  22.0666218
  69.3603754   5.2516431  21.9447970  69.3294287  10.4797387  61.4055872
  69.6836281   9.8874211  62.0688629  68.7719965   9.9237895  60.8611441
  24.9829340  79.0332222  71.3353252  24.7021413  79.0307808  70.4202414
  25.3999758  78.1807423  71.4601660  30.2324033  67.5097322  24.6151161
  30.6848192  67.9793501  25.3158379  30.0123620  68.1873560  23.9758682
  80.8374023  24.8361778  36.3123703  81.1202812  25.6487632  36.7317986
  80.5029869  25.1111078  35.4586673   5.8859366  16.6100347  66.5573311
   6.8355983  16.5867233  66.6749382   5.7614654  16.9929385  65.6889296
  39.8356318  41.7374325  11.8524885  39.1821742  41.0379934  11.8550193
  40.5899572  41.3588476  11.4009345  18.7235284  65.6615305  42.9973698
  18.4170294  66.2730503  42.3277950  19.4592929  66.1108303  43.4133148
  66.2188148  50.1272154   4.8761418  66.3867617  50.1797295   5.8170289
  66.9896030  49.6856785   4.5195368  32.2148871  30.0213099   6.8915087
  33.1512928  29.8758578   7.0264912  31.8267536  29.1479421   6.9445324
  60.9019852  53.6203241   8.7496817  61.6127062  53.5722637   8.1103104
  60.8526134  54.5471573   8.9837080  86.0769176  18.8089192   3.3121291
  85.9675694  18.9446938   2.3709378  86.7077065  18.0920804   3.3790225
  35.8508229  67.9641819  33.3170819  35.0567293  67.4691153  33.5184646
  35.6396317  68.4390497  32.5132585  89.9908161   7.8266871  59.9775219
  89.7436523   8.6497152  60.3991413  89.5255566   7.8368974  59.1410685
  38.2290077  16.5564966  45.5684233  38.8303757  15.8229995  45.4396868
  37.7252173  16.5986693  44.7556210   6.3324308  12.0827985  71.4387655
   5.4790145  12.0937395  71.0054159   6.8108320  12.8118992  71.0440779
  35.7677007  62.8673744  29.7516680  36.6849208  62.6115561  29.8491168
  35.7486129  63.3896446  28.9497328  90.9921741   5.2215976  57.0029974
  91.5943623   4.5351833  56.7158794  90.8932018   5.7886666  56.2382317
  62.6780605  82.2473812  71.8799925  62.3274422  82.7642727  71.1546516
  62.2394514  82.5956249  72.6562500  88.4399986  75.7060003  65.6557035
  88.3885574  76.2064505  66.4700317  87.5959206  75.2585936  65.5958033
  77.6086187  32.3316039  74.2191211  77.4993229  32.8319109  75.0278120
  77.8964043  32.9780997  73.5745603  18.4301805   6.0970998  66.8322086
  18.8178813   6.7972893  67.3572350  17.7328777   6.5270406  66.3370800
   1.8980132  34.4472671  17.4634087   2.3896137  34.0211177  18.1655180
   2.5559390  34.9457645  16.9787788  57.7115297  45.4439545  59.4366837
  57.6963520  46.3980579  59.5120955  58.4180593  45.2639246  58.8164949
  40.1939249  48.6190891  12.6038158  39.9748921  48.6615562  11.6729808
  41.0384607  48.1693602  12.6308703  61.7660141  69.9934196  68.4133291
  62.5930309  70.3585768  68.0987835  62.0214701  69.2196321  68.9155531
  82.6363182  13.0621743  63.9915800  82.4896812  13.9673686  63.7170744
  82.6320553  13.0982757  64.9480867  13.5505378  42.0643282  24.9942946
  13.2526469  42.8944969  25.3661942  14.2465270  41.7738438  25.5837440
  28.1253290  48.0430317  14.9098063  28.4599257  48.7199068  15.4981220
  28.2226706  48.4172630  14.0341890  81.3503361  15.5498290  49.7512674
  80.7273674  15.2565265  50.4161835  82.2087860  15.3340828  50.1156044
  15.2173579  52.8236103  72.9508400  15.5613327  53.1750345  72.1296120
  14.3419242  53.2033730  73.0258417  16.1148226  28.8268447  72.6897335
  16.6348970  28.4274507  73.3870411  15.4558873  29.3465662  73.1500864
  47.9669380  74.5377922  25.6423903  48.3393669  75.3475475  25.9914231
  47.0319414  74.6005964  25.8375025  39.9403334  39.3330002   8.2994109
  40.1342392  39.6452594   9.1832250  38.9956284  39.4543886   8.2043892
  25.7279658  78.9635468  41.9190359  26.4527440  78.4323120  42.2487593
  25.9457207  79.8570204  42.1845961   1.6687240  25.9218884  48.7034750
   2.4757761  26.3982964  48.5087061   1.6786337  25.8126283  49.6543694
  43.6312151   7.2644907  73.3870602  44.2477703   7.5083274  74.0774441
  44.1850710   7.0451158  72.6378298  29.1941476  26.6485953  68.2085323
  29.7645926  26.3973308  67.4821091  29.3481302  25.9802389  68.8762331
  38.0737948   2.8405443  65.8302402  38.8624620   2.6471046  66.3370132
  37.3582172   2.7605596  66.4609432  39.4504690  55.5554247  14.1781795
  39.1388965  55.4756594  15.0797296  38.7740922  55.1284981  13.6523604
  78.8366413  12.3454213  39.5873857  78.3133316  12.7683091  38.9065433
  78.2248878  11.7556143  40.0279760  52.8846598  31.8777037  23.6857533
  53.2779884  32.7068353  23.9578938  52.8525543  31.9299579  22.7305198
   8.8319236  32.5857759  49.6426296   9.7628087  32.5580215  49.4214630
   8.5467523  33.4577417  49.3695211  88.8687134   5.4826033  33.5786772
  88.5058784   6.3641661  33.6648655  89.7570610   5.5540276  33.9279175
  18.0831957  34.8831725  68.7429094  17.6192272  34.2215133  69.2559147
  17.5852370  35.6883550  68.8841534  80.6958961  59.4630194  28.3083558
  80.2802849  60.2916098  28.0697417  80.1493168  58.7936401  27.8967595
  30.6617785  80.5880070   7.7893573  31.1800623  80.9090614   8.5272884
  31.2409878  79.9728966   7.3394871  84.8117733   5.1723146  62.0815420
  83.9589310   5.0374633  62.4947071  85.4336166   5.1692218  62.8092289
  70.8587503  83.6839390  60.5475473  71.0808897  82.9928493  59.9236202
  69.9611473  83.9295101  60.3234100  61.1249876  33.5466409  24.4451070
  61.3808298  33.3814240  25.3525662  60.5443430  34.3060160  24.4944263
  23.0469298   2.7949616  42.8321505  23.5199833   2.0918533  43.2772255
  23.7342167   3.3607110  42.4803019  83.3493805  69.0813637  37.1692681
  82.6918888  69.7472286  37.3706675  83.5787296  68.7063503  38.0195570
  11.0944557  10.9525216  33.6691713  11.0012615  11.8828464  33.4641266
  11.5928578  10.9360957  34.4862151  53.6577797  52.5431919  18.1547320
  53.7383366  51.7748499  17.5895822  54.5060587  52.9812574  18.0857432
  87.6326847  51.0755587  74.0910244  87.5065422  52.0174932  74.2054129
  86.8874550  50.7969999  73.5587883  90.8805752   5.2092153  28.0857587
  91.3907623   5.0044590  27.3021650  90.9190369   4.4106108  28.6120510
  66.9309998  10.5653143  22.3428369  67.8179884  10.3176904  22.6039219
  66.3652658   9.9352074  22.7890897  28.4138441  16.5230298  40.1588392
  28.9837980  17.0620155  39.6103168  27.7083373  16.2478805  39.5733643
  34.9047256  28.1773019   9.5940131  34.4864321  28.0005097  10.4366326
  34.2202115  28.0082130   8.9466488  87.9381466   9.7026229  70.6398058
  87.5801945   8.8153386  70.6110191  88.3620548   9.7622192  71.4959526
   4.4904560  28.3063436  61.1963892   4.0972885  28.7035990  61.9734621
   4.7176740  27.4178386  61.4705420  60.7869434  26.8550563  65.0418663
  60.7549334  26.8078470  65.9973669  59.8858118  26.6913772  64.7636557
  11.1810851  14.6411228  27.2439528  10.9489083  15.5661416  27.3256016
  10.7362366  14.2168605  27.9776716  54.9621344  83.2172966  62.8758812
  55.0835896  83.5799217  63.7533665  54.9937248  82.2689819  63.0021286
  76.2045193  22.6889443  65.7322407  75.6350994  21.9222188  65.6680012
  75.7592678  23.2666945  66.3520718   9.0258723  25.9922886  50.3866196
   8.2674909  25.4122210  50.4545164   8.9588332  26.5646291  51.1509275
  14.5454180  25.2995610  73.9157343  14.8110688  24.5499158  73.3831072
  14.3766701  25.9962702  73.2814217  40.7625055  42.5762844  20.9303451
  41.1698198  41.7468214  21.1799812  40.6171894  43.0310154  21.7600012
  45.9841824  62.0189238   5.5595291  46.2948942  62.4786139   4.7795451
  45.1734734  61.5937185   5.2799088   2.7198946  58.7254381  22.8647804
   3.4818542  58.6178398  23.4340549   2.6389596  57.8861237  22.4117494
  51.7989635  58.0343294  16.0674179  51.7636776  57.6087904  16.9240999
  52.3777437  57.4772501  15.5469263  13.0325019  29.2544818   9.3742889
  12.6716685  28.9535809   8.5403287  13.8255310  28.7321091   9.4945508
  26.2147498  35.2198148  12.3724711  26.7391038  34.6412039  11.8188488
  25.9931993  34.6855235  13.1351507  11.3262296  24.2447186  55.6009626
  12.1326244  23.8109541  55.8798981  10.6269276  23.6566019  55.8861446
  91.0040015   3.5317439  16.3282907  90.4291727   3.5941333  15.5654597
  91.5923085   2.8042746  16.1260164   9.5348501  37.6528811  46.5556240
   9.3434060  36.8100905  46.9670677  10.1911688  38.0539656  47.1253681
  85.9763527   0.2901216  21.0572314  86.8283367   0.0010772  21.3840556
  85.3575134   0.0313288  21.7400908  25.7239318  73.2383251   7.2155750
  25.7083178  74.1692114   7.4379098  25.0519490  72.8473949   7.7740055
  53.4532595  18.0502999  15.6859839  53.4463072  18.6832118  14.9679267
  54.3702173  18.0055654  15.9569538  17.5024009  22.8844261  64.5953941
  17.2800386  23.6188793  64.0232372  17.3488140  23.2152104  65.4803944
  62.4385595  62.7670145  64.6063089  62.1586895  61.9890022  65.0885916
  62.6098108  62.4503040  63.7194061  83.2493019  81.5744877  57.1273232
  83.1080151  81.3294220  56.2128735  84.2010784  81.6180515  57.2193003
  78.9769220  78.9323044  43.5908556  78.4959793  78.1058788  43.5467243
  79.2225075  79.0176010  44.5120764  48.2046652  50.3482056  16.6872120
  49.0403843  49.8862886  16.7538047  47.8425932  50.0682545  15.8465171
  60.1398039  58.3664989  21.2977362  59.9954367  58.8157558  20.4649353
  60.5870104  59.0127850  21.8441391  45.2286148  58.1871414  14.5321381
  44.5490551  57.6212931  14.1657460  44.7463369  58.8640833  15.0068939
  31.5838504  19.7507501  71.8702316  32.2498441  19.1195059  72.1426582
  31.4595199  19.5798600  70.9366512  59.5414925  84.9015331  73.5493135
  58.8532925  84.5054150  73.0147934  59.2136717  84.8392200  74.4464636
  62.3752737  11.8605793  68.8157988  62.6313114  11.2185192  69.4779444
  63.0272532  11.7620707  68.1219292  77.0627499   4.0905464  62.3137665
  77.8509951   3.6856863  62.6756859  77.1479797   3.9765880  61.3672018
  55.9501266  42.2992277  23.6964226  55.2016830  42.1805811  24.2812204
  56.5473843  41.5867519  23.9242315  34.9818015  44.4292879   7.0174158
  35.6693745  44.5469141   6.3619471  35.4307508  44.5319462   7.8565443
  16.7508793  74.7752476  58.8165998  16.1167574  75.4690313  58.6355305
  17.5148726  75.2342129  59.1657400  71.2198353  47.1271992  69.2818260
  71.4022350  46.5118742  68.5716581  71.9117355  47.7849865  69.2124128
  80.2453136  31.3064122  22.5270057  80.0012779  32.1217155  22.0888805
  80.7216930  31.5875888  23.3081818  37.1062231  36.3458061   8.9402354
  36.5873694  35.9259868   8.2541066  37.4813223  37.1185660   8.5178924
  22.7030182  47.0455790   8.1257844  23.5488749  46.7605543   7.7800643
  22.3113418  47.5512934   7.4136961  15.3078794  24.9438047  53.2434130
  15.4320145  25.6920099  53.8273764  14.6699452  25.2473211  52.5975418
  76.8707466  23.0296874  50.1069450  76.6610146  23.2323027  49.1952467
  76.1955070  22.4065614  50.3752613  62.4909353  14.1403246  57.1466017
  61.8980980  13.5513818  57.6134205  62.0883274  14.2522740  56.2854338
  79.2463350  78.2953119  50.5602741  78.6067295  78.9920568  50.7075405
  78.7562943  77.6135826  50.1005602  16.8879211  42.3308182  71.1225510
  17.5912356  41.6815329  71.1259365  17.1891844  43.0133772  71.7222023
  72.0591593  15.6629121  57.5204659  72.7883482  16.1478949  57.9068661
  72.4383545  15.2289951  56.7561626  77.2071362  26.5903616  41.8896818
  77.2314358  25.8193636  42.4564266  77.6814604  26.3237810  41.1021662
  11.0691071   5.1494277  19.5543230  10.6020617   5.8678126  19.1276813
  10.8135939   5.2108061  20.4747462  56.2432146  69.0140009  32.3721027
  56.8687391  68.5837460  31.7891526  56.7362547  69.1731262  33.1769776
  75.1994848  11.8154323  52.9553270  74.4314528  11.3299561  53.2564449
  74.9475574  12.1531081  52.0958281  27.6890087   3.3033150  52.4271393
  28.1498528   3.8558310  53.0584717  27.1289921   3.9095315  51.9422531
  91.3340270  91.3340270  91.3340270 109.4712190 109.4712190 109.4712190
